                         Program Version 4.2.0 -  RELEASE  -
|  1> # ORCA input file
|  2> # SCF done       -190.216461333283          0.000782027438
|  3> ! CAM-B3LYP def2-SVP def2/J RIJCOSX Grid4 TightSCF
|  4> %maxcore 5000
|  5> %tddft
|  6>     Mode sTDDFT
|  7>     Ethresh 5.0
|  8>     maxcore 5000
|  9> end
| 10>
| 11> %pal
| 12>   nprocs 6
| 13>   end
| 14> * xyz 0 1
| 15>    C       -0.60993         5.11580         8.75232
| 16>    N       -0.91022         4.33083         7.67619
| 17>    C       -1.28797         2.94195         7.73061
| 18>    C       -2.72215         2.76747         8.22314
| 19>    C       -0.86864         5.06444         6.47821
| 20>    O       -1.09993         4.57441         5.37656
| 21>    C       -0.50720         6.38706         6.88722
| 22>    C       -0.35306         6.38139         8.31359
| 23>    C        0.03925         7.71453         8.72028
| 24>    O        0.28499         8.20384         9.80039
| 25>    N        0.10842         8.43720         7.50995
| 26>    C        0.42741         9.84277         7.49589
| 27>    C       -0.81919        10.70851         7.32785
| 28>    C       -0.21618         7.66224         6.42003
| 29>    C       -0.19990         8.12082         5.08038
| 30>    C       -0.56740         7.29484         4.07057
| 31>    N       -0.60512         7.63860         2.77076
| 32>    C       -0.77776         6.65556         1.71354
| 33>    C        0.41941         5.70803         1.64409
| 34>    C        0.37726         4.82425         0.39819
| 35>    N        1.61515         4.06847         0.34609
| 36>    S        2.69382         4.97919        -0.63011
| 37>    N        1.45675         5.48026        -1.71740
| 38>    C        0.26419         5.69077        -0.91601
| 39>    C        0.16414         7.18088        -0.58869
| 40>    C       -0.97343         7.44881         0.39518
| 41>    N       -1.04688         8.84264         0.78273
| 42>    S       -0.03540         9.11317         2.12054
| 43>    C       -1.59410         9.84366         0.05239
| 44>    C       -2.14355         9.72753        -1.17674
| 45>    C       -2.74868        10.80964        -1.87610
| 46>    S       -3.23943        10.58655        -3.53127
| 47>    C       -3.79946        12.23155        -3.66856
| 48>    C       -3.60948        12.89623        -2.45165
| 49>    C       -3.02047        12.09561        -1.45964
| 50>    C       -3.94946        14.23344        -2.19082
| 51>    N       -4.20526        15.31763        -1.91203
| 52>    C       -4.31326        12.67843        -4.90257
| 53>    C       -4.81321        13.92154        -5.15600
| 54>    C       -5.27071        14.34486        -6.42387
| 55>    C       -5.23811        13.67872        -7.63726
| 56>    C       -5.74843        14.52524        -8.64856
| 57>    C       -6.15879        15.77571        -7.97741
| 58>    C       -5.86448        15.65495        -6.65801
| 59>    C       -6.83033        16.86185        -8.55173
| 60>    N       -7.42750        17.75502        -8.95765
| 61>    C       -5.81445        14.27033       -10.00566
| 62>    C       -6.15155        15.17824       -11.03926
| 63>    C       -6.10008        14.52528       -12.26013
| 64>    C       -5.71872        13.14859       -12.00463
| 65>    C       -5.52386        12.99008       -10.66537
| 66>    C       -5.14093        11.79340       -10.05439
| 67>    N       -4.82436        10.79211        -9.58598
| 68>    C       -6.34947        15.17185       -13.50104
| 69>    N       -6.66190        14.58554       -14.70723
| 70>    C       -6.92696        13.19404       -14.98527
| 71>    C       -8.16398        12.68244       -14.25413
| 72>    C       -6.86314        15.54424       -15.72010
| 73>    O       -7.16417        15.25137       -16.86092
| 74>    C       -6.62077        16.81127       -15.07418
| 75>    C       -6.31557        16.54987       -13.71274
| 76>    C       -6.01202        17.81172       -13.07661
| 77>    O       -5.66253        18.11080       -11.95544
| 78>    N       -6.19739        18.76681       -14.10365
| 79>    C       -5.96717        20.16807       -13.85185
| 80>    C       -4.58979        20.61323       -14.33799
| 81>    C       -6.54814        18.18326       -15.29139
| 82>    C       -6.79309        18.92244       -16.49604
| 83>    C       -7.11858        18.33955       -17.65211
| 84>    H       -0.59250         4.70667         9.74492
| 85>    H       -0.59372         2.40535         8.38431
| 86>    H       -1.19266         2.55595         6.71199
| 87>    H       -2.83592         3.17347         9.22589
| 88>    H       -2.98172         1.71267         8.24126
| 89>    H       -3.40957         3.28534         7.55899
| 90>    H        1.15138        10.04652         6.70116
| 91>    H        0.89438        10.05556         8.46175
| 92>    H       -1.32674        10.48147         6.39284
| 93>    H       -0.54297        11.75937         7.33180
| 94>    H       -1.50845        10.52659         8.14861
| 95>    H        0.12279         9.12876         4.86202
| 96>    H       -0.87579         6.27754         4.28328
| 97>    H       -1.68145         6.08109         1.94725
| 98>    H        0.42634         5.06867         2.52732
| 99>    H        1.35239         6.27387         1.64089
|100>    H       -0.46832         4.13382         0.47068
|101>    H        1.49295         3.12810        -0.01574
|102>    H        1.32154         4.79535        -2.45411
|103>    H       -0.61715         5.38754        -1.49055
|104>    H       -0.00177         7.73475        -1.51289
|105>    H        1.11373         7.51916        -0.17277
|106>    H       -1.93048         7.18136        -0.06558
|107>    H       -1.56511        10.79908         0.55573
|108>    H       -2.13433         8.78196        -1.69696
|109>    H       -2.81335        12.46160        -0.47026
|110>    H       -4.29365        11.95063        -5.70281
|111>    H       -4.86761        14.64674        -4.35606
|112>    H       -4.84801        12.69618        -7.81364
|113>    H       -6.04338        16.38536        -5.89040
|114>    H       -6.38768        16.21314       -10.89264
|115>    H       -5.56661        12.38169       -12.73927
|116>    H       -6.04808        12.58879       -14.74795
|117>    H       -7.09121        13.14423       -16.06637
|118>    H       -8.03883        12.74521       -13.17546
|119>    H       -8.34507        11.64543       -14.52347
|120>    H       -9.03291        13.27220       -14.53614
|121>    H       -6.02913        20.29240       -12.76687
|122>    H       -6.75747        20.76072       -14.32060
|123>    H       -3.81669        20.04607       -13.82557
|124>    H       -4.44682        21.66842       -14.12234
|125>    H       -4.48300        20.45541       -15.40922
|126>    H       -6.70653        19.99843       -16.43342
|127>    H       -7.20952        17.26977       -17.73882
|128>    H       -7.29973        18.92343       -18.53808
|129> *
|130>
|131>                          ****END OF INPUT****

CARTESIAN COORDINATES (ANGSTROEM)
---------------------------------
  C     -0.609930    5.115800    8.752320
  N     -0.910220    4.330830    7.676190
  C     -1.287970    2.941950    7.730610
  C     -2.722150    2.767470    8.223140
  C     -0.868640    5.064440    6.478210
  O     -1.099930    4.574410    5.376560
  C     -0.507200    6.387060    6.887220
  C     -0.353060    6.381390    8.313590
  C      0.039250    7.714530    8.720280
  O      0.284990    8.203840    9.800390
  N      0.108420    8.437200    7.509950
  C      0.427410    9.842770    7.495890
  C     -0.819190   10.708510    7.327850
  C     -0.216180    7.662240    6.420030
  C     -0.199900    8.120820    5.080380
  C     -0.567400    7.294840    4.070570
  N     -0.605120    7.638600    2.770760
  C     -0.777760    6.655560    1.713540
  C      0.419410    5.708030    1.644090
  C      0.377260    4.824250    0.398190
  N      1.615150    4.068470    0.346090
  S      2.693820    4.979190   -0.630110
  N      1.456750    5.480260   -1.717400
  C      0.264190    5.690770   -0.916010
  C      0.164140    7.180880   -0.588690
  C     -0.973430    7.448810    0.395180
  N     -1.046880    8.842640    0.782730
  S     -0.035400    9.113170    2.120540
  C     -1.594100    9.843660    0.052390
  C     -2.143550    9.727530   -1.176740
  C     -2.748680   10.809640   -1.876100
  S     -3.239430   10.586550   -3.531270
  C     -3.799460   12.231550   -3.668560
  C     -3.609480   12.896230   -2.451650
  C     -3.020470   12.095610   -1.459640
  C     -3.949460   14.233440   -2.190820
  N     -4.205260   15.317630   -1.912030
  C     -4.313260   12.678430   -4.902570
  C     -4.813210   13.921540   -5.156000
  C     -5.270710   14.344860   -6.423870
  C     -5.238110   13.678720   -7.637260
  C     -5.748430   14.525240   -8.648560
  C     -6.158790   15.775710   -7.977410
  C     -5.864480   15.654950   -6.658010
  C     -6.830330   16.861850   -8.551730
  N     -7.427500   17.755020   -8.957650
  C     -5.814450   14.270330  -10.005660
  C     -6.151550   15.178240  -11.039260
  C     -6.100080   14.525280  -12.260130
  C     -5.718720   13.148590  -12.004630
  C     -5.523860   12.990080  -10.665370
  C     -5.140930   11.793400  -10.054390
  N     -4.824360   10.792110   -9.585980
  C     -6.349470   15.171850  -13.501040
  N     -6.661900   14.585540  -14.707230
  C     -6.926960   13.194040  -14.985270
  C     -8.163980   12.682440  -14.254130
  C     -6.863140   15.544240  -15.720100
  O     -7.164170   15.251370  -16.860920
  C     -6.620770   16.811270  -15.074180
  C     -6.315570   16.549870  -13.712740
  C     -6.012020   17.811720  -13.076610
  O     -5.662530   18.110800  -11.955440
  N     -6.197390   18.766810  -14.103650
  C     -5.967170   20.168070  -13.851850
  C     -4.589790   20.613230  -14.337990
  C     -6.548140   18.183260  -15.291390
  C     -6.793090   18.922440  -16.496040
  C     -7.118580   18.339550  -17.652110
  H     -0.592500    4.706670    9.744920
  H     -0.593720    2.405350    8.384310
  H     -1.192660    2.555950    6.711990
  H     -2.835920    3.173470    9.225890
  H     -2.981720    1.712670    8.241260
  H     -3.409570    3.285340    7.558990
  H      1.151380   10.046520    6.701160
  H      0.894380   10.055560    8.461750
  H     -1.326740   10.481470    6.392840
  H     -0.542970   11.759370    7.331800
  H     -1.508450   10.526590    8.148610
  H      0.122790    9.128760    4.862020
  H     -0.875790    6.277540    4.283280
  H     -1.681450    6.081090    1.947250
  H      0.426340    5.068670    2.527320
  H      1.352390    6.273870    1.640890
  H     -0.468320    4.133820    0.470680
  H      1.492950    3.128100   -0.015740
  H      1.321540    4.795350   -2.454110
  H     -0.617150    5.387540   -1.490550
  H     -0.001770    7.734750   -1.512890
  H      1.113730    7.519160   -0.172770
  H     -1.930480    7.181360   -0.065580
  H     -1.565110   10.799080    0.555730
  H     -2.134330    8.781960   -1.696960
  H     -2.813350   12.461600   -0.470260
  H     -4.293650   11.950630   -5.702810
  H     -4.867610   14.646740   -4.356060
  H     -4.848010   12.696180   -7.813640
  H     -6.043380   16.385360   -5.890400
  H     -6.387680   16.213140  -10.892640
  H     -5.566610   12.381690  -12.739270
  H     -6.048080   12.588790  -14.747950
  H     -7.091210   13.144230  -16.066370
  H     -8.038830   12.745210  -13.175460
  H     -8.345070   11.645430  -14.523470
  H     -9.032910   13.272200  -14.536140
  H     -6.029130   20.292400  -12.766870
  H     -6.757470   20.760720  -14.320600
  H     -3.816690   20.046070  -13.825570
  H     -4.446820   21.668420  -14.122340
  H     -4.483000   20.455410  -15.409220
  H     -6.706530   19.998430  -16.433420
  H     -7.209520   17.269770  -17.738820
  H     -7.299730   18.923430  -18.538080

 Total Charge           Charge          ....    0
 Multiplicity           Mult            ....    1
 Number of Electrons    NEL             ....  508
 Basis Dimension        Dim             .... 1203

ORBITAL ENERGIES
----------------

  NO   OCC          E(Eh)            E(eV)
   0   2.0000     -89.013306     -2422.1752
   1   2.0000     -88.973777     -2421.0996
   2   2.0000     -88.964782     -2420.8548
   3   2.0000     -19.187724      -522.1245
   4   2.0000     -19.184599      -522.0395
   5   2.0000     -19.178988      -521.8868
   6   2.0000     -19.171379      -521.6797
   7   2.0000     -14.482020      -394.0758
   8   2.0000     -14.479186      -393.9987
   9   2.0000     -14.450001      -393.2045
  10   2.0000     -14.449951      -393.2032
  11   2.0000     -14.441622      -392.9765
  12   2.0000     -14.439809      -392.9272
  13   2.0000     -14.427149      -392.5827
  14   2.0000     -14.426458      -392.5639
  15   2.0000     -14.411543      -392.1580
  16   2.0000     -14.402375      -391.9086
  17   2.0000     -14.394602      -391.6970
  18   2.0000     -10.369556      -282.1700
  19   2.0000     -10.368025      -282.1283
  20   2.0000     -10.364149      -282.0228
  21   2.0000     -10.353930      -281.7448
  22   2.0000     -10.344984      -281.5013
  23   2.0000     -10.342153      -281.4243
  24   2.0000     -10.338408      -281.3224
  25   2.0000     -10.337090      -281.2865
  26   2.0000     -10.335758      -281.2503
  27   2.0000     -10.334760      -281.2231
  28   2.0000     -10.332398      -281.1588
  29   2.0000     -10.325383      -280.9680
  30   2.0000     -10.325124      -280.9609
  31   2.0000     -10.321113      -280.8517
  32   2.0000     -10.319751      -280.8147
  33   2.0000     -10.319639      -280.8116
  34   2.0000     -10.315687      -280.7041
  35   2.0000     -10.312226      -280.6099
  36   2.0000     -10.308682      -280.5135
  37   2.0000     -10.307851      -280.4909
  38   2.0000     -10.306617      -280.4573
  39   2.0000     -10.305526      -280.4276
  40   2.0000     -10.305042      -280.4144
  41   2.0000     -10.304022      -280.3867
  42   2.0000     -10.303770      -280.3798
  43   2.0000     -10.302911      -280.3564
  44   2.0000     -10.302173      -280.3364
  45   2.0000     -10.301301      -280.3127
  46   2.0000     -10.300303      -280.2855
  47   2.0000     -10.298330      -280.2318
  48   2.0000     -10.296846      -280.1914
  49   2.0000     -10.295710      -280.1605
  50   2.0000     -10.295703      -280.1603
  51   2.0000     -10.292135      -280.0632
  52   2.0000     -10.287942      -279.9491
  53   2.0000     -10.286265      -279.9035
  54   2.0000     -10.285822      -279.8915
  55   2.0000     -10.281435      -279.7721
  56   2.0000     -10.278184      -279.6836
  57   2.0000     -10.276679      -279.6426
  58   2.0000     -10.274590      -279.5858
  59   2.0000     -10.271931      -279.5134
  60   2.0000     -10.270807      -279.4829
  61   2.0000     -10.261069      -279.2179
  62   2.0000     -10.260039      -279.1899
  63   2.0000     -10.258949      -279.1602
  64   2.0000     -10.258829      -279.1569
  65   2.0000     -10.258480      -279.1474
  66   2.0000     -10.254435      -279.0374
  67   2.0000     -10.245878      -278.8045
  68   2.0000     -10.236547      -278.5506
  69   2.0000      -8.103764      -220.5146
  70   2.0000      -8.069632      -219.5858
  71   2.0000      -8.056570      -219.2304
  72   2.0000      -6.076103      -165.3392
  73   2.0000      -6.071686      -165.2190
  74   2.0000      -6.060423      -164.9125
  75   2.0000      -6.038809      -164.3244
  76   2.0000      -6.034825      -164.2159
  77   2.0000      -6.031747      -164.1322
  78   2.0000      -6.029689      -164.0762
  79   2.0000      -6.023342      -163.9035
  80   2.0000      -6.013599      -163.6383
  81   2.0000      -1.129537       -30.7363
  82   2.0000      -1.125634       -30.6301
  83   2.0000      -1.122617       -30.5480
  84   2.0000      -1.119980       -30.4762
  85   2.0000      -1.108435       -30.1621
  86   2.0000      -1.067729       -29.0544
  87   2.0000      -1.059586       -28.8328
  88   2.0000      -1.052456       -28.6388
  89   2.0000      -1.051090       -28.6016
  90   2.0000      -1.049148       -28.5488
  91   2.0000      -1.039019       -28.2731
  92   2.0000      -1.012269       -27.5452
  93   2.0000      -1.005926       -27.3726
  94   2.0000      -0.990795       -26.9609
  95   2.0000      -0.988960       -26.9110
  96   2.0000      -0.975428       -26.5428
  97   2.0000      -0.969929       -26.3931
  98   2.0000      -0.967009       -26.3137
  99   2.0000      -0.941969       -25.6323
 100   2.0000      -0.924200       -25.1488
 101   2.0000      -0.922080       -25.0911
 102   2.0000      -0.915373       -24.9086
 103   2.0000      -0.903551       -24.5869
 104   2.0000      -0.891553       -24.2604
 105   2.0000      -0.887214       -24.1423
 106   2.0000      -0.873000       -23.7555
 107   2.0000      -0.868481       -23.6326
 108   2.0000      -0.865736       -23.5579
 109   2.0000      -0.862883       -23.4802
 110   2.0000      -0.859076       -23.3766
 111   2.0000      -0.854166       -23.2430
 112   2.0000      -0.843018       -22.9397
 113   2.0000      -0.837043       -22.7771
 114   2.0000      -0.825106       -22.4523
 115   2.0000      -0.816989       -22.2314
 116   2.0000      -0.811270       -22.0758
 117   2.0000      -0.806936       -21.9578
 118   2.0000      -0.791701       -21.5433
 119   2.0000      -0.784849       -21.3568
 120   2.0000      -0.777219       -21.1492
 121   2.0000      -0.770178       -20.9576
 122   2.0000      -0.760737       -20.7007
 123   2.0000      -0.756855       -20.5951
 124   2.0000      -0.754961       -20.5435
 125   2.0000      -0.752433       -20.4748
 126   2.0000      -0.734775       -19.9942
 127   2.0000      -0.721247       -19.6261
 128   2.0000      -0.712919       -19.3995
 129   2.0000      -0.712079       -19.3766
 130   2.0000      -0.705532       -19.1985
 131   2.0000      -0.704541       -19.1715
 132   2.0000      -0.700530       -19.0624
 133   2.0000      -0.694141       -18.8885
 134   2.0000      -0.682802       -18.5800
 135   2.0000      -0.679377       -18.4868
 136   2.0000      -0.677067       -18.4239
 137   2.0000      -0.665071       -18.0975
 138   2.0000      -0.660823       -17.9819
 139   2.0000      -0.655882       -17.8475
 140   2.0000      -0.653596       -17.7853
 141   2.0000      -0.650916       -17.7123
 142   2.0000      -0.642301       -17.4779
 143   2.0000      -0.641240       -17.4490
 144   2.0000      -0.634311       -17.2605
 145   2.0000      -0.633524       -17.2391
 146   2.0000      -0.620963       -16.8973
 147   2.0000      -0.616039       -16.7633
 148   2.0000      -0.607795       -16.5389
 149   2.0000      -0.603522       -16.4227
 150   2.0000      -0.598532       -16.2869
 151   2.0000      -0.592583       -16.1250
 152   2.0000      -0.585061       -15.9203
 153   2.0000      -0.582525       -15.8513
 154   2.0000      -0.582273       -15.8445
 155   2.0000      -0.579260       -15.7625
 156   2.0000      -0.573148       -15.5961
 157   2.0000      -0.571448       -15.5499
 158   2.0000      -0.568259       -15.4631
 159   2.0000      -0.564117       -15.3504
 160   2.0000      -0.563606       -15.3365
 161   2.0000      -0.562547       -15.3077
 162   2.0000      -0.554838       -15.0979
 163   2.0000      -0.549235       -14.9454
 164   2.0000      -0.540822       -14.7165
 165   2.0000      -0.537987       -14.6394
 166   2.0000      -0.537161       -14.6169
 167   2.0000      -0.534598       -14.5471
 168   2.0000      -0.531484       -14.4624
 169   2.0000      -0.525858       -14.3093
 170   2.0000      -0.524945       -14.2845
 171   2.0000      -0.521458       -14.1896
 172   2.0000      -0.521373       -14.1873
 173   2.0000      -0.517789       -14.0898
 174   2.0000      -0.516874       -14.0649
 175   2.0000      -0.515878       -14.0378
 176   2.0000      -0.514088       -13.9890
 177   2.0000      -0.513043       -13.9606
 178   2.0000      -0.512524       -13.9465
 179   2.0000      -0.507376       -13.8064
 180   2.0000      -0.505753       -13.7622
 181   2.0000      -0.501780       -13.6541
 182   2.0000      -0.500105       -13.6085
 183   2.0000      -0.498150       -13.5553
 184   2.0000      -0.497617       -13.5408
 185   2.0000      -0.495506       -13.4834
 186   2.0000      -0.494738       -13.4625
 187   2.0000      -0.492317       -13.3966
 188   2.0000      -0.489800       -13.3281
 189   2.0000      -0.488680       -13.2977
 190   2.0000      -0.485645       -13.2151
 191   2.0000      -0.480793       -13.0830
 192   2.0000      -0.478811       -13.0291
 193   2.0000      -0.475911       -12.9502
 194   2.0000      -0.475082       -12.9276
 195   2.0000      -0.471921       -12.8416
 196   2.0000      -0.470618       -12.8062
 197   2.0000      -0.468176       -12.7397
 198   2.0000      -0.468040       -12.7360
 199   2.0000      -0.463282       -12.6065
 200   2.0000      -0.462868       -12.5953
 201   2.0000      -0.457470       -12.4484
 202   2.0000      -0.455737       -12.4012
 203   2.0000      -0.454767       -12.3748
 204   2.0000      -0.451869       -12.2960
 205   2.0000      -0.450809       -12.2671
 206   2.0000      -0.449838       -12.2407
 207   2.0000      -0.448718       -12.2102
 208   2.0000      -0.444408       -12.0930
 209   2.0000      -0.442850       -12.0506
 210   2.0000      -0.441370       -12.0103
 211   2.0000      -0.438825       -11.9410
 212   2.0000      -0.438538       -11.9332
 213   2.0000      -0.436950       -11.8900
 214   2.0000      -0.436026       -11.8649
 215   2.0000      -0.435731       -11.8569
 216   2.0000      -0.433348       -11.7920
 217   2.0000      -0.432685       -11.7740
 218   2.0000      -0.430406       -11.7120
 219   2.0000      -0.427973       -11.6457
 220   2.0000      -0.423988       -11.5373
 221   2.0000      -0.423820       -11.5327
 222   2.0000      -0.421998       -11.4832
 223   2.0000      -0.420291       -11.4367
 224   2.0000      -0.418624       -11.3913
 225   2.0000      -0.417789       -11.3686
 226   2.0000      -0.412108       -11.2140
 227   2.0000      -0.408714       -11.1217
 228   2.0000      -0.406579       -11.0636
 229   2.0000      -0.405201       -11.0261
 230   2.0000      -0.401314       -10.9203
 231   2.0000      -0.391878       -10.6635
 232   2.0000      -0.389667       -10.6034
 233   2.0000      -0.386907       -10.5283
 234   2.0000      -0.375451       -10.2165
 235   2.0000      -0.364223        -9.9110
 236   2.0000      -0.347174        -9.4471
 237   2.0000      -0.343120        -9.3368
 238   2.0000      -0.340689        -9.2706
 239   2.0000      -0.336073        -9.1450
 240   2.0000      -0.334150        -9.0927
 241   2.0000      -0.331383        -9.0174
 242   2.0000      -0.327489        -8.9114
 243   2.0000      -0.318678        -8.6717
 244   2.0000      -0.317840        -8.6489
 245   2.0000      -0.311809        -8.4847
 246   2.0000      -0.302453        -8.2302
 247   2.0000      -0.301086        -8.1930
 248   2.0000      -0.297979        -8.1084
 249   2.0000      -0.295203        -8.0329
 250   2.0000      -0.284383        -7.7385
 251   2.0000      -0.250064        -6.8046
 252   2.0000      -0.232904        -6.3376
 253   2.0000      -0.231058        -6.2874
 254   0.0000      -0.123070        -3.3489
 255   0.0000      -0.054219        -1.4754
 256   0.0000      -0.043754        -1.1906
 257   0.0000      -0.038393        -1.0447
 258   0.0000      -0.006237        -0.1697

MULLIKEN ATOMIC CHARGES
-----------------------
   0 C :    0.014358
   1 N :   -0.250286
   2 C :    0.116115
   3 C :   -0.000784
   4 C :    0.166432
   5 O :   -0.271131
   6 C :   -0.129130
   7 C :    0.018430
   8 C :    0.160516
   9 O :   -0.187428
  10 N :   -0.274930
  11 C :    0.105332
  12 C :    0.001791
  13 C :    0.167415
  14 C :   -0.101463
  15 C :    0.152498
  16 N :   -0.357169
  17 C :    0.059185
  18 C :    0.244457
  19 C :   -0.050839
  20 N :   -0.300155
  21 S :    0.219763
  22 N :   -0.310116
  23 C :   -0.027400
  24 C :    0.267659
  25 C :    0.013883
  26 N :   -0.354589
  27 S :    0.364357
  28 C :    0.123428
  29 C :    0.018431
  30 C :   -0.054376
  31 S :    0.147079
  32 C :   -0.061256
  33 C :   -0.072540
  34 C :   -0.007233
  35 C :   -0.166381
  36 N :    0.113459
  37 C :    0.063534
  38 C :   -0.033403
  39 C :    0.122825
  40 C :   -0.134282
  41 C :    0.111992
  42 C :   -0.081577
  43 C :   -0.008852
  44 C :   -0.176401
  45 N :    0.142892
  46 C :    0.122460
  47 C :   -0.106589
  48 C :    0.028637
  49 C :   -0.032622
  50 C :   -0.105008
  51 C :   -0.177232
  52 N :    0.126598
  53 C :    0.156442
  54 N :   -0.261042
  55 C :    0.096193
  56 C :   -0.005535
  57 C :    0.156116
  58 O :   -0.209291
  59 C :   -0.074380
  60 C :   -0.052045
  61 C :    0.143383
  62 O :   -0.183552
  63 N :   -0.259070
  64 C :    0.092958
  65 C :    0.003945
  66 C :    0.124490
  67 C :   -0.040342
  68 C :    0.016770
  69 H :    0.005310
  70 H :    0.014799
  71 H :    0.035025
  72 H :    0.014135
  73 H :    0.018620
  74 H :    0.027063
  75 H :    0.016709
  76 H :    0.041035
  77 H :    0.012793
  78 H :    0.019739
  79 H :    0.029309
  80 H :   -0.031959
  81 H :    0.051508
  82 H :    0.030120
  83 H :    0.033725
  84 H :   -0.018926
  85 H :    0.008256
  86 H :    0.127981
  87 H :    0.128337
  88 H :   -0.000169
  89 H :    0.010093
  90 H :   -0.017540
  91 H :    0.020590
  92 H :    0.012757
  93 H :   -0.017175
  94 H :   -0.013413
  95 H :   -0.000842
  96 H :   -0.003439
  97 H :   -0.003116
  98 H :    0.005661
  99 H :    0.024547
 100 H :   -0.017609
 101 H :    0.022705
 102 H :    0.047437
 103 H :    0.031596
 104 H :    0.023897
 105 H :    0.026729
 106 H :    0.051192
 107 H :    0.024857
 108 H :    0.030440
 109 H :    0.023942
 110 H :    0.014671
 111 H :   -0.015889
 112 H :    0.058238
 113 H :    0.030870
Sum of atomic charges:   -0.0000000

LOEWDIN ATOMIC CHARGES
----------------------
   0 C :    0.063378
   1 N :    0.003365
   2 C :    0.037825
   3 C :   -0.061304
   4 C :    0.067274
   5 O :   -0.256112
   6 C :   -0.165072
   7 C :   -0.122430
   8 C :    0.086473
   9 O :   -0.190259
  10 N :   -0.012187
  11 C :    0.035849
  12 C :   -0.062353
  13 C :    0.104197
  14 C :   -0.150874
  15 C :    0.078506
  16 N :   -0.139506
  17 C :    0.023243
  18 C :   -0.035575
  19 C :   -0.010620
  20 N :   -0.222340
  21 S :    0.361380
  22 N :   -0.227348
  23 C :   -0.010795
  24 C :   -0.034609
  25 C :    0.016487
  26 N :   -0.148932
  27 S :    0.446520
  28 C :    0.040594
  29 C :   -0.140105
  30 C :   -0.140619
  31 S :    0.456563
  32 C :   -0.157263
  33 C :   -0.092103
  34 C :   -0.052222
  35 C :   -0.025761
  36 N :   -0.058443
  37 C :   -0.007685
  38 C :   -0.022863
  39 C :   -0.003034
  40 C :   -0.046271
  41 C :    0.051740
  42 C :   -0.073542
  43 C :    0.053637
  44 C :   -0.034037
  45 N :   -0.051934
  46 C :    0.018547
  47 C :    0.013476
  48 C :   -0.044848
  49 C :    0.039438
  50 C :   -0.086618
  51 C :   -0.028901
  52 N :   -0.077025
  53 C :    0.072055
  54 N :   -0.003484
  55 C :    0.033834
  56 C :   -0.061755
  57 C :    0.080825
  58 O :   -0.201999
  59 C :   -0.129186
  60 C :   -0.107477
  61 C :    0.083108
  62 O :   -0.177078
  63 N :    0.001740
  64 C :    0.036032
  65 C :   -0.061371
  66 C :    0.087769
  67 C :   -0.054997
  68 C :    0.029263
  69 H :    0.027697
  70 H :    0.022952
  71 H :    0.033335
  72 H :    0.022301
  73 H :    0.027852
  74 H :    0.030245
  75 H :    0.020476
  76 H :    0.036526
  77 H :    0.020819
  78 H :    0.028685
  79 H :    0.031906
  80 H :    0.015817
  81 H :    0.039883
  82 H :    0.035772
  83 H :    0.038602
  84 H :    0.025076
  85 H :    0.022943
  86 H :    0.048170
  87 H :    0.047463
  88 H :    0.019750
  89 H :    0.029218
  90 H :    0.025241
  91 H :    0.031083
  92 H :    0.028102
  93 H :    0.022850
  94 H :    0.033621
  95 H :    0.036775
  96 H :    0.037535
  97 H :    0.029256
  98 H :    0.039569
  99 H :    0.037970
 100 H :    0.032524
 101 H :    0.018410
 102 H :    0.038350
 103 H :    0.024632
 104 H :    0.031841
 105 H :    0.032198
 106 H :    0.040528
 107 H :    0.023501
 108 H :    0.032508
 109 H :    0.030667
 110 H :    0.021602
 111 H :    0.030416
 112 H :    0.033172
 113 H :    0.029981

  Mayer bond orders larger than 0.100000
B(  0-C ,  1-N ) :   1.1656 B(  0-C ,  7-C ) :   1.4797 B(  0-C , 69-H ) :   0.9916
B(  1-N ,  2-C ) :   0.9498 B(  1-N ,  4-C ) :   1.0865 B(  2-C ,  3-C ) :   1.1195
B(  2-C , 70-H ) :   0.9532 B(  2-C , 71-H ) :   0.9345 B(  3-C , 72-H ) :   0.9693
B(  3-C , 73-H ) :   0.9686 B(  3-C , 74-H ) :   0.9670 B(  4-C ,  5-O ) :   1.9225
B(  4-C ,  6-C ) :   1.0538 B(  5-O , 81-H ) :   0.1496 B(  6-C ,  7-C ) :   1.1982
B(  6-C , 13-C ) :   1.3262 B(  7-C ,  8-C ) :   0.9449 B(  8-C ,  9-O ) :   2.1768
B(  8-C , 10-N ) :   1.0129 B( 10-N , 11-C ) :   0.9515 B( 10-N , 13-C ) :   1.1582
B( 11-C , 12-C ) :   1.1188 B( 11-C , 75-H ) :   0.9496 B( 11-C , 76-H ) :   0.9289
B( 12-C , 77-H ) :   0.9682 B( 12-C , 78-H ) :   0.9680 B( 12-C , 79-H ) :   0.9648
B( 13-C , 14-C ) :   1.2275 B( 14-C , 15-C ) :   1.5244 B( 14-C , 80-H ) :   0.9453
B( 15-C , 16-N ) :   1.1812 B( 15-C , 81-H ) :   0.9178 B( 16-N , 17-C ) :   0.9141
B( 16-N , 27-S ) :   0.9172 B( 17-C , 18-C ) :   1.1070 B( 17-C , 25-C ) :   0.9710
B( 17-C , 82-H ) :   0.9038 B( 18-C , 19-C ) :   1.0861 B( 18-C , 24-C ) :   0.1280
B( 18-C , 83-H ) :   0.9254 B( 18-C , 84-H ) :   0.8427 B( 19-C , 20-N ) :   1.0615
B( 19-C , 23-C ) :   0.9592 B( 19-C , 85-H ) :   0.9174 B( 20-N , 21-S ) :   0.9811
B( 20-N , 86-H ) :   0.9445 B( 21-S , 22-N ) :   0.9742 B( 22-N , 23-C ) :   1.0521
B( 22-N , 87-H ) :   0.9432 B( 23-C , 24-C ) :   1.0874 B( 23-C , 88-H ) :   0.9179
B( 24-C , 25-C ) :   1.1007 B( 24-C , 89-H ) :   0.9275 B( 24-C , 90-H ) :   0.8399
B( 25-C , 26-N ) :   0.9310 B( 25-C , 91-H ) :   0.8972 B( 26-N , 27-S ) :   0.9459
B( 26-N , 28-C ) :   1.1375 B( 28-C , 29-C ) :   1.6664 B( 28-C , 92-H ) :   0.9548
B( 29-C , 30-C ) :   1.1228 B( 29-C , 93-H ) :   0.9432 B( 30-C , 31-S ) :   1.1380
B( 30-C , 34-C ) :   1.4745 B( 31-S , 32-C ) :   1.1103 B( 32-C , 33-C ) :   1.4304
B( 32-C , 37-C ) :   1.1759 B( 33-C , 34-C ) :   1.3117 B( 33-C , 35-C ) :   1.1186
B( 34-C , 94-H ) :   0.9971 B( 35-C , 36-N ) :   2.9649 B( 37-C , 38-C ) :   1.6159
B( 37-C , 95-H ) :   0.9495 B( 38-C , 39-C ) :   1.1424 B( 38-C , 96-H ) :   0.9632
B( 39-C , 40-C ) :   1.5059 B( 39-C , 43-C ) :   1.0236 B( 40-C , 41-C ) :   1.1731
B( 40-C , 97-H ) :   0.9947 B( 41-C , 42-C ) :   1.0912 B( 41-C , 46-C ) :   1.3571
B( 42-C , 43-C ) :   1.6759 B( 42-C , 44-C ) :   1.0852 B( 43-C , 98-H ) :   1.0258
B( 44-C , 45-N ) :   2.9849 B( 46-C , 47-C ) :   1.1334 B( 46-C , 50-C ) :   1.1143
B( 47-C , 48-C ) :   1.5320 B( 47-C , 99-H ) :   0.9909 B( 48-C , 49-C ) :   1.0415
B( 48-C , 53-C ) :   1.0367 B( 49-C , 50-C ) :   1.6391 B( 49-C ,100-H ) :   1.0278
B( 50-C , 51-C ) :   1.0859 B( 51-C , 52-N ) :   2.9699 B( 53-C , 54-N ) :   1.1893
B( 53-C , 60-C ) :   1.3961 B( 54-N , 55-C ) :   0.9461 B( 54-N , 57-C ) :   1.0456
B( 55-C , 56-C ) :   1.1177 B( 55-C ,101-H ) :   0.9508 B( 55-C ,102-H ) :   0.9215
B( 56-C ,103-H ) :   0.9660 B( 56-C ,104-H ) :   0.9662 B( 56-C ,105-H ) :   0.9614
B( 57-C , 58-O ) :   2.0392 B( 57-C , 59-C ) :   0.9950 B( 59-C , 60-C ) :   1.2286
B( 59-C , 66-C ) :   1.3484 B( 60-C , 61-C ) :   0.9730 B( 61-C , 62-O ) :   2.0932
B( 61-C , 63-N ) :   1.0324 B( 63-N , 64-C ) :   0.9460 B( 63-N , 66-C ) :   1.1857
B( 64-C , 65-C ) :   1.1199 B( 64-C ,106-H ) :   0.9287 B( 64-C ,107-H ) :   0.9504
B( 65-C ,108-H ) :   0.9638 B( 65-C ,109-H ) :   0.9682 B( 65-C ,110-H ) :   0.9686
B( 66-C , 67-C ) :   1.1267 B( 67-C , 68-C ) :   1.8861 B( 67-C ,111-H ) :   0.9541
B( 68-C ,112-H ) :   0.9263 B( 68-C ,113-H ) :   0.9442

-----------------------------------------------------------------------------
         ABSORPTION SPECTRUM VIA TRANSITION ELECTRIC DIPOLE MOMENTS
-----------------------------------------------------------------------------
State   Energy  Wavelength   fosc         T2         TX        TY        TZ
        (cm-1)    (nm)                  (au**2)     (au)      (au)      (au)
-----------------------------------------------------------------------------
   0    8649.1   1156.2   0.503788978  19.17578  -0.80357   1.51744  -4.02833
   1   12880.4    776.4   0.226451040   5.78788  -0.84447   0.46307  -2.20461
   2   17172.6    582.3   0.002563427   0.04914   0.11257  -0.14759   0.12119
   3   19605.7    510.1   0.397484739   6.67442  -0.85004   1.43856  -1.97038
   4   19890.3    502.8   0.045162760   0.74751  -0.45442   0.02948  -0.73494
   5   22867.1    437.3   0.184624417   2.65799  -0.16235  -1.59998   0.26774
   6   24089.0    415.1   0.008961780   0.12248   0.08893   0.32524   0.09374
   7   24543.1    407.4   0.506265542   6.79085   0.11320   2.09316  -1.54813
   8   25640.4    390.0   0.020648198   0.26511  -0.05021  -0.27698   0.43113
   9   26581.8    376.2   0.737035883   9.12809   1.21696  -0.83080   2.63759
  10   26817.4    372.9   0.083831409   1.02912   0.29243  -0.63285  -0.73696
  11   29091.3    343.7   0.058020272   0.65659   0.05301   0.72182   0.36436
  12   29414.5    340.0   0.039575636   0.44294  -0.16461   0.29904   0.57133
  13   30305.8    330.0   0.000804982   0.00874   0.07078  -0.06107   0.00204
  14   30775.1    324.9   0.003378471   0.03614   0.04483   0.06280   0.17374
  15   30825.8    324.4   0.038395562   0.41005  -0.10885  -0.04761  -0.62924
  16   30931.5    323.3   0.033257936   0.35397  -0.18789   0.07508  -0.55949
  17   31233.7    320.2   0.028328602   0.29859  -0.29856   0.37141  -0.26741
  18   31893.7    313.5   0.001071931   0.01106   0.00667  -0.07922  -0.06887
  19   32055.9    312.0   0.020057041   0.20598  -0.02070   0.31164   0.32929
  20   32132.5    311.2   0.014673872   0.15034   0.02726   0.32773   0.20540
  21   32477.4    307.9   0.005315997   0.05389  -0.04958   0.17475   0.14454
  22   32639.0    306.4   0.005681060   0.05730   0.01242   0.21301   0.10850
  23   33582.9    297.8   0.024488350   0.24006  -0.23167   0.36408   0.23202
  24   33867.3    295.3   0.064671525   0.62865   0.15284  -0.34010  -0.69973
  25   34291.9    291.6   0.002262840   0.02172  -0.11411   0.08662  -0.03463
  26   34787.6    287.5   0.000494725   0.00468   0.00548  -0.06473  -0.02148
  27   34815.1    287.2   0.021037703   0.19893  -0.18784   0.11132  -0.38892
  28   35013.0    285.6   0.084184994   0.79155   0.29623  -0.74557   0.38462
  29   35666.1    280.4   0.009637720   0.08896  -0.05823   0.15085  -0.25062
  30   35790.7    279.4   0.045675825   0.42014   0.02096  -0.08294  -0.64251
  31   36046.7    277.4   0.000714266   0.00652   0.01983  -0.07823  -0.00312
  32   36245.1    275.9   0.051466307   0.46747   0.15220  -0.28674   0.60173
  33   36588.2    273.3   0.400655284   3.60500  -0.26896   0.10447  -1.87663
  34   36855.1    271.3   0.061029493   0.54515  -0.05815   0.07936  -0.73176
  35   37273.3    268.3   0.019658748   0.17363  -0.11840   0.32659   0.23013
  36   37627.1    265.8   0.027073239   0.23687  -0.24004   0.10414  -0.41037
  37   37809.4    264.5   0.000092554   0.00081  -0.00864  -0.00870  -0.02560
  38   38098.7    262.5   0.128877028   1.11363  -0.53831   0.80079  -0.42729
  39   38625.9    258.9   0.015716753   0.13396   0.18464  -0.16411  -0.27006
  40   39238.1    254.9   0.012997804   0.10905  -0.06018   0.11317  -0.30434
  41   39703.4    251.9   0.020638133   0.17113   0.10850   0.07005   0.39300
  42   39892.3    250.7   0.028408218   0.23444  -0.19409   0.12276  -0.42626
  43   39944.5    250.3   0.002902598   0.02392  -0.06581  -0.05937  -0.12675
  44   40042.6    249.7   0.004445289   0.03655  -0.06921  -0.10487  -0.14408

FINAL SINGLE POINT ENERGY     -4064.136862708649

DIPOLE MOMENT
-------------
                                X             Y             Z
Electronic contribution:     -1.55625      16.87507     -16.41933
Nuclear contribution   :      2.44163     -19.51379      16.02529
                        -----------------------------------------
Total Dipole Moment    :      0.88538      -2.63872      -0.39404
                        -----------------------------------------
Magnitude (a.u.)       :      2.81106
Magnitude (Debye)      :      7.14514

Rotational constants in cm-1:     0.002353     0.000189     0.000181
Rotational constants in MHz :    70.531260     5.664491     5.419394

                             ****ORCA TERMINATED NORMALLY****
TOTAL RUN TIME: 0 days 0 hours 12 minutes 10 seconds 3 msec
