                         Program Version 4.2.0 -  RELEASE  -
|  1> # ORCA input file
|  2> # SCF done       -172.658289099127          0.000690499466
|  3> ! CAM-B3LYP def2-SVP def2/J RIJCOSX Grid4 TightSCF
|  4> %maxcore 5000
|  5> %tddft
|  6>     Mode sTDDFT
|  7>     Ethresh 5.0
|  8>     maxcore 5000
|  9> end
| 10>
| 11> %pal
| 12>   nprocs 6
| 13>   end
| 14> * xyz 0 1
| 15>    C        0.09769        -2.03910         4.50551
| 16>    S       -0.54533        -3.22086         3.43624
| 17>    C        0.91816        -3.27004         2.51665
| 18>    C        1.87596        -2.40135         3.05809
| 19>    C        1.36806        -1.70242         4.19369
| 20>    C        3.24498        -2.32077         2.60938
| 21>    O        3.75324        -2.90083         1.67836
| 22>    C        4.16444        -1.39651         3.46561
| 23>    F        4.22191        -1.78130         4.75265
| 24>    F        5.40916        -1.39998         3.00038
| 25>    F        3.74483        -0.11845         3.46200
| 26>    C        0.96299        -4.13665         1.38315
| 27>    S       -0.06493        -5.55133         1.37819
| 28>    C        0.44874        -5.98644        -0.21763
| 29>    C        1.36931        -5.05142        -0.70436
| 30>    C        1.65466        -4.01781         0.19845
| 31>    C        1.92668        -5.15938        -1.99039
| 32>    N        2.35475        -5.27171        -3.04834
| 33>    C       -0.00987        -7.13109        -0.91013
| 34>    C       -0.90628        -8.00764        -0.38366
| 35>    C       -1.45692        -9.18883        -0.93027
| 36>    N       -1.24913        -9.80253        -2.14319
| 37>    C       -0.43502        -9.36308        -3.25199
| 38>    C       -1.10591        -8.24470        -4.04570
| 39>    C       -2.01043       -10.98400        -2.26468
| 40>    O       -1.98841       -11.69185        -3.25121
| 41>    C       -2.72758       -11.09172        -1.01255
| 42>    C       -2.36739        -9.98282        -0.22563
| 43>    C       -3.06225       -10.07305         1.04264
| 44>    O       -3.05954        -9.35838         2.02093
| 45>    N       -3.80832       -11.26139         0.93505
| 46>    C       -4.68268       -11.69325         2.00010
| 47>    C       -6.14151       -11.34488         1.71685
| 48>    C       -3.62871       -11.87987        -0.28029
| 49>    C       -4.25724       -13.08488        -0.64780
| 50>    C       -4.06757       -13.67922        -1.86352
| 51>    C       -4.69302       -14.88316        -2.25625
| 52>    C       -5.59091       -15.66916        -1.55727
| 53>    C       -5.96047       -16.78516        -2.35363
| 54>    C       -5.21667       -16.64646        -3.62303
| 55>    C       -4.47149       -15.51504        -3.55189
| 56>    C       -5.25921       -17.52000        -4.71587
| 57>    N       -5.27806       -18.21727        -5.62847
| 58>    C       -6.83657       -17.79457        -2.02017
| 59>    C       -7.22066       -18.91448        -2.81499
| 60>    C       -8.11732       -19.67898        -2.10753
| 61>    C       -8.32938       -19.05130        -0.81607
| 62>    C       -7.57149       -17.92366        -0.74910
| 63>    C       -7.51732       -17.05468         0.34452
| 64>    N       -7.49266       -16.35132         1.25352
| 65>    C       -8.75500       -20.88283        -2.52971
| 66>    S       -9.86563       -21.72871        -1.47063
| 67>    C      -10.14498       -22.93193        -2.63034
| 68>    C       -9.42893       -22.71761        -3.79187
| 69>    C       -8.63673       -21.54230        -3.72311
| 70>    C       -9.44239       -23.55518        -4.97733
| 71>    O       -8.82088       -23.35730        -5.98859
| 72>    C      -10.36131       -24.80972        -4.87821
| 73>    F       -9.99971       -25.61103        -3.85931
| 74>    F      -11.64439       -24.46940        -4.65662
| 75>    F      -10.33123       -25.54022        -5.98639
| 76>    H       -0.50863        -1.66439         5.30552
| 77>    H        1.92390        -0.97714         4.75699
| 78>    H        2.33329        -3.21617        -0.02297
| 79>    H        0.40858        -7.25694        -1.89732
| 80>    H       -1.27951        -7.80530         0.61483
| 81>    H       -0.31305       -10.23912        -3.89611
| 82>    H        0.55055        -9.06281        -2.88869
| 83>    H       -2.02534        -8.61133        -4.49552
| 84>    H       -0.44177        -7.90756        -4.83634
| 85>    H       -1.34865        -7.39729        -3.40843
| 86>    H       -4.34731       -11.16542         2.89716
| 87>    H       -4.56330       -12.76823         2.15886
| 88>    H       -6.25251       -10.26891         1.60679
| 89>    H       -6.76319       -11.67651         2.54341
| 90>    H       -6.48960       -11.82496         0.80511
| 91>    H       -4.91386       -13.54995         0.07259
| 92>    H       -3.40435       -13.21359        -2.58095
| 93>    H       -5.96732       -15.48475        -0.57142
| 94>    H       -3.81621       -15.12628        -4.30926
| 95>    H       -6.85827       -19.11201        -3.80344
| 96>    H       -8.98296       -19.43110        -0.05214
| 97>    H      -10.81995       -23.73232        -2.39961
| 98>    H       -8.01422       -21.21973        -4.53688
| 99> *
|100>
|101>                          ****END OF INPUT****

CARTESIAN COORDINATES (ANGSTROEM)
---------------------------------
  C      0.097690   -2.039100    4.505510
  S     -0.545330   -3.220860    3.436240
  C      0.918160   -3.270040    2.516650
  C      1.875960   -2.401350    3.058090
  C      1.368060   -1.702420    4.193690
  C      3.244980   -2.320770    2.609380
  O      3.753240   -2.900830    1.678360
  C      4.164440   -1.396510    3.465610
  F      4.221910   -1.781300    4.752650
  F      5.409160   -1.399980    3.000380
  F      3.744830   -0.118450    3.462000
  C      0.962990   -4.136650    1.383150
  S     -0.064930   -5.551330    1.378190
  C      0.448740   -5.986440   -0.217630
  C      1.369310   -5.051420   -0.704360
  C      1.654660   -4.017810    0.198450
  C      1.926680   -5.159380   -1.990390
  N      2.354750   -5.271710   -3.048340
  C     -0.009870   -7.131090   -0.910130
  C     -0.906280   -8.007640   -0.383660
  C     -1.456920   -9.188830   -0.930270
  N     -1.249130   -9.802530   -2.143190
  C     -0.435020   -9.363080   -3.251990
  C     -1.105910   -8.244700   -4.045700
  C     -2.010430  -10.984000   -2.264680
  O     -1.988410  -11.691850   -3.251210
  C     -2.727580  -11.091720   -1.012550
  C     -2.367390   -9.982820   -0.225630
  C     -3.062250  -10.073050    1.042640
  O     -3.059540   -9.358380    2.020930
  N     -3.808320  -11.261390    0.935050
  C     -4.682680  -11.693250    2.000100
  C     -6.141510  -11.344880    1.716850
  C     -3.628710  -11.879870   -0.280290
  C     -4.257240  -13.084880   -0.647800
  C     -4.067570  -13.679220   -1.863520
  C     -4.693020  -14.883160   -2.256250
  C     -5.590910  -15.669160   -1.557270
  C     -5.960470  -16.785160   -2.353630
  C     -5.216670  -16.646460   -3.623030
  C     -4.471490  -15.515040   -3.551890
  C     -5.259210  -17.520000   -4.715870
  N     -5.278060  -18.217270   -5.628470
  C     -6.836570  -17.794570   -2.020170
  C     -7.220660  -18.914480   -2.814990
  C     -8.117320  -19.678980   -2.107530
  C     -8.329380  -19.051300   -0.816070
  C     -7.571490  -17.923660   -0.749100
  C     -7.517320  -17.054680    0.344520
  N     -7.492660  -16.351320    1.253520
  C     -8.755000  -20.882830   -2.529710
  S     -9.865630  -21.728710   -1.470630
  C    -10.144980  -22.931930   -2.630340
  C     -9.428930  -22.717610   -3.791870
  C     -8.636730  -21.542300   -3.723110
  C     -9.442390  -23.555180   -4.977330
  O     -8.820880  -23.357300   -5.988590
  C    -10.361310  -24.809720   -4.878210
  F     -9.999710  -25.611030   -3.859310
  F    -11.644390  -24.469400   -4.656620
  F    -10.331230  -25.540220   -5.986390
  H     -0.508630   -1.664390    5.305520
  H      1.923900   -0.977140    4.756990
  H      2.333290   -3.216170   -0.022970
  H      0.408580   -7.256940   -1.897320
  H     -1.279510   -7.805300    0.614830
  H     -0.313050  -10.239120   -3.896110
  H      0.550550   -9.062810   -2.888690
  H     -2.025340   -8.611330   -4.495520
  H     -0.441770   -7.907560   -4.836340
  H     -1.348650   -7.397290   -3.408430
  H     -4.347310  -11.165420    2.897160
  H     -4.563300  -12.768230    2.158860
  H     -6.252510  -10.268910    1.606790
  H     -6.763190  -11.676510    2.543410
  H     -6.489600  -11.824960    0.805110
  H     -4.913860  -13.549950    0.072590
  H     -3.404350  -13.213590   -2.580950
  H     -5.967320  -15.484750   -0.571420
  H     -3.816210  -15.126280   -4.309260
  H     -6.858270  -19.112010   -3.803440
  H     -8.982960  -19.431100   -0.052140
  H    -10.819950  -23.732320   -2.399610
  H     -8.014220  -21.219730   -4.536880

 Total Charge           Charge          ....    0
 Multiplicity           Mult            ....    1
 Number of Electrons    NEL             ....  450
 Basis Dimension        Dim             ....  981

ORBITAL ENERGIES
----------------

  NO   OCC          E(Eh)            E(eV)
   0   2.0000     -88.991194     -2421.5735
   1   2.0000     -88.986311     -2421.4406
   2   2.0000     -88.985774     -2421.4260
   3   2.0000     -24.812436      -675.1807
   4   2.0000     -24.812217      -675.1748
   5   2.0000     -24.811418      -675.1530
   6   2.0000     -24.810202      -675.1199
   7   2.0000     -24.807493      -675.0462
   8   2.0000     -24.804556      -674.9663
   9   2.0000     -19.242972      -523.6279
  10   2.0000     -19.239372      -523.5299
  11   2.0000     -19.202213      -522.5188
  12   2.0000     -19.199891      -522.4556
  13   2.0000     -14.462923      -393.5561
  14   2.0000     -14.462099      -393.5337
  15   2.0000     -14.418786      -392.3551
  16   2.0000     -14.413938      -392.2232
  17   2.0000     -14.412285      -392.1782
  18   2.0000     -10.522094      -286.3207
  19   2.0000     -10.520436      -286.2756
  20   2.0000     -10.393631      -282.8251
  21   2.0000     -10.392994      -282.8078
  22   2.0000     -10.384253      -282.5699
  23   2.0000     -10.383323      -282.5446
  24   2.0000     -10.351975      -281.6916
  25   2.0000     -10.348104      -281.5862
  26   2.0000     -10.347803      -281.5780
  27   2.0000     -10.339489      -281.3518
  28   2.0000     -10.335284      -281.2374
  29   2.0000     -10.335107      -281.2326
  30   2.0000     -10.330586      -281.1095
  31   2.0000     -10.330062      -281.0953
  32   2.0000     -10.329818      -281.0886
  33   2.0000     -10.325093      -280.9601
  34   2.0000     -10.325013      -280.9579
  35   2.0000     -10.321320      -280.8574
  36   2.0000     -10.320553      -280.8365
  37   2.0000     -10.319185      -280.7993
  38   2.0000     -10.316894      -280.7370
  39   2.0000     -10.315999      -280.7126
  40   2.0000     -10.314337      -280.6674
  41   2.0000     -10.314255      -280.6652
  42   2.0000     -10.314182      -280.6632
  43   2.0000     -10.312837      -280.6266
  44   2.0000     -10.312823      -280.6262
  45   2.0000     -10.312242      -280.6104
  46   2.0000     -10.309103      -280.5250
  47   2.0000     -10.308778      -280.5161
  48   2.0000     -10.308314      -280.5035
  49   2.0000     -10.307945      -280.4934
  50   2.0000     -10.305806      -280.4352
  51   2.0000     -10.305351      -280.4228
  52   2.0000     -10.303669      -280.3771
  53   2.0000     -10.302493      -280.3451
  54   2.0000     -10.300102      -280.2800
  55   2.0000     -10.291687      -280.0510
  56   2.0000     -10.291235      -280.0387
  57   2.0000     -10.273859      -279.5659
  58   2.0000     -10.273450      -279.5548
  59   2.0000     -10.267991      -279.4062
  60   2.0000     -10.265832      -279.3475
  61   2.0000      -8.086951      -220.0571
  62   2.0000      -8.082575      -219.9380
  63   2.0000      -8.081131      -219.8988
  64   2.0000      -6.055990      -164.7919
  65   2.0000      -6.051746      -164.6764
  66   2.0000      -6.051674      -164.6744
  67   2.0000      -6.050329      -164.6378
  68   2.0000      -6.049707      -164.6209
  69   2.0000      -6.047245      -164.5539
  70   2.0000      -6.046256      -164.5270
  71   2.0000      -6.045094      -164.4954
  72   2.0000      -6.043312      -164.4469
  73   2.0000      -1.400413       -38.1072
  74   2.0000      -1.398732       -38.0614
  75   2.0000      -1.303267       -35.4637
  76   2.0000      -1.302796       -35.4509
  77   2.0000      -1.301771       -35.4230
  78   2.0000      -1.300506       -35.3886
  79   2.0000      -1.159387       -31.5485
  80   2.0000      -1.156552       -31.4714
  81   2.0000      -1.143415       -31.1139
  82   2.0000      -1.136698       -30.9311
  83   2.0000      -1.073212       -29.2036
  84   2.0000      -1.064111       -28.9559
  85   2.0000      -1.027843       -27.9690
  86   2.0000      -1.026391       -27.9295
  87   2.0000      -1.014607       -27.6089
  88   2.0000      -1.008113       -27.4322
  89   2.0000      -1.006255       -27.3816
  90   2.0000      -0.991863       -26.9900
  91   2.0000      -0.990984       -26.9660
  92   2.0000      -0.986557       -26.8456
  93   2.0000      -0.938191       -25.5295
  94   2.0000      -0.927944       -25.2506
  95   2.0000      -0.921816       -25.0839
  96   2.0000      -0.899473       -24.4759
  97   2.0000      -0.893870       -24.3234
  98   2.0000      -0.885750       -24.1025
  99   2.0000      -0.880601       -23.9624
 100   2.0000      -0.875827       -23.8325
 101   2.0000      -0.868732       -23.6394
 102   2.0000      -0.863877       -23.5073
 103   2.0000      -0.854341       -23.2478
 104   2.0000      -0.841320       -22.8935
 105   2.0000      -0.837236       -22.7823
 106   2.0000      -0.826983       -22.5034
 107   2.0000      -0.822985       -22.3946
 108   2.0000      -0.818774       -22.2800
 109   2.0000      -0.804034       -21.8789
 110   2.0000      -0.791422       -21.5357
 111   2.0000      -0.774557       -21.0768
 112   2.0000      -0.766412       -20.8551
 113   2.0000      -0.744694       -20.2642
 114   2.0000      -0.741129       -20.1671
 115   2.0000      -0.731818       -19.9138
 116   2.0000      -0.727830       -19.8053
 117   2.0000      -0.723562       -19.6891
 118   2.0000      -0.718392       -19.5485
 119   2.0000      -0.714007       -19.4291
 120   2.0000      -0.710099       -19.3228
 121   2.0000      -0.695359       -18.9217
 122   2.0000      -0.693583       -18.8734
 123   2.0000      -0.688505       -18.7352
 124   2.0000      -0.683992       -18.6124
 125   2.0000      -0.683615       -18.6021
 126   2.0000      -0.682123       -18.5615
 127   2.0000      -0.681614       -18.5477
 128   2.0000      -0.678238       -18.4558
 129   2.0000      -0.674087       -18.3428
 130   2.0000      -0.657170       -17.8825
 131   2.0000      -0.651550       -17.7296
 132   2.0000      -0.650363       -17.6973
 133   2.0000      -0.647775       -17.6268
 134   2.0000      -0.637453       -17.3460
 135   2.0000      -0.630194       -17.1485
 136   2.0000      -0.614022       -16.7084
 137   2.0000      -0.604447       -16.4478
 138   2.0000      -0.599576       -16.3153
 139   2.0000      -0.594641       -16.1810
 140   2.0000      -0.589021       -16.0281
 141   2.0000      -0.586699       -15.9649
 142   2.0000      -0.579566       -15.7708
 143   2.0000      -0.571941       -15.5633
 144   2.0000      -0.563983       -15.3468
 145   2.0000      -0.562887       -15.3169
 146   2.0000      -0.560808       -15.2604
 147   2.0000      -0.560588       -15.2544
 148   2.0000      -0.559193       -15.2164
 149   2.0000      -0.557640       -15.1742
 150   2.0000      -0.554692       -15.0939
 151   2.0000      -0.545482       -14.8433
 152   2.0000      -0.543807       -14.7977
 153   2.0000      -0.539435       -14.6788
 154   2.0000      -0.538277       -14.6473
 155   2.0000      -0.536356       -14.5950
 156   2.0000      -0.535603       -14.5745
 157   2.0000      -0.532710       -14.4958
 158   2.0000      -0.530694       -14.4409
 159   2.0000      -0.529866       -14.4184
 160   2.0000      -0.528460       -14.3801
 161   2.0000      -0.527377       -14.3506
 162   2.0000      -0.524558       -14.2740
 163   2.0000      -0.523146       -14.2355
 164   2.0000      -0.520041       -14.1510
 165   2.0000      -0.518633       -14.1127
 166   2.0000      -0.515907       -14.0386
 167   2.0000      -0.511913       -13.9299
 168   2.0000      -0.510825       -13.9002
 169   2.0000      -0.510278       -13.8854
 170   2.0000      -0.510086       -13.8801
 171   2.0000      -0.504867       -13.7381
 172   2.0000      -0.502737       -13.6802
 173   2.0000      -0.501563       -13.6482
 174   2.0000      -0.500713       -13.6251
 175   2.0000      -0.499188       -13.5836
 176   2.0000      -0.497145       -13.5280
 177   2.0000      -0.495415       -13.4809
 178   2.0000      -0.493877       -13.4391
 179   2.0000      -0.489027       -13.3071
 180   2.0000      -0.486575       -13.2404
 181   2.0000      -0.484706       -13.1895
 182   2.0000      -0.482932       -13.1412
 183   2.0000      -0.481082       -13.0909
 184   2.0000      -0.479451       -13.0465
 185   2.0000      -0.478986       -13.0339
 186   2.0000      -0.471924       -12.8417
 187   2.0000      -0.468654       -12.7527
 188   2.0000      -0.463869       -12.6225
 189   2.0000      -0.462005       -12.5718
 190   2.0000      -0.458759       -12.4835
 191   2.0000      -0.456653       -12.4262
 192   2.0000      -0.453451       -12.3390
 193   2.0000      -0.451281       -12.2800
 194   2.0000      -0.450777       -12.2663
 195   2.0000      -0.447317       -12.1721
 196   2.0000      -0.445886       -12.1332
 197   2.0000      -0.443895       -12.0790
 198   2.0000      -0.441433       -12.0120
 199   2.0000      -0.440342       -11.9823
 200   2.0000      -0.438516       -11.9326
 201   2.0000      -0.436480       -11.8772
 202   2.0000      -0.434623       -11.8267
 203   2.0000      -0.428739       -11.6666
 204   2.0000      -0.425704       -11.5840
 205   2.0000      -0.423530       -11.5248
 206   2.0000      -0.417557       -11.3623
 207   2.0000      -0.403545       -10.9810
 208   2.0000      -0.401190       -10.9169
 209   2.0000      -0.387988       -10.5577
 210   2.0000      -0.363193        -9.8830
 211   2.0000      -0.363033        -9.8786
 212   2.0000      -0.360341        -9.8054
 213   2.0000      -0.358197        -9.7470
 214   2.0000      -0.351989        -9.5781
 215   2.0000      -0.350633        -9.5412
 216   2.0000      -0.347098        -9.4450
 217   2.0000      -0.341853        -9.3023
 218   2.0000      -0.341547        -9.2940
 219   2.0000      -0.332865        -9.0577
 220   2.0000      -0.325923        -8.8688
 221   2.0000      -0.308606        -8.3976
 222   2.0000      -0.296242        -8.0612
 223   2.0000      -0.288380        -7.8472
 224   2.0000      -0.240414        -6.5420
 225   0.0000      -0.138387        -3.7657
 226   0.0000      -0.096330        -2.6213
 227   0.0000      -0.061373        -1.6700
 228   0.0000      -0.049106        -1.3362
 229   0.0000      -0.032633        -0.8880

MULLIKEN ATOMIC CHARGES
-----------------------
   0 C :   -0.056052
   1 S :    0.161728
   2 C :   -0.109682
   3 C :    0.004703
   4 C :    0.055410
   5 C :    0.023988
   6 O :   -0.147558
   7 C :    0.462944
   8 F :   -0.167053
   9 F :   -0.131881
  10 F :   -0.169059
  11 C :   -0.083637
  12 S :    0.156563
  13 C :   -0.050730
  14 C :   -0.074433
  15 C :    0.072698
  16 C :   -0.183436
  17 N :    0.134871
  18 C :    0.007225
  19 C :   -0.043609
  20 C :    0.121591
  21 N :   -0.263226
  22 C :    0.095442
  23 C :    0.001700
  24 C :    0.161857
  25 O :   -0.206007
  26 C :   -0.058320
  27 C :   -0.041322
  28 C :    0.152184
  29 O :   -0.189089
  30 N :   -0.264793
  31 C :    0.094379
  32 C :    0.004925
  33 C :    0.156424
  34 C :   -0.015971
  35 C :    0.007446
  36 C :    0.111557
  37 C :   -0.122057
  38 C :    0.114342
  39 C :   -0.091055
  40 C :    0.002645
  41 C :   -0.173449
  42 N :    0.137991
  43 C :    0.113207
  44 C :   -0.134402
  45 C :    0.154972
  46 C :   -0.025519
  47 C :   -0.097424
  48 C :   -0.165526
  49 N :    0.125401
  50 C :   -0.093262
  51 S :    0.158241
  52 C :   -0.040023
  53 C :   -0.021824
  54 C :    0.004431
  55 C :    0.042784
  56 O :   -0.123259
  57 C :    0.467019
  58 F :   -0.169983
  59 F :   -0.170058
  60 F :   -0.130636
  61 H :    0.040314
  62 H :    0.021251
  63 H :    0.013797
  64 H :    0.010455
  65 H :    0.014337
  66 H :    0.045226
  67 H :    0.032676
  68 H :    0.025687
  69 H :    0.034223
  70 H :    0.020415
  71 H :    0.043976
  72 H :    0.032591
  73 H :    0.028431
  74 H :    0.031363
  75 H :    0.016707
  76 H :   -0.012447
  77 H :    0.006505
  78 H :   -0.000602
  79 H :    0.013392
  80 H :    0.003673
  81 H :    0.006859
  82 H :    0.055771
  83 H :    0.021068
Sum of atomic charges:   -0.0000000

LOEWDIN ATOMIC CHARGES
----------------------
   0 C :   -0.176304
   1 S :    0.474119
   2 C :   -0.142396
   3 C :   -0.118489
   4 C :   -0.039778
   5 C :    0.037977
   6 O :   -0.106214
   7 C :    0.141185
   8 F :   -0.060467
   9 F :   -0.033378
  10 F :   -0.061698
  11 C :   -0.186001
  12 S :    0.465782
  13 C :   -0.135323
  14 C :   -0.101684
  15 C :    0.004887
  16 C :   -0.031520
  17 N :   -0.051990
  18 C :   -0.025399
  19 C :   -0.022656
  20 C :    0.066118
  21 N :   -0.000144
  22 C :    0.035736
  23 C :   -0.061754
  24 C :    0.082927
  25 O :   -0.195462
  26 C :   -0.117282
  27 C :   -0.103672
  28 C :    0.079121
  29 O :   -0.191341
  30 N :   -0.002012
  31 C :    0.036826
  32 C :   -0.059742
  33 C :    0.080432
  34 C :   -0.021664
  35 C :    0.028354
  36 C :   -0.018421
  37 C :   -0.020204
  38 C :    0.039599
  39 C :   -0.081738
  40 C :    0.062635
  41 C :   -0.030590
  42 N :   -0.060091
  43 C :    0.037038
  44 C :   -0.024058
  45 C :   -0.027911
  46 C :    0.040538
  47 C :   -0.078761
  48 C :   -0.027246
  49 N :   -0.068810
  50 C :   -0.166282
  51 S :    0.482340
  52 C :   -0.143678
  53 C :   -0.117011
  54 C :   -0.002559
  55 C :    0.038681
  56 O :   -0.092656
  57 C :    0.139957
  58 F :   -0.063095
  59 F :   -0.063302
  60 F :   -0.031493
  61 H :    0.031345
  62 H :    0.034613
  63 H :    0.043137
  64 H :    0.041457
  65 H :    0.040248
  66 H :    0.038581
  67 H :    0.024585
  68 H :    0.031622
  69 H :    0.035978
  70 H :    0.022033
  71 H :    0.038543
  72 H :    0.026258
  73 H :    0.031565
  74 H :    0.034378
  75 H :    0.022642
  76 H :    0.035164
  77 H :    0.038786
  78 H :    0.030926
  79 H :    0.043404
  80 H :    0.035259
  81 H :    0.032623
  82 H :    0.031205
  83 H :    0.045670

  Mayer bond orders larger than 0.100000
B(  0-C ,  1-S ) :   1.1343 B(  0-C ,  4-C ) :   1.6118 B(  0-C , 61-H ) :   0.9645
B(  1-S ,  2-C ) :   1.2116 B(  2-C ,  3-C ) :   1.4610 B(  2-C , 11-C ) :   1.1089
B(  3-C ,  4-C ) :   1.2277 B(  3-C ,  5-C ) :   0.9872 B(  4-C , 62-H ) :   0.9646
B(  5-C ,  6-O ) :   2.1618 B(  5-C ,  7-C ) :   0.8803 B(  7-C ,  8-F ) :   1.1271
B(  7-C ,  9-F ) :   1.1956 B(  7-C , 10-F ) :   1.1186 B( 11-C , 12-S ) :   1.1094
B( 11-C , 15-C ) :   1.5133 B( 12-S , 13-C ) :   1.1326 B( 13-C , 14-C ) :   1.4218
B( 13-C , 18-C ) :   1.2082 B( 14-C , 15-C ) :   1.2817 B( 14-C , 16-C ) :   1.1035
B( 15-C , 63-H ) :   0.9920 B( 16-C , 17-N ) :   3.0096 B( 18-C , 19-C ) :   1.5395
B( 18-C , 64-H ) :   0.9628 B( 19-C , 20-C ) :   1.2048 B( 19-C , 65-H ) :   0.9456
B( 20-C , 21-N ) :   1.1683 B( 20-C , 27-C ) :   1.3260 B( 21-N , 22-C ) :   0.9375
B( 21-N , 24-C ) :   1.0615 B( 22-C , 23-C ) :   1.1169 B( 22-C , 66-H ) :   0.9240
B( 22-C , 67-H ) :   0.9509 B( 23-C , 68-H ) :   0.9615 B( 23-C , 69-H ) :   0.9681
B( 23-C , 70-H ) :   0.9684 B( 24-C , 25-O ) :   2.0245 B( 24-C , 26-C ) :   0.9877
B( 25-O , 77-H ) :   0.1108 B( 26-C , 27-C ) :   1.2701 B( 26-C , 33-C ) :   1.2969
B( 27-C , 28-C ) :   0.9716 B( 28-C , 29-O ) :   2.1302 B( 28-C , 30-N ) :   1.0394
B( 30-N , 31-C ) :   0.9390 B( 30-N , 33-C ) :   1.1670 B( 31-C , 32-C ) :   1.1222
B( 31-C , 71-H ) :   0.9278 B( 31-C , 72-H ) :   0.9499 B( 32-C , 73-H ) :   0.9636
B( 32-C , 74-H ) :   0.9678 B( 32-C , 75-H ) :   0.9684 B( 33-C , 34-C ) :   1.1774
B( 34-C , 35-C ) :   1.5529 B( 34-C , 76-H ) :   0.9661 B( 35-C , 36-C ) :   1.1219
B( 35-C , 77-H ) :   0.9579 B( 36-C , 37-C ) :   1.5134 B( 36-C , 40-C ) :   1.0304
B( 37-C , 38-C ) :   1.1443 B( 37-C , 78-H ) :   0.9935 B( 38-C , 39-C ) :   1.1017
B( 38-C , 43-C ) :   1.3920 B( 39-C , 40-C ) :   1.6677 B( 39-C , 41-C ) :   1.0870
B( 40-C , 79-H ) :   1.0275 B( 41-C , 42-N ) :   2.9698 B( 43-C , 44-C ) :   1.1254
B( 43-C , 47-C ) :   1.1101 B( 44-C , 45-C ) :   1.5754 B( 44-C , 80-H ) :   1.0010
B( 45-C , 46-C ) :   1.0479 B( 45-C , 50-C ) :   1.0781 B( 46-C , 47-C ) :   1.6724
B( 46-C , 81-H ) :   1.0115 B( 47-C , 48-C ) :   1.0866 B( 48-C , 49-N ) :   2.9582
B( 50-C , 51-S ) :   1.1129 B( 50-C , 54-C ) :   1.5260 B( 51-S , 52-C ) :   1.2220
B( 52-C , 53-C ) :   1.5065 B( 52-C , 82-H ) :   0.9384 B( 53-C , 54-C ) :   1.2299
B( 53-C , 55-C ) :   0.9452 B( 54-C , 83-H ) :   1.0077 B( 55-C , 56-O ) :   2.2354
B( 55-C , 57-C ) :   0.8789 B( 57-C , 58-F ) :   1.1254 B( 57-C , 59-F ) :   1.1246
B( 57-C , 60-F ) :   1.1963

-----------------------------------------------------------------------------
         ABSORPTION SPECTRUM VIA TRANSITION ELECTRIC DIPOLE MOMENTS
-----------------------------------------------------------------------------
State   Energy  Wavelength   fosc         T2         TX        TY        TZ
        (cm-1)    (nm)                  (au**2)     (au)      (au)      (au)
-----------------------------------------------------------------------------
   0    9026.8   1107.8   0.802058710  29.25160   2.97311   4.50546   0.33623
   1   15802.9    632.8   0.062667346   1.30551   0.71027   0.87825  -0.17234
   2   16702.3    598.7   0.401418197   7.91219   1.51991   2.34366   0.33065
   3   18276.6    547.1   0.018604870   0.33513  -0.33734  -0.46922  -0.03413
   4   22950.0    435.7   0.285561126   4.09631  -0.72754  -1.64558  -0.92686
   5   24053.9    415.7   0.035649143   0.48791   0.01674  -0.32905  -0.61592
   6   24755.0    404.0   0.102902276   1.36847   0.35630  -0.03929  -1.11354
   7   25424.6    393.3   0.701581494   9.08445  -1.51013  -2.53887  -0.59841
   8   26364.8    379.3   0.000471539   0.00589   0.01693  -0.07439   0.00824
   9   28619.2    349.4   0.046040353   0.52961  -0.14101  -0.39997  -0.59140
  10   29825.5    335.3   0.105773974   1.16753  -0.07624  -0.66623  -0.84726
  11   29941.3    334.0   0.006814872   0.07493  -0.14826  -0.12786   0.19132
  12   30038.5    332.9   0.139469679   1.52854  -0.32832  -0.99887  -0.65039
  13   30907.4    323.5   0.004649205   0.04952   0.08287  -0.04589  -0.20136
  14   31377.2    318.7   0.004183976   0.04390   0.13060   0.05619  -0.15390
  15   31902.7    313.5   0.019737475   0.20368  -0.22044  -0.09400   0.38242
  16   32463.6    308.0   0.002537330   0.02573   0.12021   0.10568   0.01054
  17   32508.7    307.6   0.056047624   0.56759  -0.41348  -0.61907   0.11566
  18   32883.6    304.1   0.041679962   0.41728  -0.35295  -0.53812  -0.05599
  19   33893.3    295.0   0.027372246   0.26587  -0.00779  -0.34218  -0.38565
  20   34462.9    290.2   0.000355213   0.00339  -0.02355   0.01869  -0.04989
  21   34922.9    286.3   0.000195754   0.00185  -0.03439   0.02069  -0.01531
  22   35126.9    284.7   0.032985235   0.30914  -0.30148  -0.35143   0.30781
  23   35625.0    280.7   0.031980809   0.29554  -0.03445  -0.19238  -0.50729
  24   36158.1    276.6   0.000132406   0.00121  -0.02567   0.01929  -0.01320
  25   36375.0    274.9   0.000576645   0.00522   0.04309  -0.05045   0.02859
  26   36429.5    274.5   0.045288307   0.40927   0.41341   0.41807  -0.25214
  27   37019.1    270.1   0.023561256   0.20953   0.28702   0.20146  -0.29422
  28   37127.5    269.3   0.044873472   0.39790   0.56344   0.28352   0.00661
  29   37928.0    263.7   0.000565823   0.00491  -0.04708  -0.01871   0.04842
  30   38136.8    262.2   0.395698653   3.41583   0.48024   1.49220   0.97905
  31   38539.7    259.5   0.016261837   0.13891   0.10292   0.20462  -0.29402
  32   38704.2    258.4   0.015420340   0.13116   0.19964   0.07724  -0.29213
  33   39077.2    255.9   0.044168569   0.37211   0.27283   0.52026   0.16431
  34   39384.9    253.9   0.127825941   1.06848   0.30563   0.81538   0.55698
  35   39833.5    251.0   0.006820895   0.05637  -0.09240  -0.06118   0.20998
  36   40176.5    248.9   0.265101814   2.17228   0.47275  -0.38798  -1.34099

FINAL SINGLE POINT ENERGY     -4016.881192341385

DIPOLE MOMENT
-------------
                                X             Y             Z
Electronic contribution:      3.58943     -19.31535       5.32951
Nuclear contribution   :     -5.51012      20.11632      -2.73552
                        -----------------------------------------
Total Dipole Moment    :     -1.92070       0.80097       2.59399
                        -----------------------------------------
Magnitude (a.u.)       :      3.32557
Magnitude (Debye)      :      8.45292

Rotational constants in cm-1:     0.004414     0.000220     0.000212
Rotational constants in MHz :   132.319787     6.599472     6.354841

                             ****ORCA TERMINATED NORMALLY****
TOTAL RUN TIME: 0 days 0 hours 7 minutes 5 seconds 656 msec
