                         Program Version 4.2.0 -  RELEASE  -
|  1> # ORCA input file
|  2> # SCF done       -188.671310546840          0.000986190367
|  3> ! CAM-B3LYP def2-SVP def2/J RIJCOSX Grid4 TightSCF
|  4> %maxcore 5000
|  5> %tddft
|  6>     Mode sTDDFT
|  7>     Ethresh 5.0
|  8>     maxcore 5000
|  9> end
| 10>
| 11> %pal
| 12>   nprocs 6
| 13>   end
| 14> * xyz 0 1
| 15>    C        4.71329        -0.14796        -0.73024
| 16>    S        4.19208         1.43868        -1.06313
| 17>    C        2.59186         1.09541        -0.46323
| 18>    C        2.49206        -0.20877        -0.03131
| 19>    C        3.71671        -0.91586        -0.19451
| 20>    N        3.89449        -2.29106         0.15337
| 21>    O        5.01397        -2.74277         0.03546
| 22>    O        2.92155        -2.90336         0.52756
| 23>    C        1.28330        -0.74126         0.46235
| 24>    N        0.25401        -1.09599         0.81639
| 25>    C        1.57557         2.11544        -0.41681
| 26>    C        0.90106         2.56580         0.69469
| 27>    N        1.07866         2.14392         2.03573
| 28>    O        0.28927         2.55647         2.85676
| 29>    O        2.02888         1.42209         2.27915
| 30>    C        0.02487         3.65065         0.31665
| 31>    C        0.20763         3.90581        -1.00115
| 32>    C        1.15687         2.96155        -1.53449
| 33>    C        1.52487         2.77394        -2.85429
| 34>    C        1.92787         1.54405        -3.44231
| 35>    C        2.00268         1.70949        -4.79645
| 36>    C        1.71222         3.06387        -5.13209
| 37>    N        1.76572         3.46883        -6.47563
| 38>    O        2.26011         2.68714        -7.26833
| 39>    O        1.31463         4.55911        -6.80398
| 40>    C        1.44402         3.77813        -3.94386
| 41>    C        1.35378         5.13452        -3.63938
| 42>    C        1.26362         6.20806        -4.50722
| 43>    C        1.19586         7.52413        -4.08243
| 44>    S        1.19938         7.97482        -2.39940
| 45>    C        1.09541         9.67135        -2.76206
| 46>    C        1.07472         9.88823        -4.16799
| 47>    C        1.11755         8.68226        -4.91168
| 48>    C        1.08428         8.71251        -6.30734
| 49>    C        1.01498         9.92519        -6.96566
| 50>    C        0.97766         9.99219        -8.45602
| 51>    C        0.98304        11.11615        -6.21800
| 52>    C        1.01171        11.11189        -4.84528
| 53>    C        1.04873        10.63005        -1.75528
| 54>    C        0.96897        10.30477        -0.41638
| 55>    C        0.89238        11.20354         0.64876
| 56>    C        0.25246        10.95050         1.87164
| 57>    N       -0.27130         9.73182         2.34382
| 58>    O       -0.83031         9.75105         3.42399
| 59>    O       -0.12983         8.72668         1.66241
| 60>    C        0.07749        12.18246         2.57251
| 61>    C        0.64251        13.19264         1.85191
| 62>    C        1.27851        12.63517         0.69586
| 63>    C        2.25716        13.23525        -0.06461
| 64>    C        3.13320        12.60236        -1.03596
| 65>    C        3.86842        13.54733        -1.65689
| 66>    C        3.50659        14.82941        -1.09066
| 67>    N        4.08531        16.05938        -1.45292
| 68>    O        4.90242        16.05916        -2.35294
| 69>    O        3.72846        17.05258        -0.83735
| 70>    C        2.58569        14.65948        -0.08543
| 71>    C        2.08157        15.75567         0.72285
| 72>    C        2.48641        15.97496         1.97958
| 73>    C        2.13223        17.12667         2.76808
| 74>    S        3.34821        17.82511         3.78552
| 75>    C        2.31440        19.10596         4.25481
| 76>    C        1.08304        19.02175         3.66879
| 77>    C        0.97247        17.87760         2.82020
| 78>    N       -0.26666        17.53345         2.20919
| 79>    O       -0.43187        16.37292         1.88085
| 80>    O       -1.08706        18.41291         2.08027
| 81>    C        0.05029        19.95042         3.92591
| 82>    N       -0.74208        20.73325         4.18942
| 83>    H        5.71809        -0.46254        -0.93518
| 84>    H       -0.63461         4.14494         1.00352
| 85>    H       -0.35205         4.60867        -1.58627
| 86>    H        2.02408         0.61199        -2.92145
| 87>    H        2.22933         0.95753        -5.52921
| 88>    H        1.37608         5.37110        -2.58259
| 89>    H        1.22718         6.02472        -5.57106
| 90>    H        1.11094         7.79154        -6.86856
| 91>    H        0.97761         8.99829        -8.89389
| 92>    H        1.84244        10.53967        -8.82905
| 93>    H        0.08639        10.52316        -8.78732
| 94>    H        0.93375        12.05663        -6.74607
| 95>    H        0.98670        12.03955        -4.29555
| 96>    H        1.02171        11.66751        -2.05756
| 97>    H        0.82765         9.26029        -0.16104
| 98>    H       -0.43765        12.26149         3.51138
| 99>    H        0.64504        14.23051         2.11347
|100>    H        3.21245        11.54348        -1.17850
|101>    H        4.61748        13.42292        -2.41441
|102>    H        1.43349        16.45849         0.21585
|103>    H        3.21733        15.31562         2.42990
|104>    H        2.65588        19.85815         4.93825
|105> *
|106>
|107>                          ****END OF INPUT****

CARTESIAN COORDINATES (ANGSTROEM)
---------------------------------
  C      4.713290   -0.147960   -0.730240
  S      4.192080    1.438680   -1.063130
  C      2.591860    1.095410   -0.463230
  C      2.492060   -0.208770   -0.031310
  C      3.716710   -0.915860   -0.194510
  N      3.894490   -2.291060    0.153370
  O      5.013970   -2.742770    0.035460
  O      2.921550   -2.903360    0.527560
  C      1.283300   -0.741260    0.462350
  N      0.254010   -1.095990    0.816390
  C      1.575570    2.115440   -0.416810
  C      0.901060    2.565800    0.694690
  N      1.078660    2.143920    2.035730
  O      0.289270    2.556470    2.856760
  O      2.028880    1.422090    2.279150
  C      0.024870    3.650650    0.316650
  C      0.207630    3.905810   -1.001150
  C      1.156870    2.961550   -1.534490
  C      1.524870    2.773940   -2.854290
  C      1.927870    1.544050   -3.442310
  C      2.002680    1.709490   -4.796450
  C      1.712220    3.063870   -5.132090
  N      1.765720    3.468830   -6.475630
  O      2.260110    2.687140   -7.268330
  O      1.314630    4.559110   -6.803980
  C      1.444020    3.778130   -3.943860
  C      1.353780    5.134520   -3.639380
  C      1.263620    6.208060   -4.507220
  C      1.195860    7.524130   -4.082430
  S      1.199380    7.974820   -2.399400
  C      1.095410    9.671350   -2.762060
  C      1.074720    9.888230   -4.167990
  C      1.117550    8.682260   -4.911680
  C      1.084280    8.712510   -6.307340
  C      1.014980    9.925190   -6.965660
  C      0.977660    9.992190   -8.456020
  C      0.983040   11.116150   -6.218000
  C      1.011710   11.111890   -4.845280
  C      1.048730   10.630050   -1.755280
  C      0.968970   10.304770   -0.416380
  C      0.892380   11.203540    0.648760
  C      0.252460   10.950500    1.871640
  N     -0.271300    9.731820    2.343820
  O     -0.830310    9.751050    3.423990
  O     -0.129830    8.726680    1.662410
  C      0.077490   12.182460    2.572510
  C      0.642510   13.192640    1.851910
  C      1.278510   12.635170    0.695860
  C      2.257160   13.235250   -0.064610
  C      3.133200   12.602360   -1.035960
  C      3.868420   13.547330   -1.656890
  C      3.506590   14.829410   -1.090660
  N      4.085310   16.059380   -1.452920
  O      4.902420   16.059160   -2.352940
  O      3.728460   17.052580   -0.837350
  C      2.585690   14.659480   -0.085430
  C      2.081570   15.755670    0.722850
  C      2.486410   15.974960    1.979580
  C      2.132230   17.126670    2.768080
  S      3.348210   17.825110    3.785520
  C      2.314400   19.105960    4.254810
  C      1.083040   19.021750    3.668790
  C      0.972470   17.877600    2.820200
  N     -0.266660   17.533450    2.209190
  O     -0.431870   16.372920    1.880850
  O     -1.087060   18.412910    2.080270
  C      0.050290   19.950420    3.925910
  N     -0.742080   20.733250    4.189420
  H      5.718090   -0.462540   -0.935180
  H     -0.634610    4.144940    1.003520
  H     -0.352050    4.608670   -1.586270
  H      2.024080    0.611990   -2.921450
  H      2.229330    0.957530   -5.529210
  H      1.376080    5.371100   -2.582590
  H      1.227180    6.024720   -5.571060
  H      1.110940    7.791540   -6.868560
  H      0.977610    8.998290   -8.893890
  H      1.842440   10.539670   -8.829050
  H      0.086390   10.523160   -8.787320
  H      0.933750   12.056630   -6.746070
  H      0.986700   12.039550   -4.295550
  H      1.021710   11.667510   -2.057560
  H      0.827650    9.260290   -0.161040
  H     -0.437650   12.261490    3.511380
  H      0.645040   14.230510    2.113470
  H      3.212450   11.543480   -1.178500
  H      4.617480   13.422920   -2.414410
  H      1.433490   16.458490    0.215850
  H      3.217330   15.315620    2.429900
  H      2.655880   19.858150    4.938250

 Total Charge           Charge          ....    0
 Multiplicity           Mult            ....    1
 Number of Electrons    NEL             ....  492
 Basis Dimension        Dim             .... 1074

ORBITAL ENERGIES
----------------

  NO   OCC          E(Eh)            E(eV)
   0   2.0000     -89.009719     -2422.0776
   1   2.0000     -89.003773     -2421.9158
   2   2.0000     -89.003704     -2421.9139
   3   2.0000     -19.267639      -524.2991
   4   2.0000     -19.262371      -524.1558
   5   2.0000     -19.258343      -524.0462
   6   2.0000     -19.256345      -523.9918
   7   2.0000     -19.250028      -523.8199
   8   2.0000     -19.248464      -523.7773
   9   2.0000     -19.247408      -523.7486
  10   2.0000     -19.246570      -523.7258
  11   2.0000     -19.245921      -523.7081
  12   2.0000     -19.242326      -523.6103
  13   2.0000     -19.241632      -523.5914
  14   2.0000     -19.239836      -523.5425
  15   2.0000     -14.675054      -399.3285
  16   2.0000     -14.665141      -399.0588
  17   2.0000     -14.658367      -398.8744
  18   2.0000     -14.657689      -398.8560
  19   2.0000     -14.652525      -398.7155
  20   2.0000     -14.651464      -398.6866
  21   2.0000     -14.415734      -392.2721
  22   2.0000     -14.405901      -392.0045
  23   2.0000     -10.362485      -281.9776
  24   2.0000     -10.360798      -281.9317
  25   2.0000     -10.355526      -281.7882
  26   2.0000     -10.350459      -281.6503
  27   2.0000     -10.350446      -281.6499
  28   2.0000     -10.349826      -281.6331
  29   2.0000     -10.349822      -281.6330
  30   2.0000     -10.349339      -281.6198
  31   2.0000     -10.347030      -281.5570
  32   2.0000     -10.346730      -281.5488
  33   2.0000     -10.345017      -281.5022
  34   2.0000     -10.343899      -281.4718
  35   2.0000     -10.341724      -281.4126
  36   2.0000     -10.340886      -281.3898
  37   2.0000     -10.340353      -281.3753
  38   2.0000     -10.340293      -281.3737
  39   2.0000     -10.338467      -281.3240
  40   2.0000     -10.337378      -281.2944
  41   2.0000     -10.336250      -281.2637
  42   2.0000     -10.333168      -281.1798
  43   2.0000     -10.331951      -281.1467
  44   2.0000     -10.331811      -281.1429
  45   2.0000     -10.328598      -281.0554
  46   2.0000     -10.324595      -280.9465
  47   2.0000     -10.323357      -280.9128
  48   2.0000     -10.323266      -280.9103
  49   2.0000     -10.322932      -280.9013
  50   2.0000     -10.320514      -280.8355
  51   2.0000     -10.318413      -280.7783
  52   2.0000     -10.318273      -280.7745
  53   2.0000     -10.317791      -280.7614
  54   2.0000     -10.314349      -280.6677
  55   2.0000     -10.313979      -280.6576
  56   2.0000     -10.312867      -280.6274
  57   2.0000     -10.311783      -280.5979
  58   2.0000     -10.310140      -280.5532
  59   2.0000     -10.308204      -280.5005
  60   2.0000     -10.305973      -280.4398
  61   2.0000     -10.305235      -280.4197
  62   2.0000     -10.303181      -280.3638
  63   2.0000     -10.302133      -280.3353
  64   2.0000     -10.296684      -280.1870
  65   2.0000     -10.295828      -280.1637
  66   2.0000     -10.290438      -280.0171
  67   2.0000     -10.287129      -279.9270
  68   2.0000      -8.105787      -220.5697
  69   2.0000      -8.098878      -220.3817
  70   2.0000      -8.098511      -220.3717
  71   2.0000      -6.074960      -165.3081
  72   2.0000      -6.070519      -165.1872
  73   2.0000      -6.068242      -165.1253
  74   2.0000      -6.068059      -165.1203
  75   2.0000      -6.067450      -165.1037
  76   2.0000      -6.063680      -165.0011
  77   2.0000      -6.063506      -164.9964
  78   2.0000      -6.061451      -164.9405
  79   2.0000      -6.061177      -164.9330
  80   2.0000      -1.347737       -36.6738
  81   2.0000      -1.336481       -36.3675
  82   2.0000      -1.331722       -36.2380
  83   2.0000      -1.327656       -36.1273
  84   2.0000      -1.324963       -36.0541
  85   2.0000      -1.320707       -35.9383
  86   2.0000      -1.166024       -31.7291
  87   2.0000      -1.154727       -31.4217
  88   2.0000      -1.151272       -31.3277
  89   2.0000      -1.145170       -31.1617
  90   2.0000      -1.143670       -31.1208
  91   2.0000      -1.136922       -30.9372
  92   2.0000      -1.046076       -28.4652
  93   2.0000      -1.040916       -28.3248
  94   2.0000      -1.037654       -28.2360
  95   2.0000      -1.034020       -28.1371
  96   2.0000      -1.021932       -27.8082
  97   2.0000      -1.014863       -27.6158
  98   2.0000      -1.003392       -27.3037
  99   2.0000      -0.997740       -27.1499
 100   2.0000      -0.987384       -26.8681
 101   2.0000      -0.972836       -26.4722
 102   2.0000      -0.953816       -25.9547
 103   2.0000      -0.937138       -25.5008
 104   2.0000      -0.931747       -25.3541
 105   2.0000      -0.927252       -25.2318
 106   2.0000      -0.922342       -25.0982
 107   2.0000      -0.920762       -25.0552
 108   2.0000      -0.916462       -24.9382
 109   2.0000      -0.898262       -24.4430
 110   2.0000      -0.895395       -24.3649
 111   2.0000      -0.892756       -24.2931
 112   2.0000      -0.885321       -24.0908
 113   2.0000      -0.884451       -24.0671
 114   2.0000      -0.882607       -24.0170
 115   2.0000      -0.858585       -23.3633
 116   2.0000      -0.849173       -23.1072
 117   2.0000      -0.844257       -22.9734
 118   2.0000      -0.837694       -22.7948
 119   2.0000      -0.820883       -22.3374
 120   2.0000      -0.810319       -22.0499
 121   2.0000      -0.804977       -21.9045
 122   2.0000      -0.790975       -21.5235
 123   2.0000      -0.777758       -21.1639
 124   2.0000      -0.775302       -21.0970
 125   2.0000      -0.752361       -20.4728
 126   2.0000      -0.746806       -20.3216
 127   2.0000      -0.743913       -20.2429
 128   2.0000      -0.737489       -20.0681
 129   2.0000      -0.734562       -19.9884
 130   2.0000      -0.727158       -19.7870
 131   2.0000      -0.723430       -19.6855
 132   2.0000      -0.712225       -19.3806
 133   2.0000      -0.702203       -19.1079
 134   2.0000      -0.692250       -18.8371
 135   2.0000      -0.688758       -18.7421
 136   2.0000      -0.679640       -18.4939
 137   2.0000      -0.676707       -18.4141
 138   2.0000      -0.672561       -18.3013
 139   2.0000      -0.666926       -18.1480
 140   2.0000      -0.665574       -18.1112
 141   2.0000      -0.656625       -17.8677
 142   2.0000      -0.652888       -17.7660
 143   2.0000      -0.650958       -17.7135
 144   2.0000      -0.647843       -17.6287
 145   2.0000      -0.646629       -17.5957
 146   2.0000      -0.643207       -17.5026
 147   2.0000      -0.639643       -17.4056
 148   2.0000      -0.639048       -17.3894
 149   2.0000      -0.635671       -17.2975
 150   2.0000      -0.634442       -17.2640
 151   2.0000      -0.633172       -17.2295
 152   2.0000      -0.631547       -17.1853
 153   2.0000      -0.630638       -17.1605
 154   2.0000      -0.628140       -17.0925
 155   2.0000      -0.622430       -16.9372
 156   2.0000      -0.616766       -16.7831
 157   2.0000      -0.612577       -16.6691
 158   2.0000      -0.611097       -16.6288
 159   2.0000      -0.600508       -16.3407
 160   2.0000      -0.597497       -16.2587
 161   2.0000      -0.597205       -16.2508
 162   2.0000      -0.593933       -16.1617
 163   2.0000      -0.593054       -16.1378
 164   2.0000      -0.586595       -15.9621
 165   2.0000      -0.586385       -15.9563
 166   2.0000      -0.575838       -15.6694
 167   2.0000      -0.570654       -15.5283
 168   2.0000      -0.568094       -15.4586
 169   2.0000      -0.565456       -15.3868
 170   2.0000      -0.557543       -15.1715
 171   2.0000      -0.555847       -15.1254
 172   2.0000      -0.551689       -15.0122
 173   2.0000      -0.548239       -14.9183
 174   2.0000      -0.547658       -14.9025
 175   2.0000      -0.544773       -14.8240
 176   2.0000      -0.543052       -14.7772
 177   2.0000      -0.542031       -14.7494
 178   2.0000      -0.539845       -14.6899
 179   2.0000      -0.535604       -14.5745
 180   2.0000      -0.532730       -14.4963
 181   2.0000      -0.523101       -14.2343
 182   2.0000      -0.522873       -14.2281
 183   2.0000      -0.518561       -14.1108
 184   2.0000      -0.517205       -14.0739
 185   2.0000      -0.514368       -13.9967
 186   2.0000      -0.511092       -13.9075
 187   2.0000      -0.509969       -13.8770
 188   2.0000      -0.508358       -13.8331
 189   2.0000      -0.504605       -13.7310
 190   2.0000      -0.498504       -13.5650
 191   2.0000      -0.492894       -13.4123
 192   2.0000      -0.491377       -13.3710
 193   2.0000      -0.490373       -13.3437
 194   2.0000      -0.489671       -13.3246
 195   2.0000      -0.486834       -13.2474
 196   2.0000      -0.486163       -13.2292
 197   2.0000      -0.484395       -13.1811
 198   2.0000      -0.482252       -13.1227
 199   2.0000      -0.469854       -12.7854
 200   2.0000      -0.465953       -12.6792
 201   2.0000      -0.462911       -12.5964
 202   2.0000      -0.461144       -12.5484
 203   2.0000      -0.453641       -12.3442
 204   2.0000      -0.450819       -12.2674
 205   2.0000      -0.448529       -12.2051
 206   2.0000      -0.447755       -12.1840
 207   2.0000      -0.443287       -12.0625
 208   2.0000      -0.442042       -12.0286
 209   2.0000      -0.441107       -12.0031
 210   2.0000      -0.433892       -11.8068
 211   2.0000      -0.430409       -11.7120
 212   2.0000      -0.417311       -11.3556
 213   2.0000      -0.416849       -11.3430
 214   2.0000      -0.405997       -11.0477
 215   2.0000      -0.401565       -10.9271
 216   2.0000      -0.400317       -10.8932
 217   2.0000      -0.396563       -10.7910
 218   2.0000      -0.394089       -10.7237
 219   2.0000      -0.393523       -10.7083
 220   2.0000      -0.392893       -10.6912
 221   2.0000      -0.391753       -10.6601
 222   2.0000      -0.388577       -10.5737
 223   2.0000      -0.388006       -10.5582
 224   2.0000      -0.387448       -10.5430
 225   2.0000      -0.385817       -10.4986
 226   2.0000      -0.382156       -10.3990
 227   2.0000      -0.380835       -10.3631
 228   2.0000      -0.378726       -10.3056
 229   2.0000      -0.377537       -10.2733
 230   2.0000      -0.374902       -10.2016
 231   2.0000      -0.374466       -10.1897
 232   2.0000      -0.373076       -10.1519
 233   2.0000      -0.367517       -10.0006
 234   2.0000      -0.364537        -9.9196
 235   2.0000      -0.360853        -9.8193
 236   2.0000      -0.360204        -9.8017
 237   2.0000      -0.348687        -9.4883
 238   2.0000      -0.347229        -9.4486
 239   2.0000      -0.345288        -9.3958
 240   2.0000      -0.339550        -9.2396
 241   2.0000      -0.331115        -9.0101
 242   2.0000      -0.319141        -8.6843
 243   2.0000      -0.311055        -8.4642
 244   2.0000      -0.303443        -8.2571
 245   2.0000      -0.252654        -6.8751
 246   0.0000      -0.163738        -4.4555
 247   0.0000      -0.134059        -3.6479
 248   0.0000      -0.098378        -2.6770
 249   0.0000      -0.080506        -2.1907
 250   0.0000      -0.058736        -1.5983

MULLIKEN ATOMIC CHARGES
-----------------------
   0 C :   -0.111205
   1 S :    0.223057
   2 C :   -0.248385
   3 C :    0.046741
   4 C :    0.168647
   5 N :    0.258403
   6 O :   -0.242062
   7 O :   -0.209707
   8 C :   -0.255325
   9 N :    0.218898
  10 C :    0.014045
  11 C :    0.105364
  12 N :    0.266773
  13 O :   -0.222965
  14 O :   -0.239103
  15 C :    0.012095
  16 C :   -0.009750
  17 C :    0.046773
  18 C :    0.003281
  19 C :   -0.001989
  20 C :    0.032764
  21 C :    0.046768
  22 N :    0.282316
  23 O :   -0.253517
  24 O :   -0.275321
  25 C :    0.111497
  26 C :   -0.100502
  27 C :    0.017488
  28 C :   -0.064118
  29 S :    0.153521
  30 C :   -0.070688
  31 C :    0.124555
  32 C :    0.127851
  33 C :   -0.073007
  34 C :   -0.041829
  35 C :    0.088280
  36 C :    0.008597
  37 C :   -0.032601
  38 C :   -0.016175
  39 C :   -0.052956
  40 C :    0.016689
  41 C :    0.090104
  42 N :    0.274110
  43 O :   -0.239501
  44 O :   -0.260600
  45 C :    0.033226
  46 C :   -0.004231
  47 C :    0.048146
  48 C :    0.050600
  49 C :   -0.019882
  50 C :    0.012308
  51 C :    0.093835
  52 N :    0.267173
  53 O :   -0.235545
  54 O :   -0.243601
  55 C :   -0.043125
  56 C :    0.043211
  57 C :    0.025859
  58 C :   -0.191401
  59 S :    0.199766
  60 C :   -0.064604
  61 C :   -0.108593
  62 C :    0.240524
  63 N :    0.252011
  64 O :   -0.240290
  65 O :   -0.199185
  66 C :   -0.165691
  67 N :    0.153773
  68 H :    0.048825
  69 H :    0.013320
  70 H :   -0.000322
  71 H :    0.003556
  72 H :    0.012282
  73 H :    0.006749
  74 H :    0.027085
  75 H :   -0.006504
  76 H :    0.025554
  77 H :    0.037964
  78 H :    0.036719
  79 H :   -0.012544
  80 H :   -0.016448
  81 H :    0.028526
  82 H :    0.039154
  83 H :    0.013956
  84 H :    0.001876
  85 H :    0.011766
  86 H :    0.001841
  87 H :    0.040436
  88 H :    0.012548
  89 H :    0.052066
Sum of atomic charges:   -0.0000000

LOEWDIN ATOMIC CHARGES
----------------------
   0 C :   -0.146823
   1 S :    0.518353
   2 C :   -0.141817
   3 C :   -0.079129
   4 C :   -0.053626
   5 N :    0.283206
   6 O :   -0.204551
   7 O :   -0.170821
   8 C :   -0.042614
   9 N :   -0.030494
  10 C :   -0.034842
  11 C :   -0.016260
  12 N :    0.284210
  13 O :   -0.186325
  14 O :   -0.202333
  15 C :    0.010847
  16 C :   -0.041516
  17 C :    0.012485
  18 C :    0.051382
  19 C :   -0.067089
  20 C :    0.043055
  21 C :   -0.076434
  22 N :    0.287676
  23 O :   -0.216620
  24 O :   -0.235047
  25 C :    0.018318
  26 C :   -0.030459
  27 C :    0.013071
  28 C :   -0.154299
  29 S :    0.492914
  30 C :   -0.140370
  31 C :   -0.038158
  32 C :   -0.019977
  33 C :   -0.015272
  34 C :   -0.001900
  35 C :   -0.041487
  36 C :   -0.006256
  37 C :   -0.005372
  38 C :   -0.014827
  39 C :   -0.009957
  40 C :    0.006594
  41 C :   -0.045472
  42 N :    0.284101
  43 O :   -0.203970
  44 O :   -0.224354
  45 C :    0.031027
  46 C :   -0.035434
  47 C :    0.055531
  48 C :    0.019152
  49 C :   -0.036953
  50 C :   -0.008099
  51 C :   -0.031546
  52 N :    0.283663
  53 O :   -0.201422
  54 O :   -0.204238
  55 C :    0.002913
  56 C :    0.030586
  57 C :   -0.053667
  58 C :   -0.134685
  59 S :    0.512278
  60 C :   -0.140087
  61 C :   -0.088205
  62 C :   -0.061781
  63 N :    0.286446
  64 O :   -0.208266
  65 O :   -0.160288
  66 C :   -0.041238
  67 N :   -0.029609
  68 H :    0.043574
  69 H :    0.042873
  70 H :    0.030334
  71 H :    0.029732
  72 H :    0.041598
  73 H :    0.026520
  74 H :    0.035732
  75 H :    0.037478
  76 H :    0.035908
  77 H :    0.041998
  78 H :    0.041365
  79 H :    0.034045
  80 H :    0.032521
  81 H :    0.040142
  82 H :    0.030909
  83 H :    0.042792
  84 H :    0.029950
  85 H :    0.032719
  86 H :    0.038408
  87 H :    0.040806
  88 H :    0.034777
  89 H :    0.042003

  Mayer bond orders larger than 0.100000
B(  0-C ,  1-S ) :   1.1972 B(  0-C ,  4-C ) :   1.5333 B(  0-C , 68-H ) :   0.9520
B(  1-S ,  2-C ) :   1.1681 B(  2-C ,  3-C ) :   1.5603 B(  2-C , 10-C ) :   1.0156
B(  3-C ,  4-C ) :   1.2436 B(  3-C ,  8-C ) :   1.1478 B(  4-C ,  5-N ) :   0.9036
B(  5-N ,  6-O ) :   1.5349 B(  5-N ,  7-O ) :   1.5477 B(  6-O ,  7-O ) :   0.2791
B(  8-C ,  9-N ) :   3.0329 B( 10-C , 11-C ) :   1.6167 B( 10-C , 17-C ) :   1.1076
B( 11-C , 12-N ) :   0.9197 B( 11-C , 15-C ) :   1.1246 B( 12-N , 13-O ) :   1.5462
B( 12-N , 14-O ) :   1.5156 B( 13-O , 14-O ) :   0.2738 B( 15-C , 16-C ) :   1.5946
B( 15-C , 69-H ) :   1.0149 B( 16-C , 17-C ) :   1.1038 B( 16-C , 70-H ) :   1.0021
B( 17-C , 18-C ) :   1.4461 B( 18-C , 19-C ) :   1.1819 B( 18-C , 25-C ) :   0.9994
B( 19-C , 20-C ) :   1.5043 B( 19-C , 71-H ) :   1.0054 B( 20-C , 21-C ) :   1.1728
B( 20-C , 72-H ) :   1.0057 B( 21-C , 22-N ) :   0.9821 B( 21-C , 25-C ) :   1.3638
B( 22-N , 23-O ) :   1.5360 B( 22-N , 24-O ) :   1.4418 B( 23-O , 24-O ) :   0.2352
B( 24-O , 74-H ) :   0.1179 B( 25-C , 26-C ) :   1.2998 B( 26-C , 27-C ) :   1.4232
B( 26-C , 73-H ) :   0.9555 B( 27-C , 28-C ) :   1.3177 B( 27-C , 74-H ) :   0.9431
B( 28-C , 29-S ) :   1.0982 B( 28-C , 32-C ) :   1.1974 B( 29-S , 30-C ) :   1.1504
B( 30-C , 31-C ) :   1.2174 B( 30-C , 38-C ) :   1.2985 B( 31-C , 32-C ) :   1.2427
B( 31-C , 37-C ) :   1.2412 B( 32-C , 33-C ) :   1.2594 B( 33-C , 34-C ) :   1.4830
B( 33-C , 75-H ) :   0.9959 B( 34-C , 35-C ) :   1.0508 B( 34-C , 36-C ) :   1.2549
B( 35-C , 76-H ) :   0.9614 B( 35-C , 77-H ) :   0.9528 B( 35-C , 78-H ) :   0.9535
B( 36-C , 37-C ) :   1.5074 B( 36-C , 79-H ) :   0.9916 B( 37-C , 80-H ) :   0.9945
B( 38-C , 39-C ) :   1.4476 B( 38-C , 81-H ) :   0.9625 B( 39-C , 40-C ) :   1.2773
B( 39-C , 82-H ) :   0.9384 B( 40-C , 41-C ) :   1.4594 B( 40-C , 47-C ) :   0.9718
B( 41-C , 42-N ) :   0.9588 B( 41-C , 45-C ) :   1.1459 B( 42-N , 43-O ) :   1.5392
B( 42-N , 44-O ) :   1.4804 B( 43-O , 44-O ) :   0.2565 B( 45-C , 46-C ) :   1.5422
B( 45-C , 83-H ) :   1.0112 B( 46-C , 47-C ) :   1.1412 B( 46-C , 84-H ) :   0.9974
B( 47-C , 48-C ) :   1.5248 B( 48-C , 49-C ) :   1.0826 B( 48-C , 55-C ) :   1.0734
B( 49-C , 50-C ) :   1.6236 B( 49-C , 85-H ) :   0.9927 B( 50-C , 51-C ) :   1.1076
B( 50-C , 86-H ) :   1.0186 B( 51-C , 52-N ) :   0.9320 B( 51-C , 55-C ) :   1.6239
B( 52-N , 53-O ) :   1.5383 B( 52-N , 54-O ) :   1.5073 B( 53-O , 54-O ) :   0.2698
B( 55-C , 56-C ) :   1.0539 B( 56-C , 57-C ) :   1.8372 B( 56-C , 87-H ) :   0.9284
B( 57-C , 58-C ) :   1.0620 B( 57-C , 88-H ) :   0.9406 B( 58-C , 59-S ) :   1.2016
B( 58-C , 62-C ) :   1.4688 B( 59-S , 60-C ) :   1.1588 B( 60-C , 61-C ) :   1.5853
B( 60-C , 89-H ) :   0.9743 B( 61-C , 62-C ) :   1.2565 B( 61-C , 66-C ) :   1.0956
B( 62-C , 63-N ) :   0.9221 B( 63-N , 64-O ) :   1.4977 B( 63-N , 65-O ) :   1.5449
B( 64-O , 65-O ) :   0.2672 B( 66-C , 67-N ) :   3.0402

-----------------------------------------------------------------------------
         ABSORPTION SPECTRUM VIA TRANSITION ELECTRIC DIPOLE MOMENTS
-----------------------------------------------------------------------------
State   Energy  Wavelength   fosc         T2         TX        TY        TZ
        (cm-1)    (nm)                  (au**2)     (au)      (au)      (au)
-----------------------------------------------------------------------------
   0    4708.8   2123.7   0.240665672  16.82592  -0.01970   3.98298   0.98049
   1   10186.6    981.7   0.099821365   3.22604   0.36588   0.09050   1.75613
   2   14411.6    693.9   0.018449349   0.42145  -0.21794   0.09713  -0.60375
   3   15330.3    652.3   0.007908890   0.16984  -0.10256   0.32070   0.23765
   4   17685.2    565.4   0.124331814   2.31445  -0.07592   0.99139   1.15145
   5   17817.3    561.3   0.152550026   2.81868  -0.37576   0.99218   1.30118
   6   19850.4    503.8   0.037981142   0.62991   0.15761  -0.75826  -0.17353
   7   21126.4    473.3   0.011861045   0.18483   0.03529  -0.30050  -0.30543
   8   22380.1    446.8   0.053626134   0.78884  -0.14251  -0.80522  -0.34663
   9   22528.2    443.9   0.023323500   0.34083  -0.04008   0.53146  -0.23828
  10   24319.2    411.2   0.033994622   0.46019  -0.15549   0.23099   0.61859
  11   24511.8    408.0   0.028552934   0.38349   0.06822   0.00093  -0.61549
  12   24608.8    406.4   0.161177779   2.15621  -0.00350  -0.26808   1.44372
  13   25246.9    396.1   0.018899665   0.24645   0.07539  -0.25396   0.41984
  14   25517.2    391.9   0.086181067   1.11187  -0.02477  -0.76068   0.72981
  15   25780.9    387.9   0.161871229   2.06704   0.00194  -0.19976   1.42377
  16   26520.1    377.1   0.003783692   0.04697   0.04072   0.01594  -0.21227
  17   26787.3    373.3   0.167371495   2.05697  -0.43593   0.92782   1.00303
  18   27366.1    365.4   0.040356358   0.48548  -0.05735   0.19771   0.66566
  19   27439.0    364.4   0.047301048   0.56752   0.52373   0.13800   0.52362
  20   28004.3    357.1   0.066736094   0.78453  -0.12456   0.02352   0.87662
  21   28446.5    351.5   0.029823486   0.34515  -0.30994  -0.33852   0.36672
  22   28655.1    349.0   0.047157974   0.54179   0.35499   0.34381  -0.54550
  23   29142.0    343.1   0.071147994   0.80375   0.23297   0.15412  -0.85189
  24   29430.1    339.8   0.241449641   2.70091   0.58162   1.31930  -0.78872
  25   29848.7    335.0   0.009113523   0.10052   0.13957   0.20800   0.19435
  26   30158.5    331.6   0.087851801   0.95900   0.08933   0.93909  -0.26290
  27   30227.9    330.8   0.160523078   1.74825  -0.16683  -0.88094   0.97179
  28   30337.7    329.6   0.105873352   1.14889   0.18850  -0.66556  -0.81877
  29   30578.5    327.0   0.017302461   0.18628  -0.03629   0.40343   0.14901
  30   30662.8    326.1   0.015225283   0.16347  -0.21894   0.33627   0.04952
  31   30927.5    323.3   0.249038619   2.65093   0.87127   0.41075  -1.31267
  32   31173.3    320.8   0.016694622   0.17631  -0.29705  -0.28135   0.09438
  33   31324.5    319.2   0.001897121   0.01994  -0.11959   0.06968   0.02796
  34   31666.9    315.8   0.003163469   0.03289   0.03423  -0.13877   0.11162
  35   31854.4    313.9   0.009375954   0.09690  -0.11347   0.26891  -0.10822
  36   31938.4    313.1   0.031722187   0.32698  -0.08966  -0.38178   0.41616
  37   31979.2    312.7   0.024282252   0.24998   0.30148  -0.18214  -0.35484
  38   32374.1    308.9   0.013544016   0.13773   0.05202   0.20648  -0.30396
  39   32581.5    306.9   0.044256499   0.44718   0.27870   0.38125  -0.47345
  40   32781.6    305.0   0.028366161   0.28487   0.11809  -0.04102  -0.51888
  41   32859.5    304.3   0.023355899   0.23400   0.25004   0.26062  -0.32179
  42   33160.6    301.6   0.159583466   1.58432   0.13023  -0.33997  -1.20490
  43   33451.1    298.9   0.031468901   0.30970  -0.09070   0.14423   0.52979
  44   33722.3    296.5   0.022871335   0.22328   0.11426  -0.31568   0.33253
  45   34383.6    290.8   0.026309797   0.25191  -0.01324  -0.14713  -0.47967
  46   34684.7    288.3   0.022855393   0.21693  -0.24750  -0.27665   0.28132
  47   34992.4    285.8   0.135487072   1.27467  -0.84672  -0.63588   0.39165
  48   35294.7    283.3   0.021210374   0.19784   0.15430  -0.35892   0.21262
  49   35465.5    282.0   0.026771170   0.24851  -0.28246  -0.25224   0.32419
  50   35517.5    281.6   0.048539531   0.44991   0.38244   0.32509  -0.44494
  51   35605.1    280.9   0.011931133   0.11032   0.13974  -0.26950  -0.13475
  52   35763.3    279.6   0.007256265   0.06680   0.21577   0.08468   0.11432
  53   35849.6    278.9   0.157501306   1.44636  -0.55357  -0.91759   0.54584
  54   36076.6    277.2   0.323874305   2.95547  -0.83632   0.39729   1.44852
  55   36403.6    274.7   0.028918528   0.26152   0.31027   0.36667  -0.17551
  56   36631.6    273.0   0.001957953   0.01760  -0.09489  -0.05642   0.07354
  57   36748.9    272.1   0.068275703   0.61164   0.14295  -0.74501  -0.19019
  58   36812.4    271.6   0.005585691   0.04995  -0.01635  -0.21263   0.06689
  59   36857.2    271.3   0.016772322   0.14981   0.03378  -0.37029   0.10749
  60   36985.5    270.4   0.009665836   0.08604  -0.22336  -0.17217   0.08065
  61   37050.6    269.9   0.029811281   0.26489  -0.19503   0.46588  -0.09901
  62   37166.6    269.1   0.014838184   0.13143   0.15254   0.32165  -0.06859
  63   37252.0    268.4   0.079615996   0.70360  -0.16834  -0.02371   0.82140
  64   37562.4    266.2   0.001816684   0.01592   0.02258  -0.04848  -0.11429
  65   37631.7    265.7   0.002259004   0.01976  -0.14001  -0.01142  -0.00549
  66   37706.2    265.2   0.003260411   0.02847   0.01119   0.16458  -0.03543
  67   37932.9    263.6   0.021361515   0.18539  -0.25051  -0.32862  -0.12101
  68   38068.7    262.7   0.041524261   0.35909   0.40230  -0.27113  -0.35176
  69   38529.1    259.5   0.006637701   0.05672   0.12191  -0.14983   0.13930
  70   38568.4    259.3   0.053953727   0.46054   0.09657   0.07095   0.66797
  71   38758.7    258.0   0.005637153   0.04788  -0.19168   0.02220  -0.10319
  72   39090.2    255.8   0.097336757   0.81976   0.13544  -0.22295   0.86701
  73   39144.7    255.5   0.005075840   0.04269   0.15710  -0.04959   0.12470
  74   39390.9    253.9   0.029097977   0.24319   0.37009   0.27980  -0.16713
  75   39457.3    253.4   0.017038516   0.14216   0.04741  -0.26888   0.26003
  76   39568.1    252.7   0.446303210   3.71330   0.11063   0.82439  -1.73823
  77   39758.7    251.5   0.001698592   0.01406  -0.10439   0.00437  -0.05612
  78   39829.4    251.1   0.000247556   0.00205  -0.01137  -0.03897   0.01996
  79   39894.2    250.7   0.022399068   0.18484  -0.41581   0.08593  -0.06755
  80   39978.7    250.1   0.077044891   0.63444  -0.28374  -0.51639   0.53597
  81   40309.7    248.1   0.088765962   0.72496   0.25909   0.77414  -0.24195

FINAL SINGLE POINT ENERGY     -4258.374279632777

DIPOLE MOMENT
-------------
                                X             Y             Z
Electronic contribution:      4.98732     -12.91531      33.40514
Nuclear contribution   :     -2.40837      16.59930     -35.97545
                        -----------------------------------------
Total Dipole Moment    :      2.57896       3.68399      -2.57031
                        -----------------------------------------
Magnitude (a.u.)       :      5.17970
Magnitude (Debye)      :     13.16574

Rotational constants in cm-1:     0.001591     0.000363     0.000318
Rotational constants in MHz :    47.696364    10.874592     9.533883

                             ****ORCA TERMINATED NORMALLY****
TOTAL RUN TIME: 0 days 0 hours 9 minutes 29 seconds 417 msec
