                         Program Version 4.2.0 -  RELEASE  -
|  1> # ORCA input file
|  2> # SCF done       -217.149558463619          0.000568140460
|  3> ! CAM-B3LYP def2-SVP def2/J RIJCOSX Grid4 TightSCF
|  4> %maxcore 5000
|  5> %tddft
|  6>     Mode sTDDFT
|  7>     Ethresh 5.0
|  8>     maxcore 5000
|  9> end
| 10>
| 11> %pal
| 12>   nprocs 6
| 13>   end
| 14> * xyz 0 1
| 15>    C       -7.70137         1.31255         0.71905
| 16>    O       -7.59332         1.33965        -0.48525
| 17>    C       -8.52584         0.37204         1.51833
| 18>    C       -8.48212         0.73067         2.87748
| 19>    C       -9.19595         0.01146         3.82057
| 20>    C       -9.94693        -1.07108         3.38416
| 21>    C       -9.99558        -1.44479         2.04231
| 22>    C       -9.27767        -0.71003         1.09565
| 23>    F       -9.32326        -1.07031        -0.18261
| 24>    F      -10.72303        -2.49727         1.66366
| 25>    F      -10.64443        -1.77779         4.27429
| 26>    C       -7.60690         1.89401         3.02335
| 27>    C       -7.21649         2.45733         4.20960
| 28>    C       -7.66545         2.02980         5.47746
| 29>    N       -7.99967         1.72652         6.53224
| 30>    C       -6.28336         3.51117         4.32345
| 31>    N       -5.51453         4.34746         4.48660
| 32>    C       -7.15039         2.26964         1.70457
| 33>    C       -6.51578         3.44159         1.37582
| 34>    C       -5.91061         3.75340         0.14761
| 35>    S       -5.80949         5.43334        -0.33288
| 36>    C       -5.03502         5.06169        -1.83663
| 37>    C       -4.81758         3.69426        -1.92529
| 38>    C       -5.29386         2.94572        -0.81582
| 39>    C       -4.96184         1.57514        -0.92622
| 40>    C       -4.31870         1.29931        -2.09615
| 41>    C       -3.82326         0.01617        -2.61079
| 42>    O       -3.24684        -0.09333        -3.66569
| 43>    O       -4.08102        -0.99286        -1.77719
| 44>    C       -3.65149        -2.27775        -2.21047
| 45>    S       -4.05486         2.69010        -3.11121
| 46>    C       -4.70604         6.05884        -2.79352
| 47>    C       -4.00453         5.85646        -3.95316
| 48>    C       -3.84791         7.02821        -4.72289
| 49>    C       -3.17816         7.22437        -5.94663
| 50>    C       -3.19714         8.53044        -6.46422
| 51>    C       -3.83211         9.55292        -5.70880
| 52>    N       -4.43280         9.38239        -4.55157
| 53>    C       -4.44502         8.15271        -4.08685
| 54>    S       -5.19612         7.73109        -2.58397
| 55>    S       -3.76839        11.10890        -6.48339
| 56>    C       -2.94465        10.38668        -7.83742
| 57>    C       -2.71502         9.05664        -7.70099
| 58>    F       -2.14168         8.31568        -8.65844
| 59>    F       -2.61623        11.13574        -8.87914
| 60>    C       -2.47696         6.14580        -6.60885
| 61>    C       -1.21140         6.19501        -7.14826
| 62>    C       -0.82090         4.96163        -7.67676
| 63>    C       -1.80940         3.97315        -7.54059
| 64>    S       -3.20654         4.55675        -6.76031
| 65>    C       -1.32600         2.76192        -8.10207
| 66>    C       -0.02637         2.99720        -8.59631
| 67>    C        0.32801         4.38678        -8.35355
| 68>    C        1.48452         5.01009        -8.71828
| 69>    C        1.73670         6.36564        -8.41731
| 70>    N        1.94675         7.46032        -8.15052
| 71>    C        2.49914         4.31631        -9.41174
| 72>    N        3.30975         3.73045        -9.97230
| 73>    C        0.53615         1.87654        -9.18774
| 74>    C       -0.31914         0.78134        -9.15479
| 75>    S       -1.83366         1.15940        -8.34236
| 76>    C       -0.09059        -0.52930        -9.62146
| 77>    C        0.85305        -0.97219       -10.50143
| 78>    C        1.19113        -2.42361       -10.50402
| 79>    O        0.57468        -3.30668        -9.96467
| 80>    C        2.46206        -2.51391       -11.26389
| 81>    C        2.78816        -1.25046       -11.79094
| 82>    C        1.71716        -0.30990       -11.45300
| 83>    C        1.46456         0.85386       -12.12955
| 84>    C        2.29118         1.37148       -13.15064
| 85>    N        2.92448         1.83379       -13.98722
| 86>    C        0.29698         1.62406       -11.95458
| 87>    N       -0.65027         2.26499       -11.86143
| 88>    C        3.95656        -1.05948       -12.50719
| 89>    C        4.78903        -2.15361       -12.69649
| 90>    C        4.47521        -3.41669       -12.19628
| 91>    C        3.29678        -3.59923       -11.46855
| 92>    F        3.00647        -4.80203       -10.98670
| 93>    F        5.29919        -4.44477       -12.40648
| 94>    F        5.92594        -1.99567       -13.37424
| 95>    H       -9.19796         0.25642         4.86979
| 96>    H       -6.51573         4.24255         2.10542
| 97>    H       -5.16413         0.82380        -0.18815
| 98>    H       -3.92151        -2.96970        -1.41751
| 99>    H       -2.57219        -2.28074        -2.37494
|100>    H       -4.15081        -2.54813        -3.14271
|101>    H       -3.60661         4.89778        -4.22536
|102>    H       -0.59258         7.07323        -7.12895
|103>    H        1.53458         1.82874        -9.58216
|104>    H       -0.69467        -1.31205        -9.17247
|105>    H        4.24971        -0.10334       -12.90871
|106> *
|107>
|108>                          ****END OF INPUT****

CARTESIAN COORDINATES (ANGSTROEM)
---------------------------------
  C     -7.701370    1.312550    0.719050
  O     -7.593320    1.339650   -0.485250
  C     -8.525840    0.372040    1.518330
  C     -8.482120    0.730670    2.877480
  C     -9.195950    0.011460    3.820570
  C     -9.946930   -1.071080    3.384160
  C     -9.995580   -1.444790    2.042310
  C     -9.277670   -0.710030    1.095650
  F     -9.323260   -1.070310   -0.182610
  F    -10.723030   -2.497270    1.663660
  F    -10.644430   -1.777790    4.274290
  C     -7.606900    1.894010    3.023350
  C     -7.216490    2.457330    4.209600
  C     -7.665450    2.029800    5.477460
  N     -7.999670    1.726520    6.532240
  C     -6.283360    3.511170    4.323450
  N     -5.514530    4.347460    4.486600
  C     -7.150390    2.269640    1.704570
  C     -6.515780    3.441590    1.375820
  C     -5.910610    3.753400    0.147610
  S     -5.809490    5.433340   -0.332880
  C     -5.035020    5.061690   -1.836630
  C     -4.817580    3.694260   -1.925290
  C     -5.293860    2.945720   -0.815820
  C     -4.961840    1.575140   -0.926220
  C     -4.318700    1.299310   -2.096150
  C     -3.823260    0.016170   -2.610790
  O     -3.246840   -0.093330   -3.665690
  O     -4.081020   -0.992860   -1.777190
  C     -3.651490   -2.277750   -2.210470
  S     -4.054860    2.690100   -3.111210
  C     -4.706040    6.058840   -2.793520
  C     -4.004530    5.856460   -3.953160
  C     -3.847910    7.028210   -4.722890
  C     -3.178160    7.224370   -5.946630
  C     -3.197140    8.530440   -6.464220
  C     -3.832110    9.552920   -5.708800
  N     -4.432800    9.382390   -4.551570
  C     -4.445020    8.152710   -4.086850
  S     -5.196120    7.731090   -2.583970
  S     -3.768390   11.108900   -6.483390
  C     -2.944650   10.386680   -7.837420
  C     -2.715020    9.056640   -7.700990
  F     -2.141680    8.315680   -8.658440
  F     -2.616230   11.135740   -8.879140
  C     -2.476960    6.145800   -6.608850
  C     -1.211400    6.195010   -7.148260
  C     -0.820900    4.961630   -7.676760
  C     -1.809400    3.973150   -7.540590
  S     -3.206540    4.556750   -6.760310
  C     -1.326000    2.761920   -8.102070
  C     -0.026370    2.997200   -8.596310
  C      0.328010    4.386780   -8.353550
  C      1.484520    5.010090   -8.718280
  C      1.736700    6.365640   -8.417310
  N      1.946750    7.460320   -8.150520
  C      2.499140    4.316310   -9.411740
  N      3.309750    3.730450   -9.972300
  C      0.536150    1.876540   -9.187740
  C     -0.319140    0.781340   -9.154790
  S     -1.833660    1.159400   -8.342360
  C     -0.090590   -0.529300   -9.621460
  C      0.853050   -0.972190  -10.501430
  C      1.191130   -2.423610  -10.504020
  O      0.574680   -3.306680   -9.964670
  C      2.462060   -2.513910  -11.263890
  C      2.788160   -1.250460  -11.790940
  C      1.717160   -0.309900  -11.453000
  C      1.464560    0.853860  -12.129550
  C      2.291180    1.371480  -13.150640
  N      2.924480    1.833790  -13.987220
  C      0.296980    1.624060  -11.954580
  N     -0.650270    2.264990  -11.861430
  C      3.956560   -1.059480  -12.507190
  C      4.789030   -2.153610  -12.696490
  C      4.475210   -3.416690  -12.196280
  C      3.296780   -3.599230  -11.468550
  F      3.006470   -4.802030  -10.986700
  F      5.299190   -4.444770  -12.406480
  F      5.925940   -1.995670  -13.374240
  H     -9.197960    0.256420    4.869790
  H     -6.515730    4.242550    2.105420
  H     -5.164130    0.823800   -0.188150
  H     -3.921510   -2.969700   -1.417510
  H     -2.572190   -2.280740   -2.374940
  H     -4.150810   -2.548130   -3.142710
  H     -3.606610    4.897780   -4.225360
  H     -0.592580    7.073230   -7.128950
  H      1.534580    1.828740   -9.582160
  H     -0.694670   -1.312050   -9.172470
  H      4.249710   -0.103340  -12.908710

 Total Charge           Charge          ....    0
 Multiplicity           Mult            ....    1
 Number of Electrons    NEL             ....  590
 Basis Dimension        Dim             .... 1199

ORBITAL ENERGIES
----------------

  NO   OCC          E(Eh)            E(eV)
   0   2.0000     -89.007088     -2422.0060
   1   2.0000     -89.005775     -2421.9703
   2   2.0000     -88.998557     -2421.7739
   3   2.0000     -88.983728     -2421.3703
   4   2.0000     -88.983223     -2421.3566
   5   2.0000     -88.980305     -2421.2772
   6   2.0000     -24.821112      -675.4168
   7   2.0000     -24.819028      -675.3601
   8   2.0000     -24.818280      -675.3397
   9   2.0000     -24.815709      -675.2698
  10   2.0000     -24.814891      -675.2475
  11   2.0000     -24.814683      -675.2419
  12   2.0000     -24.812423      -675.1804
  13   2.0000     -24.809147      -675.0912
  14   2.0000     -19.280557      -524.6506
  15   2.0000     -19.231500      -523.3157
  16   2.0000     -19.228276      -523.2280
  17   2.0000     -19.225069      -523.1407
  18   2.0000     -14.444313      -393.0497
  19   2.0000     -14.441261      -392.9667
  20   2.0000     -14.439162      -392.9096
  21   2.0000     -14.429417      -392.6444
  22   2.0000     -14.429177      -392.6379
  23   2.0000     -14.428541      -392.6206
  24   2.0000     -14.424886      -392.5211
  25   2.0000     -10.425016      -283.6791
  26   2.0000     -10.407103      -283.1917
  27   2.0000     -10.403986      -283.1069
  28   2.0000     -10.403926      -283.1052
  29   2.0000     -10.403160      -283.0844
  30   2.0000     -10.402191      -283.0580
  31   2.0000     -10.400849      -283.0215
  32   2.0000     -10.398227      -282.9501
  33   2.0000     -10.387870      -282.6683
  34   2.0000     -10.384344      -282.5724
  35   2.0000     -10.381509      -282.4952
  36   2.0000     -10.376313      -282.3538
  37   2.0000     -10.366648      -282.0908
  38   2.0000     -10.363296      -281.9996
  39   2.0000     -10.362638      -281.9817
  40   2.0000     -10.359352      -281.8923
  41   2.0000     -10.358567      -281.8709
  42   2.0000     -10.357394      -281.8390
  43   2.0000     -10.357234      -281.8347
  44   2.0000     -10.355834      -281.7966
  45   2.0000     -10.352878      -281.7161
  46   2.0000     -10.347205      -281.5618
  47   2.0000     -10.345282      -281.5094
  48   2.0000     -10.341393      -281.4036
  49   2.0000     -10.341028      -281.3937
  50   2.0000     -10.340752      -281.3862
  51   2.0000     -10.340416      -281.3770
  52   2.0000     -10.339492      -281.3519
  53   2.0000     -10.338966      -281.3376
  54   2.0000     -10.337586      -281.3000
  55   2.0000     -10.337354      -281.2937
  56   2.0000     -10.336615      -281.2736
  57   2.0000     -10.335194      -281.2349
  58   2.0000     -10.334247      -281.2092
  59   2.0000     -10.333968      -281.2016
  60   2.0000     -10.332808      -281.1700
  61   2.0000     -10.331326      -281.1297
  62   2.0000     -10.330672      -281.1119
  63   2.0000     -10.330036      -281.0946
  64   2.0000     -10.326662      -281.0028
  65   2.0000     -10.325221      -280.9636
  66   2.0000     -10.322492      -280.8893
  67   2.0000     -10.322154      -280.8801
  68   2.0000     -10.319777      -280.8154
  69   2.0000     -10.319277      -280.8018
  70   2.0000     -10.319025      -280.7949
  71   2.0000     -10.318609      -280.7836
  72   2.0000     -10.317280      -280.7475
  73   2.0000     -10.316400      -280.7235
  74   2.0000     -10.316092      -280.7151
  75   2.0000     -10.315663      -280.7035
  76   2.0000     -10.314388      -280.6688
  77   2.0000     -10.313294      -280.6390
  78   2.0000     -10.312313      -280.6123
  79   2.0000     -10.311185      -280.5816
  80   2.0000      -8.101217      -220.4453
  81   2.0000      -8.100417      -220.4236
  82   2.0000      -8.093799      -220.2435
  83   2.0000      -8.080458      -219.8804
  84   2.0000      -8.078507      -219.8274
  85   2.0000      -8.076884      -219.7832
  86   2.0000      -6.070453      -165.1854
  87   2.0000      -6.069566      -165.1613
  88   2.0000      -6.066242      -165.0708
  89   2.0000      -6.065371      -165.0471
  90   2.0000      -6.063693      -165.0015
  91   2.0000      -6.063063      -164.9843
  92   2.0000      -6.062957      -164.9815
  93   2.0000      -6.058863      -164.8701
  94   2.0000      -6.055982      -164.7916
  95   2.0000      -6.049984      -164.6284
  96   2.0000      -6.048332      -164.5835
  97   2.0000      -6.046381      -164.5304
  98   2.0000      -6.046174      -164.5248
  99   2.0000      -6.043970      -164.4648
 100   2.0000      -6.042331      -164.4202
 101   2.0000      -6.041200      -164.3894
 102   2.0000      -6.039766      -164.3504
 103   2.0000      -6.038136      -164.3060
 104   2.0000      -1.345871       -36.6230
 105   2.0000      -1.342250       -36.5245
 106   2.0000      -1.340383       -36.4737
 107   2.0000      -1.334851       -36.3231
 108   2.0000      -1.331610       -36.2350
 109   2.0000      -1.324119       -36.0311
 110   2.0000      -1.320585       -35.9349
 111   2.0000      -1.320416       -35.9303
 112   2.0000      -1.212599       -32.9965
 113   2.0000      -1.149771       -31.2869
 114   2.0000      -1.146658       -31.2021
 115   2.0000      -1.119187       -30.4546
 116   2.0000      -1.092713       -29.7342
 117   2.0000      -1.060035       -28.8450
 118   2.0000      -1.043474       -28.3944
 119   2.0000      -1.035907       -28.1885
 120   2.0000      -1.034681       -28.1551
 121   2.0000      -1.032440       -28.0941
 122   2.0000      -1.018473       -27.7141
 123   2.0000      -1.017493       -27.6874
 124   2.0000      -1.016156       -27.6510
 125   2.0000      -1.014652       -27.6101
 126   2.0000      -1.011674       -27.5290
 127   2.0000      -1.007467       -27.4146
 128   2.0000      -1.004658       -27.3381
 129   2.0000      -0.990446       -26.9514
 130   2.0000      -0.981453       -26.7067
 131   2.0000      -0.976352       -26.5679
 132   2.0000      -0.970948       -26.4208
 133   2.0000      -0.967978       -26.3400
 134   2.0000      -0.945897       -25.7392
 135   2.0000      -0.927612       -25.2416
 136   2.0000      -0.922501       -25.1025
 137   2.0000      -0.915250       -24.9052
 138   2.0000      -0.913635       -24.8613
 139   2.0000      -0.896095       -24.3840
 140   2.0000      -0.886325       -24.1181
 141   2.0000      -0.882344       -24.0098
 142   2.0000      -0.880459       -23.9585
 143   2.0000      -0.879354       -23.9284
 144   2.0000      -0.874575       -23.7984
 145   2.0000      -0.871473       -23.7140
 146   2.0000      -0.867022       -23.5929
 147   2.0000      -0.851043       -23.1581
 148   2.0000      -0.840145       -22.8615
 149   2.0000      -0.833468       -22.6798
 150   2.0000      -0.828478       -22.5440
 151   2.0000      -0.819180       -22.2910
 152   2.0000      -0.806538       -21.9470
 153   2.0000      -0.792851       -21.5746
 154   2.0000      -0.791154       -21.5284
 155   2.0000      -0.788955       -21.4686
 156   2.0000      -0.784398       -21.3446
 157   2.0000      -0.762920       -20.7601
 158   2.0000      -0.750667       -20.4267
 159   2.0000      -0.741959       -20.1897
 160   2.0000      -0.736718       -20.0471
 161   2.0000      -0.733111       -19.9490
 162   2.0000      -0.731005       -19.8917
 163   2.0000      -0.726279       -19.7630
 164   2.0000      -0.721809       -19.6414
 165   2.0000      -0.711359       -19.3571
 166   2.0000      -0.704868       -19.1804
 167   2.0000      -0.702519       -19.1165
 168   2.0000      -0.694471       -18.8975
 169   2.0000      -0.693079       -18.8596
 170   2.0000      -0.687577       -18.7099
 171   2.0000      -0.682407       -18.5692
 172   2.0000      -0.676506       -18.4087
 173   2.0000      -0.669718       -18.2239
 174   2.0000      -0.666298       -18.1309
 175   2.0000      -0.661768       -18.0076
 176   2.0000      -0.661434       -17.9985
 177   2.0000      -0.658505       -17.9188
 178   2.0000      -0.657962       -17.9040
 179   2.0000      -0.655187       -17.8285
 180   2.0000      -0.648520       -17.6471
 181   2.0000      -0.645916       -17.5763
 182   2.0000      -0.641997       -17.4696
 183   2.0000      -0.635069       -17.2811
 184   2.0000      -0.629605       -17.1324
 185   2.0000      -0.626205       -17.0399
 186   2.0000      -0.620520       -16.8852
 187   2.0000      -0.618739       -16.8367
 188   2.0000      -0.615878       -16.7589
 189   2.0000      -0.613922       -16.7057
 190   2.0000      -0.612219       -16.6593
 191   2.0000      -0.606992       -16.5171
 192   2.0000      -0.605489       -16.4762
 193   2.0000      -0.601341       -16.3633
 194   2.0000      -0.597371       -16.2553
 195   2.0000      -0.593984       -16.1631
 196   2.0000      -0.592126       -16.1126
 197   2.0000      -0.590116       -16.0579
 198   2.0000      -0.588836       -16.0230
 199   2.0000      -0.582118       -15.8402
 200   2.0000      -0.580114       -15.7857
 201   2.0000      -0.576721       -15.6934
 202   2.0000      -0.573457       -15.6046
 203   2.0000      -0.569989       -15.5102
 204   2.0000      -0.564779       -15.3684
 205   2.0000      -0.562753       -15.3133
 206   2.0000      -0.561600       -15.2819
 207   2.0000      -0.561268       -15.2729
 208   2.0000      -0.558180       -15.1889
 209   2.0000      -0.557179       -15.1616
 210   2.0000      -0.554511       -15.0890
 211   2.0000      -0.551314       -15.0020
 212   2.0000      -0.549933       -14.9644
 213   2.0000      -0.548072       -14.9138
 214   2.0000      -0.547501       -14.8983
 215   2.0000      -0.544283       -14.8107
 216   2.0000      -0.543248       -14.7825
 217   2.0000      -0.541544       -14.7362
 218   2.0000      -0.538447       -14.6519
 219   2.0000      -0.534833       -14.5535
 220   2.0000      -0.532773       -14.4975
 221   2.0000      -0.526150       -14.3173
 222   2.0000      -0.525532       -14.3004
 223   2.0000      -0.518851       -14.1187
 224   2.0000      -0.517609       -14.0849
 225   2.0000      -0.516726       -14.0608
 226   2.0000      -0.513629       -13.9766
 227   2.0000      -0.512523       -13.9464
 228   2.0000      -0.511870       -13.9287
 229   2.0000      -0.509490       -13.8639
 230   2.0000      -0.508618       -13.8402
 231   2.0000      -0.505864       -13.7653
 232   2.0000      -0.503463       -13.6999
 233   2.0000      -0.502263       -13.6673
 234   2.0000      -0.498329       -13.5602
 235   2.0000      -0.495066       -13.4714
 236   2.0000      -0.493397       -13.4260
 237   2.0000      -0.488835       -13.3019
 238   2.0000      -0.488049       -13.2805
 239   2.0000      -0.484009       -13.1706
 240   2.0000      -0.482432       -13.1276
 241   2.0000      -0.480566       -13.0769
 242   2.0000      -0.478272       -13.0144
 243   2.0000      -0.476173       -12.9573
 244   2.0000      -0.471081       -12.8188
 245   2.0000      -0.470077       -12.7914
 246   2.0000      -0.467687       -12.7264
 247   2.0000      -0.466858       -12.7038
 248   2.0000      -0.463782       -12.6201
 249   2.0000      -0.462429       -12.5833
 250   2.0000      -0.461137       -12.5482
 251   2.0000      -0.461113       -12.5475
 252   2.0000      -0.456346       -12.4178
 253   2.0000      -0.455852       -12.4044
 254   2.0000      -0.453969       -12.3531
 255   2.0000      -0.452920       -12.3246
 256   2.0000      -0.452335       -12.3087
 257   2.0000      -0.450021       -12.2457
 258   2.0000      -0.448587       -12.2067
 259   2.0000      -0.447514       -12.1775
 260   2.0000      -0.445131       -12.1126
 261   2.0000      -0.443586       -12.0706
 262   2.0000      -0.442696       -12.0464
 263   2.0000      -0.440537       -11.9876
 264   2.0000      -0.439011       -11.9461
 265   2.0000      -0.438264       -11.9258
 266   2.0000      -0.436991       -11.8911
 267   2.0000      -0.436508       -11.8780
 268   2.0000      -0.434099       -11.8124
 269   2.0000      -0.425303       -11.5731
 270   2.0000      -0.423012       -11.5107
 271   2.0000      -0.419826       -11.4240
 272   2.0000      -0.415662       -11.3108
 273   2.0000      -0.411703       -11.2030
 274   2.0000      -0.397605       -10.8194
 275   2.0000      -0.389846       -10.6082
 276   2.0000      -0.386388       -10.5142
 277   2.0000      -0.379110       -10.3161
 278   2.0000      -0.372118       -10.1259
 279   2.0000      -0.363860        -9.9011
 280   2.0000      -0.360944        -9.8218
 281   2.0000      -0.355821        -9.6824
 282   2.0000      -0.355504        -9.6738
 283   2.0000      -0.353499        -9.6192
 284   2.0000      -0.352055        -9.5799
 285   2.0000      -0.348021        -9.4701
 286   2.0000      -0.345595        -9.4041
 287   2.0000      -0.336583        -9.1589
 288   2.0000      -0.333908        -9.0861
 289   2.0000      -0.329434        -8.9643
 290   2.0000      -0.326462        -8.8835
 291   2.0000      -0.324297        -8.8246
 292   2.0000      -0.302353        -8.2274
 293   2.0000      -0.281890        -7.6706
 294   2.0000      -0.270369        -7.3571
 295   0.0000      -0.122405        -3.3308
 296   0.0000      -0.117219        -3.1897
 297   0.0000      -0.097910        -2.6643
 298   0.0000      -0.084821        -2.3081
 299   0.0000      -0.072523        -1.9734

MULLIKEN ATOMIC CHARGES
-----------------------
   0 C :    0.127109
   1 O :   -0.124312
   2 C :   -0.096060
   3 C :    0.067635
   4 C :   -0.101499
   5 C :    0.236342
   6 C :    0.152140
   7 C :    0.156661
   8 F :   -0.139863
   9 F :   -0.151875
  10 F :   -0.156349
  11 C :    0.282792
  12 C :   -0.331502
  13 C :   -0.190824
  14 N :    0.167647
  15 C :   -0.207879
  16 N :    0.170151
  17 C :   -0.107478
  18 C :    0.018526
  19 C :   -0.140089
  20 S :    0.199388
  21 C :   -0.102695
  22 C :   -0.058062
  23 C :    0.169278
  24 C :    0.053840
  25 C :   -0.136212
  26 C :    0.214999
  27 O :   -0.205088
  28 O :   -0.293255
  29 C :    0.187048
  30 S :    0.147729
  31 C :   -0.047797
  32 C :   -0.070618
  33 C :    0.072705
  34 C :    0.134093
  35 C :    0.031871
  36 C :   -0.168608
  37 N :   -0.004590
  38 C :   -0.144232
  39 S :    0.160627
  40 S :    0.147461
  41 C :    0.068870
  42 C :    0.219902
  43 F :   -0.168313
  44 F :   -0.141345
  45 C :   -0.187373
  46 C :    0.026303
  47 C :    0.002309
  48 C :   -0.105063
  49 S :    0.212289
  50 C :   -0.068575
  51 C :   -0.005628
  52 C :    0.302376
  53 C :   -0.283938
  54 C :   -0.187754
  55 N :    0.182939
  56 C :   -0.182664
  57 N :    0.169836
  58 C :   -0.001863
  59 C :   -0.113823
  60 S :    0.235398
  61 C :    0.086122
  62 C :   -0.136194
  63 C :    0.129565
  64 O :   -0.116169
  65 C :   -0.064135
  66 C :    0.036460
  67 C :    0.253390
  68 C :   -0.319082
  69 C :   -0.173701
  70 N :    0.170086
  71 C :   -0.199777
  72 N :    0.171021
  73 C :   -0.093255
  74 C :    0.234850
  75 C :    0.155377
  76 C :    0.151151
  77 F :   -0.136493
  78 F :   -0.151578
  79 F :   -0.155859
  80 H :    0.017583
  81 H :    0.032004
  82 H :    0.002427
  83 H :    0.041186
  84 H :    0.038948
  85 H :    0.039066
  86 H :    0.003646
  87 H :    0.015439
  88 H :    0.024981
  89 H :    0.026941
  90 H :    0.022959
Sum of atomic charges:   -0.0000000

LOEWDIN ATOMIC CHARGES
----------------------
   0 C :    0.076238
   1 O :   -0.123989
   2 C :   -0.079837
   3 C :   -0.004539
   4 C :   -0.029097
   5 C :    0.079242
   6 C :    0.040079
   7 C :    0.085134
   8 F :   -0.022612
   9 F :   -0.032441
  10 F :   -0.034642
  11 C :    0.070520
  12 C :   -0.131584
  13 C :   -0.021357
  14 N :   -0.041763
  15 C :   -0.025269
  16 N :   -0.041977
  17 C :   -0.106136
  18 C :    0.047527
  19 C :   -0.178448
  20 S :    0.487335
  21 C :   -0.180497
  22 C :   -0.182006
  23 C :   -0.035833
  24 C :    0.000643
  25 C :   -0.183479
  26 C :    0.064383
  27 O :   -0.178545
  28 O :   -0.083331
  29 C :    0.085953
  30 S :    0.447100
  31 C :   -0.170092
  32 C :   -0.057898
  33 C :   -0.062614
  34 C :   -0.011655
  35 C :   -0.076268
  36 C :   -0.127365
  37 N :   -0.090093
  38 C :   -0.127385
  39 S :    0.424110
  40 S :    0.425931
  41 C :   -0.092333
  42 C :   -0.001517
  43 F :   -0.042719
  44 F :   -0.032409
  45 C :   -0.165070
  46 C :   -0.010746
  47 C :   -0.059096
  48 C :   -0.180957
  49 S :    0.507585
  50 C :   -0.158062
  51 C :   -0.064241
  52 C :    0.080896
  53 C :   -0.093898
  54 C :   -0.017395
  55 N :   -0.023795
  56 C :   -0.011989
  57 N :   -0.030975
  58 C :    0.011180
  59 C :   -0.182872
  60 S :    0.515296
  61 C :    0.048312
  62 C :   -0.095019
  63 C :    0.083902
  64 O :   -0.125939
  65 C :   -0.083085
  66 C :   -0.001104
  67 C :    0.062799
  68 C :   -0.128080
  69 C :   -0.021537
  70 N :   -0.035559
  71 C :   -0.015387
  72 N :   -0.038250
  73 C :   -0.028515
  74 C :    0.081354
  75 C :    0.039504
  76 C :    0.086830
  77 F :   -0.020346
  78 F :   -0.032405
  79 F :   -0.033564
  80 H :    0.052918
  81 H :    0.046771
  82 H :    0.038873
  83 H :    0.029167
  84 H :    0.026180
  85 H :    0.026833
  86 H :    0.007292
  87 H :    0.042717
  88 H :    0.042411
  89 H :    0.048252
  90 H :    0.054351

  Mayer bond orders larger than 0.100000
B(  0-C ,  1-O ) :   2.2462 B(  0-C ,  2-C ) :   0.9262 B(  0-C , 17-C ) :   0.9665
B(  2-C ,  3-C ) :   1.3541 B(  2-C ,  7-C ) :   1.2748 B(  3-C ,  4-C ) :   1.3265
B(  3-C , 11-C ) :   1.0056 B(  4-C ,  5-C ) :   1.3220 B(  4-C , 80-H ) :   0.9986
B(  5-C ,  6-C ) :   1.2977 B(  5-C , 10-F ) :   1.1527 B(  6-C ,  7-C ) :   1.2562
B(  6-C ,  9-F ) :   1.1749 B(  7-C ,  8-F ) :   1.2426 B( 11-C , 12-C ) :   1.6496
B( 11-C , 17-C ) :   1.0900 B( 12-C , 13-C ) :   1.1361 B( 12-C , 15-C ) :   1.1433
B( 13-C , 14-N ) :   2.9824 B( 15-C , 16-N ) :   2.9970 B( 17-C , 18-C ) :   1.5491
B( 18-C , 19-C ) :   1.2299 B( 18-C , 81-H ) :   0.9330 B( 19-C , 20-S ) :   1.0957
B( 19-C , 21-C ) :   0.1066 B( 19-C , 23-C ) :   1.3329 B( 20-S , 21-C ) :   1.1732
B( 21-C , 22-C ) :   1.4893 B( 21-C , 31-C ) :   1.1522 B( 22-C , 23-C ) :   1.2801
B( 22-C , 30-S ) :   1.0587 B( 23-C , 24-C ) :   1.1443 B( 24-C , 25-C ) :   1.6204
B( 24-C , 82-H ) :   0.9919 B( 25-C , 26-C ) :   0.9476 B( 25-C , 30-S ) :   1.0798
B( 26-C , 27-O ) :   2.1334 B( 26-C , 28-O ) :   1.2643 B( 28-O , 29-C ) :   0.9132
B( 29-C , 83-H ) :   0.9812 B( 29-C , 84-H ) :   0.9757 B( 29-C , 85-H ) :   0.9766
B( 31-C , 32-C ) :   1.5683 B( 31-C , 39-S ) :   1.0708 B( 32-C , 33-C ) :   1.1913
B( 32-C , 86-H ) :   0.9658 B( 33-C , 34-C ) :   1.3347 B( 33-C , 38-C ) :   1.1930
B( 34-C , 35-C ) :   1.3923 B( 34-C , 45-C ) :   0.9905 B( 35-C , 36-C ) :   1.1687
B( 35-C , 42-C ) :   1.0817 B( 36-C , 37-N ) :   1.5541 B( 36-C , 40-S ) :   1.0839
B( 37-N , 38-C ) :   1.5438 B( 38-C , 39-S ) :   1.0843 B( 40-S , 41-C ) :   1.0816
B( 41-C , 42-C ) :   1.5088 B( 41-C , 44-F ) :   1.1514 B( 42-C , 43-F ) :   1.1381
B( 45-C , 46-C ) :   1.5038 B( 45-C , 49-S ) :   1.1171 B( 46-C , 47-C ) :   1.2988
B( 46-C , 87-H ) :   0.9861 B( 47-C , 48-C ) :   1.4380 B( 47-C , 52-C ) :   0.9912
B( 48-C , 49-S ) :   1.1256 B( 48-C , 50-C ) :   1.1902 B( 50-C , 51-C ) :   1.4109
B( 50-C , 60-S ) :   1.1656 B( 51-C , 52-C ) :   0.9977 B( 51-C , 58-C ) :   1.3671
B( 52-C , 53-C ) :   1.7204 B( 53-C , 54-C ) :   1.1339 B( 53-C , 56-C ) :   1.1342
B( 54-C , 55-N ) :   2.9921 B( 56-C , 57-N ) :   2.9812 B( 58-C , 59-C ) :   1.3863
B( 58-C , 88-H ) :   0.9784 B( 59-C , 60-S ) :   1.0936 B( 59-C , 61-C ) :   1.1444
B( 61-C , 62-C ) :   1.6614 B( 61-C , 89-H ) :   0.9295 B( 62-C , 63-C ) :   0.9525
B( 62-C , 67-C ) :   1.0495 B( 63-C , 64-O ) :   2.3057 B( 63-C , 65-C ) :   0.9081
B( 65-C , 66-C ) :   1.3561 B( 65-C , 76-C ) :   1.2702 B( 66-C , 67-C ) :   1.0119
B( 66-C , 73-C ) :   1.3336 B( 67-C , 68-C ) :   1.6581 B( 68-C , 69-C ) :   1.1212
B( 68-C , 71-C ) :   1.1716 B( 69-C , 70-N ) :   2.9983 B( 71-C , 72-N ) :   2.9956
B( 73-C , 74-C ) :   1.3257 B( 73-C , 90-H ) :   0.9997 B( 74-C , 75-C ) :   1.2958
B( 74-C , 79-F ) :   1.1498 B( 75-C , 76-C ) :   1.2609 B( 75-C , 78-F ) :   1.1741
B( 76-C , 77-F ) :   1.2486

-----------------------------------------------------------------------------
         ABSORPTION SPECTRUM VIA TRANSITION ELECTRIC DIPOLE MOMENTS
-----------------------------------------------------------------------------
State   Energy  Wavelength   fosc         T2         TX        TY        TZ
        (cm-1)    (nm)                  (au**2)     (au)      (au)      (au)
-----------------------------------------------------------------------------
   0   14921.8    670.2   0.260419231   5.74551  -1.19535   1.17973   1.71023
   1   17804.7    561.6   1.302378315  24.08115   2.22497   1.72787  -4.01810
   2   20802.6    480.7   0.286893285   4.54023  -0.58994   1.89071   0.78575
   3   21105.8    473.8   0.177939906   2.77554  -0.60655   1.32233   0.81184
   4   22568.9    443.1   0.048026408   0.70056   0.23952   0.14106  -0.78949
   5   24140.9    414.2   0.008361895   0.11403  -0.08984  -0.27413   0.17554
   6   24385.9    410.1   0.027056044   0.36526   0.38176   0.42940   0.18745
   7   26045.6    383.9   0.048831655   0.61722  -0.50895  -0.55364   0.22732
   8   27185.0    367.8   0.109614550   1.32744   0.21611  -1.11768  -0.17758
   9   27510.3    363.5   0.131044230   1.56819   0.40876  -0.95607  -0.69787
  10   28523.6    350.6   0.006672561   0.07701   0.19917  -0.19318   0.00507
  11   28786.5    347.4   0.041059937   0.46958  -0.10961   0.61262  -0.28681
  12   29034.1    344.4   0.341916754   3.87693   0.69249  -1.83439  -0.17994
  13   29480.7    339.2   0.077764259   0.86840   0.56441   0.66083   0.33635
  14   30027.0    333.0   0.183103542   2.00753   0.77895   1.18244   0.05103
  15   30280.0    330.3   0.307084016   3.33869  -1.52129  -0.40408   0.92795
  16   30670.1    326.1   0.009917101   0.10645  -0.07471  -0.10761  -0.29881
  17   30975.2    322.8   0.015317838   0.16280  -0.07599   0.04771   0.39338
  18   31510.2    317.4   0.009738880   0.10175   0.17565   0.23801  -0.11937
  19   31758.4    314.9   0.166800477   1.72907  -0.51582   1.02570  -0.64105
  20   32009.4    312.4   0.115254371   1.18537   0.84165  -0.64990  -0.23372
  21   32051.3    312.0   0.321269765   3.29989  -1.19224   1.22504   0.61461
  22   32625.7    306.5   0.150339870   1.51702   0.46151  -1.11228  -0.25855
  23   32699.0    305.8   0.041707342   0.41991  -0.57795   0.28583  -0.06462
  24   32977.8    303.2   0.045961761   0.45883  -0.27660   0.61220  -0.08678
  25   33459.3    298.9   0.031176592   0.30675   0.12715   0.48309  -0.23919
  26   33845.7    295.5   0.014702066   0.14300  -0.17308  -0.17579  -0.28661
  27   33999.3    294.1   0.159214999   1.54166  -1.08975   0.42119   0.42035
  28   34234.6    292.1   0.078203523   0.75203  -0.67984   0.53472   0.06265
  29   34294.7    291.6   0.009925616   0.09528  -0.19162  -0.16416   0.17780
  30   34457.2    290.2   0.088286301   0.84351   0.66574   0.60878  -0.17227
  31   34750.1    287.8   0.046000631   0.43580   0.58687   0.24805  -0.17276
  32   34875.6    286.7   0.032643308   0.30814  -0.22800  -0.20657  -0.46205
  33   35047.7    285.3   0.010239736   0.09618   0.21622   0.20950  -0.07446
  34   35281.3    283.4   0.090786506   0.84713   0.03542  -0.11595  -0.91238
  35   35421.0    282.3   0.072435489   0.67323  -0.13370  -0.65180   0.48012
  36   35662.9    280.4   0.544659211   5.02786   0.02907   2.12056  -0.72817
  37   36050.5    277.4   0.768654866   7.01933   1.20428   2.15417   0.96363
  38   36169.4    276.5   0.050488961   0.45955   0.36291  -0.40742   0.40230
  39   36424.1    274.5   0.033582626   0.30353   0.45509  -0.27964   0.13502
  40   36870.0    271.2   0.300542894   2.68355   0.66965  -1.49242   0.08838
  41   37130.2    269.3   0.014471665   0.12831   0.25590  -0.18944   0.16413
  42   37460.6    266.9   0.014250806   0.12524  -0.00543  -0.21920  -0.27778
  43   37759.5    264.8   0.053269449   0.46444  -0.11747   0.66764  -0.06996
  44   37813.6    264.5   0.015520460   0.13512  -0.06553  -0.34367  -0.11277
  45   38012.9    263.1   0.029300692   0.25376  -0.08085  -0.49608   0.03355
  46   38699.4    258.4   0.027324772   0.23245  -0.34754   0.22997   0.24245
  47   38916.2    257.0   0.027446104   0.23218  -0.03259   0.39658   0.27174
  48   39107.6    255.7   0.043609833   0.36711  -0.16705  -0.07137   0.57802
  49   39221.4    255.0   0.093993101   0.78895  -0.00973  -0.78971   0.40646
  50   39257.1    254.7   0.076655698   0.64284  -0.31002  -0.26601   0.68990
  51   39453.8    253.5   0.017709325   0.14777  -0.28522   0.06587   0.24917
  52   39673.4    252.1   0.002764242   0.02294  -0.00732   0.10013   0.11340
  53   39893.2    250.7   0.015734984   0.12985   0.10403   0.20831  -0.27502
  54   39959.1    250.3   0.025794137   0.21251  -0.11520  -0.11209   0.43206
  55   40072.9    249.5   0.084082065   0.69076  -0.32322  -0.51446   0.56712
  56   40224.7    248.6   0.001731934   0.01417   0.06696  -0.09112  -0.03725

FINAL SINGLE POINT ENERGY     -5969.306377356134

DIPOLE MOMENT
-------------
                                X             Y             Z
Electronic contribution:     -0.78798       1.02695     -18.29970
Nuclear contribution   :     -0.59612      -1.75723      19.13721
                        -----------------------------------------
Total Dipole Moment    :     -1.38410      -0.73028       0.83751
                        -----------------------------------------
Magnitude (a.u.)       :      1.77496
Magnitude (Debye)      :      4.51158

Rotational constants in cm-1:     0.000808     0.000306     0.000233
Rotational constants in MHz :    24.224893     9.171464     6.984067

                             ****ORCA TERMINATED NORMALLY****
TOTAL RUN TIME: 0 days 0 hours 10 minutes 33 seconds 646 msec
