                         Program Version 4.2.0 -  RELEASE  -
|  1> # ORCA input file
|  2> # SCF done       -157.823935629851          0.000427165294
|  3> ! CAM-B3LYP def2-SVP def2/J RIJCOSX Grid4 TightSCF
|  4> %maxcore 5000
|  5> %tddft
|  6>     Mode sTDDFT
|  7>     Ethresh 5.0
|  8>     maxcore 5000
|  9> end
| 10>
| 11> %pal
| 12>   nprocs 6
| 13>   end
| 14> * xyz 0 1
| 15>    C       -3.32286         9.16299        -1.92152
| 16>    C       -2.85003         8.97265        -0.65421
| 17>    C       -1.74597         8.14522        -0.37391
| 18>    C       -1.04021         7.45207        -1.34068
| 19>    C       -1.50895         7.63516        -2.67617
| 20>    C       -2.64485         8.48658        -2.95079
| 21>    N       -2.84601         8.46431        -4.25525
| 22>    O       -1.91501         7.66939        -4.76458
| 23>    N       -1.09950         7.15954        -3.83721
| 24>    C        0.09090         6.61017        -1.03942
| 25>    C        0.73732         5.87747        -2.00148
| 26>    C        1.84291         5.05405        -1.79015
| 27>    C        2.36347         4.83338        -0.43407
| 28>    C        1.88670         5.45243         0.66716
| 29>    S        0.59931         6.58460         0.64828
| 30>    C        3.40557         3.87702        -0.57568
| 31>    C        3.53702         3.52786        -1.91910
| 32>    C        4.56499         2.58115        -2.12527
| 33>    C        5.17101         2.24186        -0.95792
| 34>    S        4.52842         3.05314         0.43167
| 35>    C        2.57978         4.27017        -2.69987
| 36>    C        2.49903         4.15295        -4.10763
| 37>    C        1.84532         4.96143        -4.98334
| 38>    C        1.80696         4.74498        -6.37950
| 39>    C        1.17564         5.54946        -7.31836
| 40>    C        1.31223         5.05661        -8.61305
| 41>    C        2.05112         3.86057        -8.66812
| 42>    S        2.58130         3.34997        -7.12666
| 43>    C        2.12101         3.43374       -10.01336
| 44>    C        1.42376         4.35446       -10.81653
| 45>    C        0.90295         5.41025        -9.96505
| 46>    C        0.19541         6.51010       -10.35387
| 47>    C       -0.23209         7.49685        -9.44097
| 48>    N       -0.57315         8.31245        -8.71075
| 49>    C       -0.14349         6.74356       -11.70268
| 50>    N       -0.42183         6.93605       -12.79861
| 51>    C        1.43022         4.00957       -12.16772
| 52>    C        2.12461         2.83742       -12.40463
| 53>    S        2.78715         2.15056       -10.92029
| 54>    C        2.34439         2.18310       -13.65114
| 55>    C        3.08141         1.02921       -13.75480
| 56>    C        3.34255         0.34188       -14.94006
| 57>    C        2.71816         0.77539       -16.19999
| 58>    C        1.96561         1.88904       -16.33129
| 59>    S        1.61060         2.96705       -15.04555
| 60>    C        3.08519        -0.20414       -17.16202
| 61>    C        3.88713        -1.17221       -16.55875
| 62>    C        4.28975        -2.17221       -17.47136
| 63>    C        3.79082        -1.94417       -18.71438
| 64>    S        2.82197        -0.51335       -18.83276
| 65>    C        4.08021        -0.83286       -15.17209
| 66>    C        4.89004        -1.60463       -14.29717
| 67>    C        5.40079        -1.20959       -13.10663
| 68>    C        6.18896        -2.01013       -12.21763
| 69>    C        6.60244        -3.31482       -12.41466
| 70>    C        7.37438        -4.02681       -11.47566
| 71>    C        7.77829        -3.49279       -10.28296
| 72>    C        7.38268        -2.16914       -10.02003
| 73>    C        6.59633        -1.43273       -10.98031
| 74>    N        6.36943        -0.23964       -10.47057
| 75>    O        6.96917        -0.22308        -9.27927
| 76>    N        7.58460        -1.37122        -8.98706
| 77>    H       -4.16560         9.79277        -2.14838
| 78>    H       -3.33157         9.46834         0.17525
| 79>    H       -1.44202         8.05045         0.65795
| 80>    H        0.32257         5.94236        -2.99424
| 81>    H        2.29249         5.28168         1.65192
| 82>    H        4.84512         2.17016        -3.07819
| 83>    H        5.97733         1.54973        -0.81282
| 84>    H        3.06228         3.32475        -4.52464
| 85>    H        1.32657         5.84760        -4.65234
| 86>    H        0.64152         6.44220        -7.04747
| 87>    H        0.95639         4.57612       -12.94917
| 88>    H        3.46080         0.62335       -12.82811
| 89>    H        1.53479         2.18912       -17.27357
| 90>    H        4.91204        -3.01521       -17.23068
| 91>    H        3.93093        -2.53662       -19.59747
| 92>    H        5.13152        -2.59337       -14.66698
| 93>    H        5.24783        -0.20044       -12.75712
| 94>    H        6.33203        -3.82242       -13.32770
| 95>    H        7.65366        -5.04161       -11.71963
| 96>    H        8.36724        -4.03964        -9.56649
| 97> *
| 98>
| 99>                          ****END OF INPUT****

CARTESIAN COORDINATES (ANGSTROEM)
---------------------------------
  C     -3.322860    9.162990   -1.921520
  C     -2.850030    8.972650   -0.654210
  C     -1.745970    8.145220   -0.373910
  C     -1.040210    7.452070   -1.340680
  C     -1.508950    7.635160   -2.676170
  C     -2.644850    8.486580   -2.950790
  N     -2.846010    8.464310   -4.255250
  O     -1.915010    7.669390   -4.764580
  N     -1.099500    7.159540   -3.837210
  C      0.090900    6.610170   -1.039420
  C      0.737320    5.877470   -2.001480
  C      1.842910    5.054050   -1.790150
  C      2.363470    4.833380   -0.434070
  C      1.886700    5.452430    0.667160
  S      0.599310    6.584600    0.648280
  C      3.405570    3.877020   -0.575680
  C      3.537020    3.527860   -1.919100
  C      4.564990    2.581150   -2.125270
  C      5.171010    2.241860   -0.957920
  S      4.528420    3.053140    0.431670
  C      2.579780    4.270170   -2.699870
  C      2.499030    4.152950   -4.107630
  C      1.845320    4.961430   -4.983340
  C      1.806960    4.744980   -6.379500
  C      1.175640    5.549460   -7.318360
  C      1.312230    5.056610   -8.613050
  C      2.051120    3.860570   -8.668120
  S      2.581300    3.349970   -7.126660
  C      2.121010    3.433740  -10.013360
  C      1.423760    4.354460  -10.816530
  C      0.902950    5.410250   -9.965050
  C      0.195410    6.510100  -10.353870
  C     -0.232090    7.496850   -9.440970
  N     -0.573150    8.312450   -8.710750
  C     -0.143490    6.743560  -11.702680
  N     -0.421830    6.936050  -12.798610
  C      1.430220    4.009570  -12.167720
  C      2.124610    2.837420  -12.404630
  S      2.787150    2.150560  -10.920290
  C      2.344390    2.183100  -13.651140
  C      3.081410    1.029210  -13.754800
  C      3.342550    0.341880  -14.940060
  C      2.718160    0.775390  -16.199990
  C      1.965610    1.889040  -16.331290
  S      1.610600    2.967050  -15.045550
  C      3.085190   -0.204140  -17.162020
  C      3.887130   -1.172210  -16.558750
  C      4.289750   -2.172210  -17.471360
  C      3.790820   -1.944170  -18.714380
  S      2.821970   -0.513350  -18.832760
  C      4.080210   -0.832860  -15.172090
  C      4.890040   -1.604630  -14.297170
  C      5.400790   -1.209590  -13.106630
  C      6.188960   -2.010130  -12.217630
  C      6.602440   -3.314820  -12.414660
  C      7.374380   -4.026810  -11.475660
  C      7.778290   -3.492790  -10.282960
  C      7.382680   -2.169140  -10.020030
  C      6.596330   -1.432730  -10.980310
  N      6.369430   -0.239640  -10.470570
  O      6.969170   -0.223080   -9.279270
  N      7.584600   -1.371220   -8.987060
  H     -4.165600    9.792770   -2.148380
  H     -3.331570    9.468340    0.175250
  H     -1.442020    8.050450    0.657950
  H      0.322570    5.942360   -2.994240
  H      2.292490    5.281680    1.651920
  H      4.845120    2.170160   -3.078190
  H      5.977330    1.549730   -0.812820
  H      3.062280    3.324750   -4.524640
  H      1.326570    5.847600   -4.652340
  H      0.641520    6.442200   -7.047470
  H      0.956390    4.576120  -12.949170
  H      3.460800    0.623350  -12.828110
  H      1.534790    2.189120  -17.273570
  H      4.912040   -3.015210  -17.230680
  H      3.930930   -2.536620  -19.597470
  H      5.131520   -2.593370  -14.666980
  H      5.247830   -0.200440  -12.757120
  H      6.332030   -3.822420  -13.327700
  H      7.653660   -5.041610  -11.719630
  H      8.367240   -4.039640   -9.566490

 Total Charge           Charge          ....    0
 Multiplicity           Mult            ....    1
 Number of Electrons    NEL             ....  462
 Basis Dimension        Dim             ....  992

ORBITAL ENERGIES
----------------

  NO   OCC          E(Eh)            E(eV)
   0   2.0000     -88.980252     -2421.2757
   1   2.0000     -88.973888     -2421.1026
   2   2.0000     -88.973669     -2421.0966
   3   2.0000     -88.970948     -2421.0226
   4   2.0000     -88.953853     -2420.5574
   5   2.0000     -88.952830     -2420.5296
   6   2.0000     -19.354617      -526.6659
   7   2.0000     -19.342381      -526.3329
   8   2.0000     -14.481305      -394.0563
   9   2.0000     -14.478483      -393.9795
  10   2.0000     -14.468737      -393.7143
  11   2.0000     -14.465302      -393.6209
  12   2.0000     -14.421235      -392.4218
  13   2.0000     -14.418798      -392.3554
  14   2.0000     -10.353657      -281.7373
  15   2.0000     -10.341159      -281.3972
  16   2.0000     -10.328737      -281.0592
  17   2.0000     -10.326092      -280.9873
  18   2.0000     -10.324896      -280.9547
  19   2.0000     -10.324767      -280.9512
  20   2.0000     -10.323126      -280.9065
  21   2.0000     -10.323013      -280.9035
  22   2.0000     -10.321836      -280.8714
  23   2.0000     -10.319026      -280.7950
  24   2.0000     -10.318864      -280.7906
  25   2.0000     -10.317762      -280.7606
  26   2.0000     -10.316966      -280.7389
  27   2.0000     -10.315947      -280.7112
  28   2.0000     -10.311316      -280.5852
  29   2.0000     -10.311052      -280.5780
  30   2.0000     -10.307968      -280.4941
  31   2.0000     -10.297742      -280.2158
  32   2.0000     -10.296665      -280.1865
  33   2.0000     -10.295925      -280.1664
  34   2.0000     -10.295761      -280.1619
  35   2.0000     -10.295006      -280.1414
  36   2.0000     -10.293986      -280.1136
  37   2.0000     -10.293518      -280.1009
  38   2.0000     -10.293503      -280.1004
  39   2.0000     -10.293352      -280.0964
  40   2.0000     -10.291782      -280.0536
  41   2.0000     -10.291639      -280.0497
  42   2.0000     -10.290171      -280.0098
  43   2.0000     -10.287551      -279.9385
  44   2.0000     -10.287037      -279.9245
  45   2.0000     -10.284663      -279.8599
  46   2.0000     -10.284271      -279.8492
  47   2.0000     -10.283846      -279.8377
  48   2.0000     -10.283592      -279.8308
  49   2.0000     -10.281755      -279.7808
  50   2.0000     -10.281626      -279.7773
  51   2.0000     -10.280241      -279.7396
  52   2.0000     -10.279356      -279.7155
  53   2.0000     -10.277200      -279.6568
  54   2.0000     -10.276579      -279.6399
  55   2.0000     -10.274831      -279.5924
  56   2.0000     -10.272037      -279.5163
  57   2.0000     -10.271964      -279.5143
  58   2.0000     -10.270465      -279.4736
  59   2.0000     -10.269334      -279.4428
  60   2.0000     -10.269072      -279.4357
  61   2.0000     -10.268948      -279.4323
  62   2.0000      -8.074453      -219.7170
  63   2.0000      -8.069068      -219.5705
  64   2.0000      -8.068116      -219.5446
  65   2.0000      -8.066175      -219.4918
  66   2.0000      -8.049187      -219.0295
  67   2.0000      -8.048212      -219.0030
  68   2.0000      -6.043764      -164.4592
  69   2.0000      -6.039597      -164.3458
  70   2.0000      -6.038692      -164.3212
  71   2.0000      -6.037304      -164.2834
  72   2.0000      -6.036707      -164.2672
  73   2.0000      -6.035713      -164.2401
  74   2.0000      -6.034089      -164.1959
  75   2.0000      -6.033249      -164.1731
  76   2.0000      -6.031246      -164.1185
  77   2.0000      -6.030894      -164.1090
  78   2.0000      -6.030543      -164.0994
  79   2.0000      -6.028102      -164.0330
  80   2.0000      -6.018642      -163.7756
  81   2.0000      -6.017685      -163.7495
  82   2.0000      -6.014416      -163.6606
  83   2.0000      -6.013442      -163.6341
  84   2.0000      -6.011204      -163.5732
  85   2.0000      -6.010186      -163.5455
  86   2.0000      -1.307419       -35.5767
  87   2.0000      -1.292939       -35.1827
  88   2.0000      -1.032897       -28.1066
  89   2.0000      -1.013447       -27.5773
  90   2.0000      -1.011827       -27.5332
  91   2.0000      -1.003391       -27.3037
  92   2.0000      -1.003021       -27.2936
  93   2.0000      -0.997694       -27.1486
  94   2.0000      -0.997468       -27.1425
  95   2.0000      -0.997240       -27.1363
  96   2.0000      -0.988075       -26.8869
  97   2.0000      -0.984971       -26.8024
  98   2.0000      -0.966460       -26.2987
  99   2.0000      -0.965679       -26.2775
 100   2.0000      -0.946745       -25.7622
 101   2.0000      -0.927864       -25.2485
 102   2.0000      -0.925176       -25.1753
 103   2.0000      -0.915383       -24.9088
 104   2.0000      -0.909651       -24.7529
 105   2.0000      -0.905230       -24.6326
 106   2.0000      -0.896749       -24.4018
 107   2.0000      -0.888852       -24.1869
 108   2.0000      -0.880948       -23.9718
 109   2.0000      -0.868638       -23.6369
 110   2.0000      -0.857548       -23.3351
 111   2.0000      -0.851121       -23.1602
 112   2.0000      -0.849689       -23.1212
 113   2.0000      -0.840904       -22.8822
 114   2.0000      -0.838687       -22.8218
 115   2.0000      -0.824509       -22.4360
 116   2.0000      -0.812563       -22.1110
 117   2.0000      -0.800757       -21.7897
 118   2.0000      -0.791574       -21.5398
 119   2.0000      -0.781154       -21.2563
 120   2.0000      -0.772089       -21.0096
 121   2.0000      -0.766166       -20.8484
 122   2.0000      -0.759765       -20.6743
 123   2.0000      -0.753380       -20.5005
 124   2.0000      -0.748468       -20.3668
 125   2.0000      -0.734712       -19.9925
 126   2.0000      -0.732161       -19.9231
 127   2.0000      -0.726600       -19.7718
 128   2.0000      -0.715545       -19.4710
 129   2.0000      -0.709707       -19.3121
 130   2.0000      -0.690257       -18.7828
 131   2.0000      -0.685521       -18.6540
 132   2.0000      -0.679407       -18.4876
 133   2.0000      -0.668019       -18.1777
 134   2.0000      -0.662797       -18.0356
 135   2.0000      -0.654456       -17.8086
 136   2.0000      -0.652983       -17.7686
 137   2.0000      -0.640102       -17.4181
 138   2.0000      -0.632676       -17.2160
 139   2.0000      -0.629709       -17.1352
 140   2.0000      -0.627356       -17.0712
 141   2.0000      -0.624586       -16.9958
 142   2.0000      -0.616173       -16.7669
 143   2.0000      -0.613275       -16.6881
 144   2.0000      -0.607040       -16.5184
 145   2.0000      -0.605262       -16.4700
 146   2.0000      -0.604488       -16.4490
 147   2.0000      -0.601399       -16.3649
 148   2.0000      -0.597523       -16.2594
 149   2.0000      -0.592592       -16.1252
 150   2.0000      -0.587737       -15.9931
 151   2.0000      -0.582462       -15.8496
 152   2.0000      -0.578880       -15.7521
 153   2.0000      -0.570228       -15.5167
 154   2.0000      -0.567656       -15.4467
 155   2.0000      -0.563417       -15.3313
 156   2.0000      -0.557402       -15.1677
 157   2.0000      -0.554127       -15.0786
 158   2.0000      -0.546550       -14.8724
 159   2.0000      -0.539645       -14.6845
 160   2.0000      -0.536014       -14.5857
 161   2.0000      -0.531599       -14.4656
 162   2.0000      -0.528198       -14.3730
 163   2.0000      -0.523167       -14.2361
 164   2.0000      -0.515336       -14.0230
 165   2.0000      -0.513545       -13.9743
 166   2.0000      -0.509934       -13.8760
 167   2.0000      -0.509001       -13.8506
 168   2.0000      -0.508763       -13.8441
 169   2.0000      -0.506999       -13.7961
 170   2.0000      -0.501136       -13.6366
 171   2.0000      -0.494998       -13.4696
 172   2.0000      -0.494082       -13.4447
 173   2.0000      -0.489467       -13.3191
 174   2.0000      -0.485453       -13.2099
 175   2.0000      -0.481286       -13.0965
 176   2.0000      -0.480941       -13.0871
 177   2.0000      -0.480030       -13.0623
 178   2.0000      -0.478942       -13.0327
 179   2.0000      -0.471502       -12.8302
 180   2.0000      -0.468512       -12.7488
 181   2.0000      -0.468092       -12.7374
 182   2.0000      -0.464518       -12.6402
 183   2.0000      -0.460483       -12.5304
 184   2.0000      -0.455294       -12.3892
 185   2.0000      -0.453972       -12.3532
 186   2.0000      -0.453288       -12.3346
 187   2.0000      -0.452405       -12.3106
 188   2.0000      -0.451627       -12.2894
 189   2.0000      -0.447410       -12.1746
 190   2.0000      -0.446992       -12.1633
 191   2.0000      -0.446339       -12.1455
 192   2.0000      -0.443154       -12.0588
 193   2.0000      -0.435410       -11.8481
 194   2.0000      -0.432192       -11.7606
 195   2.0000      -0.430863       -11.7244
 196   2.0000      -0.430383       -11.7113
 197   2.0000      -0.426173       -11.5968
 198   2.0000      -0.425138       -11.5686
 199   2.0000      -0.423121       -11.5137
 200   2.0000      -0.421728       -11.4758
 201   2.0000      -0.420946       -11.4545
 202   2.0000      -0.418671       -11.3926
 203   2.0000      -0.416186       -11.3250
 204   2.0000      -0.414012       -11.2659
 205   2.0000      -0.407921       -11.1001
 206   2.0000      -0.405921       -11.0457
 207   2.0000      -0.403730       -10.9861
 208   2.0000      -0.402232       -10.9453
 209   2.0000      -0.399249       -10.8641
 210   2.0000      -0.390786       -10.6338
 211   2.0000      -0.387387       -10.5413
 212   2.0000      -0.385626       -10.4934
 213   2.0000      -0.382313       -10.4033
 214   2.0000      -0.381957       -10.3936
 215   2.0000      -0.372327       -10.1315
 216   2.0000      -0.362710        -9.8699
 217   2.0000      -0.362322        -9.8593
 218   2.0000      -0.350583        -9.5398
 219   2.0000      -0.341357        -9.2888
 220   2.0000      -0.337414        -9.1815
 221   2.0000      -0.330732        -8.9997
 222   2.0000      -0.322357        -8.7718
 223   2.0000      -0.313516        -8.5312
 224   2.0000      -0.310227        -8.4417
 225   2.0000      -0.294323        -8.0089
 226   2.0000      -0.287093        -7.8122
 227   2.0000      -0.273639        -7.4461
 228   2.0000      -0.262032        -7.1303
 229   2.0000      -0.231360        -6.2956
 230   2.0000      -0.213700        -5.8151
 231   0.0000      -0.097141        -2.6433
 232   0.0000      -0.075442        -2.0529
 233   0.0000      -0.068180        -1.8553
 234   0.0000      -0.043009        -1.1703
 235   0.0000      -0.036043        -0.9808

MULLIKEN ATOMIC CHARGES
-----------------------
   0 C :   -0.028015
   1 C :    0.049297
   2 C :   -0.077838
   3 C :    0.140884
   4 C :   -0.055617
   5 C :    0.004642
   6 N :    0.066721
   7 O :   -0.089739
   8 N :    0.017146
   9 C :   -0.084778
  10 C :   -0.069612
  11 C :    0.046252
  12 C :    0.066015
  13 C :   -0.123619
  14 S :    0.098478
  15 C :   -0.107765
  16 C :    0.045825
  17 C :    0.011148
  18 C :   -0.071501
  19 S :    0.125922
  20 C :    0.096045
  21 C :   -0.043019
  22 C :    0.005571
  23 C :   -0.045864
  24 C :   -0.046564
  25 C :    0.021393
  26 C :   -0.098755
  27 S :    0.166275
  28 C :   -0.088132
  29 C :    0.008365
  30 C :    0.303322
  31 C :   -0.300909
  32 C :   -0.191683
  33 N :    0.178009
  34 C :   -0.186903
  35 N :    0.166845
  36 C :   -0.053973
  37 C :   -0.067677
  38 S :    0.180972
  39 C :   -0.017979
  40 C :   -0.106703
  41 C :    0.058292
  42 C :    0.053084
  43 C :   -0.122453
  44 S :    0.136436
  45 C :   -0.108350
  46 C :    0.051655
  47 C :    0.003538
  48 C :   -0.069131
  49 S :    0.127277
  50 C :    0.076838
  51 C :    0.007692
  52 C :   -0.062060
  53 C :    0.114432
  54 C :   -0.060812
  55 C :    0.056022
  56 C :   -0.050230
  57 C :    0.020443
  58 C :   -0.071930
  59 N :    0.036136
  60 O :   -0.110894
  61 N :    0.048732
  62 H :   -0.006826
  63 H :    0.001929
  64 H :    0.006885
  65 H :    0.000477
  66 H :    0.033895
  67 H :   -0.014464
  68 H :    0.027627
  69 H :   -0.021787
  70 H :    0.000993
  71 H :    0.009112
  72 H :    0.017596
  73 H :    0.000048
  74 H :    0.036816
  75 H :   -0.020812
  76 H :    0.025214
  77 H :   -0.028950
  78 H :   -0.004879
  79 H :   -0.020254
  80 H :   -0.004856
  81 H :   -0.014963
Sum of atomic charges:   -0.0000000

LOEWDIN ATOMIC CHARGES
----------------------
   0 C :   -0.019787
   1 C :   -0.005158
   2 C :   -0.027067
   3 C :   -0.034098
   4 C :   -0.040342
   5 C :   -0.056189
   6 N :   -0.012430
   7 O :    0.079802
   8 N :   -0.037330
   9 C :   -0.172651
  10 C :   -0.008989
  11 C :   -0.028637
  12 C :   -0.047797
  13 C :   -0.140210
  14 S :    0.444324
  15 C :   -0.201462
  16 C :   -0.041206
  17 C :   -0.062721
  18 C :   -0.164810
  19 S :    0.419464
  20 C :   -0.039538
  21 C :   -0.026657
  22 C :   -0.041311
  23 C :   -0.151812
  24 C :   -0.029969
  25 C :   -0.068066
  26 C :   -0.187260
  27 S :    0.468373
  28 C :   -0.170535
  29 C :   -0.074778
  30 C :    0.084035
  31 C :   -0.103887
  32 C :   -0.018641
  33 N :   -0.029924
  34 C :   -0.015327
  35 N :   -0.038305
  36 C :   -0.037901
  37 C :   -0.185481
  38 S :    0.486376
  39 C :   -0.174027
  40 C :   -0.037078
  41 C :   -0.012201
  42 C :   -0.046911
  43 C :   -0.139931
  44 S :    0.464428
  45 C :   -0.206821
  46 C :   -0.039227
  47 C :   -0.066584
  48 C :   -0.166116
  49 S :    0.419305
  50 C :   -0.059285
  51 C :    0.007023
  52 C :   -0.044894
  53 C :   -0.016828
  54 C :   -0.023873
  55 C :   -0.004978
  56 C :   -0.033913
  57 C :   -0.058855
  58 C :   -0.053625
  59 N :   -0.035136
  60 O :    0.065905
  61 N :   -0.032094
  62 H :    0.041123
  63 H :    0.037146
  64 H :    0.024575
  65 H :    0.035536
  66 H :    0.035772
  67 H :    0.031018
  68 H :    0.023629
  69 H :    0.020106
  70 H :    0.037790
  71 H :    0.042436
  72 H :    0.034293
  73 H :    0.027549
  74 H :    0.037179
  75 H :    0.028419
  76 H :    0.022766
  77 H :    0.026692
  78 H :    0.028178
  79 H :    0.028380
  80 H :    0.034140
  81 H :    0.036890

  Mayer bond orders larger than 0.100000
B(  0-C ,  1-C ) :   1.5263 B(  0-C ,  3-C ) :   0.1032 B(  0-C ,  5-C ) :   1.1637
B(  0-C , 62-H ) :   1.0230 B(  1-C ,  2-C ) :   1.2100 B(  1-C , 63-H ) :   0.9809
B(  2-C ,  3-C ) :   1.5053 B(  2-C , 64-H ) :   0.9775 B(  3-C ,  4-C ) :   1.1444
B(  3-C ,  9-C ) :   1.1271 B(  4-C ,  5-C ) :   1.1494 B(  4-C ,  8-N ) :   1.5727
B(  5-C ,  6-N ) :   1.5941 B(  6-N ,  7-O ) :   1.0804 B(  6-N ,  8-N ) :   0.1819
B(  7-O ,  8-N ) :   1.0557 B(  9-C , 10-C ) :   1.5684 B(  9-C , 14-S ) :   1.0254
B( 10-C , 11-C ) :   1.2074 B( 10-C , 65-H ) :   0.9455 B( 11-C , 12-C ) :   1.0545
B( 11-C , 20-C ) :   1.3879 B( 12-C , 13-C ) :   1.6080 B( 12-C , 15-C ) :   1.1758
B( 13-C , 14-S ) :   1.1374 B( 13-C , 66-H ) :   0.9411 B( 15-C , 16-C ) :   1.4427
B( 15-C , 19-S ) :   1.0749 B( 16-C , 17-C ) :   1.2175 B( 16-C , 20-C ) :   1.0994
B( 17-C , 18-C ) :   1.5883 B( 17-C , 67-H ) :   0.9977 B( 18-C , 19-S ) :   1.1523
B( 18-C , 68-H ) :   0.9667 B( 20-C , 21-C ) :   1.1788 B( 21-C , 22-C ) :   1.5899
B( 21-C , 69-H ) :   0.9539 B( 22-C , 23-C ) :   1.1792 B( 22-C , 70-H ) :   0.9728
B( 23-C , 24-C ) :   1.4217 B( 23-C , 27-S ) :   1.0908 B( 24-C , 25-C ) :   1.2788
B( 24-C , 71-H ) :   1.0056 B( 25-C , 26-C ) :   1.4320 B( 25-C , 30-C ) :   0.9924
B( 26-C , 27-S ) :   1.1146 B( 26-C , 28-C ) :   1.1979 B( 28-C , 29-C ) :   1.4334
B( 28-C , 38-S ) :   1.1328 B( 29-C , 30-C ) :   1.0014 B( 29-C , 36-C ) :   1.3026
B( 30-C , 31-C ) :   1.7109 B( 31-C , 32-C ) :   1.1321 B( 31-C , 34-C ) :   1.1326
B( 32-C , 33-N ) :   2.9980 B( 34-C , 35-N ) :   2.9908 B( 36-C , 37-C ) :   1.4574
B( 36-C , 72-H ) :   0.9802 B( 37-C , 38-S ) :   1.0989 B( 37-C , 39-C ) :   1.1681
B( 39-C , 40-C ) :   1.5181 B( 39-C , 44-S ) :   1.0634 B( 40-C , 41-C ) :   1.2428
B( 40-C , 73-H ) :   0.9599 B( 41-C , 42-C ) :   1.0567 B( 41-C , 50-C ) :   1.3883
B( 42-C , 43-C ) :   1.6109 B( 42-C , 45-C ) :   1.1737 B( 43-C , 44-S ) :   1.1375
B( 43-C , 74-H ) :   0.9405 B( 45-C , 46-C ) :   1.4455 B( 45-C , 49-S ) :   1.0723
B( 46-C , 47-C ) :   1.2199 B( 46-C , 50-C ) :   1.0971 B( 47-C , 48-C ) :   1.5846
B( 47-C , 75-H ) :   0.9972 B( 48-C , 49-S ) :   1.1563 B( 48-C , 76-H ) :   0.9659
B( 50-C , 51-C ) :   1.1568 B( 51-C , 52-C ) :   1.6120 B( 51-C , 77-H ) :   0.9585
B( 52-C , 53-C ) :   1.1198 B( 52-C , 78-H ) :   0.9795 B( 53-C , 54-C ) :   1.4935
B( 53-C , 56-C ) :   0.1054 B( 53-C , 58-C ) :   1.1185 B( 54-C , 55-C ) :   1.2131
B( 54-C , 79-H ) :   0.9882 B( 55-C , 56-C ) :   1.5186 B( 55-C , 80-H ) :   0.9810
B( 56-C , 57-C ) :   1.1664 B( 56-C , 81-H ) :   1.0234 B( 57-C , 58-C ) :   1.1447
B( 57-C , 61-N ) :   1.5954 B( 58-C , 59-N ) :   1.6144 B( 59-N , 60-O ) :   1.0585
B( 59-N , 61-N ) :   0.1866 B( 60-O , 61-N ) :   1.0614

-----------------------------------------------------------------------------
         ABSORPTION SPECTRUM VIA TRANSITION ELECTRIC DIPOLE MOMENTS
-----------------------------------------------------------------------------
State   Energy  Wavelength   fosc         T2         TX        TY        TZ
        (cm-1)    (nm)                  (au**2)     (au)      (au)      (au)
-----------------------------------------------------------------------------
   0    9234.7   1082.9   0.218748275   7.79827   0.66788  -1.19164  -2.43561
   1   15394.1    649.6   0.556566698  11.90252   1.73150  -1.85641  -2.33627
   2   15661.8    638.5   0.174106137   3.65973   1.16790  -1.39592  -0.58920
   3   17195.0    581.6   0.167622315   3.20927   0.94190  -1.50947  -0.20878
   4   20522.2    487.3   0.083666753   1.34216  -0.05828   0.14019   1.14853
   5   21352.5    468.3   0.101146111   1.55947  -0.17995  -0.02865  -1.23542
   6   22514.4    444.2   0.015555048   0.22745  -0.28014   0.16666  -0.34813
   7   23019.1    434.4   0.106794858   1.52735  -0.43730   0.32947  -1.10796
   8   23418.3    427.0   0.859932958  12.08886  -1.29208   0.36160  -3.20759
   9   25225.7    396.4   0.249368338   3.25442   0.90693  -1.21389  -0.97896
  10   25620.6    390.3   0.136077945   1.74854   0.20110  -0.62190  -1.14949
  11   26691.2    374.7   0.255447241   3.15071  -0.84757   0.43536  -1.49759
  12   27149.9    368.3   0.193487618   2.34618  -0.32514   0.44182  -1.43013
  13   28103.4    355.8   0.011016117   0.12905  -0.03002  -0.10013   0.34368
  14   28365.7    352.5   0.174263039   2.02249   0.67732  -0.61948   1.08627
  15   29601.6    337.8   0.013043041   0.14506  -0.08320   0.08716  -0.36130
  16   29909.4    334.3   0.068885238   0.75822   0.48479  -0.61263  -0.38456
  17   30606.9    326.7   0.049032165   0.52740  -0.35646   0.51460  -0.36813
  18   30806.9    324.6   0.279122484   2.98279  -0.93503   1.34530  -0.54652
  19   31070.8    321.8   0.258532971   2.73930   0.76219  -1.37848   0.50810
  20   31772.1    314.7   0.093277791   0.96651  -0.10266   0.35699   0.91024
  21   32402.8    308.6   0.113960586   1.15784   0.55583  -0.83716  -0.38478
  22   32728.2    305.5   0.328826704   3.30766   0.28230  -0.91619  -1.54550
  23   33055.3    302.5   0.157723760   1.57084  -0.78922   0.72108   0.65423
  24   33548.2    298.1   0.084118793   0.82547   0.43506  -0.15426   0.78256
  25   34043.5    293.7   0.079002862   0.76398   0.26901  -0.11766   0.82327
  26   34334.5    291.3   0.129647687   1.24311  -0.74542   0.34375  -0.75451
  27   34733.3    287.9   0.198273805   1.87929  -0.82255   0.72505  -0.82280
  28   35047.7    285.3   0.088636502   0.83258   0.28963  -0.66632  -0.55201
  29   35948.8    278.2   0.141288849   1.29389  -0.66551   0.60284  -0.69826
  30   36057.4    277.3   0.202336377   1.84738  -0.87570   0.75190  -0.71775
  31   36190.0    276.3   0.185032210   1.68320  -0.54762   1.02598   0.57505
  32   36564.5    273.5   0.102680299   0.92449  -0.55290   0.24754  -0.74667
  33   36812.0    271.7   0.028361319   0.25364  -0.05783   0.07044   0.49531
  34   37046.9    269.9   0.078770919   0.69999  -0.47253   0.27058  -0.63521
  35   37448.0    267.0   0.019687008   0.17307  -0.20877   0.33078  -0.14168
  36   38083.7    262.6   0.229865810   1.98706  -0.37405   0.91196   1.00770
  37   38629.7    258.9   0.003180910   0.02711  -0.09825   0.12404  -0.04550
  38   39089.9    255.8   0.054513374   0.45911  -0.24128   0.42682   0.46767
  39   39214.7    255.0   0.043317391   0.36365  -0.29804   0.26197  -0.45409
  40   39705.3    251.9   0.024191668   0.20058  -0.38402   0.19213  -0.12728
  41   40043.5    249.7   0.004391793   0.03611  -0.03332   0.07132   0.17295
  42   40159.5    249.0   0.074695485   0.61232   0.52672  -0.57817  -0.02463

FINAL SINGLE POINT ENERGY     -4705.292736343140

DIPOLE MOMENT
-------------
                                X             Y             Z
Electronic contribution:     -8.90424      16.32673      -1.03768
Nuclear contribution   :      9.09670     -18.01654       2.41280
                        -----------------------------------------
Total Dipole Moment    :      0.19246      -1.68981       1.37512
                        -----------------------------------------
Magnitude (a.u.)       :      2.18711
Magnitude (Debye)      :      5.55919

Rotational constants in cm-1:     0.001621     0.000432     0.000346
Rotational constants in MHz :    48.608385    12.958653    10.361066

                             ****ORCA TERMINATED NORMALLY****
TOTAL RUN TIME: 0 days 0 hours 7 minutes 0 seconds 610 msec
