                         Program Version 4.2.0 -  RELEASE  -
|  1> # ORCA input file
|  2> # SCF done       -178.119624257400          0.000754678278
|  3> ! CAM-B3LYP def2-SVP def2/J RIJCOSX Grid4 TightSCF
|  4> %maxcore 5000
|  5> %tddft
|  6>     Mode sTDDFT
|  7>     Ethresh 5.0
|  8>     maxcore 5000
|  9> end
| 10>
| 11> %pal
| 12>   nprocs 6
| 13>   end
| 14> * xyz 0 1
| 15>    C       -6.25712        -1.66493        -5.25828
| 16>    O       -6.03192        -2.80745        -5.63388
| 17>    C       -6.17814        -0.46984        -6.11904
| 18>    C       -6.49502         0.67420        -5.36827
| 19>    C       -6.48593         1.91648        -5.98532
| 20>    C       -6.16168         1.99250        -7.33227
| 21>    C       -5.85079         0.84723        -8.05247
| 22>    C       -5.85338        -0.40735        -7.45812
| 23>   Br       -5.41270         1.00069        -9.89511
| 24>    C       -6.78706         0.26174        -3.99567
| 25>    C       -7.12356         1.12300        -2.98228
| 26>    C       -7.23178         2.52156        -3.13910
| 27>    N       -7.33868         3.66332        -3.19260
| 28>    C       -7.40865         0.77959        -1.64384
| 29>    N       -7.65767         0.60272        -0.53621
| 30>    C       -6.64692        -1.18251        -3.92804
| 31>    C       -6.86045        -1.92047        -2.78183
| 32>    C       -6.76901        -3.29415        -2.53636
| 33>    N       -6.42130        -4.26562        -3.44920
| 34>    C       -6.44189        -5.45900        -2.82626
| 35>    C       -6.23119        -6.82072        -3.01091
| 36>    C       -6.47571        -7.42557        -1.76995
| 37>    N       -6.82804        -6.46080        -0.84715
| 38>    C       -6.81772        -5.24770        -1.46160
| 39>    C       -7.02306        -3.89724        -1.27734
| 40>    C       -6.39856        -8.78837        -1.39077
| 41>    C       -6.07142        -9.80469        -2.23084
| 42>    C       -5.97189       -11.18357        -1.89346
| 43>    C       -6.16557       -11.71230        -0.63197
| 44>    C       -6.06780       -13.05749        -0.30435
| 45>    C       -5.84558       -14.07358        -1.34003
| 46>    C       -5.60610       -13.78909        -2.64081
| 47>    S       -5.55262       -12.19607        -3.26524
| 48>    C       -5.95027       -15.32878        -0.67933
| 49>    C       -6.21278       -15.12388         0.67498
| 50>    C       -6.33725       -16.33543         1.38841
| 51>    C       -6.17079       -17.40786         0.57102
| 52>    S       -5.85349       -16.99569        -1.08192
| 53>    C       -6.25205       -13.70949         0.94428
| 54>    C       -6.42660       -13.20466         2.24234
| 55>    C       -6.19658       -11.93458         2.69752
| 56>    C       -6.44332       -11.52461         4.01966
| 57>    C       -6.19027       -10.15491         4.48388
| 58>    N       -6.51224        -9.92840         5.72038
| 59>    C       -6.99501       -11.11822         6.18985
| 60>    C       -6.96192       -12.15210         5.14843
| 61>    C       -7.45957       -13.38398         5.68605
| 62>    S       -7.64121       -14.86612         4.98793
| 63>    C       -7.81174       -13.06632         7.05306
| 64>    C       -7.51341       -11.66704         7.33991
| 65>    N       -7.84892       -11.35774         8.62533
| 66>    C       -8.28266       -12.46420         9.15166
| 67>    C       -8.29327       -13.60577         8.22545
| 68>    C       -8.77477       -14.91533         8.47782
| 69>    C       -8.81624       -15.56222         9.67165
| 70>    C       -9.71621       -16.72998         9.87096
| 71>    O      -10.29049       -17.36472         9.02006
| 72>    C       -9.79800       -16.89597        11.34118
| 73>    C       -8.91802       -15.99467        11.96988
| 74>    C       -8.18893       -15.25631        10.94233
| 75>    C       -7.00105       -14.59884        11.11602
| 76>    C       -6.40266       -14.38565        12.37518
| 77>    N       -5.89256       -14.18197        13.38265
| 78>    C       -6.19079       -14.15821        10.04618
| 79>    N       -5.46086       -13.85748         9.21366
| 80>    C       -8.84985       -15.95062        13.35474
| 81>    C       -9.65366       -16.80927        14.08843
| 82>    C      -10.50567       -17.70109        13.44850
| 83>    C      -10.59487       -17.75962        12.06410
| 84>   Br      -11.57838       -18.86599        14.49702
| 85>    H       -6.72335         2.82028        -5.44965
| 86>    H       -6.15092         2.95205        -7.82595
| 87>    H       -5.61335        -1.30200        -8.01143
| 88>    H       -7.15029        -1.36072        -1.90313
| 89>    H       -6.19800        -4.03635        -4.41983
| 90>    H       -5.93868        -7.32208        -3.91015
| 91>    H       -7.06083        -6.64283         0.11401
| 92>    H       -7.31225        -3.37137        -0.38972
| 93>    H       -6.62596        -8.99531        -0.35357
| 94>    H       -5.86228        -9.56678        -3.26425
| 95>    H       -6.44053       -11.01887         0.14673
| 96>    H       -5.42624       -14.55545        -3.37795
| 97>    H       -6.54560       -16.41283         2.43985
| 98>    H       -6.21344       -18.44671         0.83374
| 99>    H       -6.74858       -13.93534         2.97400
|100>    H       -5.76936       -11.18400         2.04679
|101>    H       -5.76847        -9.37170         3.87584
|102>    H       -8.65076       -12.48135        10.16284
|103>    H       -9.21920       -15.43743         7.63525
|104>    H       -8.19837       -15.26073        13.86642
|105>    H       -9.61871       -16.78689        15.16680
|106>    H      -11.25731       -18.44927        11.56430
|107> *
|108>
|109>                          ****END OF INPUT****

CARTESIAN COORDINATES (ANGSTROEM)
---------------------------------
  C     -6.257120   -1.664930   -5.258280
  O     -6.031920   -2.807450   -5.633880
  C     -6.178140   -0.469840   -6.119040
  C     -6.495020    0.674200   -5.368270
  C     -6.485930    1.916480   -5.985320
  C     -6.161680    1.992500   -7.332270
  C     -5.850790    0.847230   -8.052470
  C     -5.853380   -0.407350   -7.458120
  Br    -5.412700    1.000690   -9.895110
  C     -6.787060    0.261740   -3.995670
  C     -7.123560    1.123000   -2.982280
  C     -7.231780    2.521560   -3.139100
  N     -7.338680    3.663320   -3.192600
  C     -7.408650    0.779590   -1.643840
  N     -7.657670    0.602720   -0.536210
  C     -6.646920   -1.182510   -3.928040
  C     -6.860450   -1.920470   -2.781830
  C     -6.769010   -3.294150   -2.536360
  N     -6.421300   -4.265620   -3.449200
  C     -6.441890   -5.459000   -2.826260
  C     -6.231190   -6.820720   -3.010910
  C     -6.475710   -7.425570   -1.769950
  N     -6.828040   -6.460800   -0.847150
  C     -6.817720   -5.247700   -1.461600
  C     -7.023060   -3.897240   -1.277340
  C     -6.398560   -8.788370   -1.390770
  C     -6.071420   -9.804690   -2.230840
  C     -5.971890  -11.183570   -1.893460
  C     -6.165570  -11.712300   -0.631970
  C     -6.067800  -13.057490   -0.304350
  C     -5.845580  -14.073580   -1.340030
  C     -5.606100  -13.789090   -2.640810
  S     -5.552620  -12.196070   -3.265240
  C     -5.950270  -15.328780   -0.679330
  C     -6.212780  -15.123880    0.674980
  C     -6.337250  -16.335430    1.388410
  C     -6.170790  -17.407860    0.571020
  S     -5.853490  -16.995690   -1.081920
  C     -6.252050  -13.709490    0.944280
  C     -6.426600  -13.204660    2.242340
  C     -6.196580  -11.934580    2.697520
  C     -6.443320  -11.524610    4.019660
  C     -6.190270  -10.154910    4.483880
  N     -6.512240   -9.928400    5.720380
  C     -6.995010  -11.118220    6.189850
  C     -6.961920  -12.152100    5.148430
  C     -7.459570  -13.383980    5.686050
  S     -7.641210  -14.866120    4.987930
  C     -7.811740  -13.066320    7.053060
  C     -7.513410  -11.667040    7.339910
  N     -7.848920  -11.357740    8.625330
  C     -8.282660  -12.464200    9.151660
  C     -8.293270  -13.605770    8.225450
  C     -8.774770  -14.915330    8.477820
  C     -8.816240  -15.562220    9.671650
  C     -9.716210  -16.729980    9.870960
  O    -10.290490  -17.364720    9.020060
  C     -9.798000  -16.895970   11.341180
  C     -8.918020  -15.994670   11.969880
  C     -8.188930  -15.256310   10.942330
  C     -7.001050  -14.598840   11.116020
  C     -6.402660  -14.385650   12.375180
  N     -5.892560  -14.181970   13.382650
  C     -6.190790  -14.158210   10.046180
  N     -5.460860  -13.857480    9.213660
  C     -8.849850  -15.950620   13.354740
  C     -9.653660  -16.809270   14.088430
  C    -10.505670  -17.701090   13.448500
  C    -10.594870  -17.759620   12.064100
  Br   -11.578380  -18.865990   14.497020
  H     -6.723350    2.820280   -5.449650
  H     -6.150920    2.952050   -7.825950
  H     -5.613350   -1.302000   -8.011430
  H     -7.150290   -1.360720   -1.903130
  H     -6.198000   -4.036350   -4.419830
  H     -5.938680   -7.322080   -3.910150
  H     -7.060830   -6.642830    0.114010
  H     -7.312250   -3.371370   -0.389720
  H     -6.625960   -8.995310   -0.353570
  H     -5.862280   -9.566780   -3.264250
  H     -6.440530  -11.018870    0.146730
  H     -5.426240  -14.555450   -3.377950
  H     -6.545600  -16.412830    2.439850
  H     -6.213440  -18.446710    0.833740
  H     -6.748580  -13.935340    2.974000
  H     -5.769360  -11.184000    2.046790
  H     -5.768470   -9.371700    3.875840
  H     -8.650760  -12.481350   10.162840
  H     -9.219200  -15.437430    7.635250
  H     -8.198370  -15.260730   13.866420
  H     -9.618710  -16.786890   15.166800
  H    -11.257310  -18.449270   11.564300

 Total Charge           Charge          ....    0
 Multiplicity           Mult            ....    1
 Number of Electrons    NEL             ....  542
 Basis Dimension        Dim             .... 1138

ORBITAL ENERGIES
----------------

  NO   OCC          E(Eh)            E(eV)
   0   2.0000    -482.875056    -13139.6983
   1   2.0000    -482.872129    -13139.6186
   2   2.0000     -88.993875     -2421.6465
   3   2.0000     -88.963205     -2420.8119
   4   2.0000     -88.902339     -2419.1556
   5   2.0000     -62.552756     -1702.1470
   6   2.0000     -62.549830     -1702.0674
   7   2.0000     -56.386598     -1534.3573
   8   2.0000     -56.384066     -1534.2884
   9   2.0000     -56.384058     -1534.2882
  10   2.0000     -56.383668     -1534.2776
  11   2.0000     -56.381145     -1534.2090
  12   2.0000     -56.381137     -1534.2087
  13   2.0000     -19.229238      -523.2542
  14   2.0000     -19.223844      -523.1074
  15   2.0000     -14.481269      -394.0554
  16   2.0000     -14.458724      -393.4419
  17   2.0000     -14.422004      -392.4427
  18   2.0000     -14.420590      -392.4042
  19   2.0000     -14.418962      -392.3599
  20   2.0000     -14.415834      -392.2748
  21   2.0000     -14.411826      -392.1657
  22   2.0000     -14.411327      -392.1522
  23   2.0000     -10.377548      -282.3874
  24   2.0000     -10.374394      -282.3016
  25   2.0000     -10.352940      -281.7178
  26   2.0000     -10.348838      -281.6062
  27   2.0000     -10.348622      -281.6003
  28   2.0000     -10.344078      -281.4767
  29   2.0000     -10.342564      -281.4355
  30   2.0000     -10.341819      -281.4152
  31   2.0000     -10.341791      -281.4144
  32   2.0000     -10.340425      -281.3773
  33   2.0000     -10.339650      -281.3562
  34   2.0000     -10.339613      -281.3552
  35   2.0000     -10.339269      -281.3458
  36   2.0000     -10.334029      -281.2032
  37   2.0000     -10.329357      -281.0761
  38   2.0000     -10.323736      -280.9231
  39   2.0000     -10.323290      -280.9110
  40   2.0000     -10.321447      -280.8609
  41   2.0000     -10.321357      -280.8584
  42   2.0000     -10.321087      -280.8510
  43   2.0000     -10.320252      -280.8283
  44   2.0000     -10.319189      -280.7994
  45   2.0000     -10.319132      -280.7979
  46   2.0000     -10.316964      -280.7389
  47   2.0000     -10.316207      -280.7183
  48   2.0000     -10.315064      -280.6872
  49   2.0000     -10.314156      -280.6624
  50   2.0000     -10.314054      -280.6597
  51   2.0000     -10.313422      -280.6425
  52   2.0000     -10.312341      -280.6131
  53   2.0000     -10.309002      -280.5222
  54   2.0000     -10.308659      -280.5129
  55   2.0000     -10.308243      -280.5015
  56   2.0000     -10.308121      -280.4982
  57   2.0000     -10.307374      -280.4779
  58   2.0000     -10.307373      -280.4779
  59   2.0000     -10.305674      -280.4317
  60   2.0000     -10.305355      -280.4230
  61   2.0000     -10.304432      -280.3979
  62   2.0000     -10.304393      -280.3968
  63   2.0000     -10.302887      -280.3558
  64   2.0000     -10.302703      -280.3508
  65   2.0000     -10.300889      -280.3014
  66   2.0000     -10.299577      -280.2657
  67   2.0000     -10.298758      -280.2434
  68   2.0000     -10.295393      -280.1519
  69   2.0000     -10.295268      -280.1485
  70   2.0000     -10.293627      -280.1038
  71   2.0000     -10.289899      -280.0024
  72   2.0000     -10.286002      -279.8963
  73   2.0000     -10.285854      -279.8923
  74   2.0000     -10.285624      -279.8861
  75   2.0000     -10.285205      -279.8747
  76   2.0000     -10.281774      -279.7813
  77   2.0000     -10.278101      -279.6813
  78   2.0000      -8.782040      -238.9715
  79   2.0000      -8.779102      -238.8915
  80   2.0000      -8.089371      -220.1230
  81   2.0000      -8.058640      -219.2867
  82   2.0000      -7.997614      -217.6261
  83   2.0000      -6.617889      -180.0819
  84   2.0000      -6.614938      -180.0016
  85   2.0000      -6.604148      -179.7080
  86   2.0000      -6.603706      -179.6960
  87   2.0000      -6.601200      -179.6278
  88   2.0000      -6.600798      -179.6169
  89   2.0000      -6.058735      -164.8666
  90   2.0000      -6.054254      -164.7446
  91   2.0000      -6.051566      -164.6715
  92   2.0000      -6.028132      -164.0338
  93   2.0000      -6.023833      -163.9168
  94   2.0000      -6.020601      -163.8289
  95   2.0000      -5.966359      -162.3529
  96   2.0000      -5.965784      -162.3372
  97   2.0000      -5.957395      -162.1090
  98   2.0000      -2.733868       -74.3923
  99   2.0000      -2.730859       -74.3105
 100   2.0000      -2.730045       -74.2883
 101   2.0000      -2.729701       -74.2789
 102   2.0000      -2.727096       -74.2081
 103   2.0000      -2.726828       -74.2008
 104   2.0000      -2.718794       -73.9822
 105   2.0000      -2.718785       -73.9819
 106   2.0000      -2.715891       -73.9032
 107   2.0000      -2.715882       -73.9029
 108   2.0000      -1.142262       -31.0825
 109   2.0000      -1.139094       -30.9963
 110   2.0000      -1.110351       -30.2142
 111   2.0000      -1.083891       -29.4942
 112   2.0000      -1.071067       -29.1452
 113   2.0000      -1.064487       -28.9662
 114   2.0000      -1.025498       -27.9052
 115   2.0000      -1.018807       -27.7231
 116   2.0000      -1.018362       -27.7110
 117   2.0000      -1.006159       -27.3790
 118   2.0000      -1.001541       -27.2533
 119   2.0000      -0.998672       -27.1752
 120   2.0000      -0.992071       -26.9956
 121   2.0000      -0.987570       -26.8732
 122   2.0000      -0.970011       -26.3953
 123   2.0000      -0.963413       -26.2158
 124   2.0000      -0.962704       -26.1965
 125   2.0000      -0.943590       -25.6764
 126   2.0000      -0.931016       -25.3342
 127   2.0000      -0.919403       -25.0182
 128   2.0000      -0.914540       -24.8859
 129   2.0000      -0.913262       -24.8511
 130   2.0000      -0.911040       -24.7907
 131   2.0000      -0.907660       -24.6987
 132   2.0000      -0.897035       -24.4096
 133   2.0000      -0.889639       -24.2083
 134   2.0000      -0.886924       -24.1344
 135   2.0000      -0.879108       -23.9217
 136   2.0000      -0.867944       -23.6179
 137   2.0000      -0.865295       -23.5459
 138   2.0000      -0.864466       -23.5233
 139   2.0000      -0.853911       -23.2361
 140   2.0000      -0.852801       -23.2059
 141   2.0000      -0.838691       -22.8219
 142   2.0000      -0.833515       -22.6811
 143   2.0000      -0.826585       -22.4925
 144   2.0000      -0.808428       -21.9985
 145   2.0000      -0.794265       -21.6131
 146   2.0000      -0.787966       -21.4416
 147   2.0000      -0.775988       -21.1157
 148   2.0000      -0.772407       -21.0183
 149   2.0000      -0.769827       -20.9481
 150   2.0000      -0.764300       -20.7977
 151   2.0000      -0.746491       -20.3131
 152   2.0000      -0.743746       -20.2384
 153   2.0000      -0.731143       -19.8954
 154   2.0000      -0.717723       -19.5302
 155   2.0000      -0.713027       -19.4024
 156   2.0000      -0.709521       -19.3071
 157   2.0000      -0.705532       -19.1985
 158   2.0000      -0.703836       -19.1524
 159   2.0000      -0.695745       -18.9322
 160   2.0000      -0.694227       -18.8909
 161   2.0000      -0.689997       -18.7758
 162   2.0000      -0.686964       -18.6933
 163   2.0000      -0.677903       -18.4467
 164   2.0000      -0.676541       -18.4096
 165   2.0000      -0.661950       -18.0126
 166   2.0000      -0.656598       -17.8669
 167   2.0000      -0.649160       -17.6646
 168   2.0000      -0.646001       -17.5786
 169   2.0000      -0.643457       -17.5094
 170   2.0000      -0.627453       -17.0739
 171   2.0000      -0.622566       -16.9409
 172   2.0000      -0.619932       -16.8692
 173   2.0000      -0.617660       -16.8074
 174   2.0000      -0.610036       -16.5999
 175   2.0000      -0.603919       -16.4335
 176   2.0000      -0.596740       -16.2381
 177   2.0000      -0.594940       -16.1892
 178   2.0000      -0.590460       -16.0672
 179   2.0000      -0.584929       -15.9167
 180   2.0000      -0.582254       -15.8439
 181   2.0000      -0.578384       -15.7386
 182   2.0000      -0.572389       -15.5755
 183   2.0000      -0.570160       -15.5148
 184   2.0000      -0.561653       -15.2834
 185   2.0000      -0.559010       -15.2114
 186   2.0000      -0.557820       -15.1791
 187   2.0000      -0.556711       -15.1489
 188   2.0000      -0.548897       -14.9363
 189   2.0000      -0.547363       -14.8945
 190   2.0000      -0.546109       -14.8604
 191   2.0000      -0.543953       -14.8017
 192   2.0000      -0.541924       -14.7465
 193   2.0000      -0.540931       -14.7195
 194   2.0000      -0.540332       -14.7032
 195   2.0000      -0.535473       -14.5710
 196   2.0000      -0.534880       -14.5548
 197   2.0000      -0.532044       -14.4776
 198   2.0000      -0.530818       -14.4443
 199   2.0000      -0.524921       -14.2838
 200   2.0000      -0.523100       -14.2343
 201   2.0000      -0.521583       -14.1930
 202   2.0000      -0.519452       -14.1350
 203   2.0000      -0.513877       -13.9833
 204   2.0000      -0.506991       -13.7959
 205   2.0000      -0.502264       -13.6673
 206   2.0000      -0.500476       -13.6186
 207   2.0000      -0.498262       -13.5584
 208   2.0000      -0.495573       -13.4852
 209   2.0000      -0.494786       -13.4638
 210   2.0000      -0.490586       -13.3495
 211   2.0000      -0.487913       -13.2768
 212   2.0000      -0.484712       -13.1897
 213   2.0000      -0.483034       -13.1440
 214   2.0000      -0.481007       -13.0889
 215   2.0000      -0.479911       -13.0590
 216   2.0000      -0.477958       -13.0059
 217   2.0000      -0.475484       -12.9386
 218   2.0000      -0.470440       -12.8013
 219   2.0000      -0.468695       -12.7538
 220   2.0000      -0.465786       -12.6747
 221   2.0000      -0.462564       -12.5870
 222   2.0000      -0.461630       -12.5616
 223   2.0000      -0.457063       -12.4373
 224   2.0000      -0.453979       -12.3534
 225   2.0000      -0.452365       -12.3095
 226   2.0000      -0.450679       -12.2636
 227   2.0000      -0.447900       -12.1880
 228   2.0000      -0.447554       -12.1786
 229   2.0000      -0.447082       -12.1657
 230   2.0000      -0.441411       -12.0114
 231   2.0000      -0.439631       -11.9630
 232   2.0000      -0.435096       -11.8396
 233   2.0000      -0.433615       -11.7993
 234   2.0000      -0.431346       -11.7375
 235   2.0000      -0.429758       -11.6943
 236   2.0000      -0.428700       -11.6655
 237   2.0000      -0.427469       -11.6320
 238   2.0000      -0.427175       -11.6240
 239   2.0000      -0.425446       -11.5770
 240   2.0000      -0.422854       -11.5064
 241   2.0000      -0.421974       -11.4825
 242   2.0000      -0.419055       -11.4031
 243   2.0000      -0.418710       -11.3937
 244   2.0000      -0.405371       -11.0307
 245   2.0000      -0.399444       -10.8694
 246   2.0000      -0.395890       -10.7727
 247   2.0000      -0.391210       -10.6454
 248   2.0000      -0.386384       -10.5140
 249   2.0000      -0.369911       -10.0658
 250   2.0000      -0.367358        -9.9963
 251   2.0000      -0.365836        -9.9549
 252   2.0000      -0.364684        -9.9235
 253   2.0000      -0.358565        -9.7571
 254   2.0000      -0.355438        -9.6720
 255   2.0000      -0.352936        -9.6039
 256   2.0000      -0.351852        -9.5744
 257   2.0000      -0.350652        -9.5417
 258   2.0000      -0.348442        -9.4816
 259   2.0000      -0.341624        -9.2961
 260   2.0000      -0.331430        -9.0187
 261   2.0000      -0.320217        -8.7135
 262   2.0000      -0.314079        -8.5465
 263   2.0000      -0.309918        -8.4333
 264   2.0000      -0.309059        -8.4099
 265   2.0000      -0.307148        -8.3579
 266   2.0000      -0.298827        -8.1315
 267   2.0000      -0.290009        -7.8916
 268   2.0000      -0.289341        -7.8734
 269   2.0000      -0.260020        -7.0755
 270   2.0000      -0.232546        -6.3279
 271   0.0000      -0.121929        -3.3179
 272   0.0000      -0.103928        -2.8280
 273   0.0000      -0.089969        -2.4482
 274   0.0000      -0.076145        -2.0720
 275   0.0000      -0.070150        -1.9089

MULLIKEN ATOMIC CHARGES
-----------------------
   0 C :    0.169774
   1 O :   -0.214099
   2 C :   -0.019485
   3 C :    0.034863
   4 C :   -0.025810
   5 C :    0.048337
   6 C :   -0.003751
   7 C :   -0.014423
   8 Br:   -0.023448
   9 C :    0.314626
  10 C :   -0.368612
  11 C :   -0.188841
  12 N :    0.147066
  13 C :   -0.174734
  14 N :    0.143924
  15 C :   -0.086359
  16 C :    0.013796
  17 C :    0.029984
  18 N :   -0.016278
  19 C :    0.128664
  20 C :   -0.168345
  21 C :    0.116800
  22 N :   -0.039145
  23 C :    0.146489
  24 C :   -0.163483
  25 C :    0.023549
  26 C :    0.038702
  27 C :   -0.075622
  28 C :   -0.035502
  29 C :    0.056202
  30 C :    0.056654
  31 C :   -0.130277
  32 S :    0.156101
  33 C :   -0.106991
  34 C :    0.050447
  35 C :    0.021977
  36 C :   -0.064860
  37 S :    0.129601
  38 C :    0.076634
  39 C :    0.032650
  40 C :   -0.052860
  41 C :    0.025777
  42 C :    0.060184
  43 N :   -0.022976
  44 C :   -0.010620
  45 C :   -0.013507
  46 C :    0.005267
  47 S :   -0.135431
  48 C :    0.049992
  49 C :    0.027610
  50 N :   -0.013602
  51 C :    0.054034
  52 C :   -0.068902
  53 C :    0.033394
  54 C :   -0.127507
  55 C :    0.142061
  56 O :   -0.124621
  57 C :   -0.011035
  58 C :    0.023238
  59 C :    0.257116
  60 C :   -0.327080
  61 C :   -0.176359
  62 N :    0.161724
  63 C :   -0.196624
  64 N :    0.180330
  65 C :   -0.024465
  66 C :    0.049472
  67 C :   -0.007825
  68 C :   -0.010129
  69 Br:   -0.016314
  70 H :    0.007959
  71 H :    0.004823
  72 H :   -0.001299
  73 H :   -0.011210
  74 H :    0.144678
  75 H :   -0.023138
  76 H :    0.128673
  77 H :   -0.004791
  78 H :   -0.024245
  79 H :   -0.006073
  80 H :   -0.030539
  81 H :    0.041758
  82 H :   -0.007411
  83 H :    0.032219
  84 H :   -0.030170
  85 H :   -0.040337
  86 H :   -0.001626
  87 H :    0.013220
  88 H :    0.031994
  89 H :    0.011477
  90 H :    0.010063
  91 H :    0.006860
Sum of atomic charges:   -0.0000000

LOEWDIN ATOMIC CHARGES
----------------------
   0 C :    0.097701
   1 O :   -0.164412
   2 C :   -0.036975
   3 C :   -0.013231
   4 C :    0.007463
   5 C :   -0.013724
   6 C :   -0.100125
   7 C :   -0.001888
   8 Br:    0.112252
   9 C :    0.077225
  10 C :   -0.146919
  11 C :   -0.018641
  12 N :   -0.057464
  13 C :   -0.021905
  14 N :   -0.057112
  15 C :   -0.128042
  16 C :    0.058484
  17 C :   -0.013274
  18 N :    0.081272
  19 C :    0.016550
  20 C :   -0.092516
  21 C :    0.024974
  22 N :    0.067567
  23 C :   -0.020292
  24 C :   -0.044235
  25 C :   -0.023912
  26 C :   -0.035416
  27 C :   -0.160821
  28 C :   -0.019148
  29 C :    0.002806
  30 C :   -0.042396
  31 C :   -0.143366
  32 S :    0.475701
  33 C :   -0.208118
  34 C :   -0.030550
  35 C :   -0.056723
  36 C :   -0.156577
  37 S :    0.421842
  38 C :   -0.058526
  39 C :    0.037122
  40 C :   -0.066427
  41 C :   -0.021474
  42 C :    0.089298
  43 N :   -0.073213
  44 C :    0.059131
  45 C :   -0.076690
  46 C :   -0.131982
  47 S :    0.059209
  48 C :    0.003605
  49 C :    0.017548
  50 N :   -0.072276
  51 C :    0.071839
  52 C :   -0.061144
  53 C :    0.080757
  54 C :   -0.083240
  55 C :    0.084347
  56 O :   -0.125876
  57 C :   -0.039524
  58 C :   -0.014338
  59 C :    0.063966
  60 C :   -0.127476
  61 C :   -0.019466
  62 N :   -0.041728
  63 C :   -0.021568
  64 N :   -0.033289
  65 C :    0.007022
  66 C :   -0.011014
  67 C :   -0.097907
  68 C :    0.001767
  69 Br:    0.118189
  70 H :    0.043013
  71 H :    0.040100
  72 H :    0.042213
  73 H :    0.051308
  74 H :    0.068642
  75 H :    0.028100
  76 H :    0.092200
  77 H :    0.036089
  78 H :    0.027698
  79 H :    0.029669
  80 H :    0.033332
  81 H :    0.039059
  82 H :    0.032506
  83 H :    0.025894
  84 H :    0.012591
  85 H :    0.019231
  86 H :    0.022068
  87 H :    0.023086
  88 H :    0.050466
  89 H :    0.043327
  90 H :    0.041497
  91 H :    0.045213

  Mayer bond orders larger than 0.100000
B(  0-C ,  1-O ) :   2.0524 B(  0-C ,  2-C ) :   0.9745 B(  0-C , 15-C ) :   0.9945
B(  1-O , 74-H ) :   0.1403 B(  2-C ,  3-C ) :   1.3357 B(  2-C ,  7-C ) :   1.3786
B(  3-C ,  4-C ) :   1.3722 B(  3-C ,  9-C ) :   0.9780 B(  4-C ,  5-C ) :   1.3750
B(  4-C , 70-H ) :   0.9829 B(  5-C ,  6-C ) :   1.3957 B(  5-C , 71-H ) :   0.9846
B(  6-C ,  7-C ) :   1.3316 B(  6-C ,  8-Br) :   0.9893 B(  7-C , 72-H ) :   1.0075
B(  9-C , 10-C ) :   1.6094 B(  9-C , 15-C ) :   1.1141 B( 10-C , 11-C ) :   1.1477
B( 10-C , 13-C ) :   1.1417 B( 11-C , 12-N ) :   2.9697 B( 13-C , 14-N ) :   2.9555
B( 15-C , 16-C ) :   1.3957 B( 16-C , 17-C ) :   1.3172 B( 16-C , 73-H ) :   0.9217
B( 17-C , 18-N ) :   1.2057 B( 17-C , 24-C ) :   1.2334 B( 18-N , 19-C ) :   1.2372
B( 18-N , 74-H ) :   0.8586 B( 19-C , 20-C ) :   1.2646 B( 19-C , 23-C ) :   1.2362
B( 20-C , 21-C ) :   1.3920 B( 20-C , 75-H ) :   1.0310 B( 21-C , 22-N ) :   1.1813
B( 21-C , 25-C ) :   1.1228 B( 22-N , 23-C ) :   1.1452 B( 22-N , 76-H ) :   0.9338
B( 23-C , 24-C ) :   1.3171 B( 24-C , 77-H ) :   1.0451 B( 25-C , 26-C ) :   1.6852
B( 25-C , 78-H ) :   0.9534 B( 26-C , 27-C ) :   1.1202 B( 26-C , 79-H ) :   0.9629
B( 27-C , 28-C ) :   1.4869 B( 27-C , 32-S ) :   1.0814 B( 28-C , 29-C ) :   1.2956
B( 28-C , 80-H ) :   0.9598 B( 29-C , 30-C ) :   1.0635 B( 29-C , 38-C ) :   1.2973
B( 30-C , 31-C ) :   1.5867 B( 30-C , 33-C ) :   1.1842 B( 31-C , 32-S ) :   1.1501
B( 31-C , 81-H ) :   0.9413 B( 33-C , 34-C ) :   1.4314 B( 33-C , 37-S ) :   1.0733
B( 34-C , 35-C ) :   1.2313 B( 34-C , 38-C ) :   1.1024 B( 35-C , 36-C ) :   1.5800
B( 35-C , 82-H ) :   0.9951 B( 36-C , 37-S ) :   1.1524 B( 36-C , 83-H ) :   0.9664
B( 38-C , 39-C ) :   1.2467 B( 39-C , 40-C ) :   1.4976 B( 39-C , 84-H ) :   0.9318
B( 40-C , 41-C ) :   1.2012 B( 40-C , 85-H ) :   0.9596 B( 41-C , 42-C ) :   1.0010
B( 41-C , 45-C ) :   1.3972 B( 42-C , 43-N ) :   1.7381 B( 42-C , 86-H ) :   0.9897
B( 43-N , 44-C ) :   1.2476 B( 44-C , 45-C ) :   1.0943 B( 44-C , 49-C ) :   1.4993
B( 45-C , 46-C ) :   1.0866 B( 46-C , 47-S ) :   1.6435 B( 46-C , 48-C ) :   1.0182
B( 47-S , 84-H ) :   0.1050 B( 48-C , 49-C ) :   1.0930 B( 48-C , 52-C ) :   1.5335
B( 49-C , 50-N ) :   1.2614 B( 50-N , 51-C ) :   1.7479 B( 51-C , 52-C ) :   1.0072
B( 51-C , 87-H ) :   0.9881 B( 52-C , 53-C ) :   1.0508 B( 53-C , 54-C ) :   1.6775
B( 53-C , 88-H ) :   0.9504 B( 54-C , 55-C ) :   0.9345 B( 54-C , 59-C ) :   1.0281
B( 55-C , 56-O ) :   2.2881 B( 55-C , 57-C ) :   0.9161 B( 57-C , 58-C ) :   1.3326
B( 57-C , 68-C ) :   1.3841 B( 58-C , 59-C ) :   1.0110 B( 58-C , 65-C ) :   1.3674
B( 59-C , 60-C ) :   1.6635 B( 60-C , 61-C ) :   1.1310 B( 60-C , 63-C ) :   1.1491
B( 61-C , 62-N ) :   2.9927 B( 63-C , 64-N ) :   3.0118 B( 65-C , 66-C ) :   1.3842
B( 65-C , 89-H ) :   0.9868 B( 66-C , 67-C ) :   1.3878 B( 66-C , 90-H ) :   0.9839
B( 67-C , 68-C ) :   1.3447 B( 67-C , 69-Br) :   0.9944 B( 68-C , 91-H ) :   1.0061

-----------------------------------------------------------------------------
         ABSORPTION SPECTRUM VIA TRANSITION ELECTRIC DIPOLE MOMENTS
-----------------------------------------------------------------------------
State   Energy  Wavelength   fosc         T2         TX        TY        TZ
        (cm-1)    (nm)                  (au**2)     (au)      (au)      (au)
-----------------------------------------------------------------------------
   0    9387.9   1065.2   0.460188196  16.13770  -0.55912  -1.82811   3.53314
   1   13383.1    747.2   0.924541780  22.74286  -0.23952  -3.64609   3.06456
   2   15396.5    649.5   0.005170859   0.11056   0.01156  -0.30943   0.12119
   3   17666.2    566.1   0.703410967  13.10814  -0.57330   3.51390   0.65725
   4   18000.9    555.5   0.173326776   3.16991   0.02268   1.57561  -0.82876
   5   18368.6    544.4   0.146236946   2.62093  -0.26476   1.54961   0.38669
   6   20094.5    497.6   0.100930029   1.65355   0.08758  -1.27598   0.13330
   7   21008.0    476.0   0.230942559   3.61905   0.24890  -1.75749  -0.68435
   8   21114.0    473.6   0.023922847   0.37301  -0.02739  -0.21408   0.57134
   9   22007.8    454.4   0.038017819   0.56871  -0.02614   0.74137  -0.13561
  10   22610.7    442.3   0.035541208   0.51748   0.04760  -0.03400  -0.71698
  11   23083.7    433.2   0.049331270   0.70355  -0.06541  -0.54043   0.63813
  12   23455.3    426.3   0.250349007   3.51382   0.33710   0.41254  -1.79722
  13   24342.6    410.8   0.082470819   1.11534   0.20517   0.65304  -0.80423
  14   24797.6    403.3   0.015374869   0.20412  -0.25653   0.37140  -0.01924
  15   25478.8    392.5   0.241103217   3.11530  -0.08513   0.67011  -1.63064
  16   26106.5    383.0   0.003974018   0.05011  -0.10312   0.08414  -0.18000
  17   26423.5    378.5   0.007682845   0.09572  -0.09265   0.22682   0.18892
  18   26537.4    376.8   0.005005299   0.06209  -0.10899   0.22376  -0.01208
  19   27100.0    369.0   0.377342811   4.58398   0.57496   1.01452  -1.79559
  20   27168.6    368.1   0.118992832   1.44188   0.40838  -0.23477  -1.10453
  21   27809.5    359.6   0.022874363   0.27079   0.06200  -0.45706  -0.24092
  22   28188.0    354.8   0.017138731   0.20017  -0.26655   0.22096   0.28336
  23   28930.9    345.7   0.017440492   0.19846   0.00938  -0.23248   0.37990
  24   29153.9    343.0   0.005850109   0.06606   0.17988   0.11507  -0.14305
  25   29331.7    340.9   0.029039124   0.32593   0.07703   0.42632  -0.37181
  26   29550.4    338.4   0.029036009   0.32348  -0.17400  -0.11321   0.52952
  27   29765.5    336.0   0.069897515   0.77308  -0.43004  -0.53547   0.54902
  28   29906.0    334.4   0.091839347   1.01099  -0.10069  -0.76899   0.63992
  29   30823.8    324.4   0.006790350   0.07252  -0.20582   0.08880   0.14926
  30   30924.7    323.4   0.023319091   0.24825   0.06860  -0.20807  -0.44749
  31   30987.2    322.7   0.048734828   0.51776   0.05259   0.18804  -0.69256
  32   31420.3    318.3   0.034734744   0.36394  -0.05858   0.54823   0.24484
  33   31696.7    315.5   0.331762607   3.44580   1.29770   0.82404  -1.04054
  34   32077.2    311.7   0.058996768   0.60549   0.00247  -0.49638  -0.59925
  35   32390.5    308.7   0.082837186   0.84194  -0.03916  -0.81295   0.42370
  36   32651.5    306.3   0.028473551   0.28709  -0.33833  -0.23988  -0.33923
  37   32685.3    305.9   0.022156894   0.22317  -0.11814  -0.15011   0.43206
  38   33238.7    300.9   0.050278743   0.49799  -0.47320  -0.27828   0.44342
  39   33381.0    299.6   0.015113125   0.14905  -0.11302  -0.12323   0.34798
  40   33463.8    298.8   0.000129231   0.00127   0.01031   0.01214   0.03190
  41   33942.0    294.6   0.503072123   4.87942  -0.51864   0.57691   2.06824
  42   34078.4    293.4   0.082172709   0.79382   0.36741  -0.05353  -0.80992
  43   34360.2    291.0   0.130942559   1.25459   0.80923  -0.09904  -0.76806
  44   34532.0    289.6   0.086513989   0.82478  -0.63035  -0.52897   0.38423
  45   34610.2    288.9   0.073075068   0.69509   0.63298   0.54224  -0.02008
  46   34772.6    287.6   0.003593610   0.03402   0.10082   0.03202   0.15110
  47   34947.7    286.1   0.031509912   0.29683  -0.51099  -0.18504  -0.03844
  48   35059.4    285.2   0.212275817   1.99330   0.62231   1.15665  -0.51786
  49   35580.7    281.1   0.004270830   0.03952  -0.00802  -0.10222  -0.17030
  50   35614.2    280.8   0.007852603   0.07259   0.21409   0.12433  -0.10629
  51   35714.4    280.0   0.001385716   0.01277  -0.09388   0.03729   0.05070
  52   36036.0    277.5   0.048371232   0.44190  -0.54179   0.02234   0.38453
  53   36271.8    275.7   0.162387650   1.47387  -0.61470  -0.90768   0.52166
  54   36424.1    274.5   0.007792748   0.07043   0.06607   0.24007   0.09185
  55   36565.8    273.5   0.076570271   0.68938   0.00720   0.39728   0.72904
  56   36954.3    270.6   0.033686178   0.30010   0.42485   0.33452   0.08773
  57   37137.9    269.3   0.089760021   0.79569   0.22097   0.84862   0.16339
  58   37390.9    267.4   0.103349117   0.90995   0.07897  -0.89647  -0.31631
  59   37628.1    265.8   0.034974125   0.30599   0.06322   0.23619   0.49620
  60   37664.4    265.5   0.033106479   0.28937   0.12367   0.06533  -0.51943
  61   37972.1    263.4   0.037333625   0.32368  -0.13373   0.30606   0.46056
  62   38143.9    262.2   0.036113070   0.31168  -0.15576   0.52934   0.08497
  63   38218.3    261.7   0.242118657   2.08560  -0.15257   1.07971   0.94687
  64   38312.1    261.0   0.021531557   0.18502  -0.19412  -0.23906  -0.30031
  65   38964.9    256.6   0.065892327   0.55672   0.00090   0.46306   0.58506
  66   39209.3    255.0   0.049387502   0.41467   0.03368  -0.45350  -0.45594
  67   39301.3    254.4   0.013694869   0.11472  -0.24559   0.22488   0.06190
  68   39505.7    253.1   0.204064250   1.70052  -0.18519  -1.28108  -0.15835
  69   39610.1    252.5   0.126737487   1.05335   0.06302  -0.34854  -0.96328
  70   39740.5    251.6   0.061515343   0.50960   0.28961   0.43031   0.49046
  71   39799.2    251.3   0.056672666   0.46879   0.10097   0.66678   0.11829
  72   40141.9    249.1   0.005314821   0.04359   0.01819   0.05346   0.20100
  73   40187.0    248.8   0.028951703   0.23717  -0.01598  -0.44167  -0.20455

FINAL SINGLE POINT ENERGY     -9036.077161564672

DIPOLE MOMENT
-------------
                                X             Y             Z
Electronic contribution:    -27.98255       8.09960      14.02280
Nuclear contribution   :     27.69991     -10.66183     -17.14814
                        -----------------------------------------
Total Dipole Moment    :     -0.28264      -2.56223      -3.12534
                        -----------------------------------------
Magnitude (a.u.)       :      4.05125
Magnitude (Debye)      :     10.29747

Rotational constants in cm-1:     0.001357     0.000160     0.000146
Rotational constants in MHz :    40.696774     4.793758     4.375086

                             ****ORCA TERMINATED NORMALLY****
TOTAL RUN TIME: 0 days 0 hours 10 minutes 59 seconds 389 msec
