                         Program Version 4.2.0 -  RELEASE  -
|  1> # ORCA input file
|  2> # SCF done       -188.661514542865          0.000934020437
|  3> ! CAM-B3LYP def2-SVP def2/J RIJCOSX Grid4 TightSCF
|  4> %maxcore 5000
|  5> %tddft
|  6>     Mode sTDDFT
|  7>     Ethresh 5.0
|  8>     maxcore 5000
|  9> end
| 10>
| 11> %pal
| 12>   nprocs 6
| 13>   end
| 14> * xyz 0 1
| 15>    C       -2.90524        -9.83051         6.96065
| 16>    O       -2.76559        -8.77751         6.35798
| 17>    C       -2.97939        -9.95285         8.43004
| 18>    C       -3.22424       -11.28915         8.78333
| 19>    C       -3.33831       -11.62829        10.12326
| 20>    C       -3.20627       -10.63134        11.08148
| 21>    C       -2.96194        -9.31991        10.70365
| 22>    C       -2.84439        -8.95490         9.37068
| 23>   Br       -2.79843        -7.97571        12.02952
| 24>    C       -3.29524       -12.08128         7.55517
| 25>    C       -3.43533       -13.44628         7.51511
| 26>    C       -3.60976       -14.25214         8.65953
| 27>    N       -3.76419       -14.96391         9.54716
| 28>    C       -3.40156       -14.25378         6.35866
| 29>    N       -3.36389       -14.99213         5.47890
| 30>    C       -3.11414       -11.18174         6.43149
| 31>    C       -3.27884       -11.57114         5.11612
| 32>    C       -3.00246       -10.91987         3.90284
| 33>    C       -2.24862        -9.76877         3.72439
| 34>    C       -1.92806        -9.21002         2.50259
| 35>    C       -2.28579        -9.87051         1.23774
| 36>    C       -3.03971       -10.99027         1.15608
| 37>    S       -3.66842       -11.80996         2.51875
| 38>    C       -1.65652        -9.10947         0.21890
| 39>    C       -0.95355        -8.04402         0.79296
| 40>    C       -0.30021        -7.25185        -0.17946
| 41>    C       -0.51478        -7.72592        -1.43247
| 42>    S       -1.51630        -9.14221        -1.49095
| 43>    C       -1.13619        -8.06485         2.21307
| 44>    C       -0.59604        -7.08220         3.07087
| 45>    C       -0.99839        -6.76935         4.33372
| 46>    C       -0.35287        -5.80051         5.13430
| 47>    S        1.15769        -5.07531         4.64773
| 48>    C        1.26142        -4.17114         6.13175
| 49>    C        0.14759        -4.39677         6.93308
| 50>    C       -0.75041        -5.31833         6.37716
| 51>    C       -2.02406        -5.70949         7.05469
| 52>    C       -2.00169        -5.32940         8.53287
| 53>    C       -1.57192        -3.86597         8.67975
| 54>    C       -1.73109        -3.41073        10.10400
| 55>    O       -0.85448        -2.96183        10.78986
| 56>    C       -0.11686        -3.72333         8.24034
| 57>    C        2.40991        -3.36016         6.37925
| 58>    C        2.83631        -3.02090         7.64178
| 59>    C        3.95658        -2.24841         7.92695
| 60>    C        4.84701        -1.76749         6.87411
| 61>    C        4.64089        -1.99835         5.55718
| 62>    S        3.29208        -2.86053         4.94356
| 63>    C        5.90434        -1.10425         7.55594
| 64>    C        5.70432        -1.16961         8.93777
| 65>    C        6.73535        -0.50757         9.64096
| 66>    C        7.66273         0.02112         8.79942
| 67>    S        7.33245        -0.25426         7.12553
| 68>    C        4.47411        -1.88270         9.19152
| 69>    C        3.84889        -2.19852        10.40922
| 70>    C        4.35994        -2.00823        11.66541
| 71>    C        3.69295        -2.27808        12.86981
| 72>    C        2.55931        -2.99888        13.17804
| 73>    C        1.88922        -2.66506        14.46054
| 74>    O        2.31790        -1.95677        15.34442
| 75>    C        0.58113        -3.35494        14.41518
| 76>    C        0.52047        -4.15088        13.25902
| 77>    C        1.77996        -4.01288        12.52361
| 78>    C        2.17879        -4.86845        11.51909
| 79>    C        1.33490        -5.80183        10.89596
| 80>    N        0.68590        -6.53180        10.28669
| 81>    C        3.48659        -4.92743        11.00499
| 82>    N        4.54168        -5.03520        10.56311
| 83>    C       -0.60770        -4.91825        13.01810
| 84>    C       -1.66431        -4.85776        13.91429
| 85>    C       -1.58591        -4.05297        15.04077
| 86>    C       -0.45835        -3.29176        15.31839
| 87>   Br       -3.05878        -4.00059        16.23890
| 88>    H       -3.53009       -12.64004        10.44020
| 89>    H       -3.29550       -10.88094        12.12788
| 90>    H       -2.65040        -7.93651         9.07693
| 91>    H       -3.70815       -12.55753         4.97990
| 92>    H       -1.85667        -9.30888         4.61627
| 93>    H       -3.29910       -11.44546         0.21302
| 94>    H        0.29663        -6.38378         0.03354
| 95>    H       -0.14370        -7.32984        -2.35746
| 96>    H        0.19832        -6.48281         2.63864
| 97>    H       -1.86262        -7.24517         4.77030
| 98>    H       -2.18743        -6.78276         6.94206
| 99>    H       -2.85864        -5.20451         6.55593
|100>    H       -1.27948        -5.95236         9.06627
|101>    H       -2.99076        -5.47688         8.97149
|102>    H       -2.23007        -3.24255         8.06181
|103>    H       -2.75754        -3.53576        10.49981
|104>    H        0.49041        -4.19561         9.01811
|105>    H        0.16059        -2.66735         8.18964
|106>    H        2.29254        -3.43322         8.47318
|107>    H        5.31671        -1.65231         4.79120
|108>    H        6.80651        -0.41213        10.70837
|109>    H        8.54550         0.57106         9.06117
|110>    H        2.84119        -2.58455        10.33307
|111>    H        5.33157        -1.54785        11.76057
|112>    H        4.09173        -1.75825        13.73857
|113>    H       -0.69447        -5.55594        12.15492
|114>    H       -2.54934        -5.44861        13.73269
|115>    H       -0.38754        -2.67604        16.20174
|116> *
|117>
|118>                          ****END OF INPUT****

CARTESIAN COORDINATES (ANGSTROEM)
---------------------------------
  C     -2.905240   -9.830510    6.960650
  O     -2.765590   -8.777510    6.357980
  C     -2.979390   -9.952850    8.430040
  C     -3.224240  -11.289150    8.783330
  C     -3.338310  -11.628290   10.123260
  C     -3.206270  -10.631340   11.081480
  C     -2.961940   -9.319910   10.703650
  C     -2.844390   -8.954900    9.370680
  Br    -2.798430   -7.975710   12.029520
  C     -3.295240  -12.081280    7.555170
  C     -3.435330  -13.446280    7.515110
  C     -3.609760  -14.252140    8.659530
  N     -3.764190  -14.963910    9.547160
  C     -3.401560  -14.253780    6.358660
  N     -3.363890  -14.992130    5.478900
  C     -3.114140  -11.181740    6.431490
  C     -3.278840  -11.571140    5.116120
  C     -3.002460  -10.919870    3.902840
  C     -2.248620   -9.768770    3.724390
  C     -1.928060   -9.210020    2.502590
  C     -2.285790   -9.870510    1.237740
  C     -3.039710  -10.990270    1.156080
  S     -3.668420  -11.809960    2.518750
  C     -1.656520   -9.109470    0.218900
  C     -0.953550   -8.044020    0.792960
  C     -0.300210   -7.251850   -0.179460
  C     -0.514780   -7.725920   -1.432470
  S     -1.516300   -9.142210   -1.490950
  C     -1.136190   -8.064850    2.213070
  C     -0.596040   -7.082200    3.070870
  C     -0.998390   -6.769350    4.333720
  C     -0.352870   -5.800510    5.134300
  S      1.157690   -5.075310    4.647730
  C      1.261420   -4.171140    6.131750
  C      0.147590   -4.396770    6.933080
  C     -0.750410   -5.318330    6.377160
  C     -2.024060   -5.709490    7.054690
  C     -2.001690   -5.329400    8.532870
  C     -1.571920   -3.865970    8.679750
  C     -1.731090   -3.410730   10.104000
  O     -0.854480   -2.961830   10.789860
  C     -0.116860   -3.723330    8.240340
  C      2.409910   -3.360160    6.379250
  C      2.836310   -3.020900    7.641780
  C      3.956580   -2.248410    7.926950
  C      4.847010   -1.767490    6.874110
  C      4.640890   -1.998350    5.557180
  S      3.292080   -2.860530    4.943560
  C      5.904340   -1.104250    7.555940
  C      5.704320   -1.169610    8.937770
  C      6.735350   -0.507570    9.640960
  C      7.662730    0.021120    8.799420
  S      7.332450   -0.254260    7.125530
  C      4.474110   -1.882700    9.191520
  C      3.848890   -2.198520   10.409220
  C      4.359940   -2.008230   11.665410
  C      3.692950   -2.278080   12.869810
  C      2.559310   -2.998880   13.178040
  C      1.889220   -2.665060   14.460540
  O      2.317900   -1.956770   15.344420
  C      0.581130   -3.354940   14.415180
  C      0.520470   -4.150880   13.259020
  C      1.779960   -4.012880   12.523610
  C      2.178790   -4.868450   11.519090
  C      1.334900   -5.801830   10.895960
  N      0.685900   -6.531800   10.286690
  C      3.486590   -4.927430   11.004990
  N      4.541680   -5.035200   10.563110
  C     -0.607700   -4.918250   13.018100
  C     -1.664310   -4.857760   13.914290
  C     -1.585910   -4.052970   15.040770
  C     -0.458350   -3.291760   15.318390
  Br    -3.058780   -4.000590   16.238900
  H     -3.530090  -12.640040   10.440200
  H     -3.295500  -10.880940   12.127880
  H     -2.650400   -7.936510    9.076930
  H     -3.708150  -12.557530    4.979900
  H     -1.856670   -9.308880    4.616270
  H     -3.299100  -11.445460    0.213020
  H      0.296630   -6.383780    0.033540
  H     -0.143700   -7.329840   -2.357460
  H      0.198320   -6.482810    2.638640
  H     -1.862620   -7.245170    4.770300
  H     -2.187430   -6.782760    6.942060
  H     -2.858640   -5.204510    6.555930
  H     -1.279480   -5.952360    9.066270
  H     -2.990760   -5.476880    8.971490
  H     -2.230070   -3.242550    8.061810
  H     -2.757540   -3.535760   10.499810
  H      0.490410   -4.195610    9.018110
  H      0.160590   -2.667350    8.189640
  H      2.292540   -3.433220    8.473180
  H      5.316710   -1.652310    4.791200
  H      6.806510   -0.412130   10.708370
  H      8.545500    0.571060    9.061170
  H      2.841190   -2.584550   10.333070
  H      5.331570   -1.547850   11.760570
  H      4.091730   -1.758250   13.738570
  H     -0.694470   -5.555940   12.154920
  H     -2.549340   -5.448610   13.732690
  H     -0.387540   -2.676040   16.201740

 Total Charge           Charge          ....    0
 Multiplicity           Mult            ....    1
 Number of Electrons    NEL             ....  584
 Basis Dimension        Dim             .... 1218

ORBITAL ENERGIES
----------------

  NO   OCC          E(Eh)            E(eV)
   0   2.0000    -482.876936    -13139.7494
   1   2.0000    -482.862620    -13139.3599
   2   2.0000     -88.987513     -2421.4733
   3   2.0000     -88.978386     -2421.2250
   4   2.0000     -88.970287     -2421.0046
   5   2.0000     -88.962313     -2420.7876
   6   2.0000     -88.960626     -2420.7417
   7   2.0000     -62.554127     -1702.1843
   8   2.0000     -62.540346     -1701.8093
   9   2.0000     -56.388002     -1534.3955
  10   2.0000     -56.385476     -1534.3268
  11   2.0000     -56.385446     -1534.3260
  12   2.0000     -56.374153     -1534.0187
  13   2.0000     -56.371681     -1533.9514
  14   2.0000     -56.371668     -1533.9511
  15   2.0000     -19.227693      -523.2121
  16   2.0000     -19.227375      -523.2035
  17   2.0000     -19.201274      -522.4932
  18   2.0000     -14.416057      -392.2809
  19   2.0000     -14.413405      -392.2087
  20   2.0000     -14.412569      -392.1860
  21   2.0000     -14.403783      -391.9469
  22   2.0000     -10.376871      -282.3690
  23   2.0000     -10.364354      -282.0284
  24   2.0000     -10.350981      -281.6645
  25   2.0000     -10.345361      -281.5116
  26   2.0000     -10.342439      -281.4321
  27   2.0000     -10.341876      -281.4168
  28   2.0000     -10.339845      -281.3615
  29   2.0000     -10.338114      -281.3144
  30   2.0000     -10.336699      -281.2759
  31   2.0000     -10.332318      -281.1567
  32   2.0000     -10.330214      -281.0994
  33   2.0000     -10.327495      -281.0254
  34   2.0000     -10.325874      -280.9813
  35   2.0000     -10.325782      -280.9788
  36   2.0000     -10.318922      -280.7921
  37   2.0000     -10.318382      -280.7774
  38   2.0000     -10.316628      -280.7297
  39   2.0000     -10.316395      -280.7234
  40   2.0000     -10.310568      -280.5648
  41   2.0000     -10.310140      -280.5532
  42   2.0000     -10.309952      -280.5481
  43   2.0000     -10.307270      -280.4751
  44   2.0000     -10.307266      -280.4750
  45   2.0000     -10.306734      -280.4605
  46   2.0000     -10.306434      -280.4523
  47   2.0000     -10.305824      -280.4357
  48   2.0000     -10.304632      -280.4033
  49   2.0000     -10.304051      -280.3875
  50   2.0000     -10.302303      -280.3399
  51   2.0000     -10.300664      -280.2953
  52   2.0000     -10.300477      -280.2902
  53   2.0000     -10.300254      -280.2842
  54   2.0000     -10.300027      -280.2780
  55   2.0000     -10.299516      -280.2641
  56   2.0000     -10.299454      -280.2624
  57   2.0000     -10.299165      -280.2545
  58   2.0000     -10.297026      -280.1963
  59   2.0000     -10.296051      -280.1698
  60   2.0000     -10.294896      -280.1384
  61   2.0000     -10.292881      -280.0835
  62   2.0000     -10.291844      -280.0553
  63   2.0000     -10.291795      -280.0540
  64   2.0000     -10.291049      -280.0337
  65   2.0000     -10.290729      -280.0250
  66   2.0000     -10.289065      -279.9797
  67   2.0000     -10.288680      -279.9692
  68   2.0000     -10.288564      -279.9661
  69   2.0000     -10.287409      -279.9346
  70   2.0000     -10.286644      -279.9138
  71   2.0000     -10.286371      -279.9064
  72   2.0000     -10.283914      -279.8395
  73   2.0000     -10.280589      -279.7491
  74   2.0000     -10.279715      -279.7253
  75   2.0000     -10.279586      -279.7217
  76   2.0000     -10.277818      -279.6736
  77   2.0000     -10.275698      -279.6160
  78   2.0000     -10.275168      -279.6015
  79   2.0000     -10.271342      -279.4974
  80   2.0000     -10.271138      -279.4919
  81   2.0000      -8.783229      -239.0038
  82   2.0000      -8.769627      -238.6337
  83   2.0000      -8.082922      -219.9475
  84   2.0000      -8.073932      -219.7029
  85   2.0000      -8.065783      -219.4811
  86   2.0000      -8.057873      -219.2659
  87   2.0000      -8.056102      -219.2177
  88   2.0000      -6.618931      -180.1103
  89   2.0000      -6.605342      -179.7405
  90   2.0000      -6.605335      -179.7403
  91   2.0000      -6.605068      -179.7330
  92   2.0000      -6.591772      -179.3712
  93   2.0000      -6.591414      -179.3615
  94   2.0000      -6.052374      -164.6935
  95   2.0000      -6.047768      -164.5681
  96   2.0000      -6.045034      -164.4937
  97   2.0000      -6.043473      -164.4513
  98   2.0000      -6.038979      -164.3290
  99   2.0000      -6.035720      -164.2403
 100   2.0000      -6.035255      -164.2276
 101   2.0000      -6.030960      -164.1108
 102   2.0000      -6.027749      -164.0234
 103   2.0000      -6.027118      -164.0062
 104   2.0000      -6.025521      -163.9628
 105   2.0000      -6.023202      -163.8996
 106   2.0000      -6.021268      -163.8470
 107   2.0000      -6.019828      -163.8079
 108   2.0000      -6.018173      -163.7628
 109   2.0000      -2.734993       -74.4230
 110   2.0000      -2.731118       -74.3175
 111   2.0000      -2.730912       -74.3119
 112   2.0000      -2.721344       -74.0515
 113   2.0000      -2.720116       -74.0181
 114   2.0000      -2.720113       -74.0180
 115   2.0000      -2.717561       -73.9486
 116   2.0000      -2.717287       -73.9412
 117   2.0000      -2.706509       -73.6479
 118   2.0000      -2.706497       -73.6475
 119   2.0000      -1.141200       -31.0536
 120   2.0000      -1.140361       -31.0308
 121   2.0000      -1.116026       -30.3686
 122   2.0000      -1.020662       -27.7736
 123   2.0000      -1.018770       -27.7221
 124   2.0000      -1.015835       -27.6423
 125   2.0000      -1.010139       -27.4873
 126   2.0000      -1.002471       -27.2786
 127   2.0000      -1.002302       -27.2740
 128   2.0000      -0.993144       -27.0248
 129   2.0000      -0.990497       -26.9528
 130   2.0000      -0.986006       -26.8306
 131   2.0000      -0.983284       -26.7565
 132   2.0000      -0.975430       -26.5428
 133   2.0000      -0.965266       -26.2662
 134   2.0000      -0.951089       -25.8805
 135   2.0000      -0.942398       -25.6439
 136   2.0000      -0.937825       -25.5195
 137   2.0000      -0.930823       -25.3290
 138   2.0000      -0.918886       -25.0041
 139   2.0000      -0.912730       -24.8366
 140   2.0000      -0.909590       -24.7512
 141   2.0000      -0.902356       -24.5544
 142   2.0000      -0.897518       -24.4227
 143   2.0000      -0.892851       -24.2957
 144   2.0000      -0.885078       -24.0842
 145   2.0000      -0.876951       -23.8630
 146   2.0000      -0.865248       -23.5446
 147   2.0000      -0.863074       -23.4854
 148   2.0000      -0.856723       -23.3126
 149   2.0000      -0.854671       -23.2568
 150   2.0000      -0.850589       -23.1457
 151   2.0000      -0.845554       -23.0087
 152   2.0000      -0.839531       -22.8448
 153   2.0000      -0.827736       -22.5238
 154   2.0000      -0.821901       -22.3651
 155   2.0000      -0.819720       -22.3057
 156   2.0000      -0.803959       -21.8768
 157   2.0000      -0.795029       -21.6338
 158   2.0000      -0.783418       -21.3179
 159   2.0000      -0.771145       -20.9839
 160   2.0000      -0.768486       -20.9116
 161   2.0000      -0.759702       -20.6725
 162   2.0000      -0.753768       -20.5111
 163   2.0000      -0.749154       -20.3855
 164   2.0000      -0.740843       -20.1594
 165   2.0000      -0.730516       -19.8784
 166   2.0000      -0.728343       -19.8192
 167   2.0000      -0.716867       -19.5069
 168   2.0000      -0.699085       -19.0231
 169   2.0000      -0.697026       -18.9670
 170   2.0000      -0.694744       -18.9050
 171   2.0000      -0.689837       -18.7714
 172   2.0000      -0.683164       -18.5899
 173   2.0000      -0.674869       -18.3641
 174   2.0000      -0.672281       -18.2937
 175   2.0000      -0.670369       -18.2417
 176   2.0000      -0.660757       -17.9801
 177   2.0000      -0.656832       -17.8733
 178   2.0000      -0.654048       -17.7976
 179   2.0000      -0.647062       -17.6075
 180   2.0000      -0.642816       -17.4919
 181   2.0000      -0.635027       -17.2800
 182   2.0000      -0.630487       -17.1564
 183   2.0000      -0.621549       -16.9132
 184   2.0000      -0.619178       -16.8487
 185   2.0000      -0.618600       -16.8330
 186   2.0000      -0.611303       -16.6344
 187   2.0000      -0.603708       -16.4277
 188   2.0000      -0.600705       -16.3460
 189   2.0000      -0.594319       -16.1722
 190   2.0000      -0.591431       -16.0937
 191   2.0000      -0.585362       -15.9285
 192   2.0000      -0.584471       -15.9043
 193   2.0000      -0.575882       -15.6705
 194   2.0000      -0.574186       -15.6244
 195   2.0000      -0.569989       -15.5102
 196   2.0000      -0.564344       -15.3566
 197   2.0000      -0.561885       -15.2897
 198   2.0000      -0.557829       -15.1793
 199   2.0000      -0.552879       -15.0446
 200   2.0000      -0.551357       -15.0032
 201   2.0000      -0.545000       -14.8302
 202   2.0000      -0.544613       -14.8197
 203   2.0000      -0.541331       -14.7304
 204   2.0000      -0.538917       -14.6647
 205   2.0000      -0.538223       -14.6458
 206   2.0000      -0.533272       -14.5111
 207   2.0000      -0.529386       -14.4053
 208   2.0000      -0.527591       -14.3565
 209   2.0000      -0.527048       -14.3417
 210   2.0000      -0.526091       -14.3157
 211   2.0000      -0.523428       -14.2432
 212   2.0000      -0.522361       -14.2142
 213   2.0000      -0.520722       -14.1696
 214   2.0000      -0.518899       -14.1200
 215   2.0000      -0.517925       -14.0934
 216   2.0000      -0.515225       -14.0200
 217   2.0000      -0.509580       -13.8664
 218   2.0000      -0.506366       -13.7789
 219   2.0000      -0.504566       -13.7299
 220   2.0000      -0.502053       -13.6615
 221   2.0000      -0.497730       -13.5439
 222   2.0000      -0.496098       -13.4995
 223   2.0000      -0.491192       -13.3660
 224   2.0000      -0.488630       -13.2963
 225   2.0000      -0.483693       -13.1619
 226   2.0000      -0.481941       -13.1143
 227   2.0000      -0.477352       -12.9894
 228   2.0000      -0.475946       -12.9512
 229   2.0000      -0.473716       -12.8905
 230   2.0000      -0.472394       -12.8545
 231   2.0000      -0.470693       -12.8082
 232   2.0000      -0.468378       -12.7452
 233   2.0000      -0.466498       -12.6941
 234   2.0000      -0.465103       -12.6561
 235   2.0000      -0.461989       -12.5714
 236   2.0000      -0.458974       -12.4893
 237   2.0000      -0.455287       -12.3890
 238   2.0000      -0.454836       -12.3767
 239   2.0000      -0.453456       -12.3392
 240   2.0000      -0.451408       -12.2834
 241   2.0000      -0.449003       -12.2180
 242   2.0000      -0.448047       -12.1920
 243   2.0000      -0.447049       -12.1648
 244   2.0000      -0.443862       -12.0781
 245   2.0000      -0.442860       -12.0508
 246   2.0000      -0.442093       -12.0300
 247   2.0000      -0.440461       -11.9855
 248   2.0000      -0.436875       -11.8880
 249   2.0000      -0.435688       -11.8557
 250   2.0000      -0.432950       -11.7812
 251   2.0000      -0.431905       -11.7527
 252   2.0000      -0.430696       -11.7198
 253   2.0000      -0.428709       -11.6658
 254   2.0000      -0.426945       -11.6178
 255   2.0000      -0.426564       -11.6074
 256   2.0000      -0.422835       -11.5059
 257   2.0000      -0.422710       -11.5025
 258   2.0000      -0.420642       -11.4463
 259   2.0000      -0.417101       -11.3499
 260   2.0000      -0.414015       -11.2659
 261   2.0000      -0.412497       -11.2246
 262   2.0000      -0.410559       -11.1719
 263   2.0000      -0.407587       -11.0910
 264   2.0000      -0.406597       -11.0641
 265   2.0000      -0.405808       -11.0426
 266   2.0000      -0.404556       -11.0085
 267   2.0000      -0.399424       -10.8689
 268   2.0000      -0.396342       -10.7850
 269   2.0000      -0.385000       -10.4764
 270   2.0000      -0.379922       -10.3382
 271   2.0000      -0.371321       -10.1041
 272   2.0000      -0.370502       -10.0819
 273   2.0000      -0.359159        -9.7732
 274   2.0000      -0.357603        -9.7309
 275   2.0000      -0.352475        -9.5913
 276   2.0000      -0.349770        -9.5177
 277   2.0000      -0.347676        -9.4607
 278   2.0000      -0.340948        -9.2777
 279   2.0000      -0.339251        -9.2315
 280   2.0000      -0.334379        -9.0989
 281   2.0000      -0.330986        -9.0066
 282   2.0000      -0.324079        -8.8186
 283   2.0000      -0.317323        -8.6348
 284   2.0000      -0.309267        -8.4156
 285   2.0000      -0.308369        -8.3912
 286   2.0000      -0.305926        -8.3247
 287   2.0000      -0.295685        -8.0460
 288   2.0000      -0.288587        -7.8529
 289   2.0000      -0.277441        -7.5495
 290   2.0000      -0.246619        -6.7109
 291   2.0000      -0.226903        -6.1743
 292   0.0000      -0.107907        -2.9363
 293   0.0000      -0.087303        -2.3756
 294   0.0000      -0.071923        -1.9571
 295   0.0000      -0.058386        -1.5888
 296   0.0000      -0.051019        -1.3883

MULLIKEN ATOMIC CHARGES
-----------------------
   0 C :    0.173540
   1 O :   -0.185336
   2 C :   -0.001038
   3 C :    0.026434
   4 C :   -0.022304
   5 C :    0.039665
   6 C :    0.010474
   7 C :    0.017125
   8 Br:   -0.025550
   9 C :    0.301251
  10 C :   -0.346562
  11 C :   -0.187899
  12 N :    0.150639
  13 C :   -0.205157
  14 N :    0.157776
  15 C :   -0.088921
  16 C :    0.045107
  17 C :   -0.123701
  18 C :    0.013481
  19 C :    0.015576
  20 C :    0.055497
  21 C :   -0.118917
  22 S :    0.145834
  23 C :   -0.091551
  24 C :    0.041428
  25 C :    0.017256
  26 C :   -0.065436
  27 S :    0.141140
  28 C :    0.118341
  29 C :   -0.056213
  30 C :   -0.007216
  31 C :   -0.101319
  32 S :    0.106316
  33 C :   -0.107569
  34 C :   -0.038931
  35 C :   -0.094463
  36 C :    0.148358
  37 C :   -0.055359
  38 C :   -0.079216
  39 C :    0.165616
  40 O :   -0.183452
  41 C :    0.134223
  42 C :   -0.064583
  43 C :   -0.033796
  44 C :    0.072855
  45 C :    0.068934
  46 C :   -0.124172
  47 S :    0.152854
  48 C :   -0.120009
  49 C :    0.068067
  50 C :   -0.005424
  51 C :   -0.065238
  52 S :    0.131549
  53 C :    0.076726
  54 C :    0.029010
  55 C :   -0.003053
  56 C :    0.041062
  57 C :   -0.141259
  58 C :    0.127866
  59 O :   -0.152092
  60 C :   -0.004783
  61 C :    0.049575
  62 C :    0.323516
  63 C :   -0.393165
  64 C :   -0.145143
  65 N :    0.112008
  66 C :   -0.224234
  67 N :    0.178211
  68 C :   -0.021176
  69 C :    0.036695
  70 C :    0.000132
  71 C :   -0.020350
  72 Br:   -0.034337
  73 H :    0.008315
  74 H :    0.007286
  75 H :   -0.057626
  76 H :    0.021198
  77 H :    0.005354
  78 H :    0.040700
  79 H :   -0.010528
  80 H :    0.031925
  81 H :   -0.014336
  82 H :    0.020296
  83 H :    0.033632
  84 H :    0.010237
  85 H :    0.055153
  86 H :    0.013050
  87 H :    0.019124
  88 H :   -0.003425
  89 H :    0.060191
  90 H :    0.024740
  91 H :   -0.035429
  92 H :    0.039961
  93 H :   -0.008455
  94 H :    0.027402
  95 H :   -0.006415
  96 H :   -0.031896
  97 H :    0.022554
  98 H :   -0.010118
  99 H :   -0.016973
 100 H :   -0.001125
Sum of atomic charges:   -0.0000000

LOEWDIN ATOMIC CHARGES
----------------------
   0 C :    0.093647
   1 O :   -0.157460
   2 C :   -0.035972
   3 C :   -0.013662
   4 C :    0.008855
   5 C :   -0.012551
   6 C :   -0.097924
   7 C :   -0.000844
   8 Br:    0.123093
   9 C :    0.075569
  10 C :   -0.141785
  11 C :   -0.018543
  12 N :   -0.053496
  13 C :   -0.026618
  14 N :   -0.050456
  15 C :   -0.112632
  16 C :    0.044966
  17 C :   -0.190881
  18 C :    0.042684
  19 C :   -0.036746
  20 C :   -0.060808
  21 C :   -0.130256
  22 S :    0.458654
  23 C :   -0.180093
  24 C :   -0.046135
  25 C :   -0.057758
  26 C :   -0.158045
  27 S :    0.430634
  28 C :   -0.005058
  29 C :   -0.035578
  30 C :   -0.016418
  31 C :   -0.164524
  32 S :    0.421528
  33 C :   -0.193975
  34 C :   -0.038213
  35 C :   -0.038007
  36 C :   -0.029040
  37 C :   -0.027351
  38 C :   -0.066396
  39 C :    0.129726
  40 O :   -0.125647
  41 C :   -0.024133
  42 C :   -0.162378
  43 C :   -0.020946
  44 C :    0.016472
  45 C :   -0.046320
  46 C :   -0.140129
  47 S :    0.466255
  48 C :   -0.204425
  49 C :   -0.029288
  50 C :   -0.062432
  51 C :   -0.162366
  52 S :    0.427264
  53 C :   -0.058113
  54 C :    0.061142
  55 C :   -0.069511
  56 C :    0.072933
  57 C :   -0.119891
  58 C :    0.083570
  59 O :   -0.148491
  60 C :   -0.034431
  61 C :   -0.005022
  62 C :    0.080428
  63 C :   -0.172565
  64 C :   -0.005266
  65 N :   -0.082700
  66 C :   -0.023190
  67 N :   -0.050453
  68 C :    0.004637
  69 C :   -0.026208
  70 C :   -0.100586
  71 C :   -0.004154
  72 Br:    0.104610
  73 H :    0.043182
  74 H :    0.041324
  75 H :    0.042579
  76 H :    0.040641
  77 H :    0.041420
  78 H :    0.038886
  79 H :    0.033141
  80 H :    0.025851
  81 H :    0.022276
  82 H :    0.039230
  83 H :    0.030840
  84 H :    0.033425
  85 H :    0.027106
  86 H :    0.020780
  87 H :    0.038237
  88 H :   -0.004155
  89 H :    0.037265
  90 H :    0.036140
  91 H :    0.040600
  92 H :    0.038205
  93 H :    0.030872
  94 H :    0.024770
  95 H :    0.034059
  96 H :    0.029012
  97 H :    0.045232
  98 H :    0.028880
  99 H :    0.026950
 100 H :    0.042457

  Mayer bond orders larger than 0.100000
B(  0-C ,  1-O ) :   2.0365 B(  0-C ,  2-C ) :   0.9448 B(  0-C , 15-C ) :   1.0159
B(  2-C ,  3-C ) :   1.3229 B(  2-C ,  7-C ) :   1.3905 B(  3-C ,  4-C ) :   1.3735
B(  3-C ,  9-C ) :   0.9821 B(  4-C ,  5-C ) :   1.3718 B(  4-C , 73-H ) :   0.9847
B(  5-C ,  6-C ) :   1.3922 B(  5-C , 74-H ) :   0.9858 B(  6-C ,  7-C ) :   1.3386
B(  6-C ,  8-Br) :   0.9918 B(  7-C , 75-H ) :   1.0076 B(  9-C , 10-C ) :   1.6171
B(  9-C , 15-C ) :   1.1051 B( 10-C , 11-C ) :   1.1465 B( 10-C , 13-C ) :   1.1385
B( 11-C , 12-N ) :   2.9720 B( 13-C , 14-N ) :   2.9854 B( 15-C , 16-C ) :   1.4951
B( 16-C , 17-C ) :   1.2748 B( 16-C , 76-H ) :   0.9163 B( 17-C , 18-C ) :   1.4068
B( 17-C , 22-S ) :   1.0325 B( 18-C , 19-C ) :   1.3523 B( 18-C , 77-H ) :   0.9488
B( 19-C , 20-C ) :   1.0328 B( 19-C , 28-C ) :   1.2938 B( 20-C , 21-C ) :   1.5846
B( 20-C , 23-C ) :   1.2027 B( 21-C , 22-S ) :   1.1655 B( 21-C , 78-H ) :   0.9438
B( 23-C , 24-C ) :   1.4000 B( 23-C , 27-S ) :   1.0912 B( 24-C , 25-C ) :   1.2049
B( 24-C , 28-C ) :   1.1475 B( 25-C , 26-C ) :   1.6064 B( 25-C , 79-H ) :   0.9979
B( 26-C , 27-S ) :   1.1378 B( 26-C , 80-H ) :   0.9661 B( 28-C , 29-C ) :   1.1836
B( 29-C , 30-C ) :   1.5733 B( 29-C , 81-H ) :   0.9580 B( 30-C , 31-C ) :   1.1961
B( 30-C , 82-H ) :   0.9658 B( 31-C , 32-S ) :   1.1013 B( 31-C , 33-C ) :   0.1019
B( 31-C , 35-C ) :   1.4565 B( 32-S , 33-C ) :   1.1054 B( 33-C , 34-C ) :   1.5153
B( 33-C , 42-C ) :   1.1109 B( 34-C , 35-C ) :   1.3430 B( 34-C , 41-C ) :   1.0460
B( 35-C , 36-C ) :   1.0484 B( 36-C , 37-C ) :   1.1135 B( 36-C , 83-H ) :   0.8873
B( 36-C , 84-H ) :   0.8944 B( 37-C , 38-C ) :   1.0105 B( 37-C , 85-H ) :   0.9194
B( 37-C , 86-H ) :   0.9262 B( 38-C , 39-C ) :   0.9268 B( 38-C , 41-C ) :   1.0311
B( 38-C , 87-H ) :   0.8984 B( 39-C , 40-O ) :   2.1576 B( 39-C , 88-H ) :   0.9566
B( 41-C , 89-H ) :   0.8815 B( 41-C , 90-H ) :   0.9102 B( 42-C , 43-C ) :   1.5201
B( 42-C , 47-S ) :   1.0727 B( 43-C , 44-C ) :   1.2692 B( 43-C , 91-H ) :   0.9584
B( 44-C , 45-C ) :   1.0715 B( 44-C , 53-C ) :   1.3214 B( 45-C , 46-C ) :   1.5867
B( 45-C , 48-C ) :   1.1708 B( 46-C , 47-S ) :   1.1477 B( 46-C , 92-H ) :   0.9405
B( 48-C , 49-C ) :   1.4576 B( 48-C , 52-S ) :   1.0789 B( 49-C , 50-C ) :   1.2225
B( 49-C , 53-C ) :   1.0613 B( 50-C , 51-C ) :   1.5825 B( 50-C , 93-H ) :   1.0007
B( 51-C , 52-S ) :   1.1600 B( 51-C , 94-H ) :   0.9647 B( 53-C , 54-C ) :   1.2845
B( 54-C , 55-C ) :   1.4746 B( 54-C , 95-H ) :   0.9381 B( 55-C , 56-C ) :   1.2780
B( 55-C , 96-H ) :   0.9680 B( 56-C , 57-C ) :   1.5083 B( 56-C , 97-H ) :   0.9264
B( 57-C , 58-C ) :   0.9685 B( 57-C , 62-C ) :   1.1087 B( 58-C , 59-O ) :   2.2429
B( 58-C , 60-C ) :   0.9175 B( 60-C , 61-C ) :   1.3436 B( 60-C , 71-C ) :   1.3816
B( 61-C , 62-C ) :   1.0067 B( 61-C , 68-C ) :   1.3762 B( 62-C , 63-C ) :   1.5583
B( 63-C , 64-C ) :   1.1476 B( 63-C , 66-C ) :   1.1830 B( 64-C , 65-N ) :   2.8927
B( 66-C , 67-N ) :   2.9892 B( 68-C , 69-C ) :   1.3763 B( 68-C , 98-H ) :   0.9722
B( 69-C , 70-C ) :   1.4028 B( 69-C , 99-H ) :   0.9795 B( 70-C , 71-C ) :   1.3348
B( 70-C , 72-Br) :   0.9847 B( 71-C ,100-H ) :   1.0061

-----------------------------------------------------------------------------
         ABSORPTION SPECTRUM VIA TRANSITION ELECTRIC DIPOLE MOMENTS
-----------------------------------------------------------------------------
State   Energy  Wavelength   fosc         T2         TX        TY        TZ
        (cm-1)    (nm)                  (au**2)     (au)      (au)      (au)
-----------------------------------------------------------------------------
   0   11306.6    884.4   0.479174784  13.95208   1.95067   2.93015   1.24947
   1   14823.3    674.6   0.687124074  15.26037  -0.92393  -1.73225   3.37728
   2   18084.1    553.0   0.133296983   2.42661   0.29241   0.57270  -1.41884
   3   19043.9    525.1   0.013700978   0.23685   0.41187   0.03756   0.25652
   4   20570.5    486.1   0.548478610   8.77789  -1.80838  -1.99158  -1.24148
   5   21791.9    458.9   0.018830321   0.28447  -0.00663   0.16537  -0.50703
   6   22055.6    453.4   0.106000624   1.58221  -0.33830  -0.04155  -1.21080
   7   22600.8    442.5   0.110393187   1.60803  -0.02372   0.02627   1.26759
   8   23898.2    418.4   0.290723832   4.00490  -0.22256  -0.03042   1.98858
   9   24641.5    405.8   0.180377692   2.40986  -0.64132  -0.68508   1.23662
  10   25976.5    385.0   0.091992621   1.16587   0.73261   0.77281   0.17864
  11   26396.8    378.8   0.152686468   1.90426  -1.09336  -0.75512  -0.37233
  12   26909.8    371.6   0.279383568   3.41796  -0.26366  -0.79018  -1.65047
  13   27539.2    363.1   0.048331104   0.57777   0.74392   0.13855   0.07174
  14   27726.0    360.7   0.112018045   1.33008  -0.20204   0.55862   0.98853
  15   28238.1    354.1   0.016762153   0.19542  -0.07940  -0.36005  -0.24389
  16   28742.9    347.9   0.057856748   0.66267   0.22493   0.54554   0.56078
  17   29447.4    339.6   0.129641276   1.44935   0.34286   0.35399  -1.09840
  18   29947.5    333.9   0.164420045   1.80746   0.86817   0.80995   0.63065
  19   30244.3    330.6   0.178245216   1.94021   0.14871   0.81137   1.12240
  20   30426.0    328.7   0.095031999   1.02826  -0.48287   0.25420   0.85468
  21   30765.0    325.0   0.018995214   0.20327  -0.15971  -0.41735   0.05982
  22   30831.1    324.3   0.066971188   0.71511   0.28780   0.74168  -0.28670
  23   31084.8    321.7   0.029455805   0.31196  -0.27017  -0.10482   0.47747
  24   31320.2    319.3   0.068525708   0.72029   0.52723  -0.14524  -0.64902
  25   31784.6    314.6   0.124092128   1.28530   0.54944   0.24889  -0.95993
  26   31896.1    313.5   0.063707144   0.65755   0.41888  -0.30667  -0.62293
  27   32358.7    309.0   0.111992949   1.13940   0.61947   0.84563  -0.20139
  28   32833.0    304.6   0.038509071   0.38612   0.31162   0.22283   0.48925
  29   33307.7    300.2   0.129841927   1.28335   0.22879   0.68917   0.86952
  30   33387.7    299.5   0.060100453   0.59261   0.17736  -0.45809  -0.59271
  31   33689.5    296.8   0.171965831   1.68044   0.63881   1.04492   0.42486
  32   33865.5    295.3   0.047833196   0.46499  -0.16427  -0.13336  -0.64825
  33   33955.9    294.5   0.338507956   3.28193  -0.84545   1.19291   1.06963
  34   34134.1    293.0   0.121184094   1.16878   0.41199   0.32917  -0.94376
  35   34528.4    289.6   0.293824966   2.80148   0.47593  -0.57099  -1.49965
  36   34779.8    287.5   0.184771230   1.74897  -0.90533   0.03868   0.96325
  37   34824.3    287.2   0.051455892   0.48644   0.02887  -0.52586  -0.45724
  38   35086.3    285.0   0.006500283   0.06099  -0.17602  -0.13663   0.10649
  39   35561.2    281.2   0.164604060   1.52384   0.75264   0.95444   0.21545
  40   35893.5    278.6   0.010857387   0.09958  -0.24398   0.11168   0.16608
  41   36092.1    277.1   0.019789383   0.18051  -0.13549   0.02543  -0.40187
  42   36122.0    276.8   0.087550131   0.79792  -0.31353  -0.82172   0.15621
  43   36217.0    276.1   0.091557319   0.83225  -0.28988  -0.58997  -0.63258
  44   36442.4    274.4   0.171727495   1.55134  -0.78761   0.49495   0.82827
  45   36651.2    272.8   0.011867316   0.10660   0.23296   0.09013  -0.21024
  46   36871.6    271.2   0.020345190   0.18165  -0.15771   0.10531   0.38170
  47   37320.8    267.9   0.039233938   0.34609  -0.33302   0.41765   0.24649
  48   37582.9    266.1   0.005602939   0.04908  -0.18850  -0.05311   0.10357
  49   37698.6    265.3   0.037358768   0.32624  -0.27423  -0.13853   0.48151
  50   38148.5    262.1   0.099760061   0.86090  -0.35848   0.13128  -0.84567
  51   38316.9    261.0   0.035666086   0.30644  -0.01369  -0.00595   0.55337
  52   38725.0    258.2   0.022398133   0.19041   0.08467   0.41806  -0.09201
  53   38871.5    257.3   0.050016504   0.42360   0.23981   0.03759   0.60389
  54   38962.4    256.7   0.097015686   0.81973  -0.06205  -0.12976  -0.89389
  55   39298.2    254.5   0.011590689   0.09710  -0.23490  -0.20221  -0.03213
  56   39378.3    253.9   0.004279402   0.03578  -0.17120   0.07216  -0.03551
  57   39625.8    252.4   0.018710204   0.15544  -0.24903  -0.23027  -0.20101
  58   39650.2    252.2   0.152409260   1.26544  -0.81367  -0.77175   0.08817
  59   39938.6    250.4   0.089072731   0.73422  -0.58284  -0.62093  -0.09468
  60   40014.4    249.9   0.030182854   0.24832  -0.27217  -0.34743   0.23139
  61   40281.7    248.3   0.136414958   1.11488   0.70423   0.31164   0.72237

FINAL SINGLE POINT ENERGY     -9844.500958383855

DIPOLE MOMENT
-------------
                                X             Y             Z
Electronic contribution:    -54.45295     -12.41606     111.19256
Nuclear contribution   :     54.08823      15.07907    -115.04513
                        -----------------------------------------
Total Dipole Moment    :     -0.36472       2.66301      -3.85258
                        -----------------------------------------
Magnitude (a.u.)       :      4.69755
Magnitude (Debye)      :     11.94023

Rotational constants in cm-1:     0.000787     0.000504     0.000332
Rotational constants in MHz :    23.599962    15.096652     9.952568

                             ****ORCA TERMINATED NORMALLY****
TOTAL RUN TIME: 0 days 0 hours 13 minutes 3 seconds 60 msec
