                         Program Version 4.2.0 -  RELEASE  -
|  1> # ORCA input file
|  2> # SCF done       -196.949017997457          0.000717547522
|  3> ! CAM-B3LYP def2-SVP def2/J RIJCOSX Grid4 TightSCF
|  4> %maxcore 5000
|  5> %tddft
|  6>     Mode sTDDFT
|  7>     Ethresh 5.0
|  8>     maxcore 5000
|  9> end
| 10>
| 11> %pal
| 12>   nprocs 6
| 13>   end
| 14> * xyz 0 1
| 15>    C        3.03041        -7.39432         2.41573
| 16>    O        1.91591        -7.28190         2.89539
| 17>    C        4.28566        -7.46656         3.19356
| 18>    C        5.36359        -7.71064         2.32776
| 19>    C        6.64479        -7.81557         2.84849
| 20>    C        6.82703        -7.65933         4.21585
| 21>    C        5.74597        -7.40838         5.04814
| 22>    C        4.45219        -7.31819         4.55438
| 23>   Br        6.03954        -7.16661         6.91222
| 24>    C        4.84986        -7.78273         0.95928
| 25>    C        5.62865        -7.93358        -0.16165
| 26>    C        7.02529        -8.12466        -0.12948
| 27>    N        8.16085        -8.29072        -0.17109
| 28>    C        5.17283        -7.89307        -1.49564
| 29>    N        4.89491        -7.84424        -2.60947
| 30>    C        3.41755        -7.57799         1.00846
| 31>    C        2.58233        -7.69905        -0.08615
| 32>    C        1.23814        -7.32048        -0.24112
| 33>    C        0.54963        -6.43195         0.56964
| 34>    C       -0.75980        -6.03332         0.38214
| 35>    C       -1.50768        -6.38956        -0.83098
| 36>    C       -1.04160        -7.24012        -1.77397
| 37>    S        0.48138        -8.01797        -1.68440
| 38>    C       -2.71238        -5.64070        -0.76143
| 39>    C       -2.73349        -4.88119         0.41696
| 40>    C       -3.92081        -4.12344         0.54098
| 41>    C       -4.74607        -4.31581        -0.51857
| 42>    S       -4.12873        -5.42277        -1.70419
| 43>    C       -1.54379        -5.14360         1.16484
| 44>    C       -1.24128        -4.64121         2.45267
| 45>    C       -0.40192        -5.27926         3.31441
| 46>    C        0.07376        -4.79811         4.55327
| 47>    C       -0.11866        -3.58353         5.19889
| 48>    C        0.61776        -3.49360         6.37573
| 49>    C        1.38021        -4.65333         6.63596
| 50>    S        1.17847        -5.84393         5.43482
| 51>    C        2.10853        -4.45784         7.82993
| 52>    C        1.81832        -3.17195         8.32546
| 53>    C        0.86158        -2.53236         7.43652
| 54>    C        0.29647        -1.30016         7.59225
| 55>    C       -0.66078        -0.78884         6.69250
| 56>    N       -1.43737        -0.36423         5.96340
| 57>    C        0.61947        -0.46696         8.68112
| 58>    N        0.87764         0.20950         9.57168
| 59>    C        2.48587        -2.88548         9.50906
| 60>    C        3.28318        -3.94098         9.93233
| 61>    S        3.20539        -5.30320         8.82696
| 62>    C        4.03331        -4.03049        11.13853
| 63>    C        3.98539        -3.03509        12.09297
| 64>    C        4.55021        -3.11922        13.35758
| 65>    C        5.48898        -4.19200        13.68750
| 66>    C        5.72998        -5.25112        12.87954
| 67>    S        4.94967        -5.49968        11.37457
| 68>    C        5.99667        -3.86919        14.97776
| 69>    C        5.37423        -2.71516        15.45434
| 70>    C        5.81109        -2.37142        16.75118
| 71>    C        6.73898        -3.25109        17.21337
| 72>    S        7.10977        -4.52935        16.10757
| 73>    C        4.42347        -2.25024        14.47336
| 74>    C        3.46492        -1.25403        14.71422
| 75>    C        2.33486        -1.05256        13.95964
| 76>    C        1.34246        -0.11899        14.24691
| 77>    C        0.18718         0.11954        13.53167
| 78>    C       -0.57650         1.34228        13.87212
| 79>    O       -0.41719         2.05404        14.83940
| 80>    C       -1.54586         1.52518        12.77042
| 81>    C       -1.43079         0.44850        11.87510
| 82>    C       -0.42111        -0.49268        12.38031
| 83>    C       -0.24750        -1.75157        11.84499
| 84>    C       -0.87730        -2.21026        10.67145
| 85>    N       -1.29093        -2.67322         9.70266
| 86>    C        0.52232        -2.82718        12.32614
| 87>    N        1.08698        -3.79285        12.59894
| 88>    C       -2.22750         0.42592        10.74068
| 89>    C       -3.11404         1.46989        10.51868
| 90>    C       -3.21258         2.51663        11.42290
| 91>    C       -2.42982         2.56315        12.56856
| 92>   Br       -4.44821         3.91898        11.08359
| 93>    H        7.49898        -8.01259         2.22231
| 94>    H        7.81905        -7.73146         4.63466
| 95>    H        3.60730        -7.13468         5.19954
| 96>    H        3.01288        -8.16789        -0.96337
| 97>    H        1.10823        -5.98316         1.37383
| 98>    H       -1.61129        -7.50056        -2.65227
| 99>    H       -4.15032        -3.47151         1.36379
|100>    H       -5.70692        -3.87233        -0.69243
|101>    H       -1.74200        -3.73119         2.75507
|102>    H       -0.04265        -6.26357         3.05412
|103>    H       -0.76145        -2.81189         4.81670
|104>    H        2.40193        -1.95113        10.03151
|105>    H        3.46900        -2.13116        11.81857
|106>    H        6.40882        -6.04456        13.14958
|107>    H        5.46837        -1.52240        17.31394
|108>    H        7.24484        -3.23431        18.15889
|109>    H        3.59140        -0.66777        15.61641
|110>    H        2.17141        -1.68374        13.10854
|111>    H        1.49637         0.55367        15.08477
|112>    H       -2.17458        -0.37242        10.02009
|113>    H       -3.73184         1.46693         9.63368
|114>    H       -2.50036         3.37463        13.27619
|115> *
|116>
|117>                          ****END OF INPUT****

CARTESIAN COORDINATES (ANGSTROEM)
---------------------------------
  C      3.030410   -7.394320    2.415730
  O      1.915910   -7.281900    2.895390
  C      4.285660   -7.466560    3.193560
  C      5.363590   -7.710640    2.327760
  C      6.644790   -7.815570    2.848490
  C      6.827030   -7.659330    4.215850
  C      5.745970   -7.408380    5.048140
  C      4.452190   -7.318190    4.554380
  Br     6.039540   -7.166610    6.912220
  C      4.849860   -7.782730    0.959280
  C      5.628650   -7.933580   -0.161650
  C      7.025290   -8.124660   -0.129480
  N      8.160850   -8.290720   -0.171090
  C      5.172830   -7.893070   -1.495640
  N      4.894910   -7.844240   -2.609470
  C      3.417550   -7.577990    1.008460
  C      2.582330   -7.699050   -0.086150
  C      1.238140   -7.320480   -0.241120
  C      0.549630   -6.431950    0.569640
  C     -0.759800   -6.033320    0.382140
  C     -1.507680   -6.389560   -0.830980
  C     -1.041600   -7.240120   -1.773970
  S      0.481380   -8.017970   -1.684400
  C     -2.712380   -5.640700   -0.761430
  C     -2.733490   -4.881190    0.416960
  C     -3.920810   -4.123440    0.540980
  C     -4.746070   -4.315810   -0.518570
  S     -4.128730   -5.422770   -1.704190
  C     -1.543790   -5.143600    1.164840
  C     -1.241280   -4.641210    2.452670
  C     -0.401920   -5.279260    3.314410
  C      0.073760   -4.798110    4.553270
  C     -0.118660   -3.583530    5.198890
  C      0.617760   -3.493600    6.375730
  C      1.380210   -4.653330    6.635960
  S      1.178470   -5.843930    5.434820
  C      2.108530   -4.457840    7.829930
  C      1.818320   -3.171950    8.325460
  C      0.861580   -2.532360    7.436520
  C      0.296470   -1.300160    7.592250
  C     -0.660780   -0.788840    6.692500
  N     -1.437370   -0.364230    5.963400
  C      0.619470   -0.466960    8.681120
  N      0.877640    0.209500    9.571680
  C      2.485870   -2.885480    9.509060
  C      3.283180   -3.940980    9.932330
  S      3.205390   -5.303200    8.826960
  C      4.033310   -4.030490   11.138530
  C      3.985390   -3.035090   12.092970
  C      4.550210   -3.119220   13.357580
  C      5.488980   -4.192000   13.687500
  C      5.729980   -5.251120   12.879540
  S      4.949670   -5.499680   11.374570
  C      5.996670   -3.869190   14.977760
  C      5.374230   -2.715160   15.454340
  C      5.811090   -2.371420   16.751180
  C      6.738980   -3.251090   17.213370
  S      7.109770   -4.529350   16.107570
  C      4.423470   -2.250240   14.473360
  C      3.464920   -1.254030   14.714220
  C      2.334860   -1.052560   13.959640
  C      1.342460   -0.118990   14.246910
  C      0.187180    0.119540   13.531670
  C     -0.576500    1.342280   13.872120
  O     -0.417190    2.054040   14.839400
  C     -1.545860    1.525180   12.770420
  C     -1.430790    0.448500   11.875100
  C     -0.421110   -0.492680   12.380310
  C     -0.247500   -1.751570   11.844990
  C     -0.877300   -2.210260   10.671450
  N     -1.290930   -2.673220    9.702660
  C      0.522320   -2.827180   12.326140
  N      1.086980   -3.792850   12.598940
  C     -2.227500    0.425920   10.740680
  C     -3.114040    1.469890   10.518680
  C     -3.212580    2.516630   11.422900
  C     -2.429820    2.563150   12.568560
  Br    -4.448210    3.918980   11.083590
  H      7.498980   -8.012590    2.222310
  H      7.819050   -7.731460    4.634660
  H      3.607300   -7.134680    5.199540
  H      3.012880   -8.167890   -0.963370
  H      1.108230   -5.983160    1.373830
  H     -1.611290   -7.500560   -2.652270
  H     -4.150320   -3.471510    1.363790
  H     -5.706920   -3.872330   -0.692430
  H     -1.742000   -3.731190    2.755070
  H     -0.042650   -6.263570    3.054120
  H     -0.761450   -2.811890    4.816700
  H      2.401930   -1.951130   10.031510
  H      3.469000   -2.131160   11.818570
  H      6.408820   -6.044560   13.149580
  H      5.468370   -1.522400   17.313940
  H      7.244840   -3.234310   18.158890
  H      3.591400   -0.667770   15.616410
  H      2.171410   -1.683740   13.108540
  H      1.496370    0.553670   15.084770
  H     -2.174580   -0.372420   10.020090
  H     -3.731840    1.466930    9.633680
  H     -2.500360    3.374630   13.276190

 Total Charge           Charge          ....    0
 Multiplicity           Mult            ....    1
 Number of Electrons    NEL             ....  618
 Basis Dimension        Dim             .... 1262

ORBITAL ENERGIES
----------------

  NO   OCC          E(Eh)            E(eV)
   0   2.0000    -482.879354    -13139.8152
   1   2.0000    -482.860720    -13139.3082
   2   2.0000     -88.995227     -2421.6832
   3   2.0000     -88.994068     -2421.6517
   4   2.0000     -88.985898     -2421.4294
   5   2.0000     -88.978961     -2421.2406
   6   2.0000     -88.970193     -2421.0020
   7   2.0000     -88.964386     -2420.8440
   8   2.0000     -62.556891     -1702.2595
   9   2.0000     -62.538440     -1701.7575
  10   2.0000     -56.390744     -1534.4701
  11   2.0000     -56.388217     -1534.4014
  12   2.0000     -56.388156     -1534.3997
  13   2.0000     -56.372256     -1533.9671
  14   2.0000     -56.369765     -1533.8993
  15   2.0000     -56.369759     -1533.8991
  16   2.0000     -19.227123      -523.1966
  17   2.0000     -19.202252      -522.5198
  18   2.0000     -14.432866      -392.7383
  19   2.0000     -14.428918      -392.6308
  20   2.0000     -14.416881      -392.3033
  21   2.0000     -14.415127      -392.2555
  22   2.0000     -14.410654      -392.1338
  23   2.0000     -14.408691      -392.0804
  24   2.0000     -10.378080      -282.4019
  25   2.0000     -10.361264      -281.9443
  26   2.0000     -10.351263      -281.6722
  27   2.0000     -10.349261      -281.6177
  28   2.0000     -10.348876      -281.6072
  29   2.0000     -10.346789      -281.5504
  30   2.0000     -10.343548      -281.4622
  31   2.0000     -10.342981      -281.4468
  32   2.0000     -10.340333      -281.3748
  33   2.0000     -10.339215      -281.3443
  34   2.0000     -10.334640      -281.2198
  35   2.0000     -10.333640      -281.1926
  36   2.0000     -10.332145      -281.1520
  37   2.0000     -10.332015      -281.1484
  38   2.0000     -10.330755      -281.1141
  39   2.0000     -10.329738      -281.0865
  40   2.0000     -10.329509      -281.0802
  41   2.0000     -10.329372      -281.0765
  42   2.0000     -10.327156      -281.0162
  43   2.0000     -10.326541      -280.9995
  44   2.0000     -10.320552      -280.8365
  45   2.0000     -10.319813      -280.8164
  46   2.0000     -10.318406      -280.7781
  47   2.0000     -10.316880      -280.7366
  48   2.0000     -10.314119      -280.6614
  49   2.0000     -10.313855      -280.6543
  50   2.0000     -10.313127      -280.6345
  51   2.0000     -10.313103      -280.6338
  52   2.0000     -10.309140      -280.5260
  53   2.0000     -10.308852      -280.5181
  54   2.0000     -10.307813      -280.4899
  55   2.0000     -10.307648      -280.4854
  56   2.0000     -10.307529      -280.4821
  57   2.0000     -10.307375      -280.4779
  58   2.0000     -10.306917      -280.4655
  59   2.0000     -10.305754      -280.4338
  60   2.0000     -10.305326      -280.4222
  61   2.0000     -10.304505      -280.3998
  62   2.0000     -10.304422      -280.3976
  63   2.0000     -10.302737      -280.3517
  64   2.0000     -10.302630      -280.3488
  65   2.0000     -10.302318      -280.3403
  66   2.0000     -10.301402      -280.3154
  67   2.0000     -10.300698      -280.2962
  68   2.0000     -10.300357      -280.2870
  69   2.0000     -10.299603      -280.2664
  70   2.0000     -10.296274      -280.1759
  71   2.0000     -10.295875      -280.1650
  72   2.0000     -10.295310      -280.1496
  73   2.0000     -10.294685      -280.1326
  74   2.0000     -10.291036      -280.0333
  75   2.0000     -10.290343      -280.0145
  76   2.0000     -10.289851      -280.0011
  77   2.0000     -10.288389      -279.9613
  78   2.0000     -10.288363      -279.9606
  79   2.0000     -10.287820      -279.9458
  80   2.0000     -10.285120      -279.8723
  81   2.0000     -10.283499      -279.8282
  82   2.0000     -10.283387      -279.8252
  83   2.0000     -10.282134      -279.7911
  84   2.0000     -10.277779      -279.6726
  85   2.0000     -10.272701      -279.5344
  86   2.0000      -8.786144      -239.0831
  87   2.0000      -8.767718      -238.5817
  88   2.0000      -8.090684      -220.1587
  89   2.0000      -8.088536      -220.1002
  90   2.0000      -8.079807      -219.8627
  91   2.0000      -8.074537      -219.7193
  92   2.0000      -8.065731      -219.4797
  93   2.0000      -8.059802      -219.3184
  94   2.0000      -6.621916      -180.1915
  95   2.0000      -6.608225      -179.8189
  96   2.0000      -6.607927      -179.8108
  97   2.0000      -6.603484      -179.6899
  98   2.0000      -6.589849      -179.3189
  99   2.0000      -6.589471      -179.3086
 100   2.0000      -6.060118      -164.9042
 101   2.0000      -6.057841      -164.8422
 102   2.0000      -6.055596      -164.7812
 103   2.0000      -6.053611      -164.7271
 104   2.0000      -6.052789      -164.7048
 105   2.0000      -6.050853      -164.6521
 106   2.0000      -6.049019      -164.6022
 107   2.0000      -6.044730      -164.4855
 108   2.0000      -6.044114      -164.4687
 109   2.0000      -6.042420      -164.4226
 110   2.0000      -6.039628      -164.3466
 111   2.0000      -6.036238      -164.2544
 112   2.0000      -6.035175      -164.2255
 113   2.0000      -6.030884      -164.1087
 114   2.0000      -6.029261      -164.0645
 115   2.0000      -6.027730      -164.0229
 116   2.0000      -6.024985      -163.9482
 117   2.0000      -6.021814      -163.8619
 118   2.0000      -2.737873       -74.5013
 119   2.0000      -2.734100       -74.3986
 120   2.0000      -2.733852       -74.3919
 121   2.0000      -2.722989       -74.0963
 122   2.0000      -2.722978       -74.0960
 123   2.0000      -2.719434       -73.9996
 124   2.0000      -2.715707       -73.8981
 125   2.0000      -2.715388       -73.8895
 126   2.0000      -2.704577       -73.5953
 127   2.0000      -2.704558       -73.5948
 128   2.0000      -1.141296       -31.0563
 129   2.0000      -1.116717       -30.3874
 130   2.0000      -1.045131       -28.4395
 131   2.0000      -1.024259       -27.8715
 132   2.0000      -1.022086       -27.8124
 133   2.0000      -1.019696       -27.7473
 134   2.0000      -1.019130       -27.7319
 135   2.0000      -1.012713       -27.5573
 136   2.0000      -1.008067       -27.4309
 137   2.0000      -1.004271       -27.3276
 138   2.0000      -1.002432       -27.2776
 139   2.0000      -0.994544       -27.0629
 140   2.0000      -0.990437       -26.9512
 141   2.0000      -0.989144       -26.9160
 142   2.0000      -0.983967       -26.7751
 143   2.0000      -0.981996       -26.7215
 144   2.0000      -0.967003       -26.3135
 145   2.0000      -0.958400       -26.0794
 146   2.0000      -0.951136       -25.8817
 147   2.0000      -0.942783       -25.6544
 148   2.0000      -0.939952       -25.5774
 149   2.0000      -0.923261       -25.1232
 150   2.0000      -0.918011       -24.9804
 151   2.0000      -0.912231       -24.8231
 152   2.0000      -0.907933       -24.7061
 153   2.0000      -0.899463       -24.4756
 154   2.0000      -0.898041       -24.4369
 155   2.0000      -0.893695       -24.3187
 156   2.0000      -0.883801       -24.0495
 157   2.0000      -0.879029       -23.9196
 158   2.0000      -0.868236       -23.6259
 159   2.0000      -0.865786       -23.5592
 160   2.0000      -0.861089       -23.4314
 161   2.0000      -0.856536       -23.3075
 162   2.0000      -0.855368       -23.2757
 163   2.0000      -0.851212       -23.1627
 164   2.0000      -0.846726       -23.0406
 165   2.0000      -0.831119       -22.6159
 166   2.0000      -0.825847       -22.4724
 167   2.0000      -0.820689       -22.3321
 168   2.0000      -0.809690       -22.0328
 169   2.0000      -0.794790       -21.6273
 170   2.0000      -0.783910       -21.3313
 171   2.0000      -0.778205       -21.1760
 172   2.0000      -0.773191       -21.0396
 173   2.0000      -0.770565       -20.9681
 174   2.0000      -0.758988       -20.6531
 175   2.0000      -0.756837       -20.5946
 176   2.0000      -0.745698       -20.2915
 177   2.0000      -0.733771       -19.9669
 178   2.0000      -0.730989       -19.8912
 179   2.0000      -0.721941       -19.6450
 180   2.0000      -0.704760       -19.1775
 181   2.0000      -0.699160       -19.0251
 182   2.0000      -0.697288       -18.9742
 183   2.0000      -0.692099       -18.8330
 184   2.0000      -0.688950       -18.7473
 185   2.0000      -0.686314       -18.6756
 186   2.0000      -0.677534       -18.4366
 187   2.0000      -0.672837       -18.3088
 188   2.0000      -0.668845       -18.2002
 189   2.0000      -0.667463       -18.1626
 190   2.0000      -0.663090       -18.0436
 191   2.0000      -0.658030       -17.9059
 192   2.0000      -0.646080       -17.5807
 193   2.0000      -0.641187       -17.4476
 194   2.0000      -0.634385       -17.2625
 195   2.0000      -0.633595       -17.2410
 196   2.0000      -0.629958       -17.1420
 197   2.0000      -0.621437       -16.9102
 198   2.0000      -0.615699       -16.7540
 199   2.0000      -0.614898       -16.7322
 200   2.0000      -0.612507       -16.6672
 201   2.0000      -0.603617       -16.4252
 202   2.0000      -0.602450       -16.3935
 203   2.0000      -0.596646       -16.2356
 204   2.0000      -0.591108       -16.0849
 205   2.0000      -0.589179       -16.0324
 206   2.0000      -0.586103       -15.9487
 207   2.0000      -0.576880       -15.6977
 208   2.0000      -0.573190       -15.5973
 209   2.0000      -0.571110       -15.5407
 210   2.0000      -0.565587       -15.3904
 211   2.0000      -0.561410       -15.2767
 212   2.0000      -0.559669       -15.2294
 213   2.0000      -0.553504       -15.0616
 214   2.0000      -0.550283       -14.9740
 215   2.0000      -0.547742       -14.9048
 216   2.0000      -0.545617       -14.8470
 217   2.0000      -0.542818       -14.7708
 218   2.0000      -0.540315       -14.7027
 219   2.0000      -0.537471       -14.6253
 220   2.0000      -0.534072       -14.5328
 221   2.0000      -0.531776       -14.4704
 222   2.0000      -0.527259       -14.3475
 223   2.0000      -0.526977       -14.3398
 224   2.0000      -0.525594       -14.3021
 225   2.0000      -0.524338       -14.2680
 226   2.0000      -0.520259       -14.1570
 227   2.0000      -0.518410       -14.1067
 228   2.0000      -0.517005       -14.0684
 229   2.0000      -0.513812       -13.9815
 230   2.0000      -0.510784       -13.8991
 231   2.0000      -0.508279       -13.8310
 232   2.0000      -0.502103       -13.6629
 233   2.0000      -0.501685       -13.6516
 234   2.0000      -0.499367       -13.5885
 235   2.0000      -0.498968       -13.5776
 236   2.0000      -0.497260       -13.5311
 237   2.0000      -0.495682       -13.4882
 238   2.0000      -0.486904       -13.2493
 239   2.0000      -0.484772       -13.1913
 240   2.0000      -0.483780       -13.1643
 241   2.0000      -0.479736       -13.0543
 242   2.0000      -0.478611       -13.0237
 243   2.0000      -0.475201       -12.9309
 244   2.0000      -0.470960       -12.8155
 245   2.0000      -0.469029       -12.7629
 246   2.0000      -0.468225       -12.7410
 247   2.0000      -0.467036       -12.7087
 248   2.0000      -0.466555       -12.6956
 249   2.0000      -0.463476       -12.6118
 250   2.0000      -0.461788       -12.5659
 251   2.0000      -0.459437       -12.5019
 252   2.0000      -0.458381       -12.4732
 253   2.0000      -0.456455       -12.4208
 254   2.0000      -0.455148       -12.3852
 255   2.0000      -0.453900       -12.3513
 256   2.0000      -0.451143       -12.2762
 257   2.0000      -0.449853       -12.2411
 258   2.0000      -0.449333       -12.2270
 259   2.0000      -0.444335       -12.0910
 260   2.0000      -0.443819       -12.0769
 261   2.0000      -0.443736       -12.0747
 262   2.0000      -0.442480       -12.0405
 263   2.0000      -0.440637       -11.9903
 264   2.0000      -0.440136       -11.9767
 265   2.0000      -0.439729       -11.9656
 266   2.0000      -0.437608       -11.9079
 267   2.0000      -0.436707       -11.8834
 268   2.0000      -0.436120       -11.8674
 269   2.0000      -0.431042       -11.7293
 270   2.0000      -0.430246       -11.7076
 271   2.0000      -0.428459       -11.6590
 272   2.0000      -0.428390       -11.6571
 273   2.0000      -0.426373       -11.6022
 274   2.0000      -0.424666       -11.5557
 275   2.0000      -0.421065       -11.4578
 276   2.0000      -0.419713       -11.4210
 277   2.0000      -0.418529       -11.3887
 278   2.0000      -0.417029       -11.3479
 279   2.0000      -0.413853       -11.2615
 280   2.0000      -0.412728       -11.2309
 281   2.0000      -0.409299       -11.1376
 282   2.0000      -0.408512       -11.1162
 283   2.0000      -0.398800       -10.8519
 284   2.0000      -0.397041       -10.8040
 285   2.0000      -0.392684       -10.6855
 286   2.0000      -0.385287       -10.4842
 287   2.0000      -0.382078       -10.3969
 288   2.0000      -0.374061       -10.1787
 289   2.0000      -0.366717        -9.9789
 290   2.0000      -0.356584        -9.7031
 291   2.0000      -0.355795        -9.6817
 292   2.0000      -0.355402        -9.6710
 293   2.0000      -0.351917        -9.5762
 294   2.0000      -0.347043        -9.4435
 295   2.0000      -0.343763        -9.3543
 296   2.0000      -0.336746        -9.1633
 297   2.0000      -0.334829        -9.1111
 298   2.0000      -0.330804        -9.0016
 299   2.0000      -0.325918        -8.8687
 300   2.0000      -0.320153        -8.7118
 301   2.0000      -0.311231        -8.4690
 302   2.0000      -0.310238        -8.4420
 303   2.0000      -0.299938        -8.1617
 304   2.0000      -0.295297        -8.0354
 305   2.0000      -0.288190        -7.8420
 306   2.0000      -0.273828        -7.4512
 307   2.0000      -0.244984        -6.6664
 308   2.0000      -0.228802        -6.2260
 309   0.0000      -0.113983        -3.1016
 310   0.0000      -0.098644        -2.6842
 311   0.0000      -0.089415        -2.4331
 312   0.0000      -0.073393        -1.9971
 313   0.0000      -0.061500        -1.6735

MULLIKEN ATOMIC CHARGES
-----------------------
   0 C :    0.161346
   1 O :   -0.187791
   2 C :   -0.018109
   3 C :    0.035720
   4 C :   -0.027354
   5 C :    0.044262
   6 C :    0.001328
   7 C :   -0.004642
   8 Br:   -0.030523
   9 C :    0.302796
  10 C :   -0.345954
  11 C :   -0.186609
  12 N :    0.149256
  13 C :   -0.207741
  14 N :    0.157233
  15 C :   -0.106825
  16 C :    0.043279
  17 C :   -0.122110
  18 C :    0.021324
  19 C :   -0.000573
  20 C :    0.062964
  21 C :   -0.117644
  22 S :    0.146778
  23 C :   -0.095938
  24 C :    0.051612
  25 C :    0.020518
  26 C :   -0.066340
  27 S :    0.142093
  28 C :    0.096744
  29 C :   -0.033817
  30 C :    0.035664
  31 C :   -0.092440
  32 C :   -0.019972
  33 C :    0.003696
  34 C :   -0.102488
  35 S :    0.199745
  36 C :   -0.089669
  37 C :    0.006978
  38 C :    0.341642
  39 C :   -0.294422
  40 C :   -0.189256
  41 N :    0.173237
  42 C :   -0.191372
  43 N :    0.165656
  44 C :   -0.032527
  45 C :   -0.068415
  46 S :    0.196720
  47 C :   -0.004052
  48 C :   -0.053527
  49 C :    0.068047
  50 C :    0.074619
  51 C :   -0.129578
  52 S :    0.154903
  53 C :   -0.114903
  54 C :    0.062615
  55 C :    0.009424
  56 C :   -0.066480
  57 S :    0.135111
  58 C :    0.071150
  59 C :    0.012927
  60 C :    0.008672
  61 C :    0.035037
  62 C :   -0.131476
  63 C :    0.129483
  64 O :   -0.149685
  65 C :   -0.016125
  66 C :    0.039103
  67 C :    0.366487
  68 C :   -0.387433
  69 C :   -0.179424
  70 N :    0.119922
  71 C :   -0.227076
  72 N :    0.164756
  73 C :   -0.030512
  74 C :    0.042966
  75 C :   -0.002113
  76 C :   -0.015544
  77 Br:   -0.032242
  78 H :    0.009366
  79 H :    0.005066
  80 H :   -0.027754
  81 H :    0.025816
  82 H :    0.008951
  83 H :    0.041517
  84 H :   -0.007560
  85 H :    0.033600
  86 H :   -0.007395
  87 H :    0.022800
  88 H :    0.006119
  89 H :    0.011327
  90 H :   -0.000433
  91 H :    0.042805
  92 H :   -0.013073
  93 H :    0.030487
  94 H :   -0.015092
  95 H :   -0.050966
  96 H :    0.004786
  97 H :   -0.004186
  98 H :    0.001477
  99 H :   -0.000771
Sum of atomic charges:   -0.0000000

LOEWDIN ATOMIC CHARGES
----------------------
   0 C :    0.086961
   1 O :   -0.168675
   2 C :   -0.036077
   3 C :   -0.012863
   4 C :    0.008317
   5 C :   -0.014202
   6 C :   -0.099787
   7 C :   -0.008174
   8 Br:    0.105813
   9 C :    0.073736
  10 C :   -0.142857
  11 C :   -0.018836
  12 N :   -0.055051
  13 C :   -0.026369
  14 N :   -0.050613
  15 C :   -0.116701
  16 C :    0.047359
  17 C :   -0.194586
  18 C :    0.046101
  19 C :   -0.036656
  20 C :   -0.061220
  21 C :   -0.128460
  22 S :    0.455251
  23 C :   -0.179461
  24 C :   -0.046766
  25 C :   -0.055611
  26 C :   -0.157156
  27 S :    0.432593
  28 C :   -0.002819
  29 C :   -0.024187
  30 C :   -0.026956
  31 C :   -0.161587
  32 C :   -0.018428
  33 C :   -0.059873
  34 C :   -0.185055
  35 S :    0.513169
  36 C :   -0.172665
  37 C :   -0.060897
  38 C :    0.089524
  39 C :   -0.097626
  40 C :   -0.012635
  41 N :   -0.037753
  42 C :   -0.007246
  43 N :   -0.043048
  44 C :   -0.014441
  45 C :   -0.186035
  46 S :    0.476709
  47 C :   -0.154733
  48 C :   -0.010319
  49 C :    0.018911
  50 C :   -0.038644
  51 C :   -0.142656
  52 S :    0.474265
  53 C :   -0.209177
  54 C :   -0.032316
  55 C :   -0.062786
  56 C :   -0.159610
  57 S :    0.427474
  58 C :   -0.065201
  59 C :    0.047465
  60 C :   -0.058966
  61 C :    0.067549
  62 C :   -0.113525
  63 C :    0.081926
  64 O :   -0.149167
  65 C :   -0.037260
  66 C :   -0.006591
  67 C :    0.082301
  68 C :   -0.163773
  69 C :   -0.008144
  70 N :   -0.085037
  71 C :   -0.024525
  72 N :   -0.070231
  73 C :    0.002376
  74 C :   -0.016960
  75 C :   -0.101655
  76 C :   -0.003028
  77 Br:    0.106378
  78 H :    0.043350
  79 H :    0.040354
  80 H :    0.024651
  81 H :    0.041354
  82 H :    0.044084
  83 H :    0.039172
  84 H :    0.035048
  85 H :    0.026696
  86 H :    0.032004
  87 H :    0.033614
  88 H :    0.040271
  89 H :    0.037429
  90 H :    0.040547
  91 H :    0.039311
  92 H :    0.032016
  93 H :    0.025371
  94 H :    0.035046
  95 H :    0.022735
  96 H :    0.040793
  97 H :    0.036401
  98 H :    0.038845
  99 H :    0.042405

  Mayer bond orders larger than 0.100000
B(  0-C ,  1-O ) :   2.1049 B(  0-C ,  2-C ) :   0.9418 B(  0-C , 15-C ) :   0.9981
B(  2-C ,  3-C ) :   1.3337 B(  2-C ,  7-C ) :   1.3858 B(  3-C ,  4-C ) :   1.3711
B(  3-C ,  9-C ) :   0.9813 B(  4-C ,  5-C ) :   1.3757 B(  4-C , 78-H ) :   0.9832
B(  5-C ,  6-C ) :   1.3949 B(  5-C , 79-H ) :   0.9851 B(  6-C ,  7-C ) :   1.3399
B(  6-C ,  8-Br) :   0.9857 B(  7-C , 80-H ) :   1.0014 B(  9-C , 10-C ) :   1.6145
B(  9-C , 15-C ) :   1.1105 B( 10-C , 11-C ) :   1.1457 B( 10-C , 13-C ) :   1.1400
B( 11-C , 12-N ) :   2.9707 B( 13-C , 14-N ) :   2.9850 B( 15-C , 16-C ) :   1.4908
B( 16-C , 17-C ) :   1.2647 B( 16-C , 81-H ) :   0.9242 B( 17-C , 18-C ) :   1.4121
B( 17-C , 22-S ) :   1.0301 B( 18-C , 19-C ) :   1.3551 B( 18-C , 82-H ) :   0.9550
B( 19-C , 20-C ) :   1.0380 B( 19-C , 28-C ) :   1.2996 B( 20-C , 21-C ) :   1.5905
B( 20-C , 23-C ) :   1.1977 B( 21-C , 22-S ) :   1.1624 B( 21-C , 83-H ) :   0.9424
B( 23-C , 24-C ) :   1.3990 B( 23-C , 27-S ) :   1.0948 B( 24-C , 25-C ) :   1.2090
B( 24-C , 28-C ) :   1.1410 B( 25-C , 26-C ) :   1.6040 B( 25-C , 84-H ) :   0.9995
B( 26-C , 27-S ) :   1.1379 B( 26-C , 85-H ) :   0.9660 B( 28-C , 29-C ) :   1.1822
B( 29-C , 30-C ) :   1.6227 B( 29-C , 86-H ) :   0.9634 B( 30-C , 31-C ) :   1.1504
B( 30-C , 87-H ) :   0.9466 B( 31-C , 32-C ) :   1.4261 B( 31-C , 35-S ) :   1.1212
B( 32-C , 33-C ) :   1.3210 B( 32-C , 88-H ) :   0.9906 B( 33-C , 34-C ) :   1.4101
B( 33-C , 38-C ) :   1.0016 B( 34-C , 35-S ) :   1.1190 B( 34-C , 36-C ) :   1.2088
B( 36-C , 37-C ) :   1.4284 B( 36-C , 46-S ) :   1.1325 B( 37-C , 38-C ) :   0.9951
B( 37-C , 44-C ) :   1.3287 B( 38-C , 39-C ) :   1.7088 B( 39-C , 40-C ) :   1.1369
B( 39-C , 42-C ) :   1.1473 B( 40-C , 41-N ) :   2.9943 B( 42-C , 43-N ) :   2.9365
B( 44-C , 45-C ) :   1.4594 B( 44-C , 89-H ) :   0.9787 B( 45-C , 46-S ) :   1.0991
B( 45-C , 47-C ) :   1.1452 B( 47-C , 48-C ) :   1.4962 B( 47-C , 52-S ) :   1.0833
B( 48-C , 49-C ) :   1.2862 B( 48-C , 90-H ) :   0.9560 B( 49-C , 50-C ) :   1.0911
B( 49-C , 58-C ) :   1.2922 B( 50-C , 51-C ) :   1.5872 B( 50-C , 53-C ) :   1.1650
B( 51-C , 52-S ) :   1.1518 B( 51-C , 91-H ) :   0.9398 B( 53-C , 54-C ) :   1.4553
B( 53-C , 57-S ) :   1.0755 B( 54-C , 55-C ) :   1.2291 B( 54-C , 58-C ) :   1.0786
B( 55-C , 56-C ) :   1.5784 B( 55-C , 92-H ) :   0.9989 B( 56-C , 57-S ) :   1.1628
B( 56-C , 93-H ) :   0.9663 B( 58-C , 59-C ) :   1.2357 B( 59-C , 60-C ) :   1.4902
B( 59-C , 94-H ) :   0.9773 B( 60-C , 61-C ) :   1.2443 B( 60-C , 95-H ) :   0.9528
B( 61-C , 62-C ) :   1.4790 B( 61-C , 96-H ) :   0.9579 B( 62-C , 63-C ) :   0.9630
B( 62-C , 67-C ) :   1.1031 B( 63-C , 64-O ) :   2.2485 B( 63-C , 65-C ) :   0.9208
B( 65-C , 66-C ) :   1.3387 B( 65-C , 76-C ) :   1.3880 B( 66-C , 67-C ) :   0.9990
B( 66-C , 73-C ) :   1.3674 B( 67-C , 68-C ) :   1.5326 B( 68-C , 69-C ) :   1.1571
B( 68-C , 71-C ) :   1.1814 B( 69-C , 70-N ) :   2.8990 B( 71-C , 72-N ) :   2.9501
B( 73-C , 74-C ) :   1.3823 B( 73-C , 97-H ) :   0.9794 B( 74-C , 75-C ) :   1.3967
B( 74-C , 98-H ) :   0.9852 B( 75-C , 76-C ) :   1.3326 B( 75-C , 77-Br) :   0.9829
B( 76-C , 99-H ) :   1.0067

-----------------------------------------------------------------------------
         ABSORPTION SPECTRUM VIA TRANSITION ELECTRIC DIPOLE MOMENTS
-----------------------------------------------------------------------------
State   Energy  Wavelength   fosc         T2         TX        TY        TZ
        (cm-1)    (nm)                  (au**2)     (au)      (au)      (au)
-----------------------------------------------------------------------------
   0    9712.7   1029.6   0.414659748  14.05485  -0.62997   1.64638   3.30869
   1   12852.5    778.1   0.268534425   6.87842   1.89099  -1.32752  -1.24108
   2   14033.0    712.6   0.142119732   3.33410   0.92510  -1.06226  -1.16185
   3   15567.2    642.4   0.001000341   0.02115  -0.06937   0.12036   0.04309
   4   18690.7    535.0   0.020639736   0.36354   0.59756   0.07744  -0.02151
   5   19433.4    514.6   0.275772761   4.67173   1.94019  -0.38195   0.87265
   6   20457.4    488.8   0.151253354   2.43405  -0.85685  -0.29274  -1.27050
   7   21048.7    475.1   0.972138514  15.20472  -2.78494   0.24655  -2.71809
   8   21234.2    470.9   0.018514856   0.28705  -0.28597  -0.11517  -0.43819
   9   22135.4    451.8   0.144930239   2.15550   1.29011  -0.68878   0.12928
  10   22769.2    439.2   0.089502537   1.29408   0.99653   0.14470   0.52921
  11   23391.8    427.5   0.122093745   1.71833  -0.50729  -0.46172  -1.11705
  12   24727.0    404.4   0.103028798   1.37171  -1.02566   0.16139  -0.54193
  13   24984.5    400.2   0.058854706   0.77551  -0.54363   0.29807  -0.62540
  14   25598.8    390.6   0.038367712   0.49343   0.04755  -0.37233  -0.59375
  15   25881.2    386.4   0.015002748   0.19084   0.25667  -0.24290   0.25682
  16   26571.5    376.3   0.528872786   6.55255  -2.02517   0.49079  -1.48672
  17   26989.9    370.5   0.129690151   1.58191  -0.48532  -0.41032  -1.08536
  18   27190.0    367.8   0.127929272   1.54894  -0.56361  -0.19607  -1.09217
  19   27247.0    367.0   0.144426336   1.74503   0.94644  -0.32371   0.86284
  20   28254.8    353.9   0.065588540   0.76421   0.39557   0.07774   0.77568
  21   28480.1    351.1   0.093456243   1.08030   0.01831   0.92795   0.46783
  22   28767.5    347.6   0.263618010   3.01682  -0.20106  -1.02651  -1.38661
  23   28980.6    345.1   0.090399224   1.02691  -0.89556   0.11423  -0.46025
  24   29749.6    336.1   0.306637387   3.39327  -1.00310   1.52226  -0.26414
  25   29943.4    334.0   0.175978414   1.93479   0.41912  -0.74473  -1.09750
  26   30133.8    331.9   0.054354667   0.59383  -0.58952   0.20244  -0.45312
  27   30258.3    330.5   0.076850988   0.83614   0.67319  -0.56014   0.26304
  28   30545.2    327.4   0.028948410   0.31200   0.04107  -0.51634  -0.20907
  29   30557.0    327.3   0.077043352   0.83004  -0.50668  -0.38998  -0.64903
  30   31455.4    317.9   0.058546073   0.61274   0.43220  -0.64836  -0.07466
  31   31585.3    316.6   0.099280438   1.03480  -0.10190   0.85074   0.54832
  32   31793.6    314.5   0.041703176   0.43182  -0.27014   0.12145  -0.58660
  33   32300.8    309.6   0.052440381   0.53448   0.35011  -0.30006  -0.56733
  34   32431.5    308.3   0.010243299   0.10398   0.18429  -0.25716   0.06236
  35   32586.5    306.9   0.284099770   2.87018  -1.33523   1.00671  -0.27178
  36   32699.4    305.8   0.027768917   0.27957  -0.20162   0.41506   0.25816
  37   32813.8    304.8   0.075029065   0.75275  -0.33239   0.62854   0.49719
  38   33225.6    301.0   0.278976027   2.76420   0.48904   0.60048   1.47121
  39   33344.5    299.9   0.127169384   1.25555  -0.24628   0.10856   1.08771
  40   33430.7    299.1   0.002445573   0.02408  -0.11848   0.02885  -0.09598
  41   33715.7    296.6   0.363430763   3.54867   0.88521  -0.48034   1.59196
  42   33817.1    295.7   0.175419812   1.70772  -0.68905   0.95881  -0.56001
  43   33956.2    294.5   0.151309664   1.46697  -0.54537   0.96513   0.48793
  44   34027.4    293.9   0.125827775   1.21737  -0.20056   0.80176   0.73097
  45   34192.2    292.5   0.382142496   3.67937   1.36896  -1.19325  -0.61764
  46   34358.0    291.1   0.138377780   1.32591   0.17546  -0.79583   0.81350
  47   34605.2    289.0   0.091188961   0.86751  -0.09384  -0.28966  -0.88023
  48   34918.6    286.4   0.337271435   3.17979  -1.14871   0.87262  -1.04823
  49   35102.5    284.9   0.133982328   1.25656   0.55230  -0.96668   0.13065
  50   35253.5    283.7   0.048201171   0.45012  -0.06875   0.39871   0.53519
  51   35560.8    281.2   0.066395141   0.61467  -0.10940   0.68114   0.37249
  52   35701.5    280.1   0.000085755   0.00079   0.02504  -0.01202   0.00439
  53   35953.3    278.1   0.106746749   0.97744  -0.84345   0.23603  -0.45862
  54   36178.6    276.4   0.125236873   1.13961  -0.29210   0.27143  -0.99026
  55   36307.0    275.4   0.054270030   0.49209  -0.33823   0.24865   0.56202
  56   36415.9    274.6   0.021594486   0.19522  -0.42314   0.01864  -0.12581
  57   36590.3    273.3   0.001732412   0.01559  -0.07162  -0.10049  -0.01893
  58   36618.0    273.1   0.002955925   0.02658   0.10758  -0.11883  -0.02970
  59   37165.9    269.1   0.028883766   0.25585  -0.47881  -0.05981  -0.15171
  60   37230.3    268.6   0.039504637   0.34932  -0.36881  -0.13597  -0.44137
  61   37269.6    268.3   0.016003049   0.14136   0.07852   0.32461   0.17269
  62   38001.2    263.1   0.081312526   0.70443  -0.71403   0.34525   0.27457
  63   38061.9    262.7   0.018394991   0.15911  -0.12646  -0.29628  -0.23522
  64   38309.5    261.0   0.202468148   1.73991  -0.13464   0.68338   1.12016
  65   38379.4    260.6   0.034060643   0.29217  -0.13605  -0.43727  -0.28714
  66   38544.2    259.4   0.025947691   0.22162  -0.00157   0.28988   0.37093
  67   38719.3    258.3   0.020868740   0.17744  -0.24636   0.32336  -0.11037
  68   38809.8    257.7   0.072384011   0.61401   0.23903   0.30413   0.68145
  69   39022.8    256.3   0.028014187   0.23634   0.18490  -0.39344  -0.21761
  70   39238.4    254.9   0.072727851   0.61019   0.63795  -0.23143   0.38685
  71   39448.8    253.5   0.063538258   0.53025   0.66202  -0.29439   0.07283
  72   39492.2    253.2   0.034139708   0.28459  -0.40758   0.34404   0.01070
  73   39700.9    251.9   0.043657404   0.36202   0.49909  -0.33373   0.03936
  74   39836.6    251.0   0.002202363   0.01820   0.02316   0.12996   0.02784
  75   39897.6    250.6   0.074035531   0.61090  -0.57331   0.05070   0.52881
  76   40094.6    249.4   0.018460919   0.15158  -0.37746  -0.00177  -0.09541
  77   40190.1    248.8   0.020551280   0.16834   0.22936   0.01309   0.33995
  78   40286.9    248.2   0.070754055   0.57818   0.45449   0.03626   0.60852

FINAL SINGLE POINT ENERGY    -10387.291083668895

DIPOLE MOMENT
-------------
                                X             Y             Z
Electronic contribution:    -12.49922      32.46457      24.50665
Nuclear contribution   :     12.61291     -33.74412     -24.08447
                        -----------------------------------------
Total Dipole Moment    :      0.11368      -1.27954       0.42219
                        -----------------------------------------
Magnitude (a.u.)       :      1.35218
Magnitude (Debye)      :      3.43697

Rotational constants in cm-1:     0.000731     0.000357     0.000248
Rotational constants in MHz :    21.929263    10.694688     7.426260

                             ****ORCA TERMINATED NORMALLY****
TOTAL RUN TIME: 0 days 0 hours 13 minutes 2 seconds 186 msec
