                         Program Version 4.2.0 -  RELEASE  -
|  1> # ORCA input file
|  2> # SCF done       -162.628522510963          0.000515339576
|  3> ! CAM-B3LYP def2-SVP def2/J RIJCOSX Grid4 TightSCF
|  4> %maxcore 5000
|  5> %tddft
|  6>     Mode sTDDFT
|  7>     Ethresh 5.0
|  8>     maxcore 5000
|  9> end
| 10>
| 11> %pal
| 12>   nprocs 6
| 13>   end
| 14> * xyz 0 1
| 15>    C        2.07015        -9.41049         1.18164
| 16>    O        1.18138        -8.63353         0.90392
| 17>    C        3.50490        -9.06645         1.30987
| 18>    C        4.26793       -10.24222         1.39314
| 19>    C        5.65107       -10.15747         1.44253
| 20>    C        6.24144        -8.90222         1.45472
| 21>    C        5.46346        -7.75383         1.42098
| 22>    C        4.07969        -7.81366         1.32790
| 23>   Br        6.31730        -6.06015         1.49521
| 24>    C        3.35977       -11.38692         1.41134
| 25>    C        3.73682       -12.69040         1.62860
| 26>    C        5.06915       -13.10905         1.81091
| 27>    N        6.12956       -13.51826         1.97939
| 28>    C        2.84802       -13.77871         1.74627
| 29>    N        2.18587       -14.70920         1.87026
| 30>    C        2.00994       -10.89092         1.28097
| 31>    C        0.89059       -11.66628         1.06974
| 32>    C       -0.44478       -11.22876         1.18169
| 33>    C       -0.81455       -10.13697         1.94556
| 34>    C       -2.09200        -9.62406         2.02534
| 35>    C       -3.22899       -10.24919         1.35301
| 36>    C       -3.12568       -11.38881         0.62754
| 37>    S       -1.64670       -12.20778         0.34246
| 38>    C       -4.34073        -9.41911         1.66455
| 39>    C       -3.92935        -8.32941         2.44768
| 40>    C       -5.01054        -7.47809         2.77056
| 41>    C       -6.17751        -7.92505         2.23988
| 42>    S       -6.02262        -9.39015         1.32788
| 43>    C       -2.51963        -8.43849         2.68417
| 44>    C       -1.60563        -7.57499         3.30814
| 45>    C       -1.78057        -6.30105         3.76151
| 46>    C       -0.68653        -5.52351         4.19996
| 47>    C       -0.77751        -4.08047         4.44278
| 48>    N        0.35719        -3.50261         4.70068
| 49>    C        1.28734        -4.50080         4.66803
| 50>    C        0.66741        -5.79777         4.38323
| 51>    C        1.68927        -6.81733         4.40824
| 52>    S        1.52056        -8.46811         4.27839
| 53>    C        2.91647        -6.11546         4.63676
| 54>    C        2.64516        -4.68927         4.78624
| 55>    N        3.80396        -3.98783         4.97770
| 56>    C        4.75485        -4.87154         4.95112
| 57>    C        4.29482        -6.25031         4.75119
| 58>    C        5.12214        -7.38578         4.70749
| 59>    N        4.59809        -8.65603         4.61820
| 60>    C        5.62103        -9.53707         4.56797
| 61>    C        5.93628       -10.88346         4.44740
| 62>    C        7.33589       -10.95609         4.40605
| 63>    N        7.86648        -9.68724         4.51598
| 64>    C        6.84095        -8.79762         4.61984
| 65>    C        6.53242        -7.45341         4.71854
| 66>    C        8.10622       -12.12847         4.21500
| 67>    C        9.45563       -12.18485         4.10070
| 68>    C       10.18588       -13.37427         3.86064
| 69>    C       11.54940       -13.50850         3.70701
| 70>    C       11.98795       -14.83962         3.46270
| 71>    C       13.40885       -14.87721         3.31405
| 72>    C       14.02459       -13.67920         3.43092
| 73>    S       12.87317       -12.38391         3.74255
| 74>    C       15.47523       -13.38180         3.32758
| 75>    F       14.07643       -16.02066         3.07431
| 76>    C       10.94817       -15.73009         3.43071
| 77>    S        9.44225       -14.95026         3.69379
| 78>    H        6.27395       -11.03623         1.46684
| 79>    H        7.31626        -8.81600         1.49484
| 80>    H        3.47042        -6.92429         1.27788
| 81>    H        1.03164       -12.69530         0.76260
| 82>    H       -0.03606        -9.68174         2.53522
| 83>    H       -3.97545       -11.85811         0.15689
| 84>    H       -4.94080        -6.58795         3.36797
| 85>    H       -7.14972        -7.48018         2.32483
| 86>    H       -0.59770        -7.95507         3.36259
| 87>    H       -2.74460        -5.81358         3.71987
| 88>    H       -1.68981        -3.51026         4.40292
| 89>    H        5.78094        -4.57613         5.07723
| 90>    H        3.59448        -8.84344         4.57878
| 91>    H        5.27276       -11.72204         4.38771
| 92>    H        8.84776        -9.47394         4.54337
| 93>    H        7.19729        -6.61542         4.77058
| 94>    H        7.53814       -13.04293         4.11549
| 95>    H       10.06782       -11.29476         4.17919
| 96>    H       16.02212       -14.29705         3.11245
| 97>    H       15.84563       -12.95667         4.26039
| 98>    H       15.66130       -12.65956         2.53294
| 99>    H       10.98492       -16.78807         3.26746
|100> *
|101>
|102>                          ****END OF INPUT****

CARTESIAN COORDINATES (ANGSTROEM)
---------------------------------
  C      2.070150   -9.410490    1.181640
  O      1.181380   -8.633530    0.903920
  C      3.504900   -9.066450    1.309870
  C      4.267930  -10.242220    1.393140
  C      5.651070  -10.157470    1.442530
  C      6.241440   -8.902220    1.454720
  C      5.463460   -7.753830    1.420980
  C      4.079690   -7.813660    1.327900
  Br     6.317300   -6.060150    1.495210
  C      3.359770  -11.386920    1.411340
  C      3.736820  -12.690400    1.628600
  C      5.069150  -13.109050    1.810910
  N      6.129560  -13.518260    1.979390
  C      2.848020  -13.778710    1.746270
  N      2.185870  -14.709200    1.870260
  C      2.009940  -10.890920    1.280970
  C      0.890590  -11.666280    1.069740
  C     -0.444780  -11.228760    1.181690
  C     -0.814550  -10.136970    1.945560
  C     -2.092000   -9.624060    2.025340
  C     -3.228990  -10.249190    1.353010
  C     -3.125680  -11.388810    0.627540
  S     -1.646700  -12.207780    0.342460
  C     -4.340730   -9.419110    1.664550
  C     -3.929350   -8.329410    2.447680
  C     -5.010540   -7.478090    2.770560
  C     -6.177510   -7.925050    2.239880
  S     -6.022620   -9.390150    1.327880
  C     -2.519630   -8.438490    2.684170
  C     -1.605630   -7.574990    3.308140
  C     -1.780570   -6.301050    3.761510
  C     -0.686530   -5.523510    4.199960
  C     -0.777510   -4.080470    4.442780
  N      0.357190   -3.502610    4.700680
  C      1.287340   -4.500800    4.668030
  C      0.667410   -5.797770    4.383230
  C      1.689270   -6.817330    4.408240
  S      1.520560   -8.468110    4.278390
  C      2.916470   -6.115460    4.636760
  C      2.645160   -4.689270    4.786240
  N      3.803960   -3.987830    4.977700
  C      4.754850   -4.871540    4.951120
  C      4.294820   -6.250310    4.751190
  C      5.122140   -7.385780    4.707490
  N      4.598090   -8.656030    4.618200
  C      5.621030   -9.537070    4.567970
  C      5.936280  -10.883460    4.447400
  C      7.335890  -10.956090    4.406050
  N      7.866480   -9.687240    4.515980
  C      6.840950   -8.797620    4.619840
  C      6.532420   -7.453410    4.718540
  C      8.106220  -12.128470    4.215000
  C      9.455630  -12.184850    4.100700
  C     10.185880  -13.374270    3.860640
  C     11.549400  -13.508500    3.707010
  C     11.987950  -14.839620    3.462700
  C     13.408850  -14.877210    3.314050
  C     14.024590  -13.679200    3.430920
  S     12.873170  -12.383910    3.742550
  C     15.475230  -13.381800    3.327580
  F     14.076430  -16.020660    3.074310
  C     10.948170  -15.730090    3.430710
  S      9.442250  -14.950260    3.693790
  H      6.273950  -11.036230    1.466840
  H      7.316260   -8.816000    1.494840
  H      3.470420   -6.924290    1.277880
  H      1.031640  -12.695300    0.762600
  H     -0.036060   -9.681740    2.535220
  H     -3.975450  -11.858110    0.156890
  H     -4.940800   -6.587950    3.367970
  H     -7.149720   -7.480180    2.324830
  H     -0.597700   -7.955070    3.362590
  H     -2.744600   -5.813580    3.719870
  H     -1.689810   -3.510260    4.402920
  H      5.780940   -4.576130    5.077230
  H      3.594480   -8.843440    4.578780
  H      5.272760  -11.722040    4.387710
  H      8.847760   -9.473940    4.543370
  H      7.197290   -6.615420    4.770580
  H      7.538140  -13.042930    4.115490
  H     10.067820  -11.294760    4.179190
  H     16.022120  -14.297050    3.112450
  H     15.845630  -12.956670    4.260390
  H     15.661300  -12.659560    2.532940
  H     10.984920  -16.788070    3.267460

 Total Charge           Charge          ....    0
 Multiplicity           Mult            ....    1
 Number of Electrons    NEL             ....  490
 Basis Dimension        Dim             .... 1030

ORBITAL ENERGIES
----------------

  NO   OCC          E(Eh)            E(eV)
   0   2.0000    -482.870232    -13139.5670
   1   2.0000     -88.984364     -2421.3876
   2   2.0000     -88.967707     -2420.9344
   3   2.0000     -88.956363     -2420.6257
   4   2.0000     -88.947738     -2420.3910
   5   2.0000     -88.894665     -2418.9468
   6   2.0000     -62.547598     -1702.0067
   7   2.0000     -56.381446     -1534.2172
   8   2.0000     -56.378970     -1534.1498
   9   2.0000     -56.378911     -1534.1482
  10   2.0000     -24.778940      -674.2692
  11   2.0000     -19.214020      -522.8401
  12   2.0000     -14.461018      -393.5043
  13   2.0000     -14.443727      -393.0338
  14   2.0000     -14.417337      -392.3157
  15   2.0000     -14.414979      -392.2515
  16   2.0000     -14.408111      -392.0646
  17   2.0000     -14.402776      -391.9195
  18   2.0000     -10.368402      -282.1386
  19   2.0000     -10.348874      -281.6072
  20   2.0000     -10.341493      -281.4063
  21   2.0000     -10.340819      -281.3880
  22   2.0000     -10.340651      -281.3834
  23   2.0000     -10.340216      -281.3716
  24   2.0000     -10.335279      -281.2372
  25   2.0000     -10.327169      -281.0166
  26   2.0000     -10.325246      -280.9642
  27   2.0000     -10.324442      -280.9424
  28   2.0000     -10.321441      -280.8607
  29   2.0000     -10.318175      -280.7718
  30   2.0000     -10.314856      -280.6815
  31   2.0000     -10.314408      -280.6693
  32   2.0000     -10.312635      -280.6211
  33   2.0000     -10.309378      -280.5324
  34   2.0000     -10.308190      -280.5001
  35   2.0000     -10.307845      -280.4907
  36   2.0000     -10.307083      -280.4700
  37   2.0000     -10.306210      -280.4462
  38   2.0000     -10.304185      -280.3911
  39   2.0000     -10.303991      -280.3858
  40   2.0000     -10.301549      -280.3194
  41   2.0000     -10.301288      -280.3123
  42   2.0000     -10.300656      -280.2951
  43   2.0000     -10.299866      -280.2736
  44   2.0000     -10.299031      -280.2509
  45   2.0000     -10.298502      -280.2365
  46   2.0000     -10.298380      -280.2332
  47   2.0000     -10.298072      -280.2248
  48   2.0000     -10.297369      -280.2056
  49   2.0000     -10.297203      -280.2011
  50   2.0000     -10.296473      -280.1813
  51   2.0000     -10.295725      -280.1609
  52   2.0000     -10.295561      -280.1564
  53   2.0000     -10.293376      -280.0970
  54   2.0000     -10.292195      -280.0649
  55   2.0000     -10.288064      -279.9524
  56   2.0000     -10.287196      -279.9288
  57   2.0000     -10.285728      -279.8889
  58   2.0000     -10.282594      -279.8036
  59   2.0000     -10.282305      -279.7957
  60   2.0000     -10.280847      -279.7561
  61   2.0000     -10.278367      -279.6886
  62   2.0000     -10.276816      -279.6464
  63   2.0000     -10.275765      -279.6178
  64   2.0000     -10.275049      -279.5983
  65   2.0000     -10.269651      -279.4514
  66   2.0000     -10.264377      -279.3079
  67   2.0000      -8.776729      -238.8269
  68   2.0000      -8.079674      -219.8591
  69   2.0000      -8.063312      -219.4139
  70   2.0000      -8.051476      -219.0918
  71   2.0000      -8.043485      -218.8744
  72   2.0000      -7.989695      -217.4107
  73   2.0000      -6.612454      -179.9340
  74   2.0000      -6.598870      -179.5644
  75   2.0000      -6.598509      -179.5545
  76   2.0000      -6.049102      -164.6044
  77   2.0000      -6.044667      -164.4838
  78   2.0000      -6.041715      -164.4034
  79   2.0000      -6.032746      -164.1594
  80   2.0000      -6.028450      -164.0425
  81   2.0000      -6.025327      -163.9575
  82   2.0000      -6.020789      -163.8340
  83   2.0000      -6.016475      -163.7166
  84   2.0000      -6.013773      -163.6431
  85   2.0000      -6.013385      -163.6325
  86   2.0000      -6.009401      -163.5241
  87   2.0000      -6.004173      -163.3819
  88   2.0000      -5.958780      -162.1467
  89   2.0000      -5.956511      -162.0849
  90   2.0000      -5.950626      -161.9248
  91   2.0000      -2.728367       -74.2426
  92   2.0000      -2.724708       -74.1431
  93   2.0000      -2.724428       -74.1354
  94   2.0000      -2.713627       -73.8415
  95   2.0000      -2.713608       -73.8410
  96   2.0000      -1.290353       -35.1123
  97   2.0000      -1.130055       -30.7503
  98   2.0000      -1.091808       -29.7096
  99   2.0000      -1.069533       -29.1035
 100   2.0000      -1.054167       -28.6853
 101   2.0000      -1.048970       -28.5439
 102   2.0000      -1.019624       -27.7454
 103   2.0000      -1.017369       -27.6840
 104   2.0000      -1.002391       -27.2765
 105   2.0000      -0.999274       -27.1916
 106   2.0000      -0.995018       -27.0758
 107   2.0000      -0.983671       -26.7670
 108   2.0000      -0.961189       -26.1553
 109   2.0000      -0.948928       -25.8217
 110   2.0000      -0.944260       -25.6946
 111   2.0000      -0.940316       -25.5873
 112   2.0000      -0.918257       -24.9870
 113   2.0000      -0.908342       -24.7173
 114   2.0000      -0.901776       -24.5386
 115   2.0000      -0.901526       -24.5318
 116   2.0000      -0.891277       -24.2529
 117   2.0000      -0.885648       -24.0997
 118   2.0000      -0.867333       -23.6013
 119   2.0000      -0.863192       -23.4886
 120   2.0000      -0.860263       -23.4089
 121   2.0000      -0.857739       -23.3403
 122   2.0000      -0.848008       -23.0755
 123   2.0000      -0.847732       -23.0680
 124   2.0000      -0.843517       -22.9533
 125   2.0000      -0.835428       -22.7331
 126   2.0000      -0.828953       -22.5570
 127   2.0000      -0.817113       -22.2348
 128   2.0000      -0.800188       -21.7742
 129   2.0000      -0.790737       -21.5170
 130   2.0000      -0.779002       -21.1977
 131   2.0000      -0.772350       -21.0167
 132   2.0000      -0.766496       -20.8574
 133   2.0000      -0.764314       -20.7980
 134   2.0000      -0.755623       -20.5615
 135   2.0000      -0.737657       -20.0727
 136   2.0000      -0.731172       -19.8962
 137   2.0000      -0.717623       -19.5275
 138   2.0000      -0.710573       -19.3357
 139   2.0000      -0.698964       -19.0198
 140   2.0000      -0.693026       -18.8582
 141   2.0000      -0.690098       -18.7785
 142   2.0000      -0.687760       -18.7149
 143   2.0000      -0.685825       -18.6622
 144   2.0000      -0.674872       -18.3642
 145   2.0000      -0.671720       -18.2784
 146   2.0000      -0.669470       -18.2172
 147   2.0000      -0.660482       -17.9726
 148   2.0000      -0.653202       -17.7745
 149   2.0000      -0.646287       -17.5864
 150   2.0000      -0.642900       -17.4942
 151   2.0000      -0.633639       -17.2422
 152   2.0000      -0.628211       -17.0945
 153   2.0000      -0.622326       -16.9344
 154   2.0000      -0.615216       -16.7409
 155   2.0000      -0.612458       -16.6658
 156   2.0000      -0.602798       -16.4030
 157   2.0000      -0.596898       -16.2424
 158   2.0000      -0.589644       -16.0450
 159   2.0000      -0.586363       -15.9557
 160   2.0000      -0.583962       -15.8904
 161   2.0000      -0.578110       -15.7312
 162   2.0000      -0.573736       -15.6122
 163   2.0000      -0.564620       -15.3641
 164   2.0000      -0.559854       -15.2344
 165   2.0000      -0.555293       -15.1103
 166   2.0000      -0.553224       -15.0540
 167   2.0000      -0.552669       -15.0389
 168   2.0000      -0.548886       -14.9359
 169   2.0000      -0.546739       -14.8775
 170   2.0000      -0.541732       -14.7413
 171   2.0000      -0.539931       -14.6923
 172   2.0000      -0.536807       -14.6073
 173   2.0000      -0.530376       -14.4323
 174   2.0000      -0.528397       -14.3784
 175   2.0000      -0.525710       -14.3053
 176   2.0000      -0.524828       -14.2813
 177   2.0000      -0.522773       -14.2254
 178   2.0000      -0.519236       -14.1291
 179   2.0000      -0.518547       -14.1104
 180   2.0000      -0.515292       -14.0218
 181   2.0000      -0.512241       -13.9388
 182   2.0000      -0.508399       -13.8342
 183   2.0000      -0.503217       -13.6932
 184   2.0000      -0.499715       -13.5979
 185   2.0000      -0.496827       -13.5193
 186   2.0000      -0.495409       -13.4808
 187   2.0000      -0.491747       -13.3811
 188   2.0000      -0.489045       -13.3076
 189   2.0000      -0.484604       -13.1867
 190   2.0000      -0.484416       -13.1816
 191   2.0000      -0.483691       -13.1619
 192   2.0000      -0.479268       -13.0416
 193   2.0000      -0.474282       -12.9059
 194   2.0000      -0.472866       -12.8673
 195   2.0000      -0.470305       -12.7976
 196   2.0000      -0.469562       -12.7774
 197   2.0000      -0.462649       -12.5893
 198   2.0000      -0.460890       -12.5415
 199   2.0000      -0.459138       -12.4938
 200   2.0000      -0.458284       -12.4705
 201   2.0000      -0.457252       -12.4424
 202   2.0000      -0.452782       -12.3208
 203   2.0000      -0.450948       -12.2709
 204   2.0000      -0.447755       -12.1840
 205   2.0000      -0.446616       -12.1530
 206   2.0000      -0.444655       -12.0997
 207   2.0000      -0.442846       -12.0505
 208   2.0000      -0.441141       -12.0041
 209   2.0000      -0.435250       -11.8437
 210   2.0000      -0.430269       -11.7082
 211   2.0000      -0.428308       -11.6549
 212   2.0000      -0.427333       -11.6283
 213   2.0000      -0.424710       -11.5570
 214   2.0000      -0.422604       -11.4996
 215   2.0000      -0.418104       -11.3772
 216   2.0000      -0.417852       -11.3703
 217   2.0000      -0.413341       -11.2476
 218   2.0000      -0.411658       -11.2018
 219   2.0000      -0.408438       -11.1142
 220   2.0000      -0.407256       -11.0820
 221   2.0000      -0.399158       -10.8616
 222   2.0000      -0.389717       -10.6047
 223   2.0000      -0.387008       -10.5310
 224   2.0000      -0.379491       -10.3265
 225   2.0000      -0.365280        -9.9398
 226   2.0000      -0.361158        -9.8276
 227   2.0000      -0.348955        -9.4955
 228   2.0000      -0.347971        -9.4688
 229   2.0000      -0.345915        -9.4128
 230   2.0000      -0.342911        -9.3311
 231   2.0000      -0.340923        -9.2770
 232   2.0000      -0.339170        -9.2293
 233   2.0000      -0.323262        -8.7964
 234   2.0000      -0.313338        -8.5264
 235   2.0000      -0.309688        -8.4270
 236   2.0000      -0.305805        -8.3214
 237   2.0000      -0.302662        -8.2358
 238   2.0000      -0.296782        -8.0758
 239   2.0000      -0.290171        -7.8960
 240   2.0000      -0.286347        -7.7919
 241   2.0000      -0.283702        -7.7199
 242   2.0000      -0.262517        -7.1435
 243   2.0000      -0.237039        -6.4502
 244   2.0000      -0.218022        -5.9327
 245   0.0000      -0.112168        -3.0522
 246   0.0000      -0.094361        -2.5677
 247   0.0000      -0.071606        -1.9485
 248   0.0000      -0.064247        -1.7483
 249   0.0000      -0.045941        -1.2501

MULLIKEN ATOMIC CHARGES
-----------------------
   0 C :    0.141576
   1 O :   -0.146687
   2 C :   -0.012300
   3 C :    0.028123
   4 C :   -0.010961
   5 C :    0.074908
   6 C :   -0.004328
   7 C :   -0.021654
   8 Br:   -0.027871
   9 C :    0.297007
  10 C :   -0.356757
  11 C :   -0.187937
  12 N :    0.150589
  13 C :   -0.212465
  14 N :    0.161217
  15 C :   -0.110884
  16 C :    0.043996
  17 C :   -0.119365
  18 C :    0.075294
  19 C :    0.013044
  20 C :    0.067880
  21 C :   -0.120469
  22 S :    0.164250
  23 C :   -0.104377
  24 C :    0.040486
  25 C :    0.007099
  26 C :   -0.065952
  27 S :    0.138690
  28 C :    0.123334
  29 C :    0.040266
  30 C :   -0.024907
  31 C :    0.001793
  32 C :    0.043468
  33 N :   -0.016889
  34 C :   -0.032578
  35 C :   -0.017403
  36 C :    0.028655
  37 S :   -0.227879
  38 C :   -0.079400
  39 C :    0.011336
  40 N :   -0.020249
  41 C :    0.050630
  42 C :    0.069265
  43 C :    0.012794
  44 N :   -0.015781
  45 C :    0.136791
  46 C :   -0.174466
  47 C :    0.073421
  48 N :   -0.035661
  49 C :    0.126480
  50 C :   -0.170855
  51 C :    0.033335
  52 C :   -0.021311
  53 C :   -0.148288
  54 C :   -0.023780
  55 C :    0.075659
  56 C :    0.255707
  57 C :   -0.305093
  58 S :    0.098522
  59 C :    0.114556
  60 F :   -0.189178
  61 C :   -0.129296
  62 S :    0.149165
  63 H :    0.007226
  64 H :   -0.007475
  65 H :    0.002280
  66 H :    0.028779
  67 H :   -0.005436
  68 H :    0.042334
  69 H :   -0.009686
  70 H :    0.031323
  71 H :   -0.027038
  72 H :   -0.045976
  73 H :   -0.004068
  74 H :   -0.002300
  75 H :    0.109946
  76 H :   -0.024116
  77 H :    0.124831
  78 H :   -0.035752
  79 H :    0.006464
  80 H :   -0.035854
  81 H :    0.032589
  82 H :    0.035929
  83 H :    0.035273
  84 H :    0.026415
Sum of atomic charges:   -0.0000000

LOEWDIN ATOMIC CHARGES
----------------------
   0 C :    0.073066
   1 O :   -0.139610
   2 C :   -0.035348
   3 C :   -0.020727
   4 C :    0.015250
   5 C :   -0.013465
   6 C :   -0.094421
   7 C :   -0.001447
   8 Br:    0.119120
   9 C :    0.077083
  10 C :   -0.150099
  11 C :   -0.012571
  12 N :   -0.060269
  13 C :   -0.025853
  14 N :   -0.054056
  15 C :   -0.101237
  16 C :    0.048257
  17 C :   -0.188397
  18 C :    0.052925
  19 C :   -0.012049
  20 C :   -0.056996
  21 C :   -0.129553
  22 S :    0.471685
  23 C :   -0.185821
  24 C :   -0.039672
  25 C :   -0.059108
  26 C :   -0.159064
  27 S :    0.431680
  28 C :   -0.019105
  29 C :    0.023456
  30 C :   -0.036739
  31 C :   -0.021009
  32 C :    0.060198
  33 N :   -0.070538
  34 C :    0.011350
  35 C :   -0.064609
  36 C :   -0.110374
  37 S :    0.047353
  38 C :   -0.100237
  39 C :    0.036114
  40 N :   -0.070190
  41 C :    0.082275
  42 C :   -0.025638
  43 C :   -0.008724
  44 N :    0.080688
  45 C :    0.000516
  46 C :   -0.092063
  47 C :    0.020780
  48 N :    0.062364
  49 C :   -0.020778
  50 C :   -0.076154
  51 C :   -0.034169
  52 C :   -0.045810
  53 C :   -0.197354
  54 C :   -0.186481
  55 C :   -0.100029
  56 C :    0.035926
  57 C :   -0.193101
  58 S :    0.365259
  59 C :   -0.057058
  60 F :   -0.068506
  61 C :   -0.182407
  62 S :    0.471011
  63 H :    0.040887
  64 H :    0.035020
  65 H :    0.043692
  66 H :    0.041617
  67 H :    0.031712
  68 H :    0.039177
  69 H :    0.031833
  70 H :    0.026039
  71 H :    0.016039
  72 H :    0.024112
  73 H :    0.020422
  74 H :    0.021970
  75 H :    0.021449
  76 H :    0.027320
  77 H :    0.087238
  78 H :    0.022910
  79 H :    0.033186
  80 H :    0.021532
  81 H :    0.042096
  82 H :    0.038834
  83 H :    0.038579
  84 H :    0.028818

  Mayer bond orders larger than 0.100000
B(  0-C ,  1-O ) :   2.2175 B(  0-C ,  2-C ) :   0.9307 B(  0-C , 15-C ) :   0.9479
B(  2-C ,  3-C ) :   1.3378 B(  2-C ,  7-C ) :   1.3786 B(  3-C ,  4-C ) :   1.3691
B(  3-C ,  9-C ) :   0.9889 B(  4-C ,  5-C ) :   1.3852 B(  4-C , 63-H ) :   0.9777
B(  5-C ,  6-C ) :   1.3996 B(  5-C , 64-H ) :   0.9731 B(  6-C ,  7-C ) :   1.3195
B(  6-C ,  8-Br) :   0.9924 B(  7-C , 65-H ) :   1.0106 B(  9-C , 10-C ) :   1.6121
B(  9-C , 15-C ) :   1.1066 B( 10-C , 11-C ) :   1.1597 B( 10-C , 13-C ) :   1.1379
B( 11-C , 12-N ) :   2.9380 B( 13-C , 14-N ) :   2.9956 B( 15-C , 16-C ) :   1.5471
B( 16-C , 17-C ) :   1.1995 B( 16-C , 66-H ) :   0.9360 B( 17-C , 18-C ) :   1.4375
B( 17-C , 22-S ) :   1.0408 B( 18-C , 19-C ) :   1.3605 B( 18-C , 67-H ) :   0.9392
B( 19-C , 20-C ) :   1.0502 B( 19-C , 28-C ) :   1.2938 B( 20-C , 21-C ) :   1.5719
B( 20-C , 23-C ) :   1.1886 B( 21-C , 22-S ) :   1.1746 B( 21-C , 68-H ) :   0.9416
B( 23-C , 24-C ) :   1.4191 B( 23-C , 27-S ) :   1.0890 B( 24-C , 25-C ) :   1.2150
B( 24-C , 28-C ) :   1.0856 B( 25-C , 26-C ) :   1.5929 B( 25-C , 69-H ) :   1.0020
B( 26-C , 27-S ) :   1.1470 B( 26-C , 70-H ) :   0.9655 B( 28-C , 29-C ) :   1.2469
B( 29-C , 30-C ) :   1.5335 B( 29-C , 71-H ) :   0.9379 B( 30-C , 31-C ) :   1.1735
B( 30-C , 72-H ) :   0.9782 B( 31-C , 32-C ) :   1.0176 B( 31-C , 35-C ) :   1.4002
B( 32-C , 33-N ) :   1.7319 B( 32-C , 73-H ) :   0.9916 B( 33-N , 34-C ) :   1.2641
B( 34-C , 35-C ) :   1.1140 B( 34-C , 39-C ) :   1.5060 B( 35-C , 36-C ) :   1.0863
B( 36-C , 37-S ) :   1.5179 B( 36-C , 38-C ) :   1.1198 B( 37-S , 75-H ) :   0.1832
B( 38-C , 39-C ) :   1.0913 B( 38-C , 42-C ) :   1.3889 B( 39-C , 40-N ) :   1.2487
B( 40-N , 41-C ) :   1.7535 B( 41-C , 42-C ) :   1.0280 B( 41-C , 74-H ) :   0.9888
B( 42-C , 43-C ) :   1.1281 B( 43-C , 44-N ) :   1.2392 B( 43-C , 50-C ) :   1.2933
B( 44-N , 45-C ) :   1.2178 B( 44-N , 75-H ) :   0.8469 B( 45-C , 46-C ) :   1.2130
B( 45-C , 49-C ) :   1.2632 B( 46-C , 47-C ) :   1.3461 B( 46-C , 76-H ) :   1.0559
B( 47-C , 48-N ) :   1.1996 B( 47-C , 51-C ) :   1.1675 B( 48-N , 49-C ) :   1.1434
B( 48-N , 77-H ) :   0.9302 B( 49-C , 50-C ) :   1.3199 B( 50-C , 78-H ) :   1.0313
B( 51-C , 52-C ) :   1.6085 B( 51-C , 79-H ) :   0.9543 B( 52-C , 53-C ) :   1.1877
B( 52-C , 80-H ) :   0.9715 B( 53-C , 54-C ) :   1.4914 B( 53-C , 62-S ) :   1.1361
B( 54-C , 55-C ) :   1.2387 B( 54-C , 58-S ) :   1.0301 B( 55-C , 56-C ) :   1.0573
B( 55-C , 61-C ) :   1.4774 B( 56-C , 57-C ) :   1.6725 B( 56-C , 60-F ) :   1.1633
B( 57-C , 58-S ) :   1.0369 B( 57-C , 59-C ) :   1.0688 B( 59-C , 81-H ) :   0.9563
B( 59-C , 82-H ) :   0.9499 B( 59-C , 83-H ) :   0.9494 B( 61-C , 62-S ) :   1.1712
B( 61-C , 84-H ) :   0.9714

-----------------------------------------------------------------------------
         ABSORPTION SPECTRUM VIA TRANSITION ELECTRIC DIPOLE MOMENTS
-----------------------------------------------------------------------------
State   Energy  Wavelength   fosc         T2         TX        TY        TZ
        (cm-1)    (nm)                  (au**2)     (au)      (au)      (au)
-----------------------------------------------------------------------------
   0    7955.7   1257.0   0.051531812   2.13243   1.31798  -0.24449   0.57929
   1   11334.0    882.3   0.132525504   3.84940   1.19047   0.94060   1.24397
   2   13074.5    764.8   0.499851740  12.58609   2.58824  -2.35745  -0.57403
   3   14599.8    684.9   0.009002542   0.20300  -0.37354  -0.22684   0.10958
   4   16253.5    615.3   0.544739748  11.03362  -2.68261   1.92218   0.37740
   5   17179.1    582.1   0.279980950   5.36542   2.01375  -1.14193  -0.07884
   6   17985.0    556.0   0.014544793   0.26624   0.51065   0.05556   0.04893
   7   18584.9    538.1   0.069763840   1.23579  -0.64984  -0.82221  -0.37077
   8   20495.6    487.9   0.031553073   0.50682   0.58223   0.38073   0.15124
   9   20909.7    478.2   0.009677810   0.15237  -0.04477   0.07328   0.38079
  10   21237.1    470.9   0.128405274   1.99051  -1.34805  -0.07347  -0.40973
  11   21565.8    463.7   0.012322281   0.18811   0.31527   0.16033   0.25100
  12   22032.0    453.9   0.189693013   2.83448  -1.64494  -0.08211  -0.34915
  13   22541.4    443.6   0.154875949   2.26193  -1.46884   0.29669  -0.12815
  14   23175.4    431.5   0.283449624   4.02647  -1.94884   0.42820  -0.21246
  15   23936.0    417.8   0.085986062   1.18264   1.05051  -0.21860   0.17685
  16   24420.0    409.5   0.071610734   0.96540  -0.49216  -0.80739  -0.26701
  17   24920.4    401.3   0.005325506   0.07035   0.11305   0.14511   0.19109
  18   25029.7    399.5   0.008139340   0.10706   0.25348   0.03293  -0.20425
  19   25458.8    392.8   0.313862297   4.05861  -1.74098   1.01065   0.07867
  20   26076.1    383.5   0.072895524   0.92031  -0.91765  -0.20833  -0.18663
  21   26375.6    379.1   0.061392681   0.76628   0.70234   0.51224  -0.10304
  22   26507.9    377.2   0.002748969   0.03414  -0.05900   0.14660  -0.09575
  23   27127.4    368.6   0.202489492   2.45736   0.83884  -1.30077  -0.24843
  24   27189.6    367.8   0.044089277   0.53383   0.59782  -0.39618  -0.13961
  25   27313.0    366.1   0.066380273   0.80010   0.86333   0.02060   0.23311
  26   28517.1    350.7   0.031121194   0.35927  -0.59409   0.04491  -0.06566
  27   28709.6    348.3   0.014607035   0.16750  -0.08386   0.29222   0.27400
  28   28910.7    345.9   0.000443419   0.00505   0.02851  -0.02307  -0.06086
  29   29246.6    341.9   0.022618392   0.25460   0.34450   0.33026   0.16387
  30   29355.0    340.7   0.022594597   0.25340   0.22652   0.33479   0.30000
  31   29615.0    337.7   0.021041443   0.23390  -0.28291   0.38382   0.08092
  32   29820.5    335.3   0.035243022   0.38908  -0.28077  -0.55665   0.01964
  33   30048.4    332.8   0.060784593   0.66596   0.44696  -0.67235   0.11890
  34   30340.6    329.6   0.157524979   1.70923  -0.46506   1.17220   0.34481
  35   30508.2    327.8   0.003688218   0.03980  -0.04681   0.11924   0.15294
  36   30792.0    324.8   0.023076270   0.24672  -0.27830  -0.38732  -0.13874
  37   31290.9    319.6   0.046694158   0.49127   0.28937   0.60562   0.20189
  38   31633.6    316.1   0.049793956   0.51821   0.71459   0.03718   0.07863
  39   32174.9    310.8   0.086376852   0.88380   0.92869   0.10115  -0.10538
  40   32413.1    308.5   0.005840249   0.05932   0.04915   0.13410  -0.19728
  41   32601.7    306.7   0.043634086   0.44062  -0.54649  -0.35877   0.11510
  42   32642.0    306.4   0.136339625   1.37506   1.11505   0.23245   0.27873
  43   32934.9    303.6   0.091990629   0.91952   0.48705   0.81707   0.12127
  44   33386.2    299.5   0.006906218   0.06810   0.01847  -0.24627   0.08433
  45   33925.9    294.8   0.028307489   0.27469  -0.43636  -0.21355  -0.19667
  46   34103.2    293.2   0.169490515   1.63616  -0.14635   1.25501   0.19925
  47   34286.4    291.7   0.059956110   0.57569   0.45570  -0.57159  -0.20326
  48   34603.4    289.0   0.014754790   0.14037  -0.01059  -0.37043   0.05518
  49   34627.1    288.8   0.009599333   0.09126   0.26384  -0.14584  -0.01951
  50   34798.7    287.4   0.034030725   0.32195   0.26490   0.48867   0.11391
  51   35013.7    285.6   0.108909587   1.02401  -0.20947  -0.96694   0.21248
  52   35154.8    284.5   0.071271522   0.66743  -0.78526  -0.15608   0.16261
  53   35300.6    283.3   0.027575959   0.25717   0.23094   0.44260   0.08913
  54   35405.9    282.4   0.177070096   1.64644   0.10519   1.25037   0.26825
  55   35812.9    279.2   0.049754272   0.45737  -0.40913  -0.12544   0.52368
  56   36199.6    276.2   0.159571440   1.45120  -0.35679   1.14317   0.13062
  57   36344.3    275.1   0.006601665   0.05980   0.23325   0.07339  -0.00239
  58   36365.4    275.0   0.116340870   1.05322   0.62543  -0.81361  -0.00968
  59   36572.3    273.4   0.012777754   0.11502  -0.32197  -0.09371  -0.05073
  60   36934.2    270.8   0.089667393   0.79925   0.44057  -0.77701   0.03730
  61   36990.6    270.3   0.087628361   0.77988   0.36520   0.76999   0.23155
  62   37338.1    267.8   0.055801802   0.49201   0.49053  -0.49608  -0.07273
  63   37756.5    264.9   0.238018110   2.07536  -0.21195   1.37352   0.37931
  64   38038.4    262.9   0.168616198   1.45933   0.05385   1.10066   0.49495
  65   38183.3    261.9   0.024519262   0.21140   0.45341   0.01449  -0.07489
  66   38473.7    259.9   0.066758245   0.57124  -0.60186  -0.43166   0.15056
  67   38643.9    258.8   0.084557277   0.72035  -0.81560   0.18839   0.14020
  68   38726.3    258.2   0.086616242   0.73632  -0.82924   0.08442   0.20386
  69   38881.4    257.2   0.003602322   0.03050  -0.09812  -0.01071   0.14408
  70   39054.3    256.1   0.019689471   0.16597   0.34364   0.21647   0.03205
  71   39126.7    255.6   0.098743456   0.83083   0.71149   0.45112   0.34799
  72   39283.0    254.6   0.104724640   0.87765   0.90080   0.18169   0.18219
  73   39491.9    253.2   0.008914187   0.07431  -0.13750  -0.12174  -0.20145
  74   39690.3    252.0   0.014346908   0.11900  -0.01626  -0.20906  -0.27392
  75   39801.1    251.2   0.063114772   0.52205  -0.67574  -0.13638  -0.21641
  76   40184.5    248.9   0.062052532   0.50837  -0.46290   0.52158   0.14847

FINAL SINGLE POINT ENERGY     -6945.176302621994

DIPOLE MOMENT
-------------
                                X             Y             Z
Electronic contribution:     15.08547      28.81516     -19.63936
Nuclear contribution   :    -15.62755     -28.74209      18.97677
                        -----------------------------------------
Total Dipole Moment    :     -0.54207       0.07307      -0.66259
                        -----------------------------------------
Magnitude (a.u.)       :      0.85919
Magnitude (Debye)      :      2.18389

Rotational constants in cm-1:     0.001836     0.000525     0.000437
Rotational constants in MHz :    55.038168    15.739412    13.108394

                             ****ORCA TERMINATED NORMALLY****
TOTAL RUN TIME: 0 days 0 hours 10 minutes 35 seconds 346 msec
