                         Program Version 4.2.0 -  RELEASE  -
|  1> # ORCA input file
|  2> # SCF done       -187.302232416931          0.000472175680
|  3> ! CAM-B3LYP def2-SVP def2/J RIJCOSX Grid4 TightSCF
|  4> %maxcore 5000
|  5> %tddft
|  6>     Mode sTDDFT
|  7>     Ethresh 5.0
|  8>     maxcore 5000
|  9> end
| 10>
| 11> %pal
| 12>   nprocs 6
| 13>   end
| 14> * xyz 0 1
| 15>    C       -6.25695        -4.74578         3.89403
| 16>    O       -5.04692        -4.70398         3.77753
| 17>    C       -7.01758        -4.09182         4.97723
| 18>    C       -8.39285        -4.30230         4.78973
| 19>    C       -9.29279        -3.77662         5.70654
| 20>    C       -8.80428        -3.05078         6.78235
| 21>    C       -7.43922        -2.84950         6.94222
| 22>    C       -6.51948        -3.36850         6.04139
| 23>   Br       -6.81978        -1.84383         8.42943
| 24>    C       -8.58122        -5.08188         3.56891
| 25>    C       -9.80341        -5.38265         3.02581
| 26>    C      -11.03665        -5.01556         3.60827
| 27>    N      -12.07572        -4.75384         4.01951
| 28>    C      -10.05283        -6.05784         1.81094
| 29>    N      -10.36631        -6.57492         0.83411
| 30>    C       -7.26335        -5.41096         3.03877
| 31>    C       -7.09780        -6.23855         1.95497
| 32>    C       -5.96830        -6.70560         1.24789
| 33>    C       -4.63871        -6.42189         1.49966
| 34>    C       -3.57825        -6.91053         0.75976
| 35>    C       -3.76300        -7.79779        -0.39052
| 36>    C       -4.97788        -8.22101        -0.81951
| 37>    S       -6.44903        -7.76727        -0.08358
| 38>    C       -2.45317        -8.10195        -0.84765
| 39>    C       -1.50088        -7.47859        -0.02402
| 40>    C       -0.18117        -7.74572        -0.45748
| 41>    C       -0.16431        -8.55492        -1.54723
| 42>    S       -1.73607        -9.02177        -2.10631
| 43>    C       -2.18665        -6.73389         0.99115
| 44>    C       -1.62760        -5.97290         2.03810
| 45>    C       -0.35831        -6.13483         2.51016
| 46>    C        0.24767        -5.31621         3.48403
| 47>    C       -0.18227        -3.98218         3.93236
| 48>    N        0.65230        -3.39112         4.73364
| 49>    C        1.68247        -4.27359         4.91132
| 50>    C        1.43986        -5.50555         4.16130
| 51>    C        2.51300        -6.43223         4.37083
| 52>    S        2.67524        -7.92647         3.69114
| 53>    C        3.42412        -5.73917         5.24930
| 54>    C        2.90399        -4.39392         5.52970
| 55>    N        3.79516        -3.67388         6.26898
| 56>    C        4.82101        -4.45365         6.43593
| 57>    C        4.67113        -5.78513         5.84040
| 58>    C        5.61414        -6.84553         5.98307
| 59>    C        5.23827        -8.17127         6.01121
| 60>    C        6.10082        -9.23177         6.27133
| 61>    C        7.52288        -8.99578         6.54647
| 62>    C        8.11334        -7.77852         6.52051
| 63>    S        7.27394        -6.32380         6.19945
| 64>    C        8.06627       -10.26380         6.89037
| 65>    C        7.05248       -11.22344         6.88168
| 66>    C        7.52877       -12.50497         7.23584
| 67>    C        8.86029       -12.48306         7.50331
| 68>    S        9.58836       -10.91960         7.33609
| 69>    C        5.82000       -10.60614         6.47395
| 70>    C        4.59736       -11.30181         6.38757
| 71>    C        3.51333       -10.96960         5.62593
| 72>    C        2.28461       -11.64495         5.71770
| 73>    C        1.21503       -11.50698         4.86999
| 74>    C       -0.15882       -11.79418         5.33790
| 75>    O       -0.48981       -12.37532         6.34662
| 76>    C       -1.04588       -11.16457         4.32652
| 77>    C       -0.26465       -10.67890         3.26266
| 78>    C        1.14234       -10.96671         3.53725
| 79>    C        2.15905       -10.91598         2.61656
| 80>    C        2.01097       -10.41038         1.31082
| 81>    N        1.94149        -9.99538         0.24195
| 82>    C        3.44566       -11.45370         2.82851
| 83>    N        4.48487       -11.93229         2.92222
| 84>    C       -0.87838       -10.07209         2.17960
| 85>    C       -2.25713        -9.93516         2.18962
| 86>    C       -3.00510       -10.38301         3.26715
| 87>    C       -2.41840       -11.01951         4.35169
| 88>   Br       -4.88461       -10.08960         3.23241
| 89>    H      -10.35575        -3.91865         5.60709
| 90>    H       -9.49160        -2.63618         7.50362
| 91>    H       -5.45747        -3.21875         6.15947
| 92>    H       -8.02166        -6.63084         1.54525
| 93>    H       -4.43131        -5.77664         2.34117
| 94>    H       -5.09247        -8.88985        -1.65835
| 95>    H        0.71654        -7.36733        -0.00552
| 96>    H        0.69679        -8.92945        -2.06367
| 97>    H       -2.27773        -5.25373         2.51799
| 98>    H        0.24305        -6.95784         2.14731
| 99>    H       -1.09139        -3.48909         3.63610
|100>    H        5.67543        -4.12783         7.00349
|101>    H        4.18454        -8.37172         5.88707
|102>    H        9.16464        -7.64183         6.71971
|103>    H        6.92752       -13.39404         7.28728
|104>    H        9.48544       -13.30438         7.79446
|105>    H        4.55214       -12.22929         6.94731
|106>    H        3.58737       -10.15395         4.92215
|107>    H        2.10472       -12.24826         6.60172
|108>    H       -0.31145        -9.70119         1.34197
|109>    H       -2.75966        -9.47819         1.35368
|110>    H       -2.99908       -11.38880         5.18292
|111> *
|112>
|113>                          ****END OF INPUT****

CARTESIAN COORDINATES (ANGSTROEM)
---------------------------------
  C     -6.256950   -4.745780    3.894030
  O     -5.046920   -4.703980    3.777530
  C     -7.017580   -4.091820    4.977230
  C     -8.392850   -4.302300    4.789730
  C     -9.292790   -3.776620    5.706540
  C     -8.804280   -3.050780    6.782350
  C     -7.439220   -2.849500    6.942220
  C     -6.519480   -3.368500    6.041390
  Br    -6.819780   -1.843830    8.429430
  C     -8.581220   -5.081880    3.568910
  C     -9.803410   -5.382650    3.025810
  C    -11.036650   -5.015560    3.608270
  N    -12.075720   -4.753840    4.019510
  C    -10.052830   -6.057840    1.810940
  N    -10.366310   -6.574920    0.834110
  C     -7.263350   -5.410960    3.038770
  C     -7.097800   -6.238550    1.954970
  C     -5.968300   -6.705600    1.247890
  C     -4.638710   -6.421890    1.499660
  C     -3.578250   -6.910530    0.759760
  C     -3.763000   -7.797790   -0.390520
  C     -4.977880   -8.221010   -0.819510
  S     -6.449030   -7.767270   -0.083580
  C     -2.453170   -8.101950   -0.847650
  C     -1.500880   -7.478590   -0.024020
  C     -0.181170   -7.745720   -0.457480
  C     -0.164310   -8.554920   -1.547230
  S     -1.736070   -9.021770   -2.106310
  C     -2.186650   -6.733890    0.991150
  C     -1.627600   -5.972900    2.038100
  C     -0.358310   -6.134830    2.510160
  C      0.247670   -5.316210    3.484030
  C     -0.182270   -3.982180    3.932360
  N      0.652300   -3.391120    4.733640
  C      1.682470   -4.273590    4.911320
  C      1.439860   -5.505550    4.161300
  C      2.513000   -6.432230    4.370830
  S      2.675240   -7.926470    3.691140
  C      3.424120   -5.739170    5.249300
  C      2.903990   -4.393920    5.529700
  N      3.795160   -3.673880    6.268980
  C      4.821010   -4.453650    6.435930
  C      4.671130   -5.785130    5.840400
  C      5.614140   -6.845530    5.983070
  C      5.238270   -8.171270    6.011210
  C      6.100820   -9.231770    6.271330
  C      7.522880   -8.995780    6.546470
  C      8.113340   -7.778520    6.520510
  S      7.273940   -6.323800    6.199450
  C      8.066270  -10.263800    6.890370
  C      7.052480  -11.223440    6.881680
  C      7.528770  -12.504970    7.235840
  C      8.860290  -12.483060    7.503310
  S      9.588360  -10.919600    7.336090
  C      5.820000  -10.606140    6.473950
  C      4.597360  -11.301810    6.387570
  C      3.513330  -10.969600    5.625930
  C      2.284610  -11.644950    5.717700
  C      1.215030  -11.506980    4.869990
  C     -0.158820  -11.794180    5.337900
  O     -0.489810  -12.375320    6.346620
  C     -1.045880  -11.164570    4.326520
  C     -0.264650  -10.678900    3.262660
  C      1.142340  -10.966710    3.537250
  C      2.159050  -10.915980    2.616560
  C      2.010970  -10.410380    1.310820
  N      1.941490   -9.995380    0.241950
  C      3.445660  -11.453700    2.828510
  N      4.484870  -11.932290    2.922220
  C     -0.878380  -10.072090    2.179600
  C     -2.257130   -9.935160    2.189620
  C     -3.005100  -10.383010    3.267150
  C     -2.418400  -11.019510    4.351690
  Br    -4.884610  -10.089600    3.232410
  H    -10.355750   -3.918650    5.607090
  H     -9.491600   -2.636180    7.503620
  H     -5.457470   -3.218750    6.159470
  H     -8.021660   -6.630840    1.545250
  H     -4.431310   -5.776640    2.341170
  H     -5.092470   -8.889850   -1.658350
  H      0.716540   -7.367330   -0.005520
  H      0.696790   -8.929450   -2.063670
  H     -2.277730   -5.253730    2.517990
  H      0.243050   -6.957840    2.147310
  H     -1.091390   -3.489090    3.636100
  H      5.675430   -4.127830    7.003490
  H      4.184540   -8.371720    5.887070
  H      9.164640   -7.641830    6.719710
  H      6.927520  -13.394040    7.287280
  H      9.485440  -13.304380    7.794460
  H      4.552140  -12.229290    6.947310
  H      3.587370  -10.153950    4.922150
  H      2.104720  -12.248260    6.601720
  H     -0.311450   -9.701190    1.341970
  H     -2.759660   -9.478190    1.353680
  H     -2.999080  -11.388800    5.182920

 Total Charge           Charge          ....    0
 Multiplicity           Mult            ....    1
 Number of Electrons    NEL             ....  584
 Basis Dimension        Dim             .... 1202

ORBITAL ENERGIES
----------------

  NO   OCC          E(Eh)            E(eV)
   0   2.0000    -482.875980    -13139.7234
   1   2.0000    -482.870858    -13139.5841
   2   2.0000     -88.990246     -2421.5477
   3   2.0000     -88.989523     -2421.5280
   4   2.0000     -88.967901     -2420.9397
   5   2.0000     -88.963470     -2420.8191
   6   2.0000     -88.906434     -2419.2671
   7   2.0000     -62.553690     -1702.1724
   8   2.0000     -62.548285     -1702.0254
   9   2.0000     -56.387537     -1534.3829
  10   2.0000     -56.384999     -1534.3138
  11   2.0000     -56.384983     -1534.3134
  12   2.0000     -56.382110     -1534.2352
  13   2.0000     -56.379647     -1534.1682
  14   2.0000     -56.379566     -1534.1660
  15   2.0000     -19.234499      -523.3973
  16   2.0000     -19.208420      -522.6877
  17   2.0000     -14.424744      -392.5172
  18   2.0000     -14.421487      -392.4286
  19   2.0000     -14.420514      -392.4021
  20   2.0000     -14.420249      -392.3949
  21   2.0000     -14.412463      -392.1831
  22   2.0000     -14.404170      -391.9574
  23   2.0000     -10.384727      -282.5828
  24   2.0000     -10.359558      -281.8979
  25   2.0000     -10.350958      -281.6639
  26   2.0000     -10.350146      -281.6418
  27   2.0000     -10.349800      -281.6324
  28   2.0000     -10.346024      -281.5296
  29   2.0000     -10.345907      -281.5264
  30   2.0000     -10.340081      -281.3679
  31   2.0000     -10.339671      -281.3568
  32   2.0000     -10.338396      -281.3221
  33   2.0000     -10.337715      -281.3035
  34   2.0000     -10.337071      -281.2860
  35   2.0000     -10.336596      -281.2731
  36   2.0000     -10.334777      -281.2236
  37   2.0000     -10.334549      -281.2174
  38   2.0000     -10.333969      -281.2016
  39   2.0000     -10.332069      -281.1499
  40   2.0000     -10.331285      -281.1286
  41   2.0000     -10.327205      -281.0175
  42   2.0000     -10.323244      -280.9097
  43   2.0000     -10.317833      -280.7625
  44   2.0000     -10.316263      -280.7198
  45   2.0000     -10.316165      -280.7171
  46   2.0000     -10.313466      -280.6437
  47   2.0000     -10.312305      -280.6121
  48   2.0000     -10.310494      -280.5628
  49   2.0000     -10.310070      -280.5513
  50   2.0000     -10.310043      -280.5505
  51   2.0000     -10.309687      -280.5408
  52   2.0000     -10.308628      -280.5120
  53   2.0000     -10.307462      -280.4803
  54   2.0000     -10.306975      -280.4670
  55   2.0000     -10.306454      -280.4529
  56   2.0000     -10.306299      -280.4487
  57   2.0000     -10.306004      -280.4406
  58   2.0000     -10.305356      -280.4230
  59   2.0000     -10.303379      -280.3692
  60   2.0000     -10.303290      -280.3668
  61   2.0000     -10.302821      -280.3540
  62   2.0000     -10.302011      -280.3320
  63   2.0000     -10.301499      -280.3180
  64   2.0000     -10.300881      -280.3012
  65   2.0000     -10.300773      -280.2983
  66   2.0000     -10.299224      -280.2561
  67   2.0000     -10.299155      -280.2543
  68   2.0000     -10.298447      -280.2350
  69   2.0000     -10.295291      -280.1491
  70   2.0000     -10.294866      -280.1376
  71   2.0000     -10.293338      -280.0960
  72   2.0000     -10.292017      -280.0600
  73   2.0000     -10.291696      -280.0513
  74   2.0000     -10.291547      -280.0472
  75   2.0000     -10.290518      -280.0192
  76   2.0000     -10.286811      -279.9184
  77   2.0000     -10.283688      -279.8334
  78   2.0000     -10.281572      -279.7758
  79   2.0000     -10.280923      -279.7581
  80   2.0000     -10.280241      -279.7396
  81   2.0000     -10.278645      -279.6961
  82   2.0000      -8.782979      -238.9970
  83   2.0000      -8.777478      -238.8473
  84   2.0000      -8.085632      -220.0212
  85   2.0000      -8.084764      -219.9976
  86   2.0000      -8.063318      -219.4140
  87   2.0000      -8.058887      -219.2935
  88   2.0000      -8.000976      -217.7176
  89   2.0000      -6.618878      -180.1088
  90   2.0000      -6.613152      -179.9530
  91   2.0000      -6.605060      -179.7328
  92   2.0000      -6.604621      -179.7209
  93   2.0000      -6.599625      -179.5849
  94   2.0000      -6.599309      -179.5763
  95   2.0000      -6.055062      -164.7666
  96   2.0000      -6.054103      -164.7405
  97   2.0000      -6.050479      -164.6419
  98   2.0000      -6.049665      -164.6198
  99   2.0000      -6.047818      -164.5695
 100   2.0000      -6.046949      -164.5458
 101   2.0000      -6.032763      -164.1598
 102   2.0000      -6.028428      -164.0419
 103   2.0000      -6.028347      -164.0397
 104   2.0000      -6.025400      -163.9595
 105   2.0000      -6.024093      -163.9239
 106   2.0000      -6.020886      -163.8366
 107   2.0000      -5.969858      -162.4481
 108   2.0000      -5.969144      -162.4287
 109   2.0000      -5.960729      -162.1997
 110   2.0000      -2.734766       -74.4168
 111   2.0000      -2.731032       -74.3152
 112   2.0000      -2.730709       -74.3064
 113   2.0000      -2.729107       -74.2628
 114   2.0000      -2.725394       -74.1617
 115   2.0000      -2.725173       -74.1557
 116   2.0000      -2.719719       -74.0073
 117   2.0000      -2.719708       -74.0070
 118   2.0000      -2.714408       -73.8628
 119   2.0000      -2.714398       -73.8625
 120   2.0000      -1.148407       -31.2497
 121   2.0000      -1.122918       -30.5562
 122   2.0000      -1.088142       -29.6099
 123   2.0000      -1.069502       -29.1026
 124   2.0000      -1.028059       -27.9749
 125   2.0000      -1.021847       -27.8059
 126   2.0000      -1.016113       -27.6498
 127   2.0000      -1.012487       -27.5512
 128   2.0000      -1.009257       -27.4633
 129   2.0000      -1.000628       -27.2285
 130   2.0000      -0.994672       -27.0664
 131   2.0000      -0.988299       -26.8930
 132   2.0000      -0.986391       -26.8411
 133   2.0000      -0.983911       -26.7736
 134   2.0000      -0.970044       -26.3962
 135   2.0000      -0.967345       -26.3228
 136   2.0000      -0.957879       -26.0652
 137   2.0000      -0.945680       -25.7333
 138   2.0000      -0.940217       -25.5846
 139   2.0000      -0.925867       -25.1941
 140   2.0000      -0.918914       -25.0049
 141   2.0000      -0.916760       -24.9463
 142   2.0000      -0.911376       -24.7998
 143   2.0000      -0.907266       -24.6880
 144   2.0000      -0.901797       -24.5391
 145   2.0000      -0.895967       -24.3805
 146   2.0000      -0.882821       -24.0228
 147   2.0000      -0.872098       -23.7310
 148   2.0000      -0.868595       -23.6357
 149   2.0000      -0.865266       -23.5451
 150   2.0000      -0.861613       -23.4457
 151   2.0000      -0.856819       -23.3152
 152   2.0000      -0.853584       -23.2272
 153   2.0000      -0.850593       -23.1458
 154   2.0000      -0.838034       -22.8041
 155   2.0000      -0.831878       -22.6366
 156   2.0000      -0.821857       -22.3639
 157   2.0000      -0.814281       -22.1577
 158   2.0000      -0.798572       -21.7303
 159   2.0000      -0.792617       -21.5682
 160   2.0000      -0.782812       -21.3014
 161   2.0000      -0.777611       -21.1599
 162   2.0000      -0.771457       -20.9924
 163   2.0000      -0.765094       -20.8193
 164   2.0000      -0.759353       -20.6630
 165   2.0000      -0.748567       -20.3695
 166   2.0000      -0.737320       -20.0635
 167   2.0000      -0.733474       -19.9589
 168   2.0000      -0.725987       -19.7551
 169   2.0000      -0.720202       -19.5977
 170   2.0000      -0.704857       -19.1801
 171   2.0000      -0.703645       -19.1472
 172   2.0000      -0.699682       -19.0393
 173   2.0000      -0.694671       -18.9030
 174   2.0000      -0.686052       -18.6684
 175   2.0000      -0.682911       -18.5829
 176   2.0000      -0.674834       -18.3632
 177   2.0000      -0.672951       -18.3119
 178   2.0000      -0.665756       -18.1162
 179   2.0000      -0.664610       -18.0849
 180   2.0000      -0.657472       -17.8907
 181   2.0000      -0.648024       -17.6336
 182   2.0000      -0.642155       -17.4739
 183   2.0000      -0.640655       -17.4331
 184   2.0000      -0.628262       -17.0959
 185   2.0000      -0.625592       -17.0232
 186   2.0000      -0.623397       -16.9635
 187   2.0000      -0.616013       -16.7626
 188   2.0000      -0.610043       -16.6001
 189   2.0000      -0.606500       -16.5037
 190   2.0000      -0.596809       -16.2400
 191   2.0000      -0.596298       -16.2261
 192   2.0000      -0.595057       -16.1923
 193   2.0000      -0.587953       -15.9990
 194   2.0000      -0.583275       -15.8717
 195   2.0000      -0.580170       -15.7872
 196   2.0000      -0.574776       -15.6404
 197   2.0000      -0.569277       -15.4908
 198   2.0000      -0.568496       -15.4696
 199   2.0000      -0.567116       -15.4320
 200   2.0000      -0.559567       -15.2266
 201   2.0000      -0.558980       -15.2106
 202   2.0000      -0.554001       -15.0751
 203   2.0000      -0.549960       -14.9652
 204   2.0000      -0.548875       -14.9356
 205   2.0000      -0.546611       -14.8741
 206   2.0000      -0.544600       -14.8193
 207   2.0000      -0.541544       -14.7362
 208   2.0000      -0.539122       -14.6703
 209   2.0000      -0.535071       -14.5600
 210   2.0000      -0.531007       -14.4494
 211   2.0000      -0.528261       -14.3747
 212   2.0000      -0.527570       -14.3559
 213   2.0000      -0.525833       -14.3086
 214   2.0000      -0.523708       -14.2508
 215   2.0000      -0.520593       -14.1661
 216   2.0000      -0.519544       -14.1375
 217   2.0000      -0.516098       -14.0437
 218   2.0000      -0.512868       -13.9558
 219   2.0000      -0.510979       -13.9045
 220   2.0000      -0.506776       -13.7901
 221   2.0000      -0.505336       -13.7509
 222   2.0000      -0.502651       -13.6778
 223   2.0000      -0.499357       -13.5882
 224   2.0000      -0.496500       -13.5105
 225   2.0000      -0.490731       -13.3535
 226   2.0000      -0.488507       -13.2929
 227   2.0000      -0.487563       -13.2673
 228   2.0000      -0.483905       -13.1677
 229   2.0000      -0.481535       -13.1032
 230   2.0000      -0.476518       -12.9667
 231   2.0000      -0.473691       -12.8898
 232   2.0000      -0.471460       -12.8291
 233   2.0000      -0.468628       -12.7520
 234   2.0000      -0.467416       -12.7190
 235   2.0000      -0.464842       -12.6490
 236   2.0000      -0.462044       -12.5729
 237   2.0000      -0.460014       -12.5176
 238   2.0000      -0.457712       -12.4550
 239   2.0000      -0.456346       -12.4178
 240   2.0000      -0.454934       -12.3794
 241   2.0000      -0.452871       -12.3233
 242   2.0000      -0.451251       -12.2792
 243   2.0000      -0.449467       -12.2306
 244   2.0000      -0.448245       -12.1974
 245   2.0000      -0.446422       -12.1478
 246   2.0000      -0.443050       -12.0560
 247   2.0000      -0.440487       -11.9863
 248   2.0000      -0.439387       -11.9563
 249   2.0000      -0.436805       -11.8861
 250   2.0000      -0.435818       -11.8592
 251   2.0000      -0.434772       -11.8307
 252   2.0000      -0.434043       -11.8109
 253   2.0000      -0.433193       -11.7878
 254   2.0000      -0.430477       -11.7139
 255   2.0000      -0.428464       -11.6591
 256   2.0000      -0.427476       -11.6322
 257   2.0000      -0.422171       -11.4878
 258   2.0000      -0.421605       -11.4724
 259   2.0000      -0.419242       -11.4082
 260   2.0000      -0.417828       -11.3697
 261   2.0000      -0.415861       -11.3162
 262   2.0000      -0.412787       -11.2325
 263   2.0000      -0.412229       -11.2173
 264   2.0000      -0.408064       -11.1040
 265   2.0000      -0.405028       -11.0214
 266   2.0000      -0.393113       -10.6971
 267   2.0000      -0.388694       -10.5769
 268   2.0000      -0.383563       -10.4373
 269   2.0000      -0.370606       -10.0847
 270   2.0000      -0.366175        -9.9641
 271   2.0000      -0.365160        -9.9365
 272   2.0000      -0.359949        -9.7947
 273   2.0000      -0.357532        -9.7289
 274   2.0000      -0.357290        -9.7224
 275   2.0000      -0.352668        -9.5966
 276   2.0000      -0.351957        -9.5772
 277   2.0000      -0.346251        -9.4220
 278   2.0000      -0.342452        -9.3186
 279   2.0000      -0.337811        -9.1923
 280   2.0000      -0.333194        -9.0667
 281   2.0000      -0.330627        -8.9968
 282   2.0000      -0.322437        -8.7740
 283   2.0000      -0.314044        -8.5456
 284   2.0000      -0.312806        -8.5119
 285   2.0000      -0.311440        -8.4747
 286   2.0000      -0.299452        -8.1485
 287   2.0000      -0.294103        -8.0030
 288   2.0000      -0.288324        -7.8457
 289   2.0000      -0.283572        -7.7164
 290   2.0000      -0.246015        -6.6944
 291   2.0000      -0.241444        -6.5700
 292   0.0000      -0.125092        -3.4039
 293   0.0000      -0.109644        -2.9836
 294   0.0000      -0.091996        -2.5033
 295   0.0000      -0.078101        -2.1252
 296   0.0000      -0.071680        -1.9505

MULLIKEN ATOMIC CHARGES
-----------------------
   0 C :    0.167280
   1 O :   -0.167990
   2 C :   -0.011064
   3 C :    0.033496
   4 C :   -0.027766
   5 C :    0.051259
   6 C :   -0.003194
   7 C :   -0.013897
   8 Br:   -0.014091
   9 C :    0.309158
  10 C :   -0.357032
  11 C :   -0.187824
  12 N :    0.156904
  13 C :   -0.190285
  14 N :    0.157913
  15 C :   -0.070194
  16 C :    0.042876
  17 C :   -0.115635
  18 C :   -0.007334
  19 C :    0.036984
  20 C :    0.052192
  21 C :   -0.107218
  22 S :    0.165113
  23 C :   -0.112612
  24 C :    0.015169
  25 C :    0.012502
  26 C :   -0.041627
  27 S :    0.141966
  28 C :    0.089887
  29 C :   -0.020159
  30 C :   -0.041734
  31 C :    0.009569
  32 C :    0.065058
  33 N :   -0.022829
  34 C :    0.034479
  35 C :   -0.003884
  36 C :    0.021844
  37 S :   -0.174808
  38 C :   -0.009895
  39 C :   -0.025756
  40 N :   -0.019272
  41 C :    0.044694
  42 C :    0.002367
  43 C :   -0.103349
  44 C :    0.002912
  45 C :    0.054563
  46 C :    0.056567
  47 C :   -0.122502
  48 S :    0.150362
  49 C :   -0.104311
  50 C :    0.054524
  51 C :    0.017687
  52 C :   -0.066600
  53 S :    0.133436
  54 C :    0.095520
  55 C :   -0.022321
  56 C :   -0.012351
  57 C :    0.028059
  58 C :   -0.126720
  59 C :    0.141856
  60 O :   -0.143478
  61 C :   -0.021723
  62 C :    0.038007
  63 C :    0.299365
  64 C :   -0.348429
  65 C :   -0.166163
  66 N :    0.136414
  67 C :   -0.217829
  68 N :    0.171952
  69 C :   -0.022831
  70 C :    0.077556
  71 C :    0.001031
  72 C :   -0.023908
  73 Br:   -0.036204
  74 H :    0.010980
  75 H :    0.007285
  76 H :    0.003124
  77 H :    0.006977
  78 H :   -0.006253
  79 H :    0.046500
  80 H :    0.001210
  81 H :    0.045147
  82 H :    0.003791
  83 H :   -0.002559
  84 H :    0.017538
  85 H :    0.012885
  86 H :   -0.011340
  87 H :    0.042173
  88 H :   -0.011475
  89 H :    0.030837
  90 H :   -0.004726
  91 H :    0.031678
  92 H :    0.015289
  93 H :   -0.002850
  94 H :   -0.021217
  95 H :   -0.000697
Sum of atomic charges:   -0.0000000

LOEWDIN ATOMIC CHARGES
----------------------
   0 C :    0.093077
   1 O :   -0.146192
   2 C :   -0.037685
   3 C :   -0.015489
   4 C :    0.008843
   5 C :   -0.010922
   6 C :   -0.097604
   7 C :    0.000574
   8 Br:    0.119585
   9 C :    0.075539
  10 C :   -0.137374
  11 C :   -0.018185
  12 N :   -0.048563
  13 C :   -0.026486
  14 N :   -0.045453
  15 C :   -0.098346
  16 C :    0.044010
  17 C :   -0.185895
  18 C :    0.030803
  19 C :   -0.024958
  20 C :   -0.064940
  21 C :   -0.127145
  22 S :    0.485960
  23 C :   -0.196483
  24 C :   -0.043759
  25 C :   -0.061758
  26 C :   -0.136771
  27 S :    0.433363
  28 C :   -0.027338
  29 C :    0.009630
  30 C :   -0.021205
  31 C :   -0.026356
  32 C :    0.095061
  33 N :   -0.075450
  34 C :    0.045590
  35 C :   -0.055723
  36 C :   -0.135932
  37 S :    0.054286
  38 C :   -0.040605
  39 C :    0.025708
  40 N :   -0.072442
  41 C :    0.065993
  42 C :   -0.058288
  43 C :   -0.166309
  44 C :    0.008496
  45 C :   -0.001619
  46 C :   -0.044443
  47 C :   -0.138687
  48 S :    0.474724
  49 C :   -0.201780
  50 C :   -0.034609
  51 C :   -0.059105
  52 C :   -0.158164
  53 S :    0.426137
  54 C :   -0.046665
  55 C :    0.040947
  56 C :   -0.044706
  57 C :    0.071992
  58 C :   -0.105565
  59 C :    0.081236
  60 O :   -0.145366
  61 C :   -0.038064
  62 C :   -0.010124
  63 C :    0.069524
  64 C :   -0.147861
  65 C :   -0.010106
  66 N :   -0.062839
  67 C :   -0.023767
  68 N :   -0.050878
  69 C :    0.004914
  70 C :   -0.015240
  71 C :   -0.100607
  72 C :   -0.002717
  73 Br:    0.101962
  74 H :    0.043642
  75 H :    0.041279
  76 H :    0.043763
  77 H :    0.039918
  78 H :    0.036333
  79 H :    0.041617
  80 H :    0.035232
  81 H :    0.031017
  82 H :    0.035222
  83 H :    0.030722
  84 H :    0.027166
  85 H :    0.020723
  86 H :    0.035768
  87 H :    0.038977
  88 H :    0.033016
  89 H :    0.025494
  90 H :    0.035996
  91 H :    0.020179
  92 H :    0.042997
  93 H :    0.040039
  94 H :    0.036406
  95 H :    0.043109

  Mayer bond orders larger than 0.100000
B(  0-C ,  1-O ) :   2.1161 B(  0-C ,  2-C ) :   0.9641 B(  0-C , 15-C ) :   0.9464
B(  1-O , 78-H ) :   0.1251 B(  2-C ,  3-C ) :   1.3344 B(  2-C ,  7-C ) :   1.3755
B(  3-C ,  4-C ) :   1.3597 B(  3-C ,  9-C ) :   0.9858 B(  4-C ,  5-C ) :   1.3856
B(  4-C , 74-H ) :   0.9838 B(  5-C ,  6-C ) :   1.3872 B(  5-C , 75-H ) :   0.9842
B(  6-C ,  7-C ) :   1.3358 B(  6-C ,  8-Br) :   0.9949 B(  7-C , 76-H ) :   1.0082
B(  9-C , 10-C ) :   1.6171 B(  9-C , 15-C ) :   1.0917 B( 10-C , 11-C ) :   1.1489
B( 10-C , 13-C ) :   1.1382 B( 11-C , 12-N ) :   2.9724 B( 13-C , 14-N ) :   2.9668
B( 15-C , 16-C ) :   1.5713 B( 16-C , 17-C ) :   1.2406 B( 16-C , 77-H ) :   0.9030
B( 17-C , 18-C ) :   1.4384 B( 17-C , 22-S ) :   1.0493 B( 18-C , 19-C ) :   1.3160
B( 18-C , 78-H ) :   0.9315 B( 19-C , 20-C ) :   1.0427 B( 19-C , 28-C ) :   1.3001
B( 20-C , 21-C ) :   1.5557 B( 20-C , 23-C ) :   1.1986 B( 21-C , 22-S ) :   1.1876
B( 21-C , 79-H ) :   0.9421 B( 23-C , 24-C ) :   1.3919 B( 23-C , 27-S ) :   1.0878
B( 24-C , 25-C ) :   1.2144 B( 24-C , 28-C ) :   1.1263 B( 25-C , 26-C ) :   1.5864
B( 25-C , 80-H ) :   1.0051 B( 26-C , 27-S ) :   1.1429 B( 26-C , 81-H ) :   0.9581
B( 28-C , 29-C ) :   1.1818 B( 29-C , 30-C ) :   1.5671 B( 29-C , 82-H ) :   0.9596
B( 30-C , 31-C ) :   1.1543 B( 30-C , 83-H ) :   0.9732 B( 31-C , 32-C ) :   1.0034
B( 31-C , 35-C ) :   1.4598 B( 32-C , 33-N ) :   1.7440 B( 32-C , 84-H ) :   0.9865
B( 33-N , 34-C ) :   1.2504 B( 34-C , 35-C ) :   1.0746 B( 34-C , 39-C ) :   1.5079
B( 35-C , 36-C ) :   1.0514 B( 36-C , 37-S ) :   1.6508 B( 36-C , 38-C ) :   1.0401
B( 38-C , 39-C ) :   1.0823 B( 38-C , 42-C ) :   1.5331 B( 39-C , 40-N ) :   1.2697
B( 40-N , 41-C ) :   1.7305 B( 41-C , 42-C ) :   1.0365 B( 41-C , 85-H ) :   0.9863
B( 42-C , 43-C ) :   1.0705 B( 43-C , 44-C ) :   1.5176 B( 43-C , 48-S ) :   1.0655
B( 44-C , 45-C ) :   1.2707 B( 44-C , 86-H ) :   0.9589 B( 45-C , 46-C ) :   1.0605
B( 45-C , 54-C ) :   1.3391 B( 46-C , 47-C ) :   1.5866 B( 46-C , 49-C ) :   1.1840
B( 47-C , 48-S ) :   1.1533 B( 47-C , 87-H ) :   0.9416 B( 49-C , 50-C ) :   1.4337
B( 49-C , 53-S ) :   1.0788 B( 50-C , 51-C ) :   1.2247 B( 50-C , 54-C ) :   1.1096
B( 51-C , 52-C ) :   1.5863 B( 51-C , 88-H ) :   0.9982 B( 52-C , 53-S ) :   1.1539
B( 52-C , 89-H ) :   0.9663 B( 54-C , 55-C ) :   1.1647 B( 55-C , 56-C ) :   1.5752
B( 55-C , 90-H ) :   0.9692 B( 56-C , 57-C ) :   1.1848 B( 56-C , 91-H ) :   0.9485
B( 57-C , 58-C ) :   1.5396 B( 57-C , 92-H ) :   0.9589 B( 58-C , 59-C ) :   0.9558
B( 58-C , 63-C ) :   1.0791 B( 59-C , 60-O ) :   2.2708 B( 59-C , 61-C ) :   0.9132
B( 61-C , 62-C ) :   1.3316 B( 61-C , 72-C ) :   1.3814 B( 62-C , 63-C ) :   1.0039
B( 62-C , 69-C ) :   1.3761 B( 63-C , 64-C ) :   1.6173 B( 64-C , 65-C ) :   1.1381
B( 64-C , 67-C ) :   1.1566 B( 65-C , 66-N ) :   2.9705 B( 67-C , 68-N ) :   3.0184
B( 69-C , 70-C ) :   1.3766 B( 69-C , 93-H ) :   0.9866 B( 70-C , 71-C ) :   1.3997
B( 70-C , 94-H ) :   0.9799 B( 71-C , 72-C ) :   1.3340 B( 71-C , 73-Br) :   0.9910
B( 72-C , 95-H ) :   1.0077

-----------------------------------------------------------------------------
         ABSORPTION SPECTRUM VIA TRANSITION ELECTRIC DIPOLE MOMENTS
-----------------------------------------------------------------------------
State   Energy  Wavelength   fosc         T2         TX        TY        TZ
        (cm-1)    (nm)                  (au**2)     (au)      (au)      (au)
-----------------------------------------------------------------------------
   0   10390.4    962.4   0.248585387   7.87622  -2.18711   1.62724  -0.66698
   1   11820.5    846.0   0.236684351   6.59186   2.45597   0.43614   0.60816
   2   13589.2    735.9   0.115062351   2.78750   0.75443   1.43115   0.41249
   3   14496.6    689.8   0.557274321  12.65545  -3.54925   0.23981   0.02719
   4   16271.8    614.6   0.012618205   0.25529  -0.47705  -0.16368   0.03046
   5   18025.0    554.8   0.096755819   1.76717  -1.16714  -0.34218  -0.53653
   6   18355.8    544.8   0.104768266   1.87902  -0.78559  -0.44536  -1.03127
   7   18963.6    527.3   0.086477938   1.50128  -0.51236   0.52310   0.98241
   8   19708.6    507.4   0.070795278   1.18256  -0.87139   0.00287  -0.65057
   9   20947.7    477.4   0.147118220   2.31210   0.97863  -0.75746  -0.88353
  10   21462.6    465.9   0.029380400   0.45066  -0.36600  -0.19973  -0.52614
  11   21976.7    455.0   0.032083696   0.48061   0.59682  -0.34577   0.06976
  12   22096.1    452.6   0.254235561   3.78788   1.13784   0.54516   1.48189
  13   22543.6    443.6   0.110546627   1.61435  -0.48970   0.95506  -0.68001
  14   22660.0    441.3   0.034604960   0.50275   0.43829  -0.36293   0.42302
  15   23276.9    429.6   0.069984999   0.98982  -0.05366  -0.26317  -0.95796
  16   23699.0    422.0   0.096309082   1.33787  -1.05934   0.46236   0.04339
  17   24028.1    416.2   0.025498942   0.34936   0.31317   0.00102   0.50128
  18   24785.6    403.5   0.088432628   1.17460   0.49749  -0.62533  -0.73216
  19   24984.1    400.3   0.314652284   4.14614   1.99614   0.16403   0.36696
  20   25450.5    392.9   0.025005864   0.32346   0.48268   0.17185   0.24687
  21   25621.5    390.3   0.045116917   0.57971  -0.75602   0.04368  -0.07891
  22   25876.0    386.5   0.008590086   0.10929  -0.08282  -0.04128  -0.31737
  23   26020.9    384.3   0.038140841   0.48255  -0.68299   0.12375   0.02767
  24   26183.9    381.9   0.028514842   0.35852   0.26915   0.05548   0.53198
  25   26503.2    377.3   0.035811991   0.44484   0.15583  -0.12587   0.63617
  26   27452.5    364.3   0.130995204   1.57090   1.03851   0.24434   0.65780
  27   27525.2    363.3   0.055626236   0.66531   0.78441   0.08230   0.20793
  28   27736.7    360.5   0.090741818   1.07703   0.97977  -0.34212   0.00632
  29   27888.8    358.6   0.073331481   0.86564   0.68232  -0.55051  -0.31148
  30   28235.5    354.2   0.054750810   0.63837   0.34705  -0.44679  -0.56418
  31   28322.8    353.1   0.092031516   1.06973  -0.10023   0.32604   0.97642
  32   28751.9    347.8   0.001303461   0.01492  -0.03060  -0.08753  -0.07954
  33   29023.4    344.5   0.021449766   0.24330   0.37878   0.19044   0.25211
  34   29513.9    338.8   0.146670780   1.63604   1.13644  -0.14023   0.56998
  35   29584.0    338.0   0.270570339   3.01092  -1.36732  -0.01569  -1.06823
  36   29728.8    336.4   0.001988303   0.02202   0.03449  -0.14052   0.03288
  37   30472.4    328.2   0.034270813   0.37025  -0.58015   0.04208  -0.17863
  38   30843.1    324.2   0.116580970   1.24436   1.09265  -0.00107   0.22466
  39   30948.0    323.1   0.004455504   0.04740   0.15501   0.14959  -0.03149
  40   31378.4    318.7   0.026479344   0.27781  -0.33977   0.07859   0.39522
  41   31585.7    316.6   0.018340783   0.19116  -0.08484  -0.12264   0.41101
  42   31698.2    315.5   0.098106503   1.01892  -1.00689  -0.06158  -0.03610
  43   31954.0    313.0   0.055447946   0.57126   0.71171   0.12360   0.22239
  44   32066.8    311.8   0.017173874   0.17631   0.19341   0.06878  -0.36630
  45   32138.7    311.2   0.124307775   1.27335   0.04009  -0.49946  -1.01108
  46   32315.4    309.5   0.111410746   1.13499  -0.26920   0.70191   0.75489
  47   32452.5    308.1   0.012517467   0.12698   0.14972   0.28794  -0.14716
  48   32666.0    306.1   0.043725990   0.44068   0.09754  -0.47774   0.45047
  49   32692.9    305.9   0.004118050   0.04147  -0.16160  -0.01582  -0.12289
  50   32901.7    303.9   0.115819781   1.15888  -0.84504  -0.18532  -0.64066
  51   32940.6    303.6   0.123181283   1.23109  -0.29378   0.19110   1.05274
  52   33114.5    302.0   0.049696183   0.49406   0.56196  -0.36850   0.20607
  53   33326.3    300.1   0.056454046   0.55768  -0.42791   0.54208   0.28410
  54   33514.9    298.4   0.136268997   1.33855   0.96874  -0.11719   0.62158
  55   33656.7    297.1   0.116017456   1.13482  -0.69554  -0.54889   0.59140
  56   33675.9    296.9   0.056128199   0.54870   0.43150   0.60030   0.04635
  57   33897.0    295.0   0.140834396   1.36780   0.04136   0.82466   0.82826
  58   34161.0    292.7   0.352740540   3.39939   1.51246   0.39813   0.97639
  59   34450.7    290.3   0.059456699   0.56817   0.71997  -0.21577  -0.05701
  60   34497.1    289.9   0.102167384   0.97500   0.98227  -0.09068   0.04381
  61   34878.1    286.7   0.326360465   3.08050  -1.68994  -0.40898  -0.23941
  62   35007.0    285.7   0.005115869   0.04811  -0.11495   0.12319  -0.14044
  63   35346.7    282.9   0.178849862   1.66577  -1.21034   0.39057  -0.21978
  64   35428.7    282.3   0.034685511   0.32231  -0.52641   0.12255  -0.17373
  65   35530.5    281.4   0.242297187   2.24503   1.19514  -0.74789  -0.50729
  66   35744.6    279.8   0.045715924   0.42105   0.64147  -0.04756  -0.08547
  67   35836.8    279.0   0.072560148   0.66657  -0.52615  -0.18028  -0.59769
  68   36158.1    276.6   0.457592497   4.16629   1.51975   1.32050   0.33606
  69   36422.3    274.6   0.036387622   0.32890  -0.23895   0.36149  -0.37567
  70   36494.5    274.0   0.055152282   0.49752  -0.55098   0.21353  -0.38516
  71   36716.2    272.4   0.015638920   0.14022   0.01943   0.36976   0.05592
  72   36809.0    271.7   0.078503840   0.70212   0.04052  -0.79703  -0.25538
  73   37066.6    269.8   0.029322275   0.26043   0.08694  -0.27350  -0.42198
  74   37189.3    268.9   0.096474612   0.85403   0.61351  -0.61406  -0.31712
  75   37254.0    268.4   0.008409558   0.07431   0.22945  -0.14521  -0.02412
  76   37385.0    267.5   0.004712090   0.04149   0.18504   0.06730  -0.05220
  77   37409.8    267.3   0.005186830   0.04564  -0.19271   0.07550   0.05299
  78   37465.9    266.9   0.011800899   0.10369  -0.30858   0.03808   0.08381
  79   37674.9    265.4   0.014197173   0.12406   0.26659  -0.19671   0.11956
  80   37744.3    264.9   0.007423710   0.06475  -0.20544   0.06319   0.13621
  81   37878.5    264.0   0.042886861   0.37274  -0.19862   0.52787  -0.23375
  82   37964.3    263.4   0.035555089   0.30832  -0.45954  -0.31034   0.02889
  83   38033.2    262.9   0.005912436   0.05118   0.18336  -0.07014  -0.11242
  84   38148.5    262.1   0.009519806   0.08215   0.18625   0.15518   0.15291
  85   38293.9    261.1   0.051111194   0.43940  -0.62711  -0.01065   0.21453
  86   38396.8    260.4   0.009862003   0.08456  -0.10051  -0.25021   0.10884
  87   38576.7    259.2   0.055439222   0.47312   0.19330  -0.65627  -0.07112
  88   38645.8    258.8   0.006095776   0.05193   0.10362  -0.19293  -0.06300
  89   38838.9    257.5   0.112101418   0.95021  -0.73689  -0.09171  -0.63151
  90   38944.5    256.8   0.037268356   0.31504  -0.07128  -0.23251  -0.50587
  91   39041.3    256.1   0.017395391   0.14669   0.00552  -0.01972   0.38245
  92   39229.9    254.9   0.073486350   0.61669   0.46260   0.50173  -0.38853
  93   39477.4    253.3   0.018476363   0.15408   0.07959   0.33882   0.18150
  94   39802.0    251.2   0.093510535   0.77345   0.72660   0.12942   0.47828
  95   39817.0    251.1   0.056754464   0.46925   0.55268   0.40279   0.03959
  96   39968.8    250.2   0.296772523   2.44444  -0.40240   1.11980   1.01418
  97   40153.3    249.0   0.029675462   0.24331  -0.00177   0.38824  -0.30426

FINAL SINGLE POINT ENERGY     -9875.037739971753

DIPOLE MOMENT
-------------
                                X             Y             Z
Electronic contribution:   -103.47963      38.16966      33.84056
Nuclear contribution   :    105.72481     -37.80085     -33.15551
                        -----------------------------------------
Total Dipole Moment    :      2.24518       0.36881       0.68505
                        -----------------------------------------
Magnitude (a.u.)       :      2.37616
Magnitude (Debye)      :      6.03972

Rotational constants in cm-1:     0.001088     0.000382     0.000328
Rotational constants in MHz :    32.624716    11.445518     9.836414

                             ****ORCA TERMINATED NORMALLY****
TOTAL RUN TIME: 0 days 0 hours 13 minutes 16 seconds 761 msec
