                         Program Version 4.2.0 -  RELEASE  -
|  1> # ORCA input file
|  2> # SCF done       -207.890695173953          0.000653123589
|  3> ! CAM-B3LYP def2-SVP def2/J RIJCOSX Grid4 TightSCF
|  4> %maxcore 5000
|  5> %tddft
|  6>     Mode sTDDFT
|  7>     Ethresh 5.0
|  8>     maxcore 5000
|  9> end
| 10>
| 11> %pal
| 12>   nprocs 6
| 13>   end
| 14> * xyz 0 1
| 15>    C       -8.28559         6.70709        -0.37923
| 16>    C       -7.01265         7.23363        -0.53083
| 17>    C       -5.94098         6.43864        -0.17685
| 18>    C       -6.13842         5.13942         0.29789
| 19>    C       -4.80548         4.53163         0.52911
| 20>    O       -4.52901         3.42076         0.91280
| 21>    N       -3.88723         5.51730         0.21365
| 22>    C       -4.48474         6.69664        -0.21401
| 23>    O       -3.89287         7.69975        -0.52249
| 24>    C       -2.45160         5.34271         0.30317
| 25>    C       -1.82194         5.20384        -1.07746
| 26>    C       -7.40167         4.62251         0.47039
| 27>    C       -8.49960         5.42590         0.13761
| 28>    C       -9.86938         4.95174         0.27570
| 29>    C      -10.33904         4.20318         1.28136
| 30>    C      -11.72832         3.78751         1.40673
| 31>    C      -12.72661         4.57667         0.81037
| 32>    C      -14.04545         4.22267         0.94599
| 33>    C      -14.41596         3.10437         1.70031
| 34>    C      -15.89443         2.99747         1.66907
| 35>    O      -16.61696         2.18158         2.18138
| 36>    N      -16.32056         4.06170         0.88615
| 37>    C      -15.28033         4.85125         0.41843
| 38>    O      -15.40746         5.82449        -0.28014
| 39>    C      -17.71485         4.33725         0.61150
| 40>    C      -18.33776         5.18980         1.71099
| 41>    C      -13.46309         2.33488         2.31897
| 42>    C      -12.10281         2.65233         2.15963
| 43>    C      -11.18077         1.72964         2.80505
| 44>    C       -9.95083         1.36556         2.42953
| 45>    C       -9.21157         0.32324         3.15002
| 46>    C       -9.88117        -0.87738         3.41637
| 47>    C       -9.21070        -1.88750         4.06597
| 48>    C       -7.87613        -1.72252         4.45053
| 49>    C       -7.42801        -2.97318         5.10731
| 50>    O       -6.35182        -3.24141         5.58101
| 51>    N       -8.52246        -3.81948         5.07099
| 52>    C       -9.63762        -3.24824         4.46807
| 53>    O      -10.70044        -3.79517         4.32362
| 54>    C       -8.52479        -5.14809         5.64582
| 55>    C       -9.00559        -5.12278         7.09231
| 56>    C       -7.20587        -0.55040         4.21032
| 57>    C       -7.87465         0.50453         3.56815
| 58>    C       -7.22469         1.78499         3.37707
| 59>    C       -6.03378         2.14212         3.88166
| 60>    C       -5.41177         3.43788         3.68138
| 61>    C       -6.20846         4.57714         3.50775
| 62>    C       -5.60107         5.79633         3.32391
| 63>    C       -4.20766         5.91149         3.35093
| 64>    C       -3.86211         7.33605         3.14188
| 65>    O       -2.77809         7.85876         3.09434
| 66>    N       -5.07722         7.99689         3.01424
| 67>    C       -6.16822         7.14468         3.08709
| 68>    O       -7.32301         7.47476         2.97065
| 69>    C       -5.17755         9.43505         2.86149
| 70>    C       -5.63880         9.83584         1.46705
| 71>    C       -3.40634         4.81208         3.54386
| 72>    C       -4.00073         3.55115         3.68859
| 73>    C       -3.16650         2.36048         3.74380
| 74>    C       -1.89391         2.33807         4.16183
| 75>    C       -1.01024         1.18276         4.10211
| 76>    C        0.31991         1.43796         3.73325
| 77>    C        1.18136         0.38209         3.56258
| 78>    C        0.75276        -0.93212         3.78030
| 79>    C        1.89779        -1.83675         3.52108
| 80>    O        1.95931        -3.03825         3.58553
| 81>    N        2.94688        -1.00430         3.15550
| 82>    C        2.60672         0.34104         3.15996
| 83>    O        3.35177         1.24406         2.87506
| 84>    C        4.27277        -1.48949         2.83765
| 85>    C        5.12391        -1.63631         4.09398
| 86>    C       -0.53161        -1.19855         4.18911
| 87>    C       -1.43386        -0.13787         4.35612
| 88>    C       -2.76270        -0.42599         4.89272
| 89>    C       -3.42380        -1.56086         4.69634
| 90>    H       -9.14207         7.30753        -0.64777
| 91>    H       -6.85929         8.22648        -0.92317
| 92>    H       -2.28337         4.44092         0.89679
| 93>    H       -2.03777         6.21242         0.82129
| 94>    H       -2.24104         4.34738        -1.60132
| 95>    H       -0.74970         5.06293        -0.97695
| 96>    H       -2.00293         6.10182        -1.66276
| 97>    H       -7.53317         3.60961         0.81652
| 98>    H      -10.53628         5.27017        -0.51439
| 99>    H       -9.67873         3.91224         2.08615
|100>    H      -12.46926         5.47327         0.27012
|101>    H      -18.23145         3.37711         0.53760
|102>    H      -17.75884         4.85888        -0.34755
|103>    H      -18.28524         4.66925         2.66440
|104>    H      -19.38001         5.38655         1.47678
|105>    H      -17.81234         6.13843         1.79500
|106>    H      -13.75505         1.47780         2.90705
|107>    H      -11.59731         1.24205         3.67933
|108>    H       -9.48731         1.77471         1.54281
|109>    H      -10.90124        -1.01544         3.09266
|110>    H       -7.50209        -5.52841         5.58965
|111>    H       -9.18700        -5.76794         5.03659
|112>    H       -8.35182        -4.49710         7.69581
|113>    H       -8.99923        -6.12984         7.49912
|114>    H      -10.01885        -4.73097         7.14395
|115>    H       -6.17601        -0.45244         4.51007
|116>    H       -7.77149         2.50185         2.78306
|117>    H       -5.46888         1.44282         4.47872
|118>    H       -7.28470         4.51035         3.53413
|119>    H       -4.18189         9.83484         3.06778
|120>    H       -5.88451         9.80410         3.61076
|121>    H       -4.95687         9.44678         0.71483
|122>    H       -5.66137        10.91943         1.39199
|123>    H       -6.63852         9.44938         1.28473
|124>    H       -2.33383         4.92310         3.53628
|125>    H       -3.60576         1.45522         3.35086
|126>    H       -1.42476         3.24718         4.51606
|127>    H        0.65379         2.45008         3.56116
|128>    H        4.72549        -0.76961         2.15150
|129>    H        4.15904        -2.45671         2.34163
|130>    H        4.66258        -2.34469         4.77826
|131>    H        5.22612        -0.67543         4.59340
|132>    H        6.11250        -1.99965         3.82815
|133>    H       -0.83456        -2.21119         4.40373
|134>    H       -3.18773         0.35306         5.51443
|135>    H       -3.04449        -2.33539         4.05086
|136>    H       -4.37143        -1.76982         5.16241
|137> *
|138>
|139>                          ****END OF INPUT****

CARTESIAN COORDINATES (ANGSTROEM)
---------------------------------
  C     -8.285590    6.707090   -0.379230
  C     -7.012650    7.233630   -0.530830
  C     -5.940980    6.438640   -0.176850
  C     -6.138420    5.139420    0.297890
  C     -4.805480    4.531630    0.529110
  O     -4.529010    3.420760    0.912800
  N     -3.887230    5.517300    0.213650
  C     -4.484740    6.696640   -0.214010
  O     -3.892870    7.699750   -0.522490
  C     -2.451600    5.342710    0.303170
  C     -1.821940    5.203840   -1.077460
  C     -7.401670    4.622510    0.470390
  C     -8.499600    5.425900    0.137610
  C     -9.869380    4.951740    0.275700
  C    -10.339040    4.203180    1.281360
  C    -11.728320    3.787510    1.406730
  C    -12.726610    4.576670    0.810370
  C    -14.045450    4.222670    0.945990
  C    -14.415960    3.104370    1.700310
  C    -15.894430    2.997470    1.669070
  O    -16.616960    2.181580    2.181380
  N    -16.320560    4.061700    0.886150
  C    -15.280330    4.851250    0.418430
  O    -15.407460    5.824490   -0.280140
  C    -17.714850    4.337250    0.611500
  C    -18.337760    5.189800    1.710990
  C    -13.463090    2.334880    2.318970
  C    -12.102810    2.652330    2.159630
  C    -11.180770    1.729640    2.805050
  C     -9.950830    1.365560    2.429530
  C     -9.211570    0.323240    3.150020
  C     -9.881170   -0.877380    3.416370
  C     -9.210700   -1.887500    4.065970
  C     -7.876130   -1.722520    4.450530
  C     -7.428010   -2.973180    5.107310
  O     -6.351820   -3.241410    5.581010
  N     -8.522460   -3.819480    5.070990
  C     -9.637620   -3.248240    4.468070
  O    -10.700440   -3.795170    4.323620
  C     -8.524790   -5.148090    5.645820
  C     -9.005590   -5.122780    7.092310
  C     -7.205870   -0.550400    4.210320
  C     -7.874650    0.504530    3.568150
  C     -7.224690    1.784990    3.377070
  C     -6.033780    2.142120    3.881660
  C     -5.411770    3.437880    3.681380
  C     -6.208460    4.577140    3.507750
  C     -5.601070    5.796330    3.323910
  C     -4.207660    5.911490    3.350930
  C     -3.862110    7.336050    3.141880
  O     -2.778090    7.858760    3.094340
  N     -5.077220    7.996890    3.014240
  C     -6.168220    7.144680    3.087090
  O     -7.323010    7.474760    2.970650
  C     -5.177550    9.435050    2.861490
  C     -5.638800    9.835840    1.467050
  C     -3.406340    4.812080    3.543860
  C     -4.000730    3.551150    3.688590
  C     -3.166500    2.360480    3.743800
  C     -1.893910    2.338070    4.161830
  C     -1.010240    1.182760    4.102110
  C      0.319910    1.437960    3.733250
  C      1.181360    0.382090    3.562580
  C      0.752760   -0.932120    3.780300
  C      1.897790   -1.836750    3.521080
  O      1.959310   -3.038250    3.585530
  N      2.946880   -1.004300    3.155500
  C      2.606720    0.341040    3.159960
  O      3.351770    1.244060    2.875060
  C      4.272770   -1.489490    2.837650
  C      5.123910   -1.636310    4.093980
  C     -0.531610   -1.198550    4.189110
  C     -1.433860   -0.137870    4.356120
  C     -2.762700   -0.425990    4.892720
  C     -3.423800   -1.560860    4.696340
  H     -9.142070    7.307530   -0.647770
  H     -6.859290    8.226480   -0.923170
  H     -2.283370    4.440920    0.896790
  H     -2.037770    6.212420    0.821290
  H     -2.241040    4.347380   -1.601320
  H     -0.749700    5.062930   -0.976950
  H     -2.002930    6.101820   -1.662760
  H     -7.533170    3.609610    0.816520
  H    -10.536280    5.270170   -0.514390
  H     -9.678730    3.912240    2.086150
  H    -12.469260    5.473270    0.270120
  H    -18.231450    3.377110    0.537600
  H    -17.758840    4.858880   -0.347550
  H    -18.285240    4.669250    2.664400
  H    -19.380010    5.386550    1.476780
  H    -17.812340    6.138430    1.795000
  H    -13.755050    1.477800    2.907050
  H    -11.597310    1.242050    3.679330
  H     -9.487310    1.774710    1.542810
  H    -10.901240   -1.015440    3.092660
  H     -7.502090   -5.528410    5.589650
  H     -9.187000   -5.767940    5.036590
  H     -8.351820   -4.497100    7.695810
  H     -8.999230   -6.129840    7.499120
  H    -10.018850   -4.730970    7.143950
  H     -6.176010   -0.452440    4.510070
  H     -7.771490    2.501850    2.783060
  H     -5.468880    1.442820    4.478720
  H     -7.284700    4.510350    3.534130
  H     -4.181890    9.834840    3.067780
  H     -5.884510    9.804100    3.610760
  H     -4.956870    9.446780    0.714830
  H     -5.661370   10.919430    1.391990
  H     -6.638520    9.449380    1.284730
  H     -2.333830    4.923100    3.536280
  H     -3.605760    1.455220    3.350860
  H     -1.424760    3.247180    4.516060
  H      0.653790    2.450080    3.561160
  H      4.725490   -0.769610    2.151500
  H      4.159040   -2.456710    2.341630
  H      4.662580   -2.344690    4.778260
  H      5.226120   -0.675430    4.593400
  H      6.112500   -1.999650    3.828150
  H     -0.834560   -2.211190    4.403730
  H     -3.187730    0.353060    5.514430
  H     -3.044490   -2.335390    4.050860
  H     -4.371430   -1.769820    5.162410

 Total Charge           Charge          ....    0
 Multiplicity           Mult            ....    1
 Number of Electrons    NEL             ....  522
 Basis Dimension        Dim             .... 1285

ORBITAL ENERGIES
----------------

  NO   OCC          E(Eh)            E(eV)
   0   2.0000     -19.219267      -522.9828
   1   2.0000     -19.219047      -522.9769
   2   2.0000     -19.216849      -522.9170
   3   2.0000     -19.215738      -522.8868
   4   2.0000     -19.213305      -522.8206
   5   2.0000     -19.213196      -522.8176
   6   2.0000     -19.213110      -522.8153
   7   2.0000     -19.212827      -522.8076
   8   2.0000     -19.206323      -522.6306
   9   2.0000     -19.206268      -522.6291
  10   2.0000     -14.457976      -393.4215
  11   2.0000     -14.457899      -393.4194
  12   2.0000     -14.454778      -393.3345
  13   2.0000     -14.454219      -393.3193
  14   2.0000     -14.447525      -393.1371
  15   2.0000     -10.397438      -282.9287
  16   2.0000     -10.397115      -282.9199
  17   2.0000     -10.395627      -282.8794
  18   2.0000     -10.395218      -282.8683
  19   2.0000     -10.393067      -282.8097
  20   2.0000     -10.392826      -282.8032
  21   2.0000     -10.392618      -282.7975
  22   2.0000     -10.392337      -282.7899
  23   2.0000     -10.386335      -282.6265
  24   2.0000     -10.385981      -282.6169
  25   2.0000     -10.311479      -280.5896
  26   2.0000     -10.310594      -280.5655
  27   2.0000     -10.310542      -280.5641
  28   2.0000     -10.309919      -280.5472
  29   2.0000     -10.309067      -280.5240
  30   2.0000     -10.307321      -280.4765
  31   2.0000     -10.306640      -280.4579
  32   2.0000     -10.306211      -280.4463
  33   2.0000     -10.304772      -280.4071
  34   2.0000     -10.303977      -280.3855
  35   2.0000     -10.303123      -280.3622
  36   2.0000     -10.302072      -280.3336
  37   2.0000     -10.301914      -280.3293
  38   2.0000     -10.301643      -280.3219
  39   2.0000     -10.301387      -280.3150
  40   2.0000     -10.301258      -280.3115
  41   2.0000     -10.301125      -280.3079
  42   2.0000     -10.300522      -280.2914
  43   2.0000     -10.299986      -280.2769
  44   2.0000     -10.299794      -280.2716
  45   2.0000     -10.299695      -280.2689
  46   2.0000     -10.299299      -280.2582
  47   2.0000     -10.299016      -280.2505
  48   2.0000     -10.298836      -280.2456
  49   2.0000     -10.298661      -280.2408
  50   2.0000     -10.298466      -280.2355
  51   2.0000     -10.297788      -280.2171
  52   2.0000     -10.297304      -280.2039
  53   2.0000     -10.297165      -280.2001
  54   2.0000     -10.297061      -280.1973
  55   2.0000     -10.296768      -280.1893
  56   2.0000     -10.296729      -280.1883
  57   2.0000     -10.296070      -280.1703
  58   2.0000     -10.295936      -280.1667
  59   2.0000     -10.295780      -280.1624
  60   2.0000     -10.295563      -280.1565
  61   2.0000     -10.295139      -280.1450
  62   2.0000     -10.293834      -280.1095
  63   2.0000     -10.291827      -280.0548
  64   2.0000     -10.291254      -280.0393
  65   2.0000     -10.289500      -279.9915
  66   2.0000     -10.289400      -279.9888
  67   2.0000     -10.289139      -279.9817
  68   2.0000     -10.280505      -279.7468
  69   2.0000     -10.268418      -279.4179
  70   2.0000     -10.261782      -279.2373
  71   2.0000     -10.259296      -279.1696
  72   2.0000     -10.258324      -279.1432
  73   2.0000     -10.254983      -279.0523
  74   2.0000     -10.249776      -278.9106
  75   2.0000      -1.163508       -31.6607
  76   2.0000      -1.162874       -31.6434
  77   2.0000      -1.158919       -31.5358
  78   2.0000      -1.158150       -31.5149
  79   2.0000      -1.152236       -31.3539
  80   2.0000      -1.139941       -31.0194
  81   2.0000      -1.139470       -31.0065
  82   2.0000      -1.135417       -30.8963
  83   2.0000      -1.134890       -30.8819
  84   2.0000      -1.128668       -30.7126
  85   2.0000      -1.053699       -28.6726
  86   2.0000      -1.053669       -28.6718
  87   2.0000      -1.049910       -28.5695
  88   2.0000      -1.049355       -28.5544
  89   2.0000      -1.043082       -28.3837
  90   2.0000      -0.992262       -27.0008
  91   2.0000      -0.987461       -26.8702
  92   2.0000      -0.984504       -26.7897
  93   2.0000      -0.981215       -26.7002
  94   2.0000      -0.977776       -26.6066
  95   2.0000      -0.933836       -25.4110
  96   2.0000      -0.929513       -25.2933
  97   2.0000      -0.925877       -25.1944
  98   2.0000      -0.921133       -25.0653
  99   2.0000      -0.909449       -24.7474
 100   2.0000      -0.903663       -24.5899
 101   2.0000      -0.894092       -24.3295
 102   2.0000      -0.886118       -24.1125
 103   2.0000      -0.879067       -23.9206
 104   2.0000      -0.871400       -23.7120
 105   2.0000      -0.865518       -23.5519
 106   2.0000      -0.859567       -23.3900
 107   2.0000      -0.854468       -23.2513
 108   2.0000      -0.850184       -23.1347
 109   2.0000      -0.845508       -23.0074
 110   2.0000      -0.836848       -22.7718
 111   2.0000      -0.831915       -22.6376
 112   2.0000      -0.823661       -22.4130
 113   2.0000      -0.816653       -22.2222
 114   2.0000      -0.809670       -22.0322
 115   2.0000      -0.777786       -21.1646
 116   2.0000      -0.774756       -21.0822
 117   2.0000      -0.771607       -20.9965
 118   2.0000      -0.768685       -20.9170
 119   2.0000      -0.758405       -20.6373
 120   2.0000      -0.753522       -20.5044
 121   2.0000      -0.751100       -20.4385
 122   2.0000      -0.749367       -20.3913
 123   2.0000      -0.748375       -20.3643
 124   2.0000      -0.745080       -20.2746
 125   2.0000      -0.727860       -19.8061
 126   2.0000      -0.721936       -19.6449
 127   2.0000      -0.715465       -19.4688
 128   2.0000      -0.712114       -19.3776
 129   2.0000      -0.705817       -19.2062
 130   2.0000      -0.704746       -19.1771
 131   2.0000      -0.701985       -19.1020
 132   2.0000      -0.701819       -19.0975
 133   2.0000      -0.696244       -18.9458
 134   2.0000      -0.688917       -18.7464
 135   2.0000      -0.674044       -18.3417
 136   2.0000      -0.667552       -18.1650
 137   2.0000      -0.666165       -18.1273
 138   2.0000      -0.665750       -18.1160
 139   2.0000      -0.655038       -17.8245
 140   2.0000      -0.651739       -17.7347
 141   2.0000      -0.647232       -17.6121
 142   2.0000      -0.643570       -17.5124
 143   2.0000      -0.638631       -17.3780
 144   2.0000      -0.630113       -17.1463
 145   2.0000      -0.615262       -16.7421
 146   2.0000      -0.609181       -16.5766
 147   2.0000      -0.607607       -16.5338
 148   2.0000      -0.601311       -16.3625
 149   2.0000      -0.600101       -16.3296
 150   2.0000      -0.594453       -16.1759
 151   2.0000      -0.593311       -16.1448
 152   2.0000      -0.590340       -16.0640
 153   2.0000      -0.582284       -15.8447
 154   2.0000      -0.579984       -15.7822
 155   2.0000      -0.578773       -15.7492
 156   2.0000      -0.576680       -15.6923
 157   2.0000      -0.574098       -15.6220
 158   2.0000      -0.569269       -15.4906
 159   2.0000      -0.566817       -15.4239
 160   2.0000      -0.565286       -15.3822
 161   2.0000      -0.561162       -15.2700
 162   2.0000      -0.559305       -15.2195
 163   2.0000      -0.557418       -15.1681
 164   2.0000      -0.552802       -15.0425
 165   2.0000      -0.548307       -14.9202
 166   2.0000      -0.545777       -14.8513
 167   2.0000      -0.543563       -14.7911
 168   2.0000      -0.542814       -14.7707
 169   2.0000      -0.541041       -14.7225
 170   2.0000      -0.539919       -14.6919
 171   2.0000      -0.537915       -14.6374
 172   2.0000      -0.537584       -14.6284
 173   2.0000      -0.536179       -14.5902
 174   2.0000      -0.533690       -14.5224
 175   2.0000      -0.533534       -14.5182
 176   2.0000      -0.531788       -14.4707
 177   2.0000      -0.529067       -14.3966
 178   2.0000      -0.527384       -14.3509
 179   2.0000      -0.526791       -14.3347
 180   2.0000      -0.524465       -14.2714
 181   2.0000      -0.523219       -14.2375
 182   2.0000      -0.522386       -14.2148
 183   2.0000      -0.517456       -14.0807
 184   2.0000      -0.514852       -14.0098
 185   2.0000      -0.513617       -13.9762
 186   2.0000      -0.512971       -13.9587
 187   2.0000      -0.510054       -13.8793
 188   2.0000      -0.508744       -13.8436
 189   2.0000      -0.507439       -13.8081
 190   2.0000      -0.506363       -13.7788
 191   2.0000      -0.502895       -13.6845
 192   2.0000      -0.501223       -13.6390
 193   2.0000      -0.500221       -13.6117
 194   2.0000      -0.496352       -13.5064
 195   2.0000      -0.492672       -13.4063
 196   2.0000      -0.489927       -13.3316
 197   2.0000      -0.487343       -13.2613
 198   2.0000      -0.486433       -13.2365
 199   2.0000      -0.485544       -13.2123
 200   2.0000      -0.482893       -13.1402
 201   2.0000      -0.482025       -13.1166
 202   2.0000      -0.478225       -13.0132
 203   2.0000      -0.477246       -12.9865
 204   2.0000      -0.475576       -12.9411
 205   2.0000      -0.475148       -12.9294
 206   2.0000      -0.470591       -12.8054
 207   2.0000      -0.468495       -12.7484
 208   2.0000      -0.466955       -12.7065
 209   2.0000      -0.463839       -12.6217
 210   2.0000      -0.462588       -12.5876
 211   2.0000      -0.457685       -12.4542
 212   2.0000      -0.456816       -12.4306
 213   2.0000      -0.455268       -12.3885
 214   2.0000      -0.455018       -12.3817
 215   2.0000      -0.453916       -12.3517
 216   2.0000      -0.451957       -12.2984
 217   2.0000      -0.451601       -12.2887
 218   2.0000      -0.448328       -12.1996
 219   2.0000      -0.447960       -12.1896
 220   2.0000      -0.446933       -12.1617
 221   2.0000      -0.445257       -12.1161
 222   2.0000      -0.441342       -12.0095
 223   2.0000      -0.440099       -11.9757
 224   2.0000      -0.436124       -11.8675
 225   2.0000      -0.430693       -11.7198
 226   2.0000      -0.429201       -11.6792
 227   2.0000      -0.427448       -11.6314
 228   2.0000      -0.426604       -11.6085
 229   2.0000      -0.421678       -11.4745
 230   2.0000      -0.421457       -11.4684
 231   2.0000      -0.406078       -11.0500
 232   2.0000      -0.402407       -10.9500
 233   2.0000      -0.398092       -10.8326
 234   2.0000      -0.395016       -10.7489
 235   2.0000      -0.378486       -10.2991
 236   2.0000      -0.370660       -10.0862
 237   2.0000      -0.370116       -10.0714
 238   2.0000      -0.366873        -9.9831
 239   2.0000      -0.366268        -9.9667
 240   2.0000      -0.363517        -9.8918
 241   2.0000      -0.360284        -9.8038
 242   2.0000      -0.359222        -9.7749
 243   2.0000      -0.356257        -9.6942
 244   2.0000      -0.354484        -9.6460
 245   2.0000      -0.349016        -9.4972
 246   2.0000      -0.348076        -9.4716
 247   2.0000      -0.347037        -9.4433
 248   2.0000      -0.346122        -9.4185
 249   2.0000      -0.345056        -9.3894
 250   2.0000      -0.344213        -9.3665
 251   2.0000      -0.343875        -9.3573
 252   2.0000      -0.340802        -9.2737
 253   2.0000      -0.338165        -9.2019
 254   2.0000      -0.336714        -9.1624
 255   2.0000      -0.335686        -9.1345
 256   2.0000      -0.321920        -8.7599
 257   2.0000      -0.316104        -8.6016
 258   2.0000      -0.300425        -8.1750
 259   2.0000      -0.293082        -7.9752
 260   2.0000      -0.279332        -7.6010
 261   0.0000      -0.077829        -2.1178
 262   0.0000      -0.068773        -1.8714
 263   0.0000      -0.056024        -1.5245
 264   0.0000      -0.049485        -1.3466
 265   0.0000      -0.041295        -1.1237

MULLIKEN ATOMIC CHARGES
-----------------------
   0 C :    0.005562
   1 C :   -0.021843
   2 C :   -0.010766
   3 C :    0.027246
   4 C :    0.198193
   5 O :   -0.162916
   6 N :   -0.309103
   7 C :    0.194111
   8 O :   -0.159493
   9 C :    0.110891
  10 C :    0.001716
  11 C :   -0.080498
  12 C :    0.120568
  13 C :   -0.003209
  14 C :   -0.031777
  15 C :    0.091356
  16 C :   -0.094585
  17 C :    0.013346
  18 C :    0.020581
  19 C :    0.188128
  20 O :   -0.154768
  21 N :   -0.303804
  22 C :    0.190892
  23 O :   -0.157744
  24 C :    0.133941
  25 C :   -0.007571
  26 C :   -0.097790
  27 C :    0.082192
  28 C :   -0.014396
  29 C :   -0.046631
  30 C :    0.034605
  31 C :   -0.090098
  32 C :    0.010834
  33 C :    0.030713
  34 C :    0.198249
  35 O :   -0.161666
  36 N :   -0.298694
  37 C :    0.185444
  38 O :   -0.151435
  39 C :    0.132684
  40 C :   -0.009889
  41 C :   -0.098827
  42 C :    0.138745
  43 C :    0.002163
  44 C :   -0.001090
  45 C :    0.121424
  46 C :   -0.119141
  47 C :    0.011357
  48 C :    0.000454
  49 C :    0.191994
  50 O :   -0.151083
  51 N :   -0.307211
  52 C :    0.191933
  53 O :   -0.160772
  54 C :    0.135857
  55 C :   -0.040670
  56 C :   -0.112637
  57 C :    0.124040
  58 C :   -0.039882
  59 C :   -0.025908
  60 C :    0.077395
  61 C :   -0.092765
  62 C :    0.013471
  63 C :    0.016563
  64 C :    0.188293
  65 O :   -0.160069
  66 N :   -0.303830
  67 C :    0.188504
  68 O :   -0.159642
  69 C :    0.133584
  70 C :   -0.007291
  71 C :   -0.090263
  72 C :    0.079159
  73 C :   -0.071167
  74 C :   -0.026770
  75 H :   -0.011186
  76 H :    0.001751
  77 H :    0.036722
  78 H :    0.040740
  79 H :    0.017194
  80 H :    0.024782
  81 H :    0.036306
  82 H :   -0.024684
  83 H :    0.012758
  84 H :    0.016049
  85 H :   -0.009952
  86 H :    0.031269
  87 H :    0.031294
  88 H :    0.028735
  89 H :    0.022567
  90 H :    0.024824
  91 H :   -0.006099
  92 H :    0.014044
  93 H :    0.037018
  94 H :   -0.005561
  95 H :    0.033203
  96 H :    0.032811
  97 H :    0.026153
  98 H :    0.024280
  99 H :    0.028080
 100 H :   -0.043368
 101 H :   -0.052408
 102 H :    0.000331
 103 H :   -0.019215
 104 H :    0.037859
 105 H :    0.023061
 106 H :    0.042700
 107 H :    0.016463
 108 H :    0.031362
 109 H :   -0.014648
 110 H :    0.036013
 111 H :    0.011769
 112 H :   -0.011681
 113 H :    0.031615
 114 H :    0.029209
 115 H :    0.028193
 116 H :    0.024390
 117 H :    0.020866
 118 H :   -0.007595
 119 H :    0.021968
 120 H :    0.026460
 121 H :    0.055067
Sum of atomic charges:   -0.0000000

LOEWDIN ATOMIC CHARGES
----------------------
   0 C :    0.005827
   1 C :    0.020546
   2 C :   -0.058379
   3 C :   -0.045568
   4 C :    0.090518
   5 O :   -0.156140
   6 N :   -0.027555
   7 C :    0.087667
   8 O :   -0.151909
   9 C :    0.040911
  10 C :   -0.058957
  11 C :    0.007804
  12 C :   -0.003254
  13 C :   -0.008012
  14 C :   -0.014416
  15 C :   -0.003725
  16 C :    0.020263
  17 C :   -0.049416
  18 C :   -0.051613
  19 C :    0.088263
  20 O :   -0.156820
  21 N :   -0.035700
  22 C :    0.088087
  23 O :   -0.158725
  24 C :    0.044473
  25 C :   -0.059332
  26 C :    0.019109
  27 C :   -0.009913
  28 C :   -0.010553
  29 C :   -0.017900
  30 C :   -0.007211
  31 C :    0.016804
  32 C :   -0.052323
  33 C :   -0.050377
  34 C :    0.091954
  35 O :   -0.160395
  36 N :   -0.033960
  37 C :    0.089259
  38 O :   -0.154355
  39 C :    0.044762
  40 C :   -0.059493
  41 C :    0.020543
  42 C :   -0.005156
  43 C :   -0.014523
  44 C :    0.002897
  45 C :   -0.004275
  46 C :    0.015566
  47 C :   -0.058210
  48 C :   -0.058587
  49 C :    0.085949
  50 O :   -0.154364
  51 N :   -0.032480
  52 C :    0.087050
  53 O :   -0.162523
  54 C :    0.047181
  55 C :   -0.068821
  56 C :    0.016591
  57 C :    0.003234
  58 C :   -0.008007
  59 C :   -0.008780
  60 C :   -0.009829
  61 C :    0.016053
  62 C :   -0.053833
  63 C :   -0.051385
  64 C :    0.088615
  65 O :   -0.159852
  66 N :   -0.037021
  67 C :    0.087927
  68 O :   -0.160996
  69 C :    0.044064
  70 C :   -0.059747
  71 C :    0.021613
  72 C :   -0.005004
  73 C :   -0.032488
  74 C :   -0.030721
  75 H :    0.034078
  76 H :    0.040818
  77 H :    0.030435
  78 H :    0.032546
  79 H :    0.025613
  80 H :    0.031809
  81 H :    0.030041
  82 H :    0.030591
  83 H :    0.033189
  84 H :    0.029893
  85 H :    0.037356
  86 H :    0.032289
  87 H :    0.032260
  88 H :    0.028569
  89 H :    0.030452
  90 H :    0.027730
  91 H :    0.039350
  92 H :    0.036148
  93 H :    0.033280
  94 H :    0.039340
  95 H :    0.032757
  96 H :    0.032926
  97 H :    0.027855
  98 H :    0.031113
  99 H :    0.028645
 100 H :    0.034401
 101 H :    0.021374
 102 H :    0.029857
 103 H :    0.033723
 104 H :    0.033923
 105 H :    0.028462
 106 H :    0.026850
 107 H :    0.029358
 108 H :    0.023375
 109 H :    0.034476
 110 H :    0.037904
 111 H :    0.031816
 112 H :    0.037353
 113 H :    0.031972
 114 H :    0.031521
 115 H :    0.028367
 116 H :    0.027544
 117 H :    0.029627
 118 H :    0.039190
 119 H :    0.029520
 120 H :    0.025525
 121 H :    0.023851

  Mayer bond orders larger than 0.100000
B(  0-C ,  1-C ) :   1.3508 B(  0-C , 12-C ) :   1.3583 B(  0-C , 75-H ) :   0.9977
B(  1-C ,  2-C ) :   1.3954 B(  1-C , 76-H ) :   1.0026 B(  2-C ,  3-C ) :   1.3647
B(  2-C ,  7-C ) :   0.8925 B(  3-C ,  4-C ) :   0.8740 B(  3-C , 11-C ) :   1.4028
B(  4-C ,  5-O ) :   2.1743 B(  4-C ,  6-N ) :   1.0725 B(  6-N ,  7-C ) :   1.0667
B(  6-N ,  9-C ) :   0.9118 B(  7-C ,  8-O ) :   2.1507 B(  9-C , 10-C ) :   1.1182
B(  9-C , 77-H ) :   0.9383 B(  9-C , 78-H ) :   0.9425 B( 10-C , 79-H ) :   0.9671
B( 10-C , 80-H ) :   0.9678 B( 10-C , 81-H ) :   0.9686 B( 11-C , 12-C ) :   1.3189
B( 11-C , 82-H ) :   1.0006 B( 12-C , 13-C ) :   1.0066 B( 13-C , 14-C ) :   1.8138
B( 13-C , 83-H ) :   0.9599 B( 14-C , 15-C ) :   1.0507 B( 14-C , 84-H ) :   0.9592
B( 15-C , 16-C ) :   1.3075 B( 15-C , 27-C ) :   1.3540 B( 16-C , 17-C ) :   1.4114
B( 16-C , 85-H ) :   1.0020 B( 17-C , 18-C ) :   1.3435 B( 17-C , 22-C ) :   0.8749
B( 18-C , 19-C ) :   0.8753 B( 18-C , 26-C ) :   1.4028 B( 19-C , 20-O ) :   2.2316
B( 19-C , 21-N ) :   1.0618 B( 21-N , 22-C ) :   1.0653 B( 21-N , 24-C ) :   0.9182
B( 22-C , 23-O ) :   2.2268 B( 24-C , 25-C ) :   1.1246 B( 24-C , 86-H ) :   0.9429
B( 24-C , 87-H ) :   0.9418 B( 25-C , 88-H ) :   0.9698 B( 25-C , 89-H ) :   0.9701
B( 25-C , 90-H ) :   0.9693 B( 26-C , 27-C ) :   1.2869 B( 26-C , 91-H ) :   1.0129
B( 27-C , 28-C ) :   1.0526 B( 28-C , 29-C ) :   1.8185 B( 28-C , 92-H ) :   0.9645
B( 29-C , 30-C ) :   0.9989 B( 29-C , 93-H ) :   0.9445 B( 30-C , 31-C ) :   1.3368
B( 30-C , 42-C ) :   1.3464 B( 31-C , 32-C ) :   1.3853 B( 31-C , 94-H ) :   1.0100
B( 32-C , 33-C ) :   1.3422 B( 32-C , 37-C ) :   0.8761 B( 33-C , 34-C ) :   0.8771
B( 33-C , 41-C ) :   1.4177 B( 34-C , 35-O ) :   2.1617 B( 34-C , 36-N ) :   1.0889
B( 36-N , 37-C ) :   1.0530 B( 36-N , 39-C ) :   0.9151 B( 37-C , 38-O ) :   2.2348
B( 39-C , 40-C ) :   1.1252 B( 39-C , 95-H ) :   0.9427 B( 39-C , 96-H ) :   0.9426
B( 40-C , 97-H ) :   0.9692 B( 40-C , 98-H ) :   0.9701 B( 40-C , 99-H ) :   0.9699
B( 41-C , 42-C ) :   1.2938 B( 41-C ,100-H ) :   1.0005 B( 42-C , 43-C ) :   1.0769
B( 43-C , 44-C ) :   1.7753 B( 43-C ,101-H ) :   0.9541 B( 44-C , 45-C ) :   1.0391
B( 44-C ,102-H ) :   0.9494 B( 45-C , 46-C ) :   1.3083 B( 45-C , 57-C ) :   1.3268
B( 46-C , 47-C ) :   1.3916 B( 46-C ,103-H ) :   1.0038 B( 47-C , 48-C ) :   1.3482
B( 47-C , 52-C ) :   0.8766 B( 48-C , 49-C ) :   0.8814 B( 48-C , 56-C ) :   1.3989
B( 49-C , 50-O ) :   2.2063 B( 49-C , 51-N ) :   1.0631 B( 51-N , 52-C ) :   1.0682
B( 51-N , 54-C ) :   0.9132 B( 52-C , 53-O ) :   2.2134 B( 54-C , 55-C ) :   1.1241
B( 54-C ,104-H ) :   0.9392 B( 54-C ,105-H ) :   0.9490 B( 55-C ,106-H ) :   0.9570
B( 55-C ,107-H ) :   0.9611 B( 55-C ,108-H ) :   0.9646 B( 56-C , 57-C ) :   1.3137
B( 56-C ,109-H ) :   1.0030 B( 57-C , 58-C ) :   1.0508 B( 58-C , 59-C ) :   1.7811
B( 58-C ,110-H ) :   0.9551 B( 59-C , 60-C ) :   1.0299 B( 59-C ,111-H ) :   0.9612
B( 60-C , 61-C ) :   1.2928 B( 60-C , 72-C ) :   1.3649 B( 61-C , 62-C ) :   1.4037
B( 61-C ,112-H ) :   1.0134 B( 62-C , 63-C ) :   1.3483 B( 62-C , 67-C ) :   0.8765
B( 63-C , 64-C ) :   0.8799 B( 63-C , 71-C ) :   1.3971 B( 64-C , 65-O ) :   2.2255
B( 64-C , 66-N ) :   1.0604 B( 66-N , 67-C ) :   1.0643 B( 66-N , 69-C ) :   0.9192
B( 67-C , 68-O ) :   2.2277 B( 69-C , 70-C ) :   1.1250 B( 69-C ,113-H ) :   0.9420
B( 69-C ,114-H ) :   0.9429 B( 70-C ,115-H ) :   0.9697 B( 70-C ,116-H ) :   0.9692
B( 70-C ,117-H ) :   0.9699 B( 71-C , 72-C ) :   1.3199 B( 71-C ,118-H ) :   1.0083
B( 72-C , 73-C ) :   1.0333 B( 73-C , 74-C ) :   1.9473 B( 73-C ,119-H ) :   0.9507
B( 74-C ,120-H ) :   0.9594 B( 74-C ,121-H ) :   0.9277

-----------------------------------------------------------------------------
         ABSORPTION SPECTRUM VIA TRANSITION ELECTRIC DIPOLE MOMENTS
-----------------------------------------------------------------------------
State   Energy  Wavelength   fosc         T2         TX        TY        TZ
        (cm-1)    (nm)                  (au**2)     (au)      (au)      (au)
-----------------------------------------------------------------------------
   0   27452.5    364.3   0.536468253   6.43336   2.49936   0.08355   0.42375
   1   30142.1    331.8   0.096275977   1.05152   0.78756   0.12333  -0.64503
   2   30355.1    329.4   0.007468591   0.08100  -0.04651   0.19221   0.20467
   3   31505.1    317.4   0.115027089   1.20197   0.97194   0.49423  -0.11422
   4   31950.0    313.0   0.112096591   1.15504   0.46033  -0.92655   0.29094
   5   32742.8    305.4   0.931219261   9.36294  -1.67549  -2.47754   0.64614
   6   33836.9    295.5   0.098715146   0.96044   0.23708   0.94001  -0.14355
   7   34052.5    293.7   0.108387577   1.04787   0.62170  -0.81031   0.06895
   8   34346.3    291.2   0.048712195   0.46691   0.35841  -0.58174   0.00519
   9   34964.2    286.0   0.013392083   0.12610  -0.25547   0.23276  -0.08158
  10   35269.4    283.5   0.159147349   1.48552   1.14770  -0.40705  -0.05103
  11   35532.6    281.4   0.063633394   0.58957  -0.60992   0.43078  -0.17886
  12   36296.0    275.5   0.141189474   1.28062   0.78519  -0.73378   0.35447
  13   36697.6    272.5   0.055718672   0.49985   0.41509  -0.50563   0.26812
  14   36969.9    270.5   0.071880645   0.64009   0.31009  -0.73141   0.09471
  15   37365.4    267.6   0.072746570   0.64094  -0.29199   0.73439  -0.12785
  16   37418.9    267.2   0.292441925   2.57291  -0.52176   1.51660  -0.02475
  17   37692.6    265.3   0.184814114   1.61419   0.36286  -1.19718   0.22198
  18   38046.0    262.8   0.175072707   1.51490  -0.95741   0.70519  -0.31778
  19   38703.4    258.4   0.045510971   0.38712  -0.02916   0.60867  -0.12566
  20   39061.1    256.0   0.150565132   1.26898   0.88011  -0.69726   0.09064
  21   39683.3    252.0   0.320987454   2.66291   1.57592  -0.42351   0.00469
  22   39857.9    250.9   0.034461945   0.28464   0.43599   0.30042  -0.06558
  23   40111.3    249.3   0.067339206   0.55268  -0.72427  -0.06326  -0.15531

FINAL SINGLE POINT ENERGY     -3336.759223883579

DIPOLE MOMENT
-------------
                                X             Y             Z
Electronic contribution:     -8.63891       2.37240      -3.15081
Nuclear contribution   :      7.70535      -2.26435       3.22412
                        -----------------------------------------
Total Dipole Moment    :     -0.93356       0.10805       0.07331
                        -----------------------------------------
Magnitude (a.u.)       :      0.94265
Magnitude (Debye)      :      2.39603

Rotational constants in cm-1:     0.001065     0.000514     0.000367
Rotational constants in MHz :    31.929199    15.407702    11.010150

                             ****ORCA TERMINATED NORMALLY****
TOTAL RUN TIME: 0 days 0 hours 11 minutes 17 seconds 888 msec
