                         Program Version 4.2.0 -  RELEASE  -
|  1> # ORCA input file
|  2> # SCF done       -205.298798748604          0.000422093312
|  3> ! CAM-B3LYP def2-SVP def2/J RIJCOSX Grid4 TightSCF
|  4> %maxcore 5000
|  5> %tddft
|  6>     Mode sTDDFT
|  7>     Ethresh 5.0
|  8>     maxcore 5000
|  9> end
| 10>
| 11> %pal
| 12>   nprocs 6
| 13>   end
| 14> * xyz 0 1
| 15>    C        4.79430        -0.10055        -3.65006
| 16>    C        4.06856         0.85149        -4.52353
| 17>    O        2.86450         0.95710        -4.63268
| 18>    C        5.12399         1.66465        -5.16668
| 19>    C        6.37543         1.16035        -4.81468
| 20>    C        6.19239        -0.02217        -3.97786
| 21>    C        7.11120        -1.02023        -3.77451
| 22>    C        6.78192        -2.26570        -3.20387
| 23>    N        6.56813        -3.31943        -2.79999
| 24>    C        8.45580        -0.95383        -4.18683
| 25>    N        9.56466        -0.94101        -4.48584
| 26>    C        7.54886         1.76843        -5.27709
| 27>    C        7.44417         2.86917        -6.08724
| 28>    C        6.19338         3.39799        -6.47313
| 29>    C        4.99271         2.78828        -6.00473
| 30>    C        3.74686         3.32283        -6.39288
| 31>    C        3.69245         4.41509        -7.21342
| 32>    C        4.87211         5.01862        -7.67890
| 33>    C        6.09422         4.52290        -7.31746
| 34>    C        4.15407        -0.83359        -2.69313
| 35>    C        4.70116        -1.36117        -1.50586
| 36>    C        4.17734        -2.46674        -0.88663
| 37>    C        4.68390        -2.79577         0.42526
| 38>    O        4.12796        -3.78445         1.15152
| 39>    C        2.98781        -4.39960         0.58456
| 40>    C        3.15502        -4.54382        -0.92205
| 41>    O        3.28326        -3.26250        -1.50845
| 42>    C        5.67482        -1.97463         0.90250
| 43>   Si        5.90860        -0.50926        -0.28341
| 44>    C        7.72282        -0.27726        -0.79966
| 45>    C        5.01303         1.13802         0.07985
| 46>    C        6.40415        -2.11921         2.10734
| 47>    C        6.66621        -3.31945         2.80612
| 48>    C        7.41924        -3.31672         4.03329
| 49>    N        7.58564        -4.46931         4.70179
| 50>    C        7.11613        -5.57734         4.21765
| 51>    C        6.46921        -5.58462         2.95858
| 52>    N        6.26127        -4.49677         2.29580
| 53>    F        6.05370        -6.73284         2.41939
| 54>    F        7.26659        -6.69077         4.93390
| 55>    C        8.02770        -2.16629         4.59642
| 56>    C        7.77730        -0.96284         3.88742
| 57>    C        7.00161        -0.96762         2.66913
| 58>    N        6.87607         0.25094         2.15127
| 59>    S        7.64510         1.30370         3.10333
| 60>    N        8.16270         0.26897         4.20820
| 61>    C        8.75282        -2.36018         5.78572
| 62>    C        9.56713        -1.47616         6.45112
| 63>    C       10.11092        -1.94577         7.69937
| 64>    O       10.73999        -1.09580         8.54741
| 65>    C       10.67785         0.26912         8.18429
| 66>    C       10.91293         0.40742         6.68587
| 67>    O        9.88536        -0.25623         5.98149
| 68>    C        9.89191        -3.26366         8.00989
| 69>   Si        8.82387        -4.06528         6.61722
| 70>    C        7.25698        -4.67401         7.52252
| 71>    C       10.09454        -5.30717         5.92467
| 72>    C       10.33126        -3.93795         9.15382
| 73>    C       11.37495        -3.71283        10.01706
| 74>    C       11.34819        -4.38109        11.34432
| 75>    O       10.60902        -5.28478        11.67608
| 76>    C       12.36364        -3.68136        12.15679
| 77>    C       13.02527        -2.75159        11.35734
| 78>    C       12.50917        -2.83861         9.99036
| 79>    C       13.11813        -2.30546         8.87774
| 80>    C       12.77688        -2.65672         7.56171
| 81>    N       12.54997        -2.91235         6.46410
| 82>    C       14.17367        -1.37639         8.90412
| 83>    N       14.99151        -0.57104         8.84206
| 84>    C       14.03102        -1.93940        11.89513
| 85>    C       14.34895        -2.07386        13.22226
| 86>    C       13.70117        -3.00953        14.05679
| 87>    C       12.67806        -3.84364        13.51886
| 88>    C       12.03390        -4.77868        14.35528
| 89>    C       12.38898        -4.88273        15.67125
| 90>    C       13.39595        -4.06276        16.20678
| 91>    C       14.03760        -3.14749        15.41930
| 92>    H        8.51625         1.38549        -4.99442
| 93>    H        8.33862         3.35520        -6.44962
| 94>    H        2.84829         2.85006        -6.02908
| 95>    H        2.73798         4.82312        -7.51105
| 96>    H        4.80581         5.88023        -8.32684
| 97>    H        7.00338         4.98465        -7.67510
| 98>    H        3.07790        -0.92383        -2.81965
| 99>    H        2.89306        -5.37178         1.07121
|100>    H        2.09708        -3.79192         0.79954
|101>    H        2.28137        -5.00798        -1.38083
|102>    H        4.05224        -5.13660        -1.13997
|103>    H        8.16354        -1.19857        -1.16632
|104>    H        8.30654         0.04749         0.05387
|105>    H        7.82133         0.48294        -1.56680
|106>    H        4.19714         0.99784         0.78123
|107>    H        4.59499         1.54573        -0.83606
|108>    H        5.68772         1.87309         0.50090
|109>    H       11.45089         0.77736         8.76338
|110>    H        9.69164         0.67729         8.44318
|111>    H       10.87980         1.44962         6.36619
|112>    H       11.88620        -0.03028         6.42516
|113>    H        6.35805        -4.20145         7.14052
|114>    H        7.31116        -4.47458         8.58725
|115>    H        7.14506        -5.74421         7.39384
|116>    H       11.04159        -4.80373         5.75037
|117>    H        9.79109        -5.78353         5.00104
|118>    H       10.27278        -6.08969         6.65537
|119>    H        9.72014        -4.79039         9.43975
|120>    H       14.54290        -1.21397        11.28375
|121>    H       15.11901        -1.45042        13.65383
|122>    H       11.26213        -5.40175        13.93170
|123>    H       11.89565        -5.59902        16.31136
|124>    H       13.65992        -4.16178        17.24948
|125>    H       14.81332        -2.51631        15.82880
|126> *
|127>
|128>                          ****END OF INPUT****

CARTESIAN COORDINATES (ANGSTROEM)
---------------------------------
  C      4.794300   -0.100550   -3.650060
  C      4.068560    0.851490   -4.523530
  O      2.864500    0.957100   -4.632680
  C      5.123990    1.664650   -5.166680
  C      6.375430    1.160350   -4.814680
  C      6.192390   -0.022170   -3.977860
  C      7.111200   -1.020230   -3.774510
  C      6.781920   -2.265700   -3.203870
  N      6.568130   -3.319430   -2.799990
  C      8.455800   -0.953830   -4.186830
  N      9.564660   -0.941010   -4.485840
  C      7.548860    1.768430   -5.277090
  C      7.444170    2.869170   -6.087240
  C      6.193380    3.397990   -6.473130
  C      4.992710    2.788280   -6.004730
  C      3.746860    3.322830   -6.392880
  C      3.692450    4.415090   -7.213420
  C      4.872110    5.018620   -7.678900
  C      6.094220    4.522900   -7.317460
  C      4.154070   -0.833590   -2.693130
  C      4.701160   -1.361170   -1.505860
  C      4.177340   -2.466740   -0.886630
  C      4.683900   -2.795770    0.425260
  O      4.127960   -3.784450    1.151520
  C      2.987810   -4.399600    0.584560
  C      3.155020   -4.543820   -0.922050
  O      3.283260   -3.262500   -1.508450
  C      5.674820   -1.974630    0.902500
  Si     5.908600   -0.509260   -0.283410
  C      7.722820   -0.277260   -0.799660
  C      5.013030    1.138020    0.079850
  C      6.404150   -2.119210    2.107340
  C      6.666210   -3.319450    2.806120
  C      7.419240   -3.316720    4.033290
  N      7.585640   -4.469310    4.701790
  C      7.116130   -5.577340    4.217650
  C      6.469210   -5.584620    2.958580
  N      6.261270   -4.496770    2.295800
  F      6.053700   -6.732840    2.419390
  F      7.266590   -6.690770    4.933900
  C      8.027700   -2.166290    4.596420
  C      7.777300   -0.962840    3.887420
  C      7.001610   -0.967620    2.669130
  N      6.876070    0.250940    2.151270
  S      7.645100    1.303700    3.103330
  N      8.162700    0.268970    4.208200
  C      8.752820   -2.360180    5.785720
  C      9.567130   -1.476160    6.451120
  C     10.110920   -1.945770    7.699370
  O     10.739990   -1.095800    8.547410
  C     10.677850    0.269120    8.184290
  C     10.912930    0.407420    6.685870
  O      9.885360   -0.256230    5.981490
  C      9.891910   -3.263660    8.009890
  Si     8.823870   -4.065280    6.617220
  C      7.256980   -4.674010    7.522520
  C     10.094540   -5.307170    5.924670
  C     10.331260   -3.937950    9.153820
  C     11.374950   -3.712830   10.017060
  C     11.348190   -4.381090   11.344320
  O     10.609020   -5.284780   11.676080
  C     12.363640   -3.681360   12.156790
  C     13.025270   -2.751590   11.357340
  C     12.509170   -2.838610    9.990360
  C     13.118130   -2.305460    8.877740
  C     12.776880   -2.656720    7.561710
  N     12.549970   -2.912350    6.464100
  C     14.173670   -1.376390    8.904120
  N     14.991510   -0.571040    8.842060
  C     14.031020   -1.939400   11.895130
  C     14.348950   -2.073860   13.222260
  C     13.701170   -3.009530   14.056790
  C     12.678060   -3.843640   13.518860
  C     12.033900   -4.778680   14.355280
  C     12.388980   -4.882730   15.671250
  C     13.395950   -4.062760   16.206780
  C     14.037600   -3.147490   15.419300
  H      8.516250    1.385490   -4.994420
  H      8.338620    3.355200   -6.449620
  H      2.848290    2.850060   -6.029080
  H      2.737980    4.823120   -7.511050
  H      4.805810    5.880230   -8.326840
  H      7.003380    4.984650   -7.675100
  H      3.077900   -0.923830   -2.819650
  H      2.893060   -5.371780    1.071210
  H      2.097080   -3.791920    0.799540
  H      2.281370   -5.007980   -1.380830
  H      4.052240   -5.136600   -1.139970
  H      8.163540   -1.198570   -1.166320
  H      8.306540    0.047490    0.053870
  H      7.821330    0.482940   -1.566800
  H      4.197140    0.997840    0.781230
  H      4.594990    1.545730   -0.836060
  H      5.687720    1.873090    0.500900
  H     11.450890    0.777360    8.763380
  H      9.691640    0.677290    8.443180
  H     10.879800    1.449620    6.366190
  H     11.886200   -0.030280    6.425160
  H      6.358050   -4.201450    7.140520
  H      7.311160   -4.474580    8.587250
  H      7.145060   -5.744210    7.393840
  H     11.041590   -4.803730    5.750370
  H      9.791090   -5.783530    5.001040
  H     10.272780   -6.089690    6.655370
  H      9.720140   -4.790390    9.439750
  H     14.542900   -1.213970   11.283750
  H     15.119010   -1.450420   13.653830
  H     11.262130   -5.401750   13.931700
  H     11.895650   -5.599020   16.311360
  H     13.659920   -4.161780   17.249480
  H     14.813320   -2.516310   15.828800

 Total Charge           Charge          ....    0
 Multiplicity           Mult            ....    1
 Number of Electrons    NEL             ....  548
 Basis Dimension        Dim             .... 1260

ORBITAL ENERGIES
----------------

  NO   OCC          E(Eh)            E(eV)
   0   2.0000     -89.035556     -2422.7807
   1   2.0000     -66.199398     -1801.3772
   2   2.0000     -66.195070     -1801.2594
   3   2.0000     -24.825407      -675.5337
   4   2.0000     -24.809949      -675.1130
   5   2.0000     -19.275104      -524.5022
   6   2.0000     -19.269250      -524.3430
   7   2.0000     -19.264820      -524.2224
   8   2.0000     -19.264008      -524.2003
   9   2.0000     -19.204810      -522.5895
  10   2.0000     -19.204685      -522.5861
  11   2.0000     -14.469429      -393.7332
  12   2.0000     -14.446600      -393.1120
  13   2.0000     -14.445268      -393.0757
  14   2.0000     -14.444095      -393.0438
  15   2.0000     -14.408213      -392.0674
  16   2.0000     -14.406730      -392.0271
  17   2.0000     -14.406052      -392.0086
  18   2.0000     -14.404241      -391.9593
  19   2.0000     -10.434897      -283.9480
  20   2.0000     -10.424250      -283.6583
  21   2.0000     -10.355659      -281.7918
  22   2.0000     -10.354640      -281.7641
  23   2.0000     -10.353527      -281.7338
  24   2.0000     -10.353104      -281.7223
  25   2.0000     -10.353039      -281.7205
  26   2.0000     -10.352883      -281.7163
  27   2.0000     -10.345537      -281.5164
  28   2.0000     -10.343979      -281.4740
  29   2.0000     -10.342430      -281.4318
  30   2.0000     -10.341106      -281.3958
  31   2.0000     -10.338978      -281.3379
  32   2.0000     -10.337687      -281.3028
  33   2.0000     -10.333133      -281.1788
  34   2.0000     -10.331098      -281.1235
  35   2.0000     -10.330246      -281.1003
  36   2.0000     -10.327329      -281.0209
  37   2.0000     -10.327286      -281.0197
  38   2.0000     -10.323149      -280.9072
  39   2.0000     -10.311183      -280.5816
  40   2.0000     -10.310949      -280.5752
  41   2.0000     -10.308873      -280.5187
  42   2.0000     -10.307327      -280.4766
  43   2.0000     -10.307093      -280.4703
  44   2.0000     -10.300136      -280.2810
  45   2.0000     -10.299696      -280.2690
  46   2.0000     -10.298214      -280.2287
  47   2.0000     -10.295439      -280.1531
  48   2.0000     -10.294181      -280.1189
  49   2.0000     -10.288209      -279.9564
  50   2.0000     -10.287222      -279.9295
  51   2.0000     -10.286890      -279.9205
  52   2.0000     -10.285849      -279.8922
  53   2.0000     -10.284965      -279.8681
  54   2.0000     -10.284709      -279.8612
  55   2.0000     -10.284478      -279.8549
  56   2.0000     -10.283159      -279.8190
  57   2.0000     -10.280825      -279.7555
  58   2.0000     -10.280527      -279.7473
  59   2.0000     -10.276763      -279.6449
  60   2.0000     -10.276449      -279.6364
  61   2.0000     -10.276251      -279.6310
  62   2.0000     -10.275924      -279.6221
  63   2.0000     -10.274804      -279.5916
  64   2.0000     -10.274259      -279.5768
  65   2.0000     -10.274220      -279.5757
  66   2.0000     -10.272304      -279.5236
  67   2.0000     -10.269850      -279.4568
  68   2.0000     -10.267626      -279.3963
  69   2.0000     -10.263235      -279.2768
  70   2.0000     -10.259988      -279.1885
  71   2.0000     -10.255130      -279.0563
  72   2.0000     -10.246697      -278.8268
  73   2.0000     -10.243237      -278.7327
  74   2.0000     -10.238923      -278.6153
  75   2.0000     -10.238709      -278.6094
  76   2.0000     -10.228617      -278.3348
  77   2.0000      -8.126806      -221.1416
  78   2.0000      -6.097947      -165.9336
  79   2.0000      -6.090221      -165.7233
  80   2.0000      -6.089439      -165.7021
  81   2.0000      -5.361909      -145.9050
  82   2.0000      -5.355682      -145.7355
  83   2.0000      -3.726281      -101.3973
  84   2.0000      -3.723803      -101.3298
  85   2.0000      -3.722843      -101.3037
  86   2.0000      -3.720327      -101.2353
  87   2.0000      -3.717932      -101.1701
  88   2.0000      -3.716337      -101.1267
  89   2.0000      -1.347212       -36.6595
  90   2.0000      -1.327190       -36.1147
  91   2.0000      -1.199587       -32.6424
  92   2.0000      -1.197137       -32.5758
  93   2.0000      -1.159426       -31.5496
  94   2.0000      -1.157525       -31.4979
  95   2.0000      -1.133549       -30.8454
  96   2.0000      -1.118504       -30.4360
  97   2.0000      -1.118182       -30.4273
  98   2.0000      -1.116202       -30.3734
  99   2.0000      -1.040459       -28.3123
 100   2.0000      -1.008429       -27.4408
 101   2.0000      -1.008259       -27.4361
 102   2.0000      -0.989393       -26.9227
 103   2.0000      -0.989050       -26.9134
 104   2.0000      -0.988553       -26.8999
 105   2.0000      -0.986409       -26.8416
 106   2.0000      -0.983637       -26.7661
 107   2.0000      -0.968256       -26.3476
 108   2.0000      -0.959533       -26.1102
 109   2.0000      -0.956773       -26.0351
 110   2.0000      -0.938341       -25.5336
 111   2.0000      -0.932989       -25.3879
 112   2.0000      -0.913413       -24.8552
 113   2.0000      -0.910534       -24.7769
 114   2.0000      -0.894117       -24.3302
 115   2.0000      -0.891132       -24.2489
 116   2.0000      -0.887935       -24.1619
 117   2.0000      -0.880289       -23.9539
 118   2.0000      -0.875638       -23.8273
 119   2.0000      -0.869681       -23.6652
 120   2.0000      -0.851281       -23.1645
 121   2.0000      -0.849082       -23.1047
 122   2.0000      -0.848233       -23.0816
 123   2.0000      -0.839790       -22.8518
 124   2.0000      -0.834573       -22.7099
 125   2.0000      -0.829380       -22.5686
 126   2.0000      -0.817925       -22.2569
 127   2.0000      -0.810589       -22.0573
 128   2.0000      -0.808751       -22.0072
 129   2.0000      -0.786952       -21.4141
 130   2.0000      -0.783218       -21.3125
 131   2.0000      -0.773696       -21.0534
 132   2.0000      -0.771758       -21.0006
 133   2.0000      -0.769266       -20.9328
 134   2.0000      -0.763741       -20.7825
 135   2.0000      -0.760102       -20.6834
 136   2.0000      -0.757281       -20.6067
 137   2.0000      -0.757176       -20.6038
 138   2.0000      -0.753228       -20.4964
 139   2.0000      -0.738194       -20.0873
 140   2.0000      -0.721186       -19.6245
 141   2.0000      -0.717692       -19.5294
 142   2.0000      -0.714006       -19.4291
 143   2.0000      -0.705034       -19.1849
 144   2.0000      -0.702651       -19.1201
 145   2.0000      -0.696086       -18.9415
 146   2.0000      -0.694820       -18.9070
 147   2.0000      -0.685037       -18.6408
 148   2.0000      -0.675948       -18.3935
 149   2.0000      -0.668651       -18.1949
 150   2.0000      -0.666344       -18.1322
 151   2.0000      -0.665476       -18.1085
 152   2.0000      -0.664595       -18.0845
 153   2.0000      -0.662753       -18.0344
 154   2.0000      -0.661615       -18.0035
 155   2.0000      -0.644865       -17.5477
 156   2.0000      -0.641169       -17.4471
 157   2.0000      -0.637343       -17.3430
 158   2.0000      -0.630609       -17.1597
 159   2.0000      -0.628317       -17.0974
 160   2.0000      -0.620906       -16.8957
 161   2.0000      -0.619038       -16.8449
 162   2.0000      -0.618490       -16.8300
 163   2.0000      -0.615394       -16.7457
 164   2.0000      -0.608858       -16.5679
 165   2.0000      -0.605493       -16.4763
 166   2.0000      -0.591889       -16.1061
 167   2.0000      -0.582240       -15.8436
 168   2.0000      -0.581480       -15.8229
 169   2.0000      -0.579191       -15.7606
 170   2.0000      -0.578267       -15.7355
 171   2.0000      -0.575844       -15.6695
 172   2.0000      -0.571851       -15.5609
 173   2.0000      -0.567251       -15.4357
 174   2.0000      -0.565422       -15.3859
 175   2.0000      -0.564144       -15.3511
 176   2.0000      -0.561000       -15.2656
 177   2.0000      -0.555434       -15.1141
 178   2.0000      -0.551019       -14.9940
 179   2.0000      -0.550399       -14.9771
 180   2.0000      -0.544724       -14.8227
 181   2.0000      -0.541340       -14.7306
 182   2.0000      -0.540791       -14.7157
 183   2.0000      -0.537606       -14.6290
 184   2.0000      -0.534160       -14.5352
 185   2.0000      -0.529850       -14.4179
 186   2.0000      -0.525558       -14.3012
 187   2.0000      -0.523938       -14.2571
 188   2.0000      -0.522370       -14.2144
 189   2.0000      -0.521424       -14.1887
 190   2.0000      -0.519342       -14.1320
 191   2.0000      -0.517416       -14.0796
 192   2.0000      -0.517249       -14.0751
 193   2.0000      -0.511787       -13.9264
 194   2.0000      -0.510668       -13.8960
 195   2.0000      -0.507388       -13.8067
 196   2.0000      -0.505070       -13.7436
 197   2.0000      -0.502975       -13.6867
 198   2.0000      -0.501124       -13.6363
 199   2.0000      -0.500339       -13.6149
 200   2.0000      -0.498901       -13.5758
 201   2.0000      -0.497948       -13.5499
 202   2.0000      -0.496518       -13.5109
 203   2.0000      -0.495740       -13.4898
 204   2.0000      -0.494411       -13.4536
 205   2.0000      -0.488005       -13.2793
 206   2.0000      -0.485365       -13.2075
 207   2.0000      -0.484171       -13.1750
 208   2.0000      -0.482342       -13.1252
 209   2.0000      -0.481188       -13.0938
 210   2.0000      -0.479805       -13.0561
 211   2.0000      -0.476402       -12.9636
 212   2.0000      -0.474479       -12.9112
 213   2.0000      -0.472474       -12.8567
 214   2.0000      -0.469742       -12.7823
 215   2.0000      -0.468753       -12.7554
 216   2.0000      -0.467490       -12.7211
 217   2.0000      -0.464794       -12.6477
 218   2.0000      -0.463195       -12.6042
 219   2.0000      -0.461104       -12.5473
 220   2.0000      -0.459217       -12.4959
 221   2.0000      -0.458362       -12.4727
 222   2.0000      -0.452677       -12.3180
 223   2.0000      -0.446599       -12.1526
 224   2.0000      -0.442946       -12.0532
 225   2.0000      -0.441503       -12.0139
 226   2.0000      -0.437496       -11.9049
 227   2.0000      -0.435225       -11.8431
 228   2.0000      -0.434039       -11.8108
 229   2.0000      -0.432332       -11.7644
 230   2.0000      -0.431252       -11.7350
 231   2.0000      -0.429786       -11.6951
 232   2.0000      -0.424776       -11.5587
 233   2.0000      -0.423931       -11.5357
 234   2.0000      -0.422908       -11.5079
 235   2.0000      -0.422524       -11.4975
 236   2.0000      -0.421474       -11.4689
 237   2.0000      -0.419802       -11.4234
 238   2.0000      -0.418857       -11.3977
 239   2.0000      -0.416867       -11.3435
 240   2.0000      -0.415398       -11.3035
 241   2.0000      -0.411477       -11.1969
 242   2.0000      -0.411167       -11.1884
 243   2.0000      -0.408748       -11.1226
 244   2.0000      -0.405116       -11.0238
 245   2.0000      -0.404149       -10.9975
 246   2.0000      -0.398411       -10.8413
 247   2.0000      -0.394532       -10.7358
 248   2.0000      -0.391227       -10.6458
 249   2.0000      -0.390851       -10.6356
 250   2.0000      -0.387608       -10.5474
 251   2.0000      -0.382779       -10.4159
 252   2.0000      -0.381619       -10.3844
 253   2.0000      -0.378737       -10.3060
 254   2.0000      -0.374721       -10.1967
 255   2.0000      -0.370166       -10.0727
 256   2.0000      -0.363841        -9.9006
 257   2.0000      -0.363357        -9.8875
 258   2.0000      -0.354711        -9.6522
 259   2.0000      -0.348806        -9.4915
 260   2.0000      -0.345172        -9.3926
 261   2.0000      -0.341182        -9.2840
 262   2.0000      -0.338548        -9.2124
 263   2.0000      -0.337467        -9.1829
 264   2.0000      -0.325951        -8.8696
 265   2.0000      -0.321054        -8.7363
 266   2.0000      -0.316644        -8.6163
 267   2.0000      -0.308048        -8.3824
 268   2.0000      -0.303136        -8.2488
 269   2.0000      -0.292252        -7.9526
 270   2.0000      -0.285539        -7.7699
 271   2.0000      -0.281474        -7.6593
 272   2.0000      -0.267142        -7.2693
 273   2.0000      -0.224367        -6.1053
 274   0.0000      -0.110540        -3.0080
 275   0.0000      -0.071377        -1.9423
 276   0.0000      -0.066746        -1.8162
 277   0.0000      -0.058589        -1.5943
 278   0.0000      -0.056235        -1.5302

MULLIKEN ATOMIC CHARGES
-----------------------
   0 C :   -0.124286
   1 C :    0.126689
   2 O :   -0.155224
   3 C :    0.001752
   4 C :   -0.006460
   5 C :    0.267010
   6 C :   -0.369340
   7 C :   -0.181549
   8 N :    0.155291
   9 C :   -0.181142
  10 N :    0.156162
  11 C :   -0.024873
  12 C :    0.003222
  13 C :    0.078354
  14 C :    0.029116
  15 C :   -0.023497
  16 C :    0.036948
  17 C :    0.033741
  18 C :   -0.018904
  19 C :    0.039656
  20 C :   -0.274463
  21 C :    0.162460
  22 C :    0.162367
  23 O :   -0.271199
  24 C :    0.184971
  25 C :    0.166409
  26 O :   -0.273878
  27 C :   -0.343539
  28 Si:    0.542312
  29 C :   -0.154302
  30 C :   -0.145344
  31 C :    0.188778
  32 C :   -0.124306
  33 C :    0.034064
  34 N :   -0.155395
  35 C :    0.182934
  36 C :    0.136432
  37 N :    0.062592
  38 F :   -0.150641
  39 F :   -0.142478
  40 C :    0.202754
  41 C :   -0.045063
  42 C :    0.034645
  43 N :   -0.355344
  44 S :    0.522778
  45 N :   -0.248075
  46 C :   -0.344929
  47 C :    0.146652
  48 C :    0.094283
  49 O :   -0.280161
  50 C :    0.172213
  51 C :    0.181477
  52 O :   -0.254451
  53 C :   -0.212646
  54 Si:    0.562568
  55 C :   -0.171426
  56 C :   -0.148231
  57 C :    0.027330
  58 C :   -0.106361
  59 C :    0.115115
  60 O :   -0.158668
  61 C :    0.003355
  62 C :   -0.003145
  63 C :    0.306676
  64 C :   -0.356664
  65 C :   -0.177500
  66 N :    0.146524
  67 C :   -0.193921
  68 N :    0.139409
  69 C :   -0.031405
  70 C :    0.001753
  71 C :    0.079431
  72 C :    0.034632
  73 C :   -0.026128
  74 C :    0.035285
  75 C :    0.036077
  76 C :   -0.022410
  77 H :   -0.003807
  78 H :   -0.016971
  79 H :   -0.001573
  80 H :   -0.010337
  81 H :   -0.008720
  82 H :   -0.024542
  83 H :    0.019411
  84 H :    0.036553
  85 H :    0.030021
  86 H :    0.039055
  87 H :    0.056890
  88 H :    0.059911
  89 H :    0.027476
  90 H :    0.044162
  91 H :    0.038796
  92 H :    0.034363
  93 H :    0.018030
  94 H :    0.046796
  95 H :    0.036099
  96 H :    0.034344
  97 H :    0.047489
  98 H :    0.029806
  99 H :    0.039486
 100 H :    0.041966
 101 H :    0.059963
 102 H :    0.010457
 103 H :    0.036742
 104 H :    0.014148
 105 H :   -0.006269
 106 H :   -0.018627
 107 H :   -0.002298
 108 H :   -0.010181
 109 H :   -0.010508
 110 H :   -0.025001
Sum of atomic charges:   -0.0000000

LOEWDIN ATOMIC CHARGES
----------------------
   0 C :   -0.107395
   1 C :    0.084815
   2 O :   -0.150078
   3 C :   -0.033352
   4 C :   -0.007520
   5 C :    0.067308
   6 C :   -0.139834
   7 C :   -0.011679
   8 N :   -0.062623
   9 C :   -0.021813
  10 N :   -0.057651
  11 C :   -0.019069
  12 C :    0.013705
  13 C :   -0.010731
  14 C :   -0.003982
  15 C :   -0.002713
  16 C :   -0.015466
  17 C :   -0.016202
  18 C :   -0.014013
  19 C :    0.074168
  20 C :   -0.217675
  21 C :    0.058359
  22 C :    0.043738
  23 O :   -0.066767
  24 C :    0.071904
  25 C :    0.075500
  26 O :   -0.073024
  27 C :   -0.192920
  28 Si:    0.688541
  29 C :   -0.241523
  30 C :   -0.237303
  31 C :   -0.039481
  32 C :   -0.013158
  33 C :   -0.005274
  34 N :   -0.011596
  35 C :    0.073237
  36 C :    0.051189
  37 N :   -0.011813
  38 F :   -0.039041
  39 F :   -0.022676
  40 C :   -0.025196
  41 C :   -0.046548
  42 C :   -0.036604
  43 N :   -0.275037
  44 S :    0.649877
  45 N :   -0.257780
  46 C :   -0.199095
  47 C :    0.053438
  48 C :    0.046053
  49 O :   -0.059610
  50 C :    0.072397
  51 C :    0.072874
  52 O :   -0.052287
  53 C :   -0.197187
  54 Si:    0.654969
  55 C :   -0.245396
  56 C :   -0.240069
  57 C :    0.053883
  58 C :   -0.097901
  59 C :    0.088271
  60 O :   -0.148475
  61 C :   -0.036980
  62 C :   -0.003450
  63 C :    0.070520
  64 C :   -0.151997
  65 C :   -0.005858
  66 N :   -0.067057
  67 C :   -0.023443
  68 N :   -0.071252
  69 C :   -0.021794
  70 C :    0.012836
  71 C :   -0.012160
  72 C :   -0.002883
  73 C :   -0.003767
  74 C :   -0.016063
  75 C :   -0.017695
  76 C :   -0.014575
  77 H :    0.038089
  78 H :    0.033791
  79 H :    0.034802
  80 H :    0.031061
  81 H :    0.030715
  82 H :    0.029039
  83 H :    0.042851
  84 H :    0.034686
  85 H :    0.022516
  86 H :    0.036157
  87 H :    0.034024
  88 H :    0.039427
  89 H :    0.029729
  90 H :    0.032929
  91 H :    0.035395
  92 H :    0.028103
  93 H :    0.020492
  94 H :    0.037309
  95 H :    0.025290
  96 H :    0.034617
  97 H :    0.029970
  98 H :    0.030073
  99 H :    0.031567
 100 H :    0.031330
 101 H :    0.040283
 102 H :    0.017330
 103 H :    0.033958
 104 H :    0.038748
 105 H :    0.037293
 106 H :    0.033121
 107 H :    0.034454
 108 H :    0.030937
 109 H :    0.030159
 110 H :    0.028702

  Mayer bond orders larger than 0.100000
B(  0-C ,  1-C ) :   0.9650 B(  0-C ,  5-C ) :   1.0675 B(  0-C , 19-C ) :   1.5943
B(  1-C ,  2-O ) :   2.1993 B(  1-C ,  3-C ) :   0.9335 B(  3-C ,  4-C ) :   1.4233
B(  3-C , 14-C ) :   1.2384 B(  4-C ,  5-C ) :   0.9949 B(  4-C , 11-C ) :   1.2609
B(  5-C ,  6-C ) :   1.6338 B(  6-C ,  7-C ) :   1.1716 B(  6-C ,  9-C ) :   1.1273
B(  7-C ,  8-N ) :   2.9767 B(  9-C , 10-N ) :   2.9946 B( 11-C , 12-C ) :   1.4631
B( 11-C , 77-H ) :   0.9886 B( 12-C , 13-C ) :   1.2272 B( 12-C , 78-H ) :   0.9940
B( 13-C , 14-C ) :   1.2427 B( 13-C , 18-C ) :   1.2375 B( 14-C , 15-C ) :   1.2726
B( 15-C , 16-C ) :   1.4774 B( 15-C , 79-H ) :   0.9863 B( 16-C , 17-C ) :   1.2515
B( 16-C , 80-H ) :   0.9880 B( 17-C , 18-C ) :   1.4979 B( 17-C , 81-H ) :   0.9896
B( 18-C , 82-H ) :   0.9975 B( 19-C , 20-C ) :   1.1358 B( 19-C , 83-H ) :   0.9482
B( 20-C , 21-C ) :   1.6231 B( 20-C , 28-Si) :   0.8048 B( 21-C , 22-C ) :   1.0312
B( 21-C , 26-O ) :   1.2091 B( 22-C , 23-O ) :   1.1834 B( 22-C , 27-C ) :   1.6102
B( 23-O , 24-C ) :   0.9431 B( 24-C , 25-C ) :   1.0786 B( 24-C , 84-H ) :   0.9506
B( 24-C , 85-H ) :   0.9433 B( 25-C , 26-O ) :   0.9375 B( 25-C , 86-H ) :   0.9522
B( 25-C , 87-H ) :   0.9438 B( 27-C , 28-Si) :   0.8691 B( 27-C , 31-C ) :   1.1631
B( 28-Si, 29-C ) :   1.0692 B( 28-Si, 30-C ) :   1.0510 B( 29-C , 88-H ) :   0.9458
B( 29-C , 89-H ) :   0.9365 B( 29-C , 90-H ) :   0.9442 B( 30-C , 91-H ) :   0.9465
B( 30-C , 92-H ) :   0.9521 B( 30-C , 93-H ) :   0.9561 B( 31-C , 32-C ) :   1.2646
B( 31-C , 40-C ) :   0.1160 B( 31-C , 42-C ) :   1.1870 B( 32-C , 33-C ) :   1.1121
B( 32-C , 37-N ) :   1.4429 B( 33-C , 34-N ) :   1.3009 B( 33-C , 40-C ) :   1.2751
B( 34-N , 35-C ) :   1.5768 B( 34-N , 54-Si) :   0.1706 B( 35-C , 36-C ) :   1.1225
B( 35-C , 39-F ) :   1.1408 B( 36-C , 37-N ) :   1.6779 B( 36-C , 38-F ) :   1.1667
B( 40-C , 41-C ) :   1.1074 B( 40-C , 46-C ) :   1.2144 B( 41-C , 42-C ) :   1.0999
B( 41-C , 45-N ) :   1.5531 B( 42-C , 43-N ) :   1.4506 B( 43-N , 44-S ) :   1.2343
B( 43-N , 45-N ) :   0.1523 B( 44-S , 45-N ) :   1.2934 B( 46-C , 47-C ) :   1.5822
B( 46-C , 54-Si) :   0.8311 B( 47-C , 48-C ) :   1.0417 B( 47-C , 52-O ) :   1.2146
B( 48-C , 49-O ) :   1.1604 B( 48-C , 53-C ) :   1.5935 B( 49-O , 50-C ) :   0.9268
B( 50-C , 51-C ) :   1.0807 B( 50-C , 94-H ) :   0.9512 B( 50-C , 95-H ) :   0.9447
B( 51-C , 52-O ) :   0.9408 B( 51-C , 96-H ) :   0.9496 B( 51-C , 97-H ) :   0.9417
B( 53-C , 54-Si) :   0.7732 B( 53-C , 57-C ) :   1.2079 B( 54-Si, 55-C ) :   1.0391
B( 54-Si, 56-C ) :   1.0762 B( 55-C , 98-H ) :   0.9507 B( 55-C , 99-H ) :   0.9581
B( 55-C ,100-H ) :   0.9495 B( 56-C ,101-H ) :   0.9348 B( 56-C ,102-H ) :   0.9534
B( 56-C ,103-H ) :   0.9459 B( 57-C , 58-C ) :   1.5526 B( 57-C ,104-H ) :   0.9245
B( 58-C , 59-C ) :   0.9648 B( 58-C , 63-C ) :   1.0987 B( 59-C , 60-O ) :   2.1738
B( 59-C , 61-C ) :   0.9379 B( 61-C , 62-C ) :   1.4238 B( 61-C , 72-C ) :   1.2377
B( 62-C , 63-C ) :   0.9993 B( 62-C , 69-C ) :   1.2623 B( 63-C , 64-C ) :   1.5721
B( 64-C , 65-C ) :   1.2088 B( 64-C , 67-C ) :   1.1413 B( 65-C , 66-N ) :   2.8944
B( 67-C , 68-N ) :   2.9736 B( 69-C , 70-C ) :   1.4620 B( 69-C ,105-H ) :   0.9853
B( 70-C , 71-C ) :   1.2298 B( 70-C ,106-H ) :   0.9940 B( 71-C , 72-C ) :   1.2409
B( 71-C , 76-C ) :   1.2333 B( 72-C , 73-C ) :   1.2711 B( 73-C , 74-C ) :   1.4775
B( 73-C ,107-H ) :   0.9871 B( 74-C , 75-C ) :   1.2505 B( 74-C ,108-H ) :   0.9879
B( 75-C , 76-C ) :   1.5000 B( 75-C ,109-H ) :   0.9884 B( 76-C ,110-H ) :   0.9981

-----------------------------------------------------------------------------
         ABSORPTION SPECTRUM VIA TRANSITION ELECTRIC DIPOLE MOMENTS
-----------------------------------------------------------------------------
State   Energy  Wavelength   fosc         T2         TX        TY        TZ
        (cm-1)    (nm)                  (au**2)     (au)      (au)      (au)
-----------------------------------------------------------------------------
   0    8823.8   1133.3   0.614415960  22.92359   2.27651  -0.56872   4.17344
   1   17606.4    568.0   0.307668821   5.75292   0.16121  -0.79655   2.25664
   2   18483.8    541.0   0.114858501   2.04573   1.31796   0.28055   0.47958
   3   18949.2    527.7   0.167867264   2.91643   1.30188  -0.10649   1.10009
   4   21169.2    472.4   0.249748003   3.88395   0.79097  -0.60602   1.70031
   5   21997.6    454.6   0.038609479   0.57782  -0.61045  -0.27133  -0.36271
   6   23761.2    420.9   0.081042824   1.12285  -0.10183   0.54930  -0.90042
   7   24506.2    408.1   0.031730290   0.42626  -0.01913   0.27454  -0.59205
   8   25014.3    399.8   0.016055757   0.21131  -0.29355  -0.17402   0.30798
   9   25897.5    386.1   0.071298397   0.90635  -0.16593   0.78566  -0.51143
  10   26891.3    371.9   0.031921044   0.39079   0.59573   0.16094  -0.09997
  11   27371.1    365.3   0.022397007   0.26939  -0.40775  -0.04523   0.31793
  12   28242.5    354.1   0.030712517   0.35800  -0.18657   0.36621  -0.43484
  13   28776.1    347.5   0.031594371   0.36145  -0.28968  -0.01642  -0.52656
  14   29217.3    342.3   0.011847832   0.13350  -0.06558  -0.28202  -0.22286
  15   29274.1    341.6   0.152942014   1.71996  -0.90874  -0.57632   0.74968
  16   29576.0    338.1   0.095146551   1.05908   0.69974  -0.70427   0.27102
  17   29726.3    336.4   0.078245165   0.86655   0.73718   0.56839  -0.00735
  18   30244.3    330.6   0.038354994   0.41750  -0.53806   0.34792  -0.08331
  19   30552.1    327.3   0.053151946   0.57273   0.67110  -0.12234  -0.32771
  20   30645.4    326.3   0.006193288   0.06653   0.13498  -0.17366  -0.13473
  21   30837.9    324.3   0.015056708   0.16074   0.17947  -0.28867   0.21260
  22   31086.4    321.7   0.036892987   0.39071  -0.46457  -0.34467   0.23681
  23   31294.0    319.5   0.030258886   0.31832  -0.34819  -0.19724   0.39772
  24   31485.7    317.6   0.011486794   0.12010   0.30462   0.11684   0.11687
  25   31782.3    314.6   0.020407461   0.21139   0.29278   0.02572   0.35357
  26   32134.4    311.2   0.100982488   1.03455  -0.55429   0.57108  -0.63338
  27   32520.5    307.5   0.117794273   1.19246  -1.07618   0.12828  -0.13352
  28   32656.1    306.2   0.149718765   1.50934  -0.37857   1.03221  -0.54825
  29   33442.2    299.0   0.222198791   2.18737  -0.38714  -1.12817   0.87449
  30   33602.5    297.6   0.276235463   2.70635  -0.61513   1.41539   0.56978
  31   33656.7    297.1   0.973775454   9.52494   0.43800  -1.53676   2.64035
  32   33981.8    294.3   0.044650796   0.43257  -0.10519  -0.45670   0.46145
  33   34654.7    288.6   0.208797719   1.98353  -0.54005  -1.02080   0.80613
  34   34756.2    287.7   0.039049624   0.36988   0.31225   0.44188   0.27772
  35   34983.6    285.8   0.074516869   0.70124  -0.74535  -0.15386  -0.34932
  36   35240.1    283.8   0.068178947   0.63693   0.14326   0.78479  -0.02236
  37   35573.0    281.1   0.330997148   3.06322   0.02290   1.71835  -0.33161
  38   36528.5    273.8   0.069096831   0.62273   0.21295  -0.73004  -0.21076
  39   36779.7    271.9   0.224768551   2.01189   0.03991   1.32203  -0.51238
  40   37012.0    270.2   0.008173314   0.07270   0.12795   0.16742   0.16822
  41   37240.3    268.5   0.136213451   1.20415  -0.48374  -0.76893  -0.61555
  42   37684.5    265.4   0.009086188   0.07938  -0.23228   0.12945  -0.09309
  43   37850.0    264.2   0.002538147   0.02208  -0.11434  -0.02780  -0.09072
  44   38048.5    262.8   0.060500369   0.52348  -0.30389  -0.64214   0.13705
  45   38613.7    259.0   0.004104669   0.03500  -0.10817   0.15238   0.00857
  46   38956.9    256.7   0.003711122   0.03136   0.02151   0.12493   0.12366
  47   38988.2    256.5   0.001952817   0.01649  -0.00552  -0.00105  -0.12829
  48   39553.1    252.8   0.035788544   0.29788   0.15417   0.32705   0.40883
  49   39650.5    252.2   0.006031139   0.05008  -0.19773  -0.10359   0.01578
  50   39758.7    251.5   0.029003253   0.24015  -0.33575  -0.28611  -0.21346
  51   39940.8    250.4   0.052883240   0.43589   0.44121   0.42391   0.24805
  52   40321.7    248.0   0.029429092   0.24028  -0.09274  -0.12552  -0.46467

FINAL SINGLE POINT ENERGY     -4292.367265659798

DIPOLE MOMENT
-------------
                                X             Y             Z
Electronic contribution:     -1.12075     -19.63894      -5.80359
Nuclear contribution   :     -1.08919      21.54322       7.34822
                        -----------------------------------------
Total Dipole Moment    :     -2.20995       1.90428       1.54463
                        -----------------------------------------
Magnitude (a.u.)       :      3.30091
Magnitude (Debye)      :      8.39025

Rotational constants in cm-1:     0.002086     0.000307     0.000283
Rotational constants in MHz :    62.526748     9.213338     8.476579

                             ****ORCA TERMINATED NORMALLY****
TOTAL RUN TIME: 0 days 0 hours 21 minutes 18 seconds 520 msec
