                         Program Version 4.2.0 -  RELEASE  -
|  1> # ORCA input file
|  2> # SCF done       -187.480023390944          0.000888129989
|  3> ! CAM-B3LYP def2-SVP def2/J RIJCOSX Grid4 TightSCF
|  4> %maxcore 5000
|  5> %tddft
|  6>     Mode sTDDFT
|  7>     Ethresh 5.0
|  8>     maxcore 5000
|  9> end
| 10>
| 11> %pal
| 12>   nprocs 6
| 13>   end
| 14> * xyz 0 1
| 15>    C        0.76394        -3.04724        -5.04571
| 16>    C       -0.14641        -2.14168        -5.81149
| 17>    O       -0.80595        -1.24041        -5.34587
| 18>    C       -0.00074        -2.55925        -7.21628
| 19>    C        0.78966        -3.70892        -7.28437
| 20>    C        1.14183        -4.13050        -5.93474
| 21>    C        1.49583        -5.39444        -5.55131
| 22>    C        1.53516        -5.80841        -4.20202
| 23>    N        1.52081        -6.19448        -3.12149
| 24>    C        1.75943        -6.45026        -6.44864
| 25>    N        1.99469        -7.34018        -7.13369
| 26>    C        1.09829        -4.29381        -8.51915
| 27>    C        0.60296        -3.71919        -9.66023
| 28>    C       -0.21113        -2.56525        -9.62714
| 29>    C       -0.52677        -1.95737        -8.37674
| 30>    C       -1.33628        -0.80379        -8.35079
| 31>    C       -1.81691        -0.27530        -9.51736
| 32>    C       -1.51101        -0.87096       -10.75137
| 33>    C       -0.72586        -1.98993       -10.80646
| 34>    C        1.16997        -2.71799        -3.79953
| 35>    C        2.29011        -3.23111        -3.07675
| 36>    C        2.41980        -3.31177        -1.71991
| 37>    C        3.65695        -3.85614        -1.29753
| 38>    C        4.51220        -4.14242        -2.39631
| 39>    S        3.74504        -3.76412        -3.91016
| 40>    C        5.77736        -4.65801        -2.23621
| 41>    C        6.21265        -4.92019        -0.93670
| 42>    C        5.35059        -4.65572         0.16192
| 43>    C        4.09001        -4.12461         0.00036
| 44>    S        6.09955        -5.09184         1.67156
| 45>    C        7.54809        -5.60448         0.83288
| 46>    C        7.45633        -5.45433        -0.52051
| 47>    C        8.64114        -6.11762         1.61509
| 48>    C        9.86511        -6.43715         1.12175
| 49>    C       10.88701        -6.93800         1.98887
| 50>    C       12.14327        -7.27863         1.52123
| 51>    C       13.14436        -7.77064         2.37396
| 52>    N       13.95974        -8.17580         3.07436
| 53>    C       12.47980        -7.15161         0.16411
| 54>    N       12.73912        -7.04714        -0.95048
| 55>    C       10.52028        -7.06751         3.36501
| 56>    C        9.27158        -6.73116         3.78032
| 57>    O        8.32860        -6.25364         2.92880
| 58>    C        8.80513        -6.86140         5.13556
| 59>    C        7.53867        -6.62533         5.58824
| 60>    C        7.38461        -6.88242         6.97261
| 61>    C        8.59999        -7.31855         7.56875
| 62>    S        9.88828        -7.40108         6.39924
| 63>    C        8.69640        -7.63340         8.90491
| 64>    C        7.54460        -7.52224         9.68471
| 65>    C        6.32527        -7.10059         9.08616
| 66>    C        6.23316        -6.77374         7.75146
| 67>    S        5.03168        -7.07174        10.24489
| 68>    C        6.12096        -7.56681        11.52660
| 69>    C        7.39439        -7.77142        11.06804
| 70>    C        5.59496        -7.77124        12.83447
| 71>    C        6.23573        -7.71719        14.02552
| 72>    C        5.59758        -8.34014        15.22579
| 73>    O        4.44263        -8.69228        15.30850
| 74>    C        6.67900        -8.46396        16.21613
| 75>    C        7.83191        -7.84640        15.72724
| 76>    C        7.54323        -7.23882        14.43202
| 77>    C        8.25682        -6.22518        13.85257
| 78>    C        7.81366        -5.48540        12.73599
| 79>    N        7.49077        -4.81881        11.85936
| 80>    C        9.48090        -5.73039        14.35071
| 81>    N       10.48726        -5.30024        14.69597
| 82>    C        9.01520        -7.85069        16.47774
| 83>    C        9.01482        -8.46219        17.70420
| 84>    C        7.86179        -9.08182        18.23446
| 85>    C        6.65460        -9.09300        17.47640
| 86>    C        5.50744        -9.71757        18.00656
| 87>    C        5.55392       -10.30438        19.24120
| 88>    C        6.73947       -10.29382        19.99356
| 89>    C        7.86841        -9.69718        19.50263
| 90>    H        1.72287        -5.17078        -8.57217
| 91>    H        0.83419        -4.15360       -10.62205
| 92>    H       -1.56502        -0.35405        -7.39756
| 93>    H       -2.43777         0.60778        -9.49661
| 94>    H       -1.90141        -0.43692       -11.65987
| 95>    H       -0.48921        -2.45059       -11.75460
| 96>    H        0.61804        -1.91825        -3.31501
| 97>    H        1.63461        -3.03139        -1.04068
| 98>    H        6.41384        -4.86426        -3.08163
| 99>    H        3.44972        -3.92721         0.84498
|100>    H        8.23768        -5.71999        -1.20859
|101>    H       10.07906        -6.31202         0.07375
|102>    H       11.23988        -7.44338         4.07506
|103>    H        6.74205        -6.28636         4.95057
|104>    H        9.62870        -7.95339         9.34174
|105>    H        5.30271        -6.44837         7.31481
|106>    H        8.19739        -8.12809        11.68928
|107>    H        4.55112        -8.06685        12.88518
|108>    H        9.91305        -7.39202        16.09673
|109>    H        9.91967        -8.47618        18.29438
|110>    H        4.60236        -9.71965        17.42003
|111>    H        4.67487       -10.78182        19.64740
|112>    H        6.75290       -10.76273        20.96626
|113>    H        8.78170        -9.68720        20.07966
|114> *
|115>
|116>                          ****END OF INPUT****

CARTESIAN COORDINATES (ANGSTROEM)
---------------------------------
  C      0.763940   -3.047240   -5.045710
  C     -0.146410   -2.141680   -5.811490
  O     -0.805950   -1.240410   -5.345870
  C     -0.000740   -2.559250   -7.216280
  C      0.789660   -3.708920   -7.284370
  C      1.141830   -4.130500   -5.934740
  C      1.495830   -5.394440   -5.551310
  C      1.535160   -5.808410   -4.202020
  N      1.520810   -6.194480   -3.121490
  C      1.759430   -6.450260   -6.448640
  N      1.994690   -7.340180   -7.133690
  C      1.098290   -4.293810   -8.519150
  C      0.602960   -3.719190   -9.660230
  C     -0.211130   -2.565250   -9.627140
  C     -0.526770   -1.957370   -8.376740
  C     -1.336280   -0.803790   -8.350790
  C     -1.816910   -0.275300   -9.517360
  C     -1.511010   -0.870960  -10.751370
  C     -0.725860   -1.989930  -10.806460
  C      1.169970   -2.717990   -3.799530
  C      2.290110   -3.231110   -3.076750
  C      2.419800   -3.311770   -1.719910
  C      3.656950   -3.856140   -1.297530
  C      4.512200   -4.142420   -2.396310
  S      3.745040   -3.764120   -3.910160
  C      5.777360   -4.658010   -2.236210
  C      6.212650   -4.920190   -0.936700
  C      5.350590   -4.655720    0.161920
  C      4.090010   -4.124610    0.000360
  S      6.099550   -5.091840    1.671560
  C      7.548090   -5.604480    0.832880
  C      7.456330   -5.454330   -0.520510
  C      8.641140   -6.117620    1.615090
  C      9.865110   -6.437150    1.121750
  C     10.887010   -6.938000    1.988870
  C     12.143270   -7.278630    1.521230
  C     13.144360   -7.770640    2.373960
  N     13.959740   -8.175800    3.074360
  C     12.479800   -7.151610    0.164110
  N     12.739120   -7.047140   -0.950480
  C     10.520280   -7.067510    3.365010
  C      9.271580   -6.731160    3.780320
  O      8.328600   -6.253640    2.928800
  C      8.805130   -6.861400    5.135560
  C      7.538670   -6.625330    5.588240
  C      7.384610   -6.882420    6.972610
  C      8.599990   -7.318550    7.568750
  S      9.888280   -7.401080    6.399240
  C      8.696400   -7.633400    8.904910
  C      7.544600   -7.522240    9.684710
  C      6.325270   -7.100590    9.086160
  C      6.233160   -6.773740    7.751460
  S      5.031680   -7.071740   10.244890
  C      6.120960   -7.566810   11.526600
  C      7.394390   -7.771420   11.068040
  C      5.594960   -7.771240   12.834470
  C      6.235730   -7.717190   14.025520
  C      5.597580   -8.340140   15.225790
  O      4.442630   -8.692280   15.308500
  C      6.679000   -8.463960   16.216130
  C      7.831910   -7.846400   15.727240
  C      7.543230   -7.238820   14.432020
  C      8.256820   -6.225180   13.852570
  C      7.813660   -5.485400   12.735990
  N      7.490770   -4.818810   11.859360
  C      9.480900   -5.730390   14.350710
  N     10.487260   -5.300240   14.695970
  C      9.015200   -7.850690   16.477740
  C      9.014820   -8.462190   17.704200
  C      7.861790   -9.081820   18.234460
  C      6.654600   -9.093000   17.476400
  C      5.507440   -9.717570   18.006560
  C      5.553920  -10.304380   19.241200
  C      6.739470  -10.293820   19.993560
  C      7.868410   -9.697180   19.502630
  H      1.722870   -5.170780   -8.572170
  H      0.834190   -4.153600  -10.622050
  H     -1.565020   -0.354050   -7.397560
  H     -2.437770    0.607780   -9.496610
  H     -1.901410   -0.436920  -11.659870
  H     -0.489210   -2.450590  -11.754600
  H      0.618040   -1.918250   -3.315010
  H      1.634610   -3.031390   -1.040680
  H      6.413840   -4.864260   -3.081630
  H      3.449720   -3.927210    0.844980
  H      8.237680   -5.719990   -1.208590
  H     10.079060   -6.312020    0.073750
  H     11.239880   -7.443380    4.075060
  H      6.742050   -6.286360    4.950570
  H      9.628700   -7.953390    9.341740
  H      5.302710   -6.448370    7.314810
  H      8.197390   -8.128090   11.689280
  H      4.551120   -8.066850   12.885180
  H      9.913050   -7.392020   16.096730
  H      9.919670   -8.476180   18.294380
  H      4.602360   -9.719650   17.420030
  H      4.674870  -10.781820   19.647400
  H      6.752900  -10.762730   20.966260
  H      8.781700   -9.687200   20.079660

 Total Charge           Charge          ....    0
 Multiplicity           Mult            ....    1
 Number of Electrons    NEL             ....  526
 Basis Dimension        Dim             .... 1186

ORBITAL ENERGIES
----------------

  NO   OCC          E(Eh)            E(eV)
   0   2.0000     -88.970122     -2421.0001
   1   2.0000     -88.968187     -2420.9474
   2   2.0000     -88.963777     -2420.8274
   3   2.0000     -88.962891     -2420.8033
   4   2.0000     -19.327658      -525.9323
   5   2.0000     -19.225262      -523.1460
   6   2.0000     -19.225110      -523.1418
   7   2.0000     -14.422044      -392.4438
   8   2.0000     -14.420978      -392.4148
   9   2.0000     -14.420300      -392.3963
  10   2.0000     -14.417205      -392.3121
  11   2.0000     -14.396068      -391.7369
  12   2.0000     -14.395015      -391.7083
  13   2.0000     -10.391039      -282.7545
  14   2.0000     -10.390062      -282.7280
  15   2.0000     -10.375807      -282.3401
  16   2.0000     -10.375607      -282.3346
  17   2.0000     -10.352831      -281.7149
  18   2.0000     -10.351756      -281.6856
  19   2.0000     -10.349486      -281.6238
  20   2.0000     -10.346423      -281.5405
  21   2.0000     -10.337356      -281.2938
  22   2.0000     -10.331584      -281.1367
  23   2.0000     -10.328946      -281.0649
  24   2.0000     -10.325389      -280.9681
  25   2.0000     -10.325103      -280.9603
  26   2.0000     -10.324545      -280.9452
  27   2.0000     -10.324291      -280.9382
  28   2.0000     -10.323799      -280.9248
  29   2.0000     -10.322834      -280.8986
  30   2.0000     -10.321378      -280.8590
  31   2.0000     -10.319330      -280.8032
  32   2.0000     -10.319289      -280.8021
  33   2.0000     -10.318999      -280.7942
  34   2.0000     -10.317836      -280.7626
  35   2.0000     -10.317076      -280.7419
  36   2.0000     -10.317004      -280.7400
  37   2.0000     -10.316272      -280.7200
  38   2.0000     -10.315226      -280.6916
  39   2.0000     -10.307542      -280.4825
  40   2.0000     -10.307200      -280.4732
  41   2.0000     -10.307033      -280.4686
  42   2.0000     -10.306823      -280.4629
  43   2.0000     -10.303596      -280.3751
  44   2.0000     -10.303071      -280.3608
  45   2.0000     -10.302462      -280.3442
  46   2.0000     -10.302025      -280.3324
  47   2.0000     -10.301747      -280.3248
  48   2.0000     -10.301716      -280.3239
  49   2.0000     -10.301618      -280.3213
  50   2.0000     -10.301119      -280.3077
  51   2.0000     -10.301090      -280.3069
  52   2.0000     -10.300978      -280.3039
  53   2.0000     -10.300890      -280.3015
  54   2.0000     -10.300757      -280.2978
  55   2.0000     -10.300163      -280.2817
  56   2.0000     -10.299934      -280.2755
  57   2.0000     -10.299779      -280.2712
  58   2.0000     -10.299699      -280.2690
  59   2.0000     -10.299224      -280.2561
  60   2.0000     -10.298798      -280.2446
  61   2.0000     -10.298741      -280.2430
  62   2.0000     -10.298709      -280.2421
  63   2.0000     -10.298277      -280.2304
  64   2.0000     -10.298118      -280.2260
  65   2.0000     -10.297319      -280.2043
  66   2.0000     -10.296206      -280.1740
  67   2.0000     -10.288753      -279.9712
  68   2.0000     -10.288201      -279.9562
  69   2.0000     -10.287934      -279.9489
  70   2.0000     -10.287386      -279.9340
  71   2.0000     -10.286491      -279.9096
  72   2.0000     -10.285648      -279.8867
  73   2.0000     -10.282748      -279.8078
  74   2.0000     -10.281888      -279.7844
  75   2.0000      -8.065582      -219.4756
  76   2.0000      -8.063792      -219.4269
  77   2.0000      -8.059235      -219.3029
  78   2.0000      -8.058915      -219.2942
  79   2.0000      -6.035243      -164.2273
  80   2.0000      -6.033559      -164.1815
  81   2.0000      -6.031135      -164.1155
  82   2.0000      -6.029434      -164.0692
  83   2.0000      -6.028967      -164.0565
  84   2.0000      -6.028544      -164.0450
  85   2.0000      -6.026853      -163.9990
  86   2.0000      -6.024867      -163.9450
  87   2.0000      -6.024849      -163.9445
  88   2.0000      -6.024493      -163.9348
  89   2.0000      -6.020342      -163.8218
  90   2.0000      -6.020130      -163.8161
  91   2.0000      -1.238975       -33.7142
  92   2.0000      -1.140482       -31.0341
  93   2.0000      -1.140104       -31.0238
  94   2.0000      -1.026371       -27.9290
  95   2.0000      -1.025644       -27.9092
  96   2.0000      -1.019261       -27.7355
  97   2.0000      -1.016797       -27.6685
  98   2.0000      -1.005406       -27.3585
  99   2.0000      -1.004042       -27.3214
 100   2.0000      -1.001346       -27.2480
 101   2.0000      -0.999545       -27.1990
 102   2.0000      -0.996854       -27.1258
 103   2.0000      -0.995549       -27.0903
 104   2.0000      -0.992626       -27.0107
 105   2.0000      -0.974793       -26.5255
 106   2.0000      -0.974538       -26.5185
 107   2.0000      -0.973727       -26.4965
 108   2.0000      -0.959493       -26.1091
 109   2.0000      -0.952374       -25.9154
 110   2.0000      -0.935101       -25.4454
 111   2.0000      -0.928773       -25.2732
 112   2.0000      -0.924095       -25.1459
 113   2.0000      -0.915176       -24.9032
 114   2.0000      -0.908375       -24.7181
 115   2.0000      -0.904667       -24.6172
 116   2.0000      -0.893638       -24.3171
 117   2.0000      -0.891710       -24.2647
 118   2.0000      -0.888993       -24.1907
 119   2.0000      -0.882702       -24.0195
 120   2.0000      -0.876546       -23.8520
 121   2.0000      -0.862522       -23.4704
 122   2.0000      -0.861267       -23.4363
 123   2.0000      -0.852338       -23.1933
 124   2.0000      -0.849315       -23.1110
 125   2.0000      -0.846136       -23.0245
 126   2.0000      -0.843150       -22.9433
 127   2.0000      -0.827187       -22.5089
 128   2.0000      -0.816833       -22.2272
 129   2.0000      -0.807250       -21.9664
 130   2.0000      -0.798790       -21.7362
 131   2.0000      -0.791904       -21.5488
 132   2.0000      -0.788440       -21.4546
 133   2.0000      -0.780217       -21.2308
 134   2.0000      -0.777608       -21.1598
 135   2.0000      -0.767009       -20.8714
 136   2.0000      -0.757049       -20.6004
 137   2.0000      -0.728335       -19.8190
 138   2.0000      -0.726767       -19.7763
 139   2.0000      -0.719618       -19.5818
 140   2.0000      -0.718979       -19.5644
 141   2.0000      -0.713464       -19.4143
 142   2.0000      -0.711673       -19.3656
 143   2.0000      -0.698138       -18.9973
 144   2.0000      -0.698042       -18.9947
 145   2.0000      -0.693702       -18.8766
 146   2.0000      -0.688092       -18.7239
 147   2.0000      -0.682734       -18.5781
 148   2.0000      -0.681806       -18.5529
 149   2.0000      -0.674501       -18.3541
 150   2.0000      -0.665871       -18.1193
 151   2.0000      -0.665094       -18.0981
 152   2.0000      -0.654179       -17.8011
 153   2.0000      -0.649647       -17.6778
 154   2.0000      -0.640447       -17.4274
 155   2.0000      -0.636329       -17.3154
 156   2.0000      -0.635180       -17.2841
 157   2.0000      -0.630959       -17.1693
 158   2.0000      -0.619304       -16.8521
 159   2.0000      -0.609544       -16.5865
 160   2.0000      -0.607953       -16.5432
 161   2.0000      -0.601545       -16.3689
 162   2.0000      -0.598385       -16.2829
 163   2.0000      -0.594106       -16.1664
 164   2.0000      -0.593438       -16.1483
 165   2.0000      -0.592968       -16.1355
 166   2.0000      -0.589133       -16.0311
 167   2.0000      -0.587215       -15.9789
 168   2.0000      -0.583986       -15.8911
 169   2.0000      -0.581519       -15.8239
 170   2.0000      -0.576551       -15.6888
 171   2.0000      -0.575929       -15.6718
 172   2.0000      -0.568849       -15.4792
 173   2.0000      -0.563730       -15.3399
 174   2.0000      -0.556455       -15.1419
 175   2.0000      -0.553812       -15.0700
 176   2.0000      -0.544611       -14.8196
 177   2.0000      -0.543735       -14.7958
 178   2.0000      -0.543533       -14.7903
 179   2.0000      -0.541265       -14.7286
 180   2.0000      -0.539273       -14.6744
 181   2.0000      -0.538416       -14.6510
 182   2.0000      -0.531232       -14.4556
 183   2.0000      -0.530558       -14.4372
 184   2.0000      -0.528504       -14.3813
 185   2.0000      -0.526119       -14.3164
 186   2.0000      -0.522911       -14.2291
 187   2.0000      -0.520987       -14.1768
 188   2.0000      -0.517521       -14.0824
 189   2.0000      -0.516803       -14.0629
 190   2.0000      -0.512777       -13.9534
 191   2.0000      -0.512356       -13.9419
 192   2.0000      -0.510912       -13.9026
 193   2.0000      -0.509466       -13.8633
 194   2.0000      -0.505642       -13.7592
 195   2.0000      -0.503427       -13.6989
 196   2.0000      -0.496755       -13.5174
 197   2.0000      -0.493585       -13.4311
 198   2.0000      -0.492827       -13.4105
 199   2.0000      -0.492125       -13.3914
 200   2.0000      -0.491039       -13.3619
 201   2.0000      -0.487543       -13.2667
 202   2.0000      -0.485019       -13.1980
 203   2.0000      -0.482843       -13.1388
 204   2.0000      -0.480168       -13.0660
 205   2.0000      -0.478870       -13.0307
 206   2.0000      -0.477464       -12.9925
 207   2.0000      -0.475893       -12.9497
 208   2.0000      -0.475071       -12.9273
 209   2.0000      -0.468149       -12.7390
 210   2.0000      -0.465351       -12.6628
 211   2.0000      -0.455670       -12.3994
 212   2.0000      -0.454784       -12.3753
 213   2.0000      -0.454347       -12.3634
 214   2.0000      -0.453586       -12.3427
 215   2.0000      -0.447989       -12.1904
 216   2.0000      -0.446629       -12.1534
 217   2.0000      -0.445548       -12.1240
 218   2.0000      -0.444125       -12.0853
 219   2.0000      -0.441889       -12.0244
 220   2.0000      -0.439649       -11.9635
 221   2.0000      -0.438187       -11.9237
 222   2.0000      -0.437468       -11.9041
 223   2.0000      -0.436131       -11.8677
 224   2.0000      -0.435270       -11.8443
 225   2.0000      -0.434457       -11.8222
 226   2.0000      -0.432157       -11.7596
 227   2.0000      -0.430846       -11.7239
 228   2.0000      -0.430612       -11.7175
 229   2.0000      -0.430138       -11.7046
 230   2.0000      -0.426467       -11.6048
 231   2.0000      -0.424045       -11.5388
 232   2.0000      -0.421977       -11.4826
 233   2.0000      -0.421053       -11.4574
 234   2.0000      -0.420523       -11.4430
 235   2.0000      -0.416408       -11.3310
 236   2.0000      -0.413974       -11.2648
 237   2.0000      -0.412938       -11.2366
 238   2.0000      -0.409674       -11.1478
 239   2.0000      -0.407409       -11.0862
 240   2.0000      -0.403883       -10.9902
 241   2.0000      -0.397344       -10.8123
 242   2.0000      -0.394123       -10.7246
 243   2.0000      -0.391587       -10.6556
 244   2.0000      -0.389803       -10.6071
 245   2.0000      -0.381267       -10.3748
 246   2.0000      -0.375315       -10.2128
 247   2.0000      -0.369333       -10.0501
 248   2.0000      -0.355698        -9.6790
 249   2.0000      -0.352118        -9.5816
 250   2.0000      -0.342351        -9.3158
 251   2.0000      -0.341670        -9.2973
 252   2.0000      -0.339362        -9.2345
 253   2.0000      -0.329744        -8.9728
 254   2.0000      -0.322719        -8.7816
 255   2.0000      -0.319142        -8.6843
 256   2.0000      -0.302362        -8.2277
 257   2.0000      -0.299080        -8.1384
 258   2.0000      -0.298399        -8.1198
 259   2.0000      -0.294456        -8.0126
 260   2.0000      -0.285042        -7.7564
 261   2.0000      -0.271331        -7.3833
 262   2.0000      -0.267822        -7.2878
 263   0.0000      -0.096981        -2.6390
 264   0.0000      -0.094123        -2.5612
 265   0.0000      -0.080498        -2.1905
 266   0.0000      -0.077188        -2.1004
 267   0.0000      -0.065020        -1.7693

MULLIKEN ATOMIC CHARGES
-----------------------
   0 C :   -0.115698
   1 C :    0.120690
   2 O :   -0.144541
   3 C :    0.006188
   4 C :   -0.005276
   5 C :    0.245983
   6 C :   -0.313477
   7 C :   -0.192536
   8 N :    0.172666
   9 C :   -0.181785
  10 N :    0.164681
  11 C :   -0.018418
  12 C :    0.008697
  13 C :    0.076252
  14 C :    0.038065
  15 C :   -0.024550
  16 C :    0.035917
  17 C :    0.040611
  18 C :   -0.019245
  19 C :    0.052452
  20 C :   -0.106180
  21 C :    0.044670
  22 C :    0.116696
  23 C :   -0.040209
  24 S :    0.131076
  25 C :   -0.041759
  26 C :    0.101061
  27 C :   -0.036175
  28 C :   -0.044277
  29 S :    0.146260
  30 C :   -0.086370
  31 C :   -0.014747
  32 C :    0.280873
  33 C :   -0.173756
  34 C :    0.300806
  35 C :   -0.355021
  36 C :   -0.175951
  37 N :    0.131422
  38 C :   -0.169542
  39 N :    0.123601
  40 C :   -0.175068
  41 C :    0.273525
  42 O :   -0.235184
  43 C :   -0.077210
  44 C :   -0.022737
  45 C :    0.120606
  46 C :   -0.040620
  47 S :    0.135362
  48 C :   -0.038895
  49 C :    0.092080
  50 C :   -0.028822
  51 C :   -0.044477
  52 S :    0.141869
  53 C :   -0.106414
  54 C :    0.020909
  55 C :    0.081346
  56 C :   -0.108145
  57 C :    0.114039
  58 O :   -0.145311
  59 C :    0.013118
  60 C :   -0.007466
  61 C :    0.260168
  62 C :   -0.336216
  63 C :   -0.200912
  64 N :    0.181427
  65 C :   -0.179499
  66 N :    0.167726
  67 C :   -0.022545
  68 C :    0.005254
  69 C :    0.079164
  70 C :    0.036111
  71 C :   -0.029063
  72 C :    0.040731
  73 C :    0.041119
  74 C :   -0.020959
  75 H :    0.003608
  76 H :   -0.010887
  77 H :    0.000584
  78 H :   -0.004194
  79 H :   -0.005033
  80 H :   -0.019696
  81 H :    0.031381
  82 H :   -0.009569
  83 H :   -0.020654
  84 H :   -0.024138
  85 H :   -0.003165
  86 H :    0.024253
  87 H :    0.037635
  88 H :   -0.007783
  89 H :   -0.020831
  90 H :   -0.022883
  91 H :   -0.005759
  92 H :    0.028170
  93 H :    0.001671
  94 H :   -0.009984
  95 H :    0.001810
  96 H :   -0.005118
  97 H :   -0.004651
  98 H :   -0.018932
Sum of atomic charges:   -0.0000000

LOEWDIN ATOMIC CHARGES
----------------------
   0 C :   -0.077084
   1 C :    0.088363
   2 O :   -0.136981
   3 C :   -0.034683
   4 C :   -0.002233
   5 C :    0.058548
   6 C :   -0.127922
   7 C :   -0.031061
   8 N :   -0.044038
   9 C :   -0.020197
  10 N :   -0.042930
  11 C :   -0.017597
  12 C :    0.022500
  13 C :   -0.009398
  14 C :   -0.002333
  15 C :   -0.002316
  16 C :   -0.010635
  17 C :   -0.011135
  18 C :   -0.011279
  19 C :    0.043647
  20 C :   -0.160517
  21 C :   -0.009612
  22 C :   -0.037345
  23 C :   -0.142494
  24 S :    0.418817
  25 C :   -0.026203
  26 C :   -0.040427
  27 C :   -0.149939
  28 C :   -0.024031
  29 S :    0.414868
  30 C :   -0.173566
  31 C :   -0.022595
  32 C :    0.076586
  33 C :   -0.044103
  34 C :    0.055698
  35 C :   -0.177533
  36 C :   -0.030586
  37 N :   -0.068409
  38 C :   -0.028992
  39 N :   -0.072629
  40 C :   -0.052921
  41 C :    0.078433
  42 O :   -0.005338
  43 C :   -0.174380
  44 C :   -0.021415
  45 C :   -0.041269
  46 C :   -0.145452
  47 S :    0.418200
  48 C :   -0.024484
  49 C :   -0.037064
  50 C :   -0.143321
  51 C :   -0.025698
  52 S :    0.418619
  53 C :   -0.163962
  54 C :   -0.018113
  55 C :    0.044173
  56 C :   -0.075393
  57 C :    0.087595
  58 O :   -0.137087
  59 C :   -0.033452
  60 C :   -0.004284
  61 C :    0.064645
  62 C :   -0.130213
  63 C :   -0.019824
  64 N :   -0.035372
  65 C :   -0.021730
  66 N :   -0.044022
  67 C :   -0.018038
  68 C :    0.021732
  69 C :   -0.008883
  70 C :   -0.002480
  71 C :   -0.002007
  72 C :   -0.010143
  73 C :   -0.010525
  74 C :   -0.011475
  75 H :    0.040285
  76 H :    0.036510
  77 H :    0.035582
  78 H :    0.033439
  79 H :    0.032688
  80 H :    0.030981
  81 H :    0.052593
  82 H :    0.037391
  83 H :    0.035557
  84 H :    0.034388
  85 H :    0.038550
  86 H :    0.048132
  87 H :    0.043866
  88 H :    0.035416
  89 H :    0.035456
  90 H :    0.034550
  91 H :    0.033832
  92 H :    0.047495
  93 H :    0.039850
  94 H :    0.036764
  95 H :    0.035894
  96 H :    0.033386
  97 H :    0.032964
  98 H :    0.031160

  Mayer bond orders larger than 0.100000
B(  0-C ,  1-C ) :   0.9423 B(  0-C ,  5-C ) :   1.0071 B(  0-C , 19-C ) :   1.7288
B(  1-C ,  2-O ) :   2.2068 B(  1-C ,  3-C ) :   0.9435 B(  3-C ,  4-C ) :   1.4103
B(  3-C , 14-C ) :   1.2366 B(  4-C ,  5-C ) :   1.0082 B(  4-C , 11-C ) :   1.2623
B(  5-C ,  6-C ) :   1.6758 B(  6-C ,  7-C ) :   1.1496 B(  6-C ,  9-C ) :   1.1316
B(  7-C ,  8-N ) :   3.0199 B(  9-C , 10-N ) :   2.9994 B( 11-C , 12-C ) :   1.4670
B( 11-C , 75-H ) :   0.9866 B( 12-C , 13-C ) :   1.2238 B( 12-C , 76-H ) :   0.9944
B( 13-C , 14-C ) :   1.2429 B( 13-C , 18-C ) :   1.2400 B( 14-C , 15-C ) :   1.2769
B( 15-C , 16-C ) :   1.4731 B( 15-C , 77-H ) :   0.9872 B( 16-C , 17-C ) :   1.2569
B( 16-C , 78-H ) :   0.9879 B( 17-C , 18-C ) :   1.4942 B( 17-C , 79-H ) :   0.9895
B( 18-C , 80-H ) :   0.9980 B( 19-C , 20-C ) :   1.0609 B( 19-C , 81-H ) :   0.9491
B( 20-C , 21-C ) :   1.5469 B( 20-C , 24-S ) :   1.0805 B( 21-C , 22-C ) :   1.1527
B( 21-C , 82-H ) :   1.0028 B( 22-C , 23-C ) :   1.2736 B( 22-C , 28-C ) :   1.3233
B( 23-C , 24-S ) :   1.0447 B( 23-C , 25-C ) :   1.3961 B( 25-C , 26-C ) :   1.3127
B( 25-C , 28-C ) :   0.1033 B( 25-C , 83-H ) :   1.0014 B( 26-C , 27-C ) :   1.2881
B( 26-C , 31-C ) :   1.1599 B( 27-C , 28-C ) :   1.3800 B( 27-C , 29-S ) :   1.0388
B( 28-C , 84-H ) :   1.0015 B( 29-S , 30-C ) :   1.0749 B( 30-C , 31-C ) :   1.6046
B( 30-C , 32-C ) :   1.0368 B( 31-C , 85-H ) :   0.9922 B( 32-C , 33-C ) :   1.5954
B( 32-C , 42-O ) :   1.1292 B( 33-C , 34-C ) :   1.1145 B( 33-C , 86-H ) :   0.9667
B( 34-C , 35-C ) :   1.5434 B( 34-C , 40-C ) :   1.1310 B( 35-C , 36-C ) :   1.1325
B( 35-C , 38-C ) :   1.1331 B( 36-C , 37-N ) :   3.0071 B( 38-C , 39-N ) :   3.0024
B( 40-C , 41-C ) :   1.5659 B( 40-C , 87-H ) :   0.9595 B( 41-C , 42-O ) :   1.1320
B( 41-C , 43-C ) :   1.0919 B( 43-C , 44-C ) :   1.5574 B( 43-C , 47-S ) :   1.0836
B( 44-C , 45-C ) :   1.1338 B( 44-C , 88-H ) :   1.0087 B( 45-C , 46-C ) :   1.2741
B( 45-C , 51-C ) :   1.3242 B( 46-C , 47-S ) :   1.0452 B( 46-C , 48-C ) :   1.3963
B( 48-C , 49-C ) :   1.3139 B( 48-C , 51-C ) :   0.1032 B( 48-C , 89-H ) :   1.0004
B( 49-C , 50-C ) :   1.2812 B( 49-C , 54-C ) :   1.1835 B( 50-C , 51-C ) :   1.3826
B( 50-C , 52-S ) :   1.0548 B( 51-C , 90-H ) :   1.0010 B( 52-S , 53-C ) :   1.0747
B( 53-C , 54-C ) :   1.5482 B( 53-C , 55-C ) :   1.0638 B( 54-C , 91-H ) :   0.9948
B( 55-C , 56-C ) :   1.7455 B( 55-C , 92-H ) :   0.9262 B( 56-C , 57-C ) :   0.9470
B( 56-C , 61-C ) :   1.0111 B( 57-C , 58-O ) :   2.2006 B( 57-C , 59-C ) :   0.9408
B( 59-C , 60-C ) :   1.4115 B( 59-C , 70-C ) :   1.2353 B( 60-C , 61-C ) :   1.0043
B( 60-C , 67-C ) :   1.2587 B( 61-C , 62-C ) :   1.6670 B( 62-C , 63-C ) :   1.1640
B( 62-C , 65-C ) :   1.1241 B( 63-C , 64-N ) :   3.0103 B( 65-C , 66-N ) :   2.9978
B( 67-C , 68-C ) :   1.4697 B( 67-C , 93-H ) :   0.9866 B( 68-C , 69-C ) :   1.2227
B( 68-C , 94-H ) :   0.9940 B( 69-C , 70-C ) :   1.2407 B( 69-C , 74-C ) :   1.2414
B( 70-C , 71-C ) :   1.2764 B( 71-C , 72-C ) :   1.4751 B( 71-C , 95-H ) :   0.9866
B( 72-C , 73-C ) :   1.2566 B( 72-C , 96-H ) :   0.9873 B( 73-C , 74-C ) :   1.4939
B( 73-C , 97-H ) :   0.9888 B( 74-C , 98-H ) :   0.9978

-----------------------------------------------------------------------------
         ABSORPTION SPECTRUM VIA TRANSITION ELECTRIC DIPOLE MOMENTS
-----------------------------------------------------------------------------
State   Energy  Wavelength   fosc         T2         TX        TY        TZ
        (cm-1)    (nm)                  (au**2)     (au)      (au)      (au)
-----------------------------------------------------------------------------
   0   21356.8    468.2   0.778759435  12.00444   0.20134   0.03789  -3.45868
   1   22264.4    449.1   0.718117143  10.61843   2.26113  -0.60618   2.26677
   2   25422.7    393.4   0.279405924   3.61818  -1.16328   0.32332  -1.46984
   3   25609.3    390.5   0.194593489   2.50153  -1.04903   0.16525  -1.17208
   4   25750.7    388.3   0.863591996  11.04066   1.78247  -0.06982  -2.80332
   5   26061.7    383.7   0.418203129   5.28275   1.44659  -0.74513   1.62324
   6   26838.3    372.6   0.014469071   0.17749  -0.27419  -0.25899  -0.18769
   7   27454.0    364.2   0.064362563   0.77180   0.85013  -0.22015   0.02453
   8   27589.5    362.5   0.287230025   3.42738   0.21499   1.19797  -1.39500
   9   27999.4    357.2   0.004396556   0.05169  -0.19291  -0.11925   0.01611
  10   29327.1    341.0   0.094669524   1.06272  -0.02642   0.30919   0.98307
  11   29707.6    336.6   0.027004293   0.29925   0.23410   0.49426   0.01257
  12   30187.9    331.3   0.177972400   1.94087   0.87513  -0.57040   0.92177
  13   30404.6    328.9   0.190633544   2.06412   1.28644  -0.63446   0.08149
  14   30578.9    327.0   0.221809584   2.38800   0.13991   0.89979  -1.24852
  15   30847.5    324.2   0.005296809   0.05653   0.14081  -0.05762   0.18271
  16   31031.7    322.3   0.354571616   3.76161  -1.84617   0.47933   0.35142
  17   31106.1    321.5   0.075239815   0.79630   0.85154  -0.22102  -0.14945
  18   31200.2    320.5   0.055304592   0.58355  -0.36343  -0.25941   0.61982
  19   31624.4    316.2   0.074895466   0.77967   0.13354  -0.30745   0.81689
  20   32064.7    311.9   0.286001821   2.93641  -0.03617  -1.49964   0.82836
  21   32370.8    308.9   0.089334188   0.90853   0.28316   0.66833   0.61781
  22   32525.0    307.5   0.150463744   1.52297   1.04023  -0.64914   0.13971
  23   32833.4    304.6   0.245007593   2.45663  -0.38656  -0.61465   1.38903
  24   33042.0    302.6   0.223023834   2.22208   0.60469  -0.64003   1.20283
  25   33191.1    301.3   0.145646868   1.44463   1.10386  -0.45566  -0.13602
  26   33539.1    298.2   0.469763311   4.61109  -0.02506  -1.18585   1.79004
  27   33786.5    296.0   0.098440163   0.95919   0.32795  -0.63608   0.66861
  28   34660.0    288.5   0.101483349   0.96392  -0.56427  -0.71038   0.37534
  29   35093.1    285.0   0.037436703   0.35120  -0.48597   0.21809   0.25974
  30   35104.7    284.9   0.192676297   1.80692  -0.30191  -0.66302   1.12968
  31   35523.4    281.5   0.063540225   0.58886   0.66426  -0.38382  -0.01709
  32   35602.0    280.9   0.050286127   0.46500  -0.57170   0.36967  -0.03869
  33   36022.5    277.6   0.000213701   0.00195  -0.01083  -0.03491   0.02485
  34   36232.8    276.0   0.009207680   0.08366  -0.24210   0.02554  -0.15619
  35   36653.1    272.8   0.013824636   0.12417   0.07020  -0.12420   0.32220
  36   36899.1    271.0   0.073731168   0.65783   0.62614  -0.16164  -0.48953
  37   37597.8    266.0   0.042121049   0.36882   0.23080  -0.50154   0.25299
  38   38122.6    262.3   0.036684880   0.31680  -0.29791   0.46096   0.12474
  39   38585.9    259.2   0.042379525   0.36158   0.00179  -0.31904   0.50970
  40   38736.3    258.2   0.013114648   0.11146  -0.16912  -0.23039  -0.17256
  41   38974.8    256.6   0.037833436   0.31957   0.09801  -0.22136   0.51084
  42   39302.9    254.4   0.022754887   0.19060   0.42182   0.08164  -0.07751
  43   39553.0    252.8   0.107036390   0.89090  -0.47009  -0.17877  -0.79872
  44   39840.2    251.0   0.037786051   0.31224  -0.07962   0.31229   0.45648
  45   40079.7    249.5   0.100075448   0.82201  -0.83908   0.00335   0.34344
  46   40265.3    248.4   0.162085136   1.32522   0.47855  -0.72078   0.75940

FINAL SINGLE POINT ENERGY     -4519.719021728787

DIPOLE MOMENT
-------------
                                X             Y             Z
Electronic contribution:     14.73994      -1.43965      -3.91341
Nuclear contribution   :    -18.16999       2.16841       4.95290
                        -----------------------------------------
Total Dipole Moment    :     -3.43005       0.72875       1.03949
                        -----------------------------------------
Magnitude (a.u.)       :      3.65744
Magnitude (Debye)      :      9.29647

Rotational constants in cm-1:     0.001545     0.000182     0.000168
Rotational constants in MHz :    46.332547     5.467836     5.025543

                             ****ORCA TERMINATED NORMALLY****
TOTAL RUN TIME: 0 days 0 hours 9 minutes 38 seconds 838 msec
