                         Program Version 4.2.0 -  RELEASE  -
|  1> # ORCA input file
|  2> # SCF done       -208.655245322658          0.000815510378
|  3> ! CAM-B3LYP def2-SVP def2/J RIJCOSX Grid4 TightSCF
|  4> %maxcore 5000
|  5> %tddft
|  6>     Mode sTDDFT
|  7>     Ethresh 5.0
|  8>     maxcore 5000
|  9> end
| 10>
| 11> %pal
| 12>   nprocs 6
| 13>   end
| 14> * xyz 0 1
| 15>    C        4.86061         0.97599        -3.76999
| 16>    C        4.16958        -0.20427        -4.36799
| 17>    O        4.36153        -1.36329        -4.07519
| 18>    C        3.19739         0.36446        -5.31746
| 19>    C        3.38377         1.74534        -5.40660
| 20>    C        4.52094         2.13038        -4.57820
| 21>    C        5.28975         3.24966        -4.74843
| 22>    C        6.55047         3.42191        -4.13737
| 23>    N        7.60354         3.57326        -3.70752
| 24>    C        4.96984         4.30754        -5.62364
| 25>    N        4.75209         5.20364        -6.30683
| 26>    C        2.56526         2.52492        -6.23380
| 27>    C        1.58227         1.90427        -6.95954
| 28>    C        1.37554         0.50810        -6.90332
| 29>    C        2.19791        -0.29460        -6.05982
| 30>    C        1.98559        -1.68699        -6.00410
| 31>    C        0.99961        -2.26226        -6.75752
| 32>    C        0.18825        -1.47704        -7.59204
| 33>    C        0.37044        -0.12306        -7.66379
| 34>    C        5.55155         0.83797        -2.61139
| 35>    C        5.94581         1.84128        -1.68835
| 36>    C        6.95434         1.74436        -0.75273
| 37>    C        7.09029         2.89193         0.02740
| 38>   Cl        8.29252         3.05661         1.23281
| 39>    C        6.15849         3.88795        -0.25556
| 40>    S        5.10659         3.35997        -1.53452
| 41>    C        6.03957         5.16629         0.33231
| 42>    C        5.09951         6.15421         0.04661
| 43>   Cl        3.84173         5.94911        -1.09919
| 44>    C        5.27545         7.33219         0.76178
| 45>    C        6.36481         7.28522         1.61450
| 46>    S        7.16192         5.74503         1.53515
| 47>    C        6.86115         8.33150         2.43771
| 48>    C        8.03466         8.16364         3.20361
| 49>    C        8.61628         9.22776         3.96538
| 50>    N        9.75344         9.00198         4.65235
| 51>    C       10.30098         7.83088         4.61983
| 52>    C        9.72094         6.77335         3.86801
| 53>    N        8.63238         6.95581         3.19411
| 54>    F       10.27953         5.56898         3.83870
| 55>    F       11.42019         7.64494         5.31000
| 56>    C        8.05281        10.52082         4.01736
| 57>    C        6.84483        10.68385         3.29875
| 58>    C        6.26174         9.61044         2.52124
| 59>    N        5.13560         9.99819         1.92128
| 60>    S        4.83676        11.52955         2.28843
| 61>    N        6.11224        11.79556         3.22229
| 62>    C        8.69543        11.57556         4.71971
| 63>    C        8.26576        12.88518         4.84715
| 64>    C        9.15990        13.68066         5.55302
| 65>   Cl        8.88003        15.34461         5.84591
| 66>    C       10.30215        13.00952         5.98646
| 67>    S       10.22481        11.33485         5.50496
| 68>    C       11.40714        13.54280         6.68657
| 69>    C       12.56376        12.87898         7.09705
| 70>   Cl       12.84025        11.21426         6.81370
| 71>    C       13.48178        13.68683         7.76103
| 72>    C       13.06454        14.99950         7.87753
| 73>    S       11.50671        15.21694         7.13471
| 74>    C       13.74202        16.12418         8.40566
| 75>    C       14.80376        16.17008         9.25225
| 76>    C       15.62462        17.41550         9.31862
| 77>    O       15.30729        18.49818         8.87914
| 78>    C       16.88339        17.01117         9.96769
| 79>    C       16.78200        15.68635        10.39512
| 80>    C       15.44112        15.18789        10.10198
| 81>    C       14.82615        14.13630        10.72825
| 82>    C       13.44743        13.86333        10.61054
| 83>    N       12.32357        13.63368        10.57873
| 84>    C       15.46906        13.26734        11.63385
| 85>    N       15.94612        12.52004        12.36266
| 86>    C       17.86406        15.05361        11.02009
| 87>    C       19.02049        15.76418        11.21169
| 88>    C       19.15049        17.11065        10.80617
| 89>    C       18.05884        17.76233        10.16134
| 90>    C       18.19456        19.10438         9.75181
| 91>    C       19.36442        19.77606         9.97708
| 92>    C       20.44166        19.14059        10.61541
| 93>    C       20.33900        17.83790        11.02013
| 94>    H        2.69775         3.59321        -6.29062
| 95>    H        0.93928         2.49019        -7.60039
| 96>    H        2.61485        -2.27983        -5.35933
| 97>    H        0.83817        -3.32899        -6.71528
| 98>    H       -0.58393        -1.95231        -8.17865
| 99>    H       -0.25257         0.48281        -8.30572
|100>    H        5.77290        -0.18433        -2.31920
|101>    H        7.60013         0.89032        -0.66429
|102>    H        4.64694         8.19726         0.66531
|103>    H        7.33987        13.23791         4.43369
|104>    H       14.43576        13.32525         8.09812
|105>    H       13.42019        17.08905         8.02518
|106>    H       17.79604        14.02467        11.33416
|107>    H       19.86661        15.28995        11.68762
|108>    H       17.36032        19.58173         9.26255
|109>    H       19.46775        20.80422         9.66405
|110>    H       21.35561        19.69058        10.78417
|111>    H       21.16681        17.34716        11.51122
|112> *
|113>
|114>                          ****END OF INPUT****

CARTESIAN COORDINATES (ANGSTROEM)
---------------------------------
  C      4.860610    0.975990   -3.769990
  C      4.169580   -0.204270   -4.367990
  O      4.361530   -1.363290   -4.075190
  C      3.197390    0.364460   -5.317460
  C      3.383770    1.745340   -5.406600
  C      4.520940    2.130380   -4.578200
  C      5.289750    3.249660   -4.748430
  C      6.550470    3.421910   -4.137370
  N      7.603540    3.573260   -3.707520
  C      4.969840    4.307540   -5.623640
  N      4.752090    5.203640   -6.306830
  C      2.565260    2.524920   -6.233800
  C      1.582270    1.904270   -6.959540
  C      1.375540    0.508100   -6.903320
  C      2.197910   -0.294600   -6.059820
  C      1.985590   -1.686990   -6.004100
  C      0.999610   -2.262260   -6.757520
  C      0.188250   -1.477040   -7.592040
  C      0.370440   -0.123060   -7.663790
  C      5.551550    0.837970   -2.611390
  C      5.945810    1.841280   -1.688350
  C      6.954340    1.744360   -0.752730
  C      7.090290    2.891930    0.027400
  Cl     8.292520    3.056610    1.232810
  C      6.158490    3.887950   -0.255560
  S      5.106590    3.359970   -1.534520
  C      6.039570    5.166290    0.332310
  C      5.099510    6.154210    0.046610
  Cl     3.841730    5.949110   -1.099190
  C      5.275450    7.332190    0.761780
  C      6.364810    7.285220    1.614500
  S      7.161920    5.745030    1.535150
  C      6.861150    8.331500    2.437710
  C      8.034660    8.163640    3.203610
  C      8.616280    9.227760    3.965380
  N      9.753440    9.001980    4.652350
  C     10.300980    7.830880    4.619830
  C      9.720940    6.773350    3.868010
  N      8.632380    6.955810    3.194110
  F     10.279530    5.568980    3.838700
  F     11.420190    7.644940    5.310000
  C      8.052810   10.520820    4.017360
  C      6.844830   10.683850    3.298750
  C      6.261740    9.610440    2.521240
  N      5.135600    9.998190    1.921280
  S      4.836760   11.529550    2.288430
  N      6.112240   11.795560    3.222290
  C      8.695430   11.575560    4.719710
  C      8.265760   12.885180    4.847150
  C      9.159900   13.680660    5.553020
  Cl     8.880030   15.344610    5.845910
  C     10.302150   13.009520    5.986460
  S     10.224810   11.334850    5.504960
  C     11.407140   13.542800    6.686570
  C     12.563760   12.878980    7.097050
  Cl    12.840250   11.214260    6.813700
  C     13.481780   13.686830    7.761030
  C     13.064540   14.999500    7.877530
  S     11.506710   15.216940    7.134710
  C     13.742020   16.124180    8.405660
  C     14.803760   16.170080    9.252250
  C     15.624620   17.415500    9.318620
  O     15.307290   18.498180    8.879140
  C     16.883390   17.011170    9.967690
  C     16.782000   15.686350   10.395120
  C     15.441120   15.187890   10.101980
  C     14.826150   14.136300   10.728250
  C     13.447430   13.863330   10.610540
  N     12.323570   13.633680   10.578730
  C     15.469060   13.267340   11.633850
  N     15.946120   12.520040   12.362660
  C     17.864060   15.053610   11.020090
  C     19.020490   15.764180   11.211690
  C     19.150490   17.110650   10.806170
  C     18.058840   17.762330   10.161340
  C     18.194560   19.104380    9.751810
  C     19.364420   19.776060    9.977080
  C     20.441660   19.140590   10.615410
  C     20.339000   17.837900   11.020130
  H      2.697750    3.593210   -6.290620
  H      0.939280    2.490190   -7.600390
  H      2.614850   -2.279830   -5.359330
  H      0.838170   -3.328990   -6.715280
  H     -0.583930   -1.952310   -8.178650
  H     -0.252570    0.482810   -8.305720
  H      5.772900   -0.184330   -2.319200
  H      7.600130    0.890320   -0.664290
  H      4.646940    8.197260    0.665310
  H      7.339870   13.237910    4.433690
  H     14.435760   13.325250    8.098120
  H     13.420190   17.089050    8.025180
  H     17.796040   14.024670   11.334160
  H     19.866610   15.289950   11.687620
  H     17.360320   19.581730    9.262550
  H     19.467750   20.804220    9.664050
  H     21.355610   19.690580   10.784170
  H     21.166810   17.347160   11.511220

 Total Charge           Charge          ....    0
 Multiplicity           Mult            ....    1
 Number of Electrons    NEL             ....  604
 Basis Dimension        Dim             .... 1232

ORBITAL ENERGIES
----------------

  NO   OCC          E(Eh)            E(eV)
   0   2.0000    -101.598446     -2764.6343
   1   2.0000    -101.598234     -2764.6285
   2   2.0000    -101.598073     -2764.6241
   3   2.0000    -101.597856     -2764.6182
   4   2.0000     -89.047495     -2423.1055
   5   2.0000     -88.970387     -2421.0073
   6   2.0000     -88.969585     -2420.9855
   7   2.0000     -88.962687     -2420.7978
   8   2.0000     -88.962653     -2420.7969
   9   2.0000     -24.823533      -675.4827
  10   2.0000     -24.823313      -675.4767
  11   2.0000     -19.216772      -522.9149
  12   2.0000     -19.216733      -522.9139
  13   2.0000     -14.464034      -393.5864
  14   2.0000     -14.463880      -393.5822
  15   2.0000     -14.456739      -393.3879
  16   2.0000     -14.456667      -393.3859
  17   2.0000     -14.414466      -392.2376
  18   2.0000     -14.413995      -392.2247
  19   2.0000     -14.412971      -392.1969
  20   2.0000     -14.410504      -392.1297
  21   2.0000     -10.440596      -284.1031
  22   2.0000     -10.440301      -284.0950
  23   2.0000     -10.367618      -282.1172
  24   2.0000     -10.367230      -282.1067
  25   2.0000     -10.350661      -281.6558
  26   2.0000     -10.350381      -281.6482
  27   2.0000     -10.346413      -281.5402
  28   2.0000     -10.346175      -281.5337
  29   2.0000     -10.343843      -281.4703
  30   2.0000     -10.343398      -281.4582
  31   2.0000     -10.341047      -281.3942
  32   2.0000     -10.340130      -281.3692
  33   2.0000     -10.336237      -281.2633
  34   2.0000     -10.335804      -281.2515
  35   2.0000     -10.332576      -281.1637
  36   2.0000     -10.332347      -281.1574
  37   2.0000     -10.329639      -281.0838
  38   2.0000     -10.328958      -281.0652
  39   2.0000     -10.321197      -280.8541
  40   2.0000     -10.321012      -280.8490
  41   2.0000     -10.318232      -280.7734
  42   2.0000     -10.318046      -280.7683
  43   2.0000     -10.317045      -280.7411
  44   2.0000     -10.316715      -280.7321
  45   2.0000     -10.316454      -280.7250
  46   2.0000     -10.316430      -280.7243
  47   2.0000     -10.314464      -280.6708
  48   2.0000     -10.314306      -280.6665
  49   2.0000     -10.313968      -280.6573
  50   2.0000     -10.313948      -280.6568
  51   2.0000     -10.313848      -280.6541
  52   2.0000     -10.312677      -280.6222
  53   2.0000     -10.308618      -280.5118
  54   2.0000     -10.308587      -280.5109
  55   2.0000     -10.296634      -280.1856
  56   2.0000     -10.296492      -280.1818
  57   2.0000     -10.296453      -280.1807
  58   2.0000     -10.295989      -280.1681
  59   2.0000     -10.295900      -280.1657
  60   2.0000     -10.295815      -280.1634
  61   2.0000     -10.295267      -280.1485
  62   2.0000     -10.295050      -280.1426
  63   2.0000     -10.294546      -280.1288
  64   2.0000     -10.294441      -280.1260
  65   2.0000     -10.294416      -280.1253
  66   2.0000     -10.294377      -280.1242
  67   2.0000     -10.290821      -280.0275
  68   2.0000     -10.290713      -280.0245
  69   2.0000     -10.283832      -279.8373
  70   2.0000     -10.283715      -279.8341
  71   2.0000     -10.283222      -279.8207
  72   2.0000     -10.283164      -279.8191
  73   2.0000     -10.282662      -279.8055
  74   2.0000     -10.282644      -279.8050
  75   2.0000     -10.280754      -279.7535
  76   2.0000     -10.280667      -279.7512
  77   2.0000     -10.276841      -279.6471
  78   2.0000     -10.276717      -279.6437
  79   2.0000      -9.553237      -259.9568
  80   2.0000      -9.552993      -259.9502
  81   2.0000      -9.552893      -259.9474
  82   2.0000      -9.552636      -259.9404
  83   2.0000      -8.138743      -221.4664
  84   2.0000      -8.065312      -219.4683
  85   2.0000      -8.063952      -219.4313
  86   2.0000      -8.056084      -219.2172
  87   2.0000      -8.056025      -219.2156
  88   2.0000      -7.323230      -199.2752
  89   2.0000      -7.323158      -199.2733
  90   2.0000      -7.322911      -199.2665
  91   2.0000      -7.322772      -199.2627
  92   2.0000      -7.313390      -199.0075
  93   2.0000      -7.313278      -199.0044
  94   2.0000      -7.313047      -198.9981
  95   2.0000      -7.313001      -198.9969
  96   2.0000      -7.312946      -198.9954
  97   2.0000      -7.312940      -198.9952
  98   2.0000      -7.312724      -198.9893
  99   2.0000      -7.312590      -198.9857
 100   2.0000      -6.109869      -166.2580
 101   2.0000      -6.101977      -166.0432
 102   2.0000      -6.101554      -166.0317
 103   2.0000      -6.034721      -164.2131
 104   2.0000      -6.033498      -164.1798
 105   2.0000      -6.030404      -164.0956
 106   2.0000      -6.029113      -164.0605
 107   2.0000      -6.027224      -164.0091
 108   2.0000      -6.025773      -163.9696
 109   2.0000      -6.025737      -163.9686
 110   2.0000      -6.025711      -163.9679
 111   2.0000      -6.021001      -163.8398
 112   2.0000      -6.020941      -163.8381
 113   2.0000      -6.017834      -163.7536
 114   2.0000      -6.017769      -163.7518
 115   2.0000      -1.352290       -36.7977
 116   2.0000      -1.338230       -36.4151
 117   2.0000      -1.145219       -31.1630
 118   2.0000      -1.131911       -30.8009
 119   2.0000      -1.131888       -30.8002
 120   2.0000      -1.123735       -30.5784
 121   2.0000      -1.050908       -28.5966
 122   2.0000      -1.026602       -27.9353
 123   2.0000      -1.026086       -27.9212
 124   2.0000      -1.017485       -27.6872
 125   2.0000      -1.016878       -27.6707
 126   2.0000      -1.004940       -27.3458
 127   2.0000      -1.003712       -27.3124
 128   2.0000      -0.997941       -27.1554
 129   2.0000      -0.997492       -27.1431
 130   2.0000      -0.995940       -27.1009
 131   2.0000      -0.991664       -26.9845
 132   2.0000      -0.990383       -26.9497
 133   2.0000      -0.980767       -26.6880
 134   2.0000      -0.968981       -26.3673
 135   2.0000      -0.968766       -26.3615
 136   2.0000      -0.959944       -26.1214
 137   2.0000      -0.957670       -26.0595
 138   2.0000      -0.950945       -25.8765
 139   2.0000      -0.944741       -25.7077
 140   2.0000      -0.921942       -25.0873
 141   2.0000      -0.921544       -25.0765
 142   2.0000      -0.906459       -24.6660
 143   2.0000      -0.904353       -24.6087
 144   2.0000      -0.899689       -24.4818
 145   2.0000      -0.892879       -24.2965
 146   2.0000      -0.891685       -24.2640
 147   2.0000      -0.886705       -24.1285
 148   2.0000      -0.869526       -23.6610
 149   2.0000      -0.863006       -23.4836
 150   2.0000      -0.853784       -23.2326
 151   2.0000      -0.851098       -23.1596
 152   2.0000      -0.838305       -22.8114
 153   2.0000      -0.837481       -22.7890
 154   2.0000      -0.829642       -22.5757
 155   2.0000      -0.827021       -22.5044
 156   2.0000      -0.822593       -22.3839
 157   2.0000      -0.819799       -22.3079
 158   2.0000      -0.814811       -22.1721
 159   2.0000      -0.804813       -21.9001
 160   2.0000      -0.792771       -21.5724
 161   2.0000      -0.778331       -21.1795
 162   2.0000      -0.776806       -21.1380
 163   2.0000      -0.770921       -20.9778
 164   2.0000      -0.766004       -20.8440
 165   2.0000      -0.754340       -20.5266
 166   2.0000      -0.754300       -20.5255
 167   2.0000      -0.730295       -19.8723
 168   2.0000      -0.713532       -19.4162
 169   2.0000      -0.713322       -19.4105
 170   2.0000      -0.711538       -19.3619
 171   2.0000      -0.710906       -19.3447
 172   2.0000      -0.701099       -19.0779
 173   2.0000      -0.700796       -19.0696
 174   2.0000      -0.696594       -18.9553
 175   2.0000      -0.687666       -18.7123
 176   2.0000      -0.683774       -18.6064
 177   2.0000      -0.676111       -18.3979
 178   2.0000      -0.674734       -18.3604
 179   2.0000      -0.673688       -18.3320
 180   2.0000      -0.660808       -17.9815
 181   2.0000      -0.659425       -17.9439
 182   2.0000      -0.653394       -17.7798
 183   2.0000      -0.644912       -17.5489
 184   2.0000      -0.636217       -17.3123
 185   2.0000      -0.632878       -17.2215
 186   2.0000      -0.629090       -17.1184
 187   2.0000      -0.628529       -17.1032
 188   2.0000      -0.627133       -17.0652
 189   2.0000      -0.625886       -17.0312
 190   2.0000      -0.621517       -16.9123
 191   2.0000      -0.614113       -16.7109
 192   2.0000      -0.611613       -16.6428
 193   2.0000      -0.603687       -16.4272
 194   2.0000      -0.595841       -16.2137
 195   2.0000      -0.590735       -16.0747
 196   2.0000      -0.588065       -16.0021
 197   2.0000      -0.587632       -15.9903
 198   2.0000      -0.586473       -15.9587
 199   2.0000      -0.578850       -15.7513
 200   2.0000      -0.577302       -15.7092
 201   2.0000      -0.575451       -15.6588
 202   2.0000      -0.571863       -15.5612
 203   2.0000      -0.569930       -15.5086
 204   2.0000      -0.562716       -15.3123
 205   2.0000      -0.559277       -15.2187
 206   2.0000      -0.553286       -15.0557
 207   2.0000      -0.549616       -14.9558
 208   2.0000      -0.545186       -14.8353
 209   2.0000      -0.538764       -14.6605
 210   2.0000      -0.536465       -14.5980
 211   2.0000      -0.535271       -14.5655
 212   2.0000      -0.532858       -14.4998
 213   2.0000      -0.530774       -14.4431
 214   2.0000      -0.528525       -14.3819
 215   2.0000      -0.527696       -14.3593
 216   2.0000      -0.526171       -14.3178
 217   2.0000      -0.525419       -14.2974
 218   2.0000      -0.522527       -14.2187
 219   2.0000      -0.520706       -14.1691
 220   2.0000      -0.520460       -14.1624
 221   2.0000      -0.518221       -14.1015
 222   2.0000      -0.513738       -13.9795
 223   2.0000      -0.512801       -13.9540
 224   2.0000      -0.507900       -13.8207
 225   2.0000      -0.506554       -13.7840
 226   2.0000      -0.505901       -13.7663
 227   2.0000      -0.505391       -13.7524
 228   2.0000      -0.502357       -13.6698
 229   2.0000      -0.500332       -13.6147
 230   2.0000      -0.499663       -13.5965
 231   2.0000      -0.498189       -13.5564
 232   2.0000      -0.495563       -13.4850
 233   2.0000      -0.494516       -13.4565
 234   2.0000      -0.492081       -13.3902
 235   2.0000      -0.489025       -13.3071
 236   2.0000      -0.486542       -13.2395
 237   2.0000      -0.484556       -13.1854
 238   2.0000      -0.480060       -13.0631
 239   2.0000      -0.477223       -12.9859
 240   2.0000      -0.475919       -12.9504
 241   2.0000      -0.473177       -12.8758
 242   2.0000      -0.471532       -12.8310
 243   2.0000      -0.466371       -12.6906
 244   2.0000      -0.465178       -12.6581
 245   2.0000      -0.463819       -12.6212
 246   2.0000      -0.459718       -12.5096
 247   2.0000      -0.457513       -12.4496
 248   2.0000      -0.448991       -12.2177
 249   2.0000      -0.448615       -12.2074
 250   2.0000      -0.446885       -12.1604
 251   2.0000      -0.445024       -12.1097
 252   2.0000      -0.442685       -12.0461
 253   2.0000      -0.441872       -12.0240
 254   2.0000      -0.440886       -11.9971
 255   2.0000      -0.439391       -11.9564
 256   2.0000      -0.438901       -11.9431
 257   2.0000      -0.436251       -11.8710
 258   2.0000      -0.434858       -11.8331
 259   2.0000      -0.432295       -11.7633
 260   2.0000      -0.431224       -11.7342
 261   2.0000      -0.429226       -11.6798
 262   2.0000      -0.429028       -11.6745
 263   2.0000      -0.428566       -11.6619
 264   2.0000      -0.425140       -11.5687
 265   2.0000      -0.423728       -11.5302
 266   2.0000      -0.418351       -11.3839
 267   2.0000      -0.416974       -11.3464
 268   2.0000      -0.416670       -11.3382
 269   2.0000      -0.412367       -11.2211
 270   2.0000      -0.411197       -11.1892
 271   2.0000      -0.408606       -11.1187
 272   2.0000      -0.407393       -11.0857
 273   2.0000      -0.404264       -11.0006
 274   2.0000      -0.397950       -10.8288
 275   2.0000      -0.394902       -10.7458
 276   2.0000      -0.389896       -10.6096
 277   2.0000      -0.386178       -10.5084
 278   2.0000      -0.381786       -10.3889
 279   2.0000      -0.380013       -10.3407
 280   2.0000      -0.377784       -10.2800
 281   2.0000      -0.376370       -10.2415
 282   2.0000      -0.366729        -9.9792
 283   2.0000      -0.363302        -9.8860
 284   2.0000      -0.356479        -9.7003
 285   2.0000      -0.348755        -9.4901
 286   2.0000      -0.347864        -9.4659
 287   2.0000      -0.346644        -9.4327
 288   2.0000      -0.339082        -9.2269
 289   2.0000      -0.334006        -9.0888
 290   2.0000      -0.330721        -8.9994
 291   2.0000      -0.325303        -8.8519
 292   2.0000      -0.323921        -8.8143
 293   2.0000      -0.317888        -8.6502
 294   2.0000      -0.316198        -8.6042
 295   2.0000      -0.314091        -8.5469
 296   2.0000      -0.312229        -8.4962
 297   2.0000      -0.297906        -8.1064
 298   2.0000      -0.292993        -7.9728
 299   2.0000      -0.292438        -7.9577
 300   2.0000      -0.267286        -7.2732
 301   2.0000      -0.237318        -6.4577
 302   0.0000      -0.122216        -3.3257
 303   0.0000      -0.086354        -2.3498
 304   0.0000      -0.084368        -2.2958
 305   0.0000      -0.069072        -1.8795
 306   0.0000      -0.067971        -1.8496

MULLIKEN ATOMIC CHARGES
-----------------------
   0 C :   -0.125982
   1 C :    0.120301
   2 O :   -0.148873
   3 C :    0.007841
   4 C :   -0.006008
   5 C :    0.244571
   6 C :   -0.315166
   7 C :   -0.204485
   8 N :    0.177111
   9 C :   -0.176874
  10 N :    0.153867
  11 C :   -0.021161
  12 C :    0.005013
  13 C :    0.079407
  14 C :    0.036529
  15 C :   -0.025608
  16 C :    0.035837
  17 C :    0.037679
  18 C :   -0.020419
  19 C :    0.058304
  20 C :   -0.090192
  21 C :    0.055980
  22 C :    0.070621
  23 Cl:   -0.055007
  24 C :   -0.087790
  25 S :    0.164169
  26 C :   -0.058992
  27 C :    0.077320
  28 Cl:   -0.063567
  29 C :   -0.001084
  30 C :   -0.157607
  31 S :    0.172429
  32 C :    0.195691
  33 C :   -0.055189
  34 C :   -0.058020
  35 N :   -0.037205
  36 C :    0.150055
  37 C :    0.152969
  38 N :   -0.039195
  39 F :   -0.133513
  40 F :   -0.132759
  41 C :    0.197704
  42 C :   -0.014450
  43 C :   -0.015271
  44 N :   -0.290989
  45 S :    0.552386
  46 N :   -0.292644
  47 C :   -0.157908
  48 C :   -0.001325
  49 C :    0.077352
  50 Cl:   -0.062985
  51 C :   -0.060756
  52 S :    0.171729
  53 C :   -0.086529
  54 C :    0.052011
  55 Cl:   -0.051962
  56 C :    0.046666
  57 C :   -0.104231
  58 S :    0.178690
  59 C :    0.096365
  60 C :   -0.126052
  61 C :    0.115463
  62 O :   -0.150252
  63 C :    0.014061
  64 C :   -0.011243
  65 C :    0.255196
  66 C :   -0.331867
  67 C :   -0.203746
  68 N :    0.176929
  69 C :   -0.177189
  70 N :    0.158694
  71 C :   -0.020337
  72 C :    0.004254
  73 C :    0.080230
  74 C :    0.034991
  75 C :   -0.026607
  76 C :    0.038415
  77 C :    0.038959
  78 C :   -0.021247
  79 H :    0.002948
  80 H :   -0.012420
  81 H :    0.000644
  82 H :   -0.005501
  83 H :   -0.006654
  84 H :   -0.020729
  85 H :    0.026001
  86 H :   -0.006977
  87 H :   -0.005933
  88 H :   -0.006096
  89 H :   -0.004359
  90 H :    0.021843
  91 H :    0.000833
  92 H :   -0.013109
  93 H :    0.000524
  94 H :   -0.006796
  95 H :   -0.006678
  96 H :   -0.021040
Sum of atomic charges:   -0.0000000

LOEWDIN ATOMIC CHARGES
----------------------
   0 C :   -0.090094
   1 C :    0.087140
   2 O :   -0.142210
   3 C :   -0.033696
   4 C :   -0.002916
   5 C :    0.060547
   6 C :   -0.134851
   7 C :   -0.034695
   8 N :   -0.044770
   9 C :   -0.020031
  10 N :   -0.049232
  11 C :   -0.017859
  12 C :    0.019238
  13 C :   -0.009761
  14 C :   -0.002822
  15 C :   -0.002187
  16 C :   -0.012535
  17 C :   -0.012989
  18 C :   -0.012501
  19 C :    0.046308
  20 C :   -0.186343
  21 C :   -0.030267
  22 C :   -0.170428
  23 Cl:    0.167438
  24 C :   -0.184797
  25 S :    0.477367
  26 C :   -0.212515
  27 C :   -0.167750
  28 Cl:    0.159204
  29 C :   -0.052708
  30 C :   -0.169534
  31 S :    0.489219
  32 C :   -0.040042
  33 C :   -0.014521
  34 C :   -0.014641
  35 N :   -0.050188
  36 C :    0.065102
  37 C :    0.065536
  38 N :   -0.050495
  39 F :   -0.022387
  40 F :   -0.022179
  41 C :   -0.040005
  42 C :   -0.037519
  43 C :   -0.037585
  44 N :   -0.277546
  45 S :    0.676874
  46 N :   -0.277796
  47 C :   -0.169948
  48 C :   -0.053084
  49 C :   -0.168554
  50 Cl:    0.159566
  51 C :   -0.212811
  52 S :    0.488835
  53 C :   -0.188083
  54 C :   -0.167016
  55 Cl:    0.168520
  56 C :   -0.035193
  57 C :   -0.188673
  58 S :    0.474877
  59 C :    0.043360
  60 C :   -0.088240
  61 C :    0.087275
  62 O :   -0.142058
  63 C :   -0.033347
  64 C :   -0.004692
  65 C :    0.065414
  66 C :   -0.136437
  67 C :   -0.019807
  68 N :   -0.038108
  69 C :   -0.021702
  70 N :   -0.049016
  71 C :   -0.017764
  72 C :    0.018821
  73 C :   -0.009532
  74 C :   -0.002866
  75 C :   -0.002194
  76 C :   -0.012181
  77 C :   -0.012745
  78 C :   -0.012481
  79 H :    0.039874
  80 H :    0.035590
  81 H :    0.035465
  82 H :    0.032800
  83 H :    0.031912
  84 H :    0.030295
  85 H :    0.051204
  86 H :    0.039081
  87 H :    0.032762
  88 H :    0.032518
  89 H :    0.035555
  90 H :    0.045837
  91 H :    0.039540
  92 H :    0.035508
  93 H :    0.035469
  94 H :    0.032619
  95 H :    0.031930
  96 H :    0.030331

  Mayer bond orders larger than 0.100000
B(  0-C ,  1-C ) :   0.9539 B(  0-C ,  5-C ) :   1.0170 B(  0-C , 19-C ) :   1.6812
B(  1-C ,  2-O ) :   2.1987 B(  1-C ,  3-C ) :   0.9406 B(  3-C ,  4-C ) :   1.4153
B(  3-C , 14-C ) :   1.2379 B(  4-C ,  5-C ) :   1.0059 B(  4-C , 11-C ) :   1.2614
B(  5-C ,  6-C ) :   1.6628 B(  6-C ,  7-C ) :   1.1506 B(  6-C ,  9-C ) :   1.1322
B(  7-C ,  8-N ) :   3.0274 B(  9-C , 10-N ) :   2.9951 B( 11-C , 12-C ) :   1.4695
B( 11-C , 79-H ) :   0.9854 B( 12-C , 13-C ) :   1.2239 B( 12-C , 80-H ) :   0.9940
B( 13-C , 14-C ) :   1.2429 B( 13-C , 18-C ) :   1.2401 B( 14-C , 15-C ) :   1.2754
B( 15-C , 16-C ) :   1.4763 B( 15-C , 81-H ) :   0.9865 B( 16-C , 17-C ) :   1.2552
B( 16-C , 82-H ) :   0.9869 B( 17-C , 18-C ) :   1.4965 B( 17-C , 83-H ) :   0.9889
B( 18-C , 84-H ) :   0.9976 B( 19-C , 20-C ) :   1.1073 B( 19-C , 85-H ) :   0.9458
B( 20-C , 21-C ) :   1.4252 B( 20-C , 25-S ) :   1.0969 B( 21-C , 22-C ) :   1.2919
B( 21-C , 86-H ) :   1.0082 B( 22-C , 23-Cl) :   1.0402 B( 22-C , 24-C ) :   1.4305
B( 24-C , 25-S ) :   1.1444 B( 24-C , 26-C ) :   1.2080 B( 26-C , 27-C ) :   1.4306
B( 26-C , 31-S ) :   1.0834 B( 27-C , 28-Cl) :   1.0309 B( 27-C , 29-C ) :   1.2756
B( 29-C , 30-C ) :   1.4285 B( 29-C , 87-H ) :   0.9935 B( 30-C , 31-S ) :   1.1049
B( 30-C , 32-C ) :   1.1846 B( 32-C , 33-C ) :   1.2957 B( 32-C , 41-C ) :   0.1287
B( 32-C , 43-C ) :   1.1924 B( 33-C , 34-C ) :   1.1240 B( 33-C , 38-N ) :   1.3782
B( 34-C , 35-N ) :   1.3788 B( 34-C , 41-C ) :   1.2959 B( 35-N , 36-C ) :   1.6587
B( 36-C , 37-C ) :   1.1036 B( 36-C , 40-F ) :   1.1882 B( 37-C , 38-N ) :   1.6588
B( 37-C , 39-F ) :   1.1874 B( 41-C , 42-C ) :   1.1914 B( 41-C , 47-C ) :   1.1854
B( 42-C , 43-C ) :   1.1031 B( 42-C , 46-N ) :   1.5100 B( 43-C , 44-N ) :   1.5106
B( 44-N , 45-S ) :   1.2808 B( 44-N , 46-N ) :   0.1514 B( 45-S , 46-N ) :   1.2802
B( 47-C , 48-C ) :   1.4285 B( 47-C , 52-S ) :   1.1050 B( 48-C , 49-C ) :   1.2747
B( 48-C , 88-H ) :   0.9936 B( 49-C , 50-Cl) :   1.0316 B( 49-C , 51-C ) :   1.4296
B( 51-C , 52-S ) :   1.0861 B( 51-C , 53-C ) :   1.2040 B( 53-C , 54-C ) :   1.4259
B( 53-C , 58-S ) :   1.1540 B( 54-C , 55-Cl) :   1.0473 B( 54-C , 56-C ) :   1.3302
B( 56-C , 57-C ) :   1.4244 B( 56-C , 89-H ) :   0.9958 B( 57-C , 58-S ) :   1.0944
B( 57-C , 59-C ) :   1.1167 B( 59-C , 60-C ) :   1.6850 B( 59-C , 90-H ) :   0.9284
B( 60-C , 61-C ) :   0.9558 B( 60-C , 65-C ) :   1.0297 B( 61-C , 62-O ) :   2.1939
B( 61-C , 63-C ) :   0.9396 B( 63-C , 64-C ) :   1.4184 B( 63-C , 74-C ) :   1.2346
B( 64-C , 65-C ) :   0.9999 B( 64-C , 71-C ) :   1.2622 B( 65-C , 66-C ) :   1.6538
B( 66-C , 67-C ) :   1.1609 B( 66-C , 69-C ) :   1.1249 B( 67-C , 68-N ) :   3.0120
B( 69-C , 70-N ) :   2.9970 B( 71-C , 72-C ) :   1.4675 B( 71-C , 91-H ) :   0.9860
B( 72-C , 73-C ) :   1.2265 B( 72-C , 92-H ) :   0.9934 B( 73-C , 74-C ) :   1.2413
B( 73-C , 78-C ) :   1.2384 B( 74-C , 75-C ) :   1.2770 B( 75-C , 76-C ) :   1.4751
B( 75-C , 93-H ) :   0.9858 B( 76-C , 77-C ) :   1.2559 B( 76-C , 94-H ) :   0.9870
B( 77-C , 78-C ) :   1.4965 B( 77-C , 95-H ) :   0.9885 B( 78-C , 96-H ) :   0.9975

-----------------------------------------------------------------------------
         ABSORPTION SPECTRUM VIA TRANSITION ELECTRIC DIPOLE MOMENTS
-----------------------------------------------------------------------------
State   Energy  Wavelength   fosc         T2         TX        TY        TZ
        (cm-1)    (nm)                  (au**2)     (au)      (au)      (au)
-----------------------------------------------------------------------------
   0   10029.5    997.1   0.977781597  32.09510   2.55865   3.83943   3.28743
   1   17520.2    570.8   0.065633403   1.23328  -1.01039   0.36669   0.27916
   2   18998.9    526.3   0.583325504  10.10784   1.37993   1.47650   2.45430
   3   19345.1    516.9   0.203317275   3.46002   1.51804   0.51130   0.94559
   4   23589.3    423.9   0.546811401   7.63129   1.59822   1.74224   1.42885
   5   23922.0    418.0   0.075027621   1.03252   0.28425  -0.76445  -0.60608
   6   24548.2    407.4   0.036354518   0.48754   0.37992   0.15840   0.56401
   7   24867.1    402.1   0.015128194   0.20028  -0.17677  -0.32354  -0.25369
   8   25141.5    397.7   0.006705661   0.08781  -0.16402   0.19967  -0.14504
   9   26492.5    377.5   0.136576938   1.69719  -0.83073  -0.89284  -0.45815
  10   26577.1    376.3   0.090904700   1.12604  -0.75597  -0.59465  -0.44827
  11   26888.6    371.9   0.139858136   1.71236   1.01895   0.82053  -0.02877
  12   27442.6    364.4   0.023740513   0.28480   0.10683   0.32152  -0.41232
  13   28045.5    356.6   0.042094385   0.49413  -0.35158   0.38520  -0.47131
  14   28110.0    355.7   0.015455518   0.18101   0.31588  -0.05589   0.27948
  15   29221.1    342.2   0.070352153   0.79260  -0.18853   0.86850  -0.05262
  16   29387.5    340.3   0.066205241   0.74166  -0.41740  -0.73959  -0.14295
  17   29688.7    336.8   0.127397502   1.41269   0.69244  -0.73844   0.62284
  18   29975.7    333.6   0.054514709   0.59872   0.11365   0.31382   0.69808
  19   30141.2    331.8   0.045494240   0.49690   0.57128   0.15460   0.38293
  20   30309.9    329.9   0.089527238   0.97240   0.65534  -0.72894   0.10756
  21   30506.6    327.8   0.031930489   0.34458   0.01881   0.38107   0.44610
  22   30868.5    324.0   0.210096323   2.24068   0.59623   1.36162   0.17658
  23   30933.5    323.3   0.028713619   0.30559  -0.01576   0.55088   0.04323
  24   31068.8    321.9   0.112391706   1.19093   0.80543   0.66643   0.31318
  25   31291.3    319.6   0.034458863   0.36254   0.42691   0.34241  -0.25108
  26   31611.2    316.3   0.076897091   0.80084   0.29880  -0.44210   0.71841
  27   31815.0    314.3   0.011471578   0.11870  -0.06491  -0.24077   0.23775
  28   31961.3    312.9   0.023625084   0.24335  -0.39643   0.27614  -0.09970
  29   32461.3    308.1   0.291117338   2.95241  -1.17170  -0.86625  -0.91057
  30   32755.9    305.3   0.074517999   0.74894  -0.86350  -0.01731   0.05494
  31   32804.7    304.8   0.061882139   0.62102  -0.37995  -0.69035  -0.00843
  32   33098.4    302.1   0.445215963   4.42832   0.95893   1.87067  -0.09675
  33   33192.4    301.3   0.053120678   0.52687  -0.05338   0.72094   0.06528
  34   33205.8    301.2   0.033412135   0.33126   0.44540   0.36272   0.03624
  35   33499.7    298.5   0.152708399   1.50071   0.68941   0.92507   0.41192
  36   33629.8    297.4   0.182671482   1.78822   0.84204   1.00407  -0.26655
  37   33867.3    295.3   0.276640259   2.68912  -1.53236  -0.56960  -0.12862
  38   34018.7    294.0   0.163919810   1.58632   0.95373   0.22411   0.79151
  39   34558.2    289.4   0.054530347   0.51947  -0.30319  -0.04490  -0.65233
  40   34848.9    287.0   0.032629452   0.30825  -0.46409  -0.21937  -0.21153
  41   35373.0    282.7   0.219151986   2.03962  -1.02050  -0.96553  -0.25680
  42   35847.9    279.0   0.056427746   0.51821   0.39712  -0.30686   0.51608
  43   35977.1    278.0   0.001738935   0.01591   0.00596   0.10320  -0.07230
  44   36257.4    275.8   0.022632439   0.20550  -0.05413   0.44316  -0.07862
  45   36792.8    271.8   0.004767101   0.04265  -0.11117  -0.12157  -0.12457
  46   37086.7    269.6   0.048713565   0.43242  -0.33087  -0.56427   0.06744
  47   37403.9    267.4   0.786517150   6.92257   1.96272  -1.58254   0.75224
  48   38389.7    260.5   0.061347890   0.52609  -0.19681   0.67108  -0.19237
  49   38555.5    259.4   0.005916690   0.05052  -0.15472   0.08597  -0.13853
  50   38701.6    258.4   0.071918013   0.61176   0.73685   0.00185   0.26232
  51   38798.3    257.7   0.036337668   0.30833  -0.54855   0.06279  -0.05906
  52   38905.6    257.0   0.012965294   0.10971  -0.26408  -0.18118   0.08454
  53   38957.3    256.7   0.046351034   0.39169   0.26347  -0.56020  -0.09197
  54   39059.4    256.0   0.012399804   0.10451  -0.17961   0.26659  -0.03439
  55   39465.2    253.4   0.027450632   0.22899  -0.40394  -0.05678  -0.25020
  56   39711.8    251.8   0.006485823   0.05377   0.23160  -0.00982   0.00582
  57   39779.9    251.4   0.075737894   0.62679   0.53846  -0.49342   0.30560
  58   40290.3    248.2   0.001082170   0.00884   0.08491   0.02086   0.03461
  59   40312.8    248.1   0.003427177   0.02799  -0.01168  -0.14392   0.08449

FINAL SINGLE POINT ENERGY     -6835.917621203910

DIPOLE MOMENT
-------------
                                X             Y             Z
Electronic contribution:    -13.43516      -2.68360      15.43874
Nuclear contribution   :     12.63166       2.97823     -16.26356
                        -----------------------------------------
Total Dipole Moment    :     -0.80350       0.29462      -0.82482
                        -----------------------------------------
Magnitude (a.u.)       :      1.18859
Magnitude (Debye)      :      3.02115

Rotational constants in cm-1:     0.002234     0.000160     0.000155
Rotational constants in MHz :    66.982750     4.797363     4.646398

                             ****ORCA TERMINATED NORMALLY****
TOTAL RUN TIME: 0 days 0 hours 19 minutes 39 seconds 840 msec
