                         Program Version 4.2.0 -  RELEASE  -
|  1> # ORCA input file
|  2> # SCF done       -168.271793494881          0.000759593330
|  3> ! CAM-B3LYP def2-SVP def2/J RIJCOSX Grid4 TightSCF
|  4> %maxcore 5000
|  5> %tddft
|  6>     Mode sTDDFT
|  7>     Ethresh 5.0
|  8>     maxcore 5000
|  9> end
| 10>
| 11> %pal
| 12>   nprocs 6
| 13>   end
| 14> * xyz 0 1
| 15>    C        4.56632         1.51618         1.57414
| 16>    C        4.37922         0.70880         2.81886
| 17>    O        3.91695        -0.40853         2.87160
| 18>    C        4.91620         1.54341         3.90513
| 19>    C        5.27049         2.79498         3.39827
| 20>    C        4.91679         2.86012         1.98281
| 21>    C        4.70759         4.01079         1.27003
| 22>    C        4.10398         4.04350        -0.00354
| 23>    N        3.59060         4.12857        -1.02652
| 24>    C        4.98368         5.30696         1.75366
| 25>    N        5.21212         6.38302         2.08079
| 26>    C        5.83869         3.76618         4.23282
| 27>    C        6.02724         3.46726         5.55722
| 28>    C        5.66077         2.21848         6.10552
| 29>    C        5.09161         1.21821         5.26420
| 30>    C        4.73038        -0.02879         5.81349
| 31>    C        4.92130        -0.27317         7.14561
| 32>    C        5.47905         0.70920         7.97968
| 33>    C        5.84203         1.92694         7.47270
| 34>    C        4.46836         0.88797         0.37575
| 35>    C        4.90325         1.29448        -0.91118
| 36>    C        5.86539         2.21785        -1.27393
| 37>    C        6.02067         2.28655        -2.65682
| 38>    C        5.18013         1.41810        -3.36808
| 39>    S        4.20653         0.48226        -2.30380
| 40>    C        5.31750         1.50218        -4.75492
| 41>    C        6.26543         2.43588        -5.10730
| 42>    S        6.99882         3.22285        -3.72528
| 43>    C        6.70197         2.82076        -6.41889
| 44>    C        6.26256         2.26172        -7.57710
| 45>    C        6.76488         2.71606        -8.83637
| 46>    C        6.34399         2.16952       -10.03584
| 47>    C        6.83928         2.62192       -11.26932
| 48>    N        7.24345         2.99837       -12.27652
| 49>    C        5.39862         1.13249       -10.07889
| 50>    N        4.62854         0.28008       -10.09939
| 51>    C        7.72918         3.76899        -8.77321
| 52>    C        8.11988         4.27740        -7.57465
| 53>    O        7.62312         3.81958        -6.39624
| 54>    C        9.07904         5.33554        -7.42374
| 55>    C        9.50165         5.90105        -6.24049
| 56>    C       10.44483         6.90502        -6.46753
| 57>    C       10.74089         7.11172        -7.82104
| 58>    S        9.84156         6.04150        -8.83013
| 59>    C       11.66803         8.12787        -8.05025
| 60>    C       12.12705         8.68118        -6.87362
| 61>    S       11.34934         7.97402        -5.46310
| 62>    C       13.04276         9.76488        -6.77840
| 63>    C       13.82317        10.14431        -5.73948
| 64>    C       14.37073        11.53427        -5.69480
| 65>    O       14.41850        12.30692        -6.62497
| 66>    C       14.76386        11.74216        -4.29127
| 67>    C       14.62178        10.54675        -3.58302
| 68>    C       14.19796         9.49435        -4.49909
| 69>    C       14.39463         8.15135        -4.32633
| 70>    C       14.25078         7.21354        -5.37154
| 71>    N       14.19720         6.43441        -6.21246
| 72>    C       14.85786         7.56563        -3.13030
| 73>    N       15.21540         7.03583        -2.17722
| 74>    C       14.91289        10.48812        -2.21425
| 75>    C       15.34636        11.62612        -1.58534
| 76>    C       15.51460        12.84769        -2.27437
| 77>    C       15.21579        12.92103        -3.66641
| 78>    C       15.38201        14.14292        -4.34928
| 79>    C       15.82985        15.24839        -3.67973
| 80>    C       16.12766        15.18168        -2.30922
| 81>    C       15.97368        14.00931        -1.62105
| 82>    H        6.13354         4.72669         3.84258
| 83>    H        6.46771         4.20381         6.21355
| 84>    H        4.30287        -0.77570         5.16345
| 85>    H        4.64273        -1.22756         7.56654
| 86>    H        5.61998         0.49454         9.02858
| 87>    H        6.27095         2.68423         8.11276
| 88>    H        4.03575        -0.10762         0.42601
| 89>    H        6.45116         2.78092        -0.57071
| 90>    H        4.75257         0.91663        -5.45501
| 91>    H        5.53371         1.46943        -7.55664
| 92>    H        8.14864         4.16096        -9.68631
| 93>    H        9.14255         5.59288        -5.27614
| 94>    H       12.02013         8.42874        -9.01946
| 95>    H       13.06823        10.42470        -7.64113
| 96>    H       14.78745         9.57012        -1.66321
| 97>    H       15.57142        11.60076        -0.52891
| 98>    H       15.15009        14.18262        -5.40184
| 99>    H       15.95785        16.18387        -4.20335
|100>    H       16.48014        16.06682        -1.80084
|101>    H       16.20296        13.95571        -0.56666
|102> *
|103>
|104>                          ****END OF INPUT****

CARTESIAN COORDINATES (ANGSTROEM)
---------------------------------
  C      4.566320    1.516180    1.574140
  C      4.379220    0.708800    2.818860
  O      3.916950   -0.408530    2.871600
  C      4.916200    1.543410    3.905130
  C      5.270490    2.794980    3.398270
  C      4.916790    2.860120    1.982810
  C      4.707590    4.010790    1.270030
  C      4.103980    4.043500   -0.003540
  N      3.590600    4.128570   -1.026520
  C      4.983680    5.306960    1.753660
  N      5.212120    6.383020    2.080790
  C      5.838690    3.766180    4.232820
  C      6.027240    3.467260    5.557220
  C      5.660770    2.218480    6.105520
  C      5.091610    1.218210    5.264200
  C      4.730380   -0.028790    5.813490
  C      4.921300   -0.273170    7.145610
  C      5.479050    0.709200    7.979680
  C      5.842030    1.926940    7.472700
  C      4.468360    0.887970    0.375750
  C      4.903250    1.294480   -0.911180
  C      5.865390    2.217850   -1.273930
  C      6.020670    2.286550   -2.656820
  C      5.180130    1.418100   -3.368080
  S      4.206530    0.482260   -2.303800
  C      5.317500    1.502180   -4.754920
  C      6.265430    2.435880   -5.107300
  S      6.998820    3.222850   -3.725280
  C      6.701970    2.820760   -6.418890
  C      6.262560    2.261720   -7.577100
  C      6.764880    2.716060   -8.836370
  C      6.343990    2.169520  -10.035840
  C      6.839280    2.621920  -11.269320
  N      7.243450    2.998370  -12.276520
  C      5.398620    1.132490  -10.078890
  N      4.628540    0.280080  -10.099390
  C      7.729180    3.768990   -8.773210
  C      8.119880    4.277400   -7.574650
  O      7.623120    3.819580   -6.396240
  C      9.079040    5.335540   -7.423740
  C      9.501650    5.901050   -6.240490
  C     10.444830    6.905020   -6.467530
  C     10.740890    7.111720   -7.821040
  S      9.841560    6.041500   -8.830130
  C     11.668030    8.127870   -8.050250
  C     12.127050    8.681180   -6.873620
  S     11.349340    7.974020   -5.463100
  C     13.042760    9.764880   -6.778400
  C     13.823170   10.144310   -5.739480
  C     14.370730   11.534270   -5.694800
  O     14.418500   12.306920   -6.624970
  C     14.763860   11.742160   -4.291270
  C     14.621780   10.546750   -3.583020
  C     14.197960    9.494350   -4.499090
  C     14.394630    8.151350   -4.326330
  C     14.250780    7.213540   -5.371540
  N     14.197200    6.434410   -6.212460
  C     14.857860    7.565630   -3.130300
  N     15.215400    7.035830   -2.177220
  C     14.912890   10.488120   -2.214250
  C     15.346360   11.626120   -1.585340
  C     15.514600   12.847690   -2.274370
  C     15.215790   12.921030   -3.666410
  C     15.382010   14.142920   -4.349280
  C     15.829850   15.248390   -3.679730
  C     16.127660   15.181680   -2.309220
  C     15.973680   14.009310   -1.621050
  H      6.133540    4.726690    3.842580
  H      6.467710    4.203810    6.213550
  H      4.302870   -0.775700    5.163450
  H      4.642730   -1.227560    7.566540
  H      5.619980    0.494540    9.028580
  H      6.270950    2.684230    8.112760
  H      4.035750   -0.107620    0.426010
  H      6.451160    2.780920   -0.570710
  H      4.752570    0.916630   -5.455010
  H      5.533710    1.469430   -7.556640
  H      8.148640    4.160960   -9.686310
  H      9.142550    5.592880   -5.276140
  H     12.020130    8.428740   -9.019460
  H     13.068230   10.424700   -7.641130
  H     14.787450    9.570120   -1.663210
  H     15.571420   11.600760   -0.528910
  H     15.150090   14.182620   -5.401840
  H     15.957850   16.183870   -4.203350
  H     16.480140   16.066820   -1.800840
  H     16.202960   13.955710   -0.566660

 Total Charge           Charge          ....    0
 Multiplicity           Mult            ....    1
 Number of Electrons    NEL             ....  474
 Basis Dimension        Dim             .... 1054

ORBITAL ENERGIES
----------------

  NO   OCC          E(Eh)            E(eV)
   0   2.0000     -88.985281     -2421.4126
   1   2.0000     -88.984819     -2421.4000
   2   2.0000     -88.980228     -2421.2751
   3   2.0000     -88.979975     -2421.2682
   4   2.0000     -19.331138      -526.0270
   5   2.0000     -19.226531      -523.1805
   6   2.0000     -19.225612      -523.1555
   7   2.0000     -14.424539      -392.5117
   8   2.0000     -14.424188      -392.5021
   9   2.0000     -14.422806      -392.4645
  10   2.0000     -14.419447      -392.3731
  11   2.0000     -14.397496      -391.7758
  12   2.0000     -14.396735      -391.7551
  13   2.0000     -10.394439      -282.8471
  14   2.0000     -10.394071      -282.8370
  15   2.0000     -10.376790      -282.3668
  16   2.0000     -10.376307      -282.3537
  17   2.0000     -10.354859      -281.7700
  18   2.0000     -10.353130      -281.7230
  19   2.0000     -10.352065      -281.6940
  20   2.0000     -10.349334      -281.6197
  21   2.0000     -10.339289      -281.3464
  22   2.0000     -10.338412      -281.3225
  23   2.0000     -10.336669      -281.2751
  24   2.0000     -10.331935      -281.1462
  25   2.0000     -10.331441      -281.1328
  26   2.0000     -10.328604      -281.0556
  27   2.0000     -10.327387      -281.0225
  28   2.0000     -10.326934      -281.0102
  29   2.0000     -10.326578      -281.0005
  30   2.0000     -10.325861      -280.9810
  31   2.0000     -10.325240      -280.9641
  32   2.0000     -10.325057      -280.9591
  33   2.0000     -10.325042      -280.9587
  34   2.0000     -10.324859      -280.9537
  35   2.0000     -10.321463      -280.8613
  36   2.0000     -10.318812      -280.7891
  37   2.0000     -10.317594      -280.7560
  38   2.0000     -10.316583      -280.7285
  39   2.0000     -10.315338      -280.6946
  40   2.0000     -10.313794      -280.6526
  41   2.0000     -10.313405      -280.6420
  42   2.0000     -10.312020      -280.6043
  43   2.0000     -10.309707      -280.5414
  44   2.0000     -10.309471      -280.5350
  45   2.0000     -10.308584      -280.5108
  46   2.0000     -10.307349      -280.4772
  47   2.0000     -10.303672      -280.3772
  48   2.0000     -10.303228      -280.3651
  49   2.0000     -10.303020      -280.3594
  50   2.0000     -10.302673      -280.3500
  51   2.0000     -10.302314      -280.3402
  52   2.0000     -10.302156      -280.3359
  53   2.0000     -10.302038      -280.3327
  54   2.0000     -10.301255      -280.3114
  55   2.0000     -10.301031      -280.3053
  56   2.0000     -10.300374      -280.2874
  57   2.0000     -10.298943      -280.2485
  58   2.0000     -10.297810      -280.2177
  59   2.0000     -10.289925      -280.0031
  60   2.0000     -10.289397      -279.9887
  61   2.0000     -10.289052      -279.9793
  62   2.0000     -10.288492      -279.9641
  63   2.0000     -10.287598      -279.9398
  64   2.0000     -10.286693      -279.9151
  65   2.0000     -10.283779      -279.8359
  66   2.0000     -10.282908      -279.8122
  67   2.0000      -8.080094      -219.8705
  68   2.0000      -8.079788      -219.8622
  69   2.0000      -8.075405      -219.7429
  70   2.0000      -8.075017      -219.7324
  71   2.0000      -6.049623      -164.6186
  72   2.0000      -6.049361      -164.6115
  73   2.0000      -6.045560      -164.5081
  74   2.0000      -6.045319      -164.5015
  75   2.0000      -6.044863      -164.4891
  76   2.0000      -6.044573      -164.4812
  77   2.0000      -6.041718      -164.4035
  78   2.0000      -6.041274      -164.3914
  79   2.0000      -6.040868      -164.3804
  80   2.0000      -6.040549      -164.3717
  81   2.0000      -6.037015      -164.2755
  82   2.0000      -6.036540      -164.2626
  83   2.0000      -1.241824       -33.7917
  84   2.0000      -1.141926       -31.0734
  85   2.0000      -1.140776       -31.0421
  86   2.0000      -1.036040       -28.1921
  87   2.0000      -1.034016       -28.1370
  88   2.0000      -1.027146       -27.9501
  89   2.0000      -1.025129       -27.8952
  90   2.0000      -1.007497       -27.4154
  91   2.0000      -1.005576       -27.3631
  92   2.0000      -1.002678       -27.2843
  93   2.0000      -0.999642       -27.2016
  94   2.0000      -0.998526       -27.1713
  95   2.0000      -0.986349       -26.8399
  96   2.0000      -0.978888       -26.6369
  97   2.0000      -0.976379       -26.5686
  98   2.0000      -0.974654       -26.5217
  99   2.0000      -0.970715       -26.4145
 100   2.0000      -0.960537       -26.1375
 101   2.0000      -0.935877       -25.4665
 102   2.0000      -0.929385       -25.2899
 103   2.0000      -0.926276       -25.2052
 104   2.0000      -0.912790       -24.8383
 105   2.0000      -0.910420       -24.7738
 106   2.0000      -0.896576       -24.3971
 107   2.0000      -0.893554       -24.3148
 108   2.0000      -0.887313       -24.1450
 109   2.0000      -0.882696       -24.0194
 110   2.0000      -0.876805       -23.8591
 111   2.0000      -0.864933       -23.5360
 112   2.0000      -0.863025       -23.4841
 113   2.0000      -0.848829       -23.0978
 114   2.0000      -0.846200       -23.0263
 115   2.0000      -0.832470       -22.6527
 116   2.0000      -0.828911       -22.5558
 117   2.0000      -0.824746       -22.4425
 118   2.0000      -0.813657       -22.1407
 119   2.0000      -0.797177       -21.6923
 120   2.0000      -0.792743       -21.5716
 121   2.0000      -0.781492       -21.2655
 122   2.0000      -0.778287       -21.1783
 123   2.0000      -0.762106       -20.7379
 124   2.0000      -0.752131       -20.4665
 125   2.0000      -0.724077       -19.7031
 126   2.0000      -0.721466       -19.6321
 127   2.0000      -0.720452       -19.6045
 128   2.0000      -0.718352       -19.5474
 129   2.0000      -0.711893       -19.3716
 130   2.0000      -0.708330       -19.2746
 131   2.0000      -0.690250       -18.7827
 132   2.0000      -0.689212       -18.7544
 133   2.0000      -0.683366       -18.5953
 134   2.0000      -0.683104       -18.5882
 135   2.0000      -0.674236       -18.3469
 136   2.0000      -0.667543       -18.1648
 137   2.0000      -0.663815       -18.0633
 138   2.0000      -0.651364       -17.7245
 139   2.0000      -0.648338       -17.6422
 140   2.0000      -0.637809       -17.3557
 141   2.0000      -0.636285       -17.3142
 142   2.0000      -0.635032       -17.2801
 143   2.0000      -0.619347       -16.8533
 144   2.0000      -0.616515       -16.7762
 145   2.0000      -0.606649       -16.5077
 146   2.0000      -0.604382       -16.4461
 147   2.0000      -0.598684       -16.2910
 148   2.0000      -0.596365       -16.2279
 149   2.0000      -0.596049       -16.2193
 150   2.0000      -0.595191       -16.1960
 151   2.0000      -0.594749       -16.1840
 152   2.0000      -0.592314       -16.1177
 153   2.0000      -0.590305       -16.0630
 154   2.0000      -0.580694       -15.8015
 155   2.0000      -0.577410       -15.7121
 156   2.0000      -0.572903       -15.5895
 157   2.0000      -0.570995       -15.5376
 158   2.0000      -0.550553       -14.9813
 159   2.0000      -0.547876       -14.9085
 160   2.0000      -0.546210       -14.8631
 161   2.0000      -0.544741       -14.8231
 162   2.0000      -0.537347       -14.6219
 163   2.0000      -0.534684       -14.5495
 164   2.0000      -0.534218       -14.5368
 165   2.0000      -0.532915       -14.5014
 166   2.0000      -0.529800       -14.4166
 167   2.0000      -0.527621       -14.3573
 168   2.0000      -0.521346       -14.1865
 169   2.0000      -0.519489       -14.1360
 170   2.0000      -0.513686       -13.9781
 171   2.0000      -0.512583       -13.9481
 172   2.0000      -0.511620       -13.9219
 173   2.0000      -0.510266       -13.8851
 174   2.0000      -0.507929       -13.8214
 175   2.0000      -0.506358       -13.7787
 176   2.0000      -0.505183       -13.7467
 177   2.0000      -0.502573       -13.6757
 178   2.0000      -0.495427       -13.4813
 179   2.0000      -0.494943       -13.4681
 180   2.0000      -0.491980       -13.3874
 181   2.0000      -0.491317       -13.3694
 182   2.0000      -0.487224       -13.2580
 183   2.0000      -0.485665       -13.2156
 184   2.0000      -0.484561       -13.1856
 185   2.0000      -0.482799       -13.1376
 186   2.0000      -0.478999       -13.0342
 187   2.0000      -0.477264       -12.9870
 188   2.0000      -0.474803       -12.9201
 189   2.0000      -0.469554       -12.7772
 190   2.0000      -0.463613       -12.6156
 191   2.0000      -0.458205       -12.4684
 192   2.0000      -0.457371       -12.4457
 193   2.0000      -0.456632       -12.4256
 194   2.0000      -0.453755       -12.3473
 195   2.0000      -0.449835       -12.2406
 196   2.0000      -0.447515       -12.1775
 197   2.0000      -0.446180       -12.1412
 198   2.0000      -0.444389       -12.0924
 199   2.0000      -0.441467       -12.0129
 200   2.0000      -0.439455       -11.9582
 201   2.0000      -0.436595       -11.8803
 202   2.0000      -0.435910       -11.8617
 203   2.0000      -0.435859       -11.8603
 204   2.0000      -0.434595       -11.8259
 205   2.0000      -0.432271       -11.7627
 206   2.0000      -0.431529       -11.7425
 207   2.0000      -0.429983       -11.7004
 208   2.0000      -0.429624       -11.6907
 209   2.0000      -0.427971       -11.6457
 210   2.0000      -0.426365       -11.6020
 211   2.0000      -0.422436       -11.4951
 212   2.0000      -0.419768       -11.4225
 213   2.0000      -0.415438       -11.3046
 214   2.0000      -0.414638       -11.2829
 215   2.0000      -0.411706       -11.2031
 216   2.0000      -0.409405       -11.1405
 217   2.0000      -0.402717       -10.9585
 218   2.0000      -0.399023       -10.8580
 219   2.0000      -0.392969       -10.6932
 220   2.0000      -0.385246       -10.4831
 221   2.0000      -0.383790       -10.4435
 222   2.0000      -0.377963       -10.2849
 223   2.0000      -0.372186       -10.1277
 224   2.0000      -0.361943        -9.8490
 225   2.0000      -0.350504        -9.5377
 226   2.0000      -0.343492        -9.3469
 227   2.0000      -0.340517        -9.2659
 228   2.0000      -0.325738        -8.8638
 229   2.0000      -0.322814        -8.7842
 230   2.0000      -0.315814        -8.5937
 231   2.0000      -0.315475        -8.5845
 232   2.0000      -0.304983        -8.2990
 233   2.0000      -0.300726        -8.1832
 234   2.0000      -0.298861        -8.1324
 235   2.0000      -0.279276        -7.5995
 236   2.0000      -0.271222        -7.3803
 237   0.0000      -0.103224        -2.8089
 238   0.0000      -0.098502        -2.6804
 239   0.0000      -0.082488        -2.2446
 240   0.0000      -0.078864        -2.1460
 241   0.0000      -0.059649        -1.6231

MULLIKEN ATOMIC CHARGES
-----------------------
   0 C :   -0.117681
   1 C :    0.114533
   2 O :   -0.146771
   3 C :    0.015530
   4 C :   -0.010932
   5 C :    0.264091
   6 C :   -0.337450
   7 C :   -0.206602
   8 N :    0.181965
   9 C :   -0.175335
  10 N :    0.161142
  11 C :   -0.023161
  12 C :    0.007929
  13 C :    0.076629
  14 C :    0.037138
  15 C :   -0.026985
  16 C :    0.040962
  17 C :    0.038345
  18 C :   -0.018641
  19 C :    0.081457
  20 C :   -0.121200
  21 C :    0.018899
  22 C :   -0.026327
  23 C :   -0.011086
  24 S :    0.175352
  25 C :   -0.010979
  26 C :   -0.110918
  27 S :    0.183712
  28 C :    0.281164
  29 C :   -0.173235
  30 C :    0.296566
  31 C :   -0.353202
  32 C :   -0.177740
  33 N :    0.134019
  34 C :   -0.174816
  35 N :    0.129228
  36 C :   -0.175785
  37 C :    0.271781
  38 O :   -0.238160
  39 C :   -0.104763
  40 C :   -0.015900
  41 C :   -0.005311
  42 C :    0.001176
  43 S :    0.172003
  44 C :    0.023567
  45 C :   -0.105143
  46 S :    0.168146
  47 C :    0.046427
  48 C :   -0.116412
  49 C :    0.121587
  50 O :   -0.146060
  51 C :    0.008712
  52 C :   -0.006610
  53 C :    0.241017
  54 C :   -0.316352
  55 C :   -0.207130
  56 N :    0.180548
  57 C :   -0.177065
  58 N :    0.161720
  59 C :   -0.021443
  60 C :    0.008356
  61 C :    0.079697
  62 C :    0.037427
  63 C :   -0.026837
  64 C :    0.039417
  65 C :    0.039488
  66 C :   -0.020131
  67 H :    0.000710
  68 H :   -0.010202
  69 H :    0.001963
  70 H :   -0.005012
  71 H :   -0.003762
  72 H :   -0.019411
  73 H :    0.026184
  74 H :    0.004976
  75 H :    0.007597
  76 H :    0.025783
  77 H :    0.037460
  78 H :    0.001071
  79 H :    0.003996
  80 H :    0.030708
  81 H :    0.002430
  82 H :   -0.010378
  83 H :    0.001449
  84 H :   -0.004830
  85 H :   -0.004968
  86 H :   -0.019326
Sum of atomic charges:   -0.0000000

LOEWDIN ATOMIC CHARGES
----------------------
   0 C :   -0.081590
   1 C :    0.088035
   2 O :   -0.137567
   3 C :   -0.032893
   4 C :   -0.004931
   5 C :    0.066121
   6 C :   -0.135567
   7 C :   -0.020256
   8 N :   -0.036479
   9 C :   -0.021827
  10 N :   -0.045992
  11 C :   -0.018397
  12 C :    0.021324
  13 C :   -0.008843
  14 C :   -0.002359
  15 C :   -0.001723
  16 C :   -0.009905
  17 C :   -0.010418
  18 C :   -0.011509
  19 C :    0.040297
  20 C :   -0.167733
  21 C :   -0.029430
  22 C :   -0.190129
  23 C :   -0.187307
  24 S :    0.454507
  25 C :   -0.037313
  26 C :   -0.175520
  27 S :    0.450665
  28 C :    0.075653
  29 C :   -0.045436
  30 C :    0.054826
  31 C :   -0.176930
  32 C :   -0.030769
  33 N :   -0.068023
  34 C :   -0.029591
  35 N :   -0.071120
  36 C :   -0.054728
  37 C :    0.077207
  38 O :   -0.009023
  39 C :   -0.177586
  40 C :   -0.036812
  41 C :   -0.186310
  42 C :   -0.189246
  43 S :    0.458502
  44 C :   -0.024607
  45 C :   -0.163694
  46 S :    0.456284
  47 C :    0.043135
  48 C :   -0.083121
  49 C :    0.088247
  50 O :   -0.137873
  51 C :   -0.033464
  52 C :   -0.003148
  53 C :    0.060791
  54 C :   -0.133021
  55 C :   -0.035184
  56 N :   -0.043143
  57 C :   -0.020670
  58 N :   -0.044908
  59 C :   -0.017903
  60 C :    0.021783
  61 C :   -0.009079
  62 C :   -0.002420
  63 C :   -0.001875
  64 C :   -0.010139
  65 C :   -0.010808
  66 C :   -0.011479
  67 H :    0.039488
  68 H :    0.036645
  69 H :    0.036063
  70 H :    0.033530
  71 H :    0.033095
  72 H :    0.031095
  73 H :    0.047197
  74 H :    0.037813
  75 H :    0.042395
  76 H :    0.048137
  77 H :    0.042876
  78 H :    0.038913
  79 H :    0.042171
  80 H :    0.053315
  81 H :    0.039895
  82 H :    0.036553
  83 H :    0.035921
  84 H :    0.033491
  85 H :    0.032801
  86 H :    0.031025

  Mayer bond orders larger than 0.100000
B(  0-C ,  1-C ) :   0.9524 B(  0-C ,  5-C ) :   1.0194 B(  0-C , 19-C ) :   1.7157
B(  1-C ,  2-O ) :   2.1938 B(  1-C ,  3-C ) :   0.9408 B(  3-C ,  4-C ) :   1.4120
B(  3-C , 14-C ) :   1.2381 B(  4-C ,  5-C ) :   1.0032 B(  4-C , 11-C ) :   1.2609
B(  5-C ,  6-C ) :   1.6539 B(  6-C ,  7-C ) :   1.1656 B(  6-C ,  9-C ) :   1.1231
B(  7-C ,  8-N ) :   3.0093 B(  9-C , 10-N ) :   2.9969 B( 11-C , 12-C ) :   1.4694
B( 11-C , 67-H ) :   0.9858 B( 12-C , 13-C ) :   1.2239 B( 12-C , 68-H ) :   0.9930
B( 13-C , 14-C ) :   1.2397 B( 13-C , 18-C ) :   1.2422 B( 14-C , 15-C ) :   1.2750
B( 15-C , 16-C ) :   1.4765 B( 15-C , 69-H ) :   0.9860 B( 16-C , 17-C ) :   1.2564
B( 16-C , 70-H ) :   0.9867 B( 17-C , 18-C ) :   1.4948 B( 17-C , 71-H ) :   0.9893
B( 18-C , 72-H ) :   0.9968 B( 19-C , 20-C ) :   1.1068 B( 19-C , 73-H ) :   0.9215
B( 20-C , 21-C ) :   1.4790 B( 20-C , 24-S ) :   1.0994 B( 21-C , 22-C ) :   1.3009
B( 21-C , 74-H ) :   0.9905 B( 22-C , 23-C ) :   1.4104 B( 22-C , 27-S ) :   1.0677
B( 23-C , 24-S ) :   1.0886 B( 23-C , 25-C ) :   1.2624 B( 25-C , 26-C ) :   1.5532
B( 25-C , 75-H ) :   0.9908 B( 26-C , 27-S ) :   1.1004 B( 26-C , 28-C ) :   1.0593
B( 28-C , 29-C ) :   1.5896 B( 28-C , 38-O ) :   1.1234 B( 29-C , 30-C ) :   1.1188
B( 29-C , 76-H ) :   0.9648 B( 30-C , 31-C ) :   1.5420 B( 30-C , 36-C ) :   1.1350
B( 31-C , 32-C ) :   1.1331 B( 31-C , 34-C ) :   1.1364 B( 32-C , 33-N ) :   3.0072
B( 34-C , 35-N ) :   3.0039 B( 36-C , 37-C ) :   1.5592 B( 36-C , 77-H ) :   0.9587
B( 37-C , 38-O ) :   1.1341 B( 37-C , 39-C ) :   1.1089 B( 39-C , 40-C ) :   1.4924
B( 39-C , 43-S ) :   1.1180 B( 40-C , 41-C ) :   1.2456 B( 40-C , 78-H ) :   1.0114
B( 41-C , 42-C ) :   1.4032 B( 41-C , 46-S ) :   1.0822 B( 42-C , 43-S ) :   1.0739
B( 42-C , 44-C ) :   1.2598 B( 44-C , 45-C ) :   1.4783 B( 44-C , 79-H ) :   1.0065
B( 45-C , 46-S ) :   1.1033 B( 45-C , 47-C ) :   1.1056 B( 47-C , 48-C ) :   1.7042
B( 47-C , 80-H ) :   0.9422 B( 48-C , 49-C ) :   0.9473 B( 48-C , 53-C ) :   1.0103
B( 49-C , 50-O ) :   2.2003 B( 49-C , 51-C ) :   0.9423 B( 51-C , 52-C ) :   1.4123
B( 51-C , 62-C ) :   1.2371 B( 52-C , 53-C ) :   1.0090 B( 52-C , 59-C ) :   1.2596
B( 53-C , 54-C ) :   1.6697 B( 54-C , 55-C ) :   1.1509 B( 54-C , 57-C ) :   1.1305
B( 55-C , 56-N ) :   3.0312 B( 57-C , 58-N ) :   2.9992 B( 59-C , 60-C ) :   1.4686
B( 59-C , 81-H ) :   0.9870 B( 60-C , 61-C ) :   1.2234 B( 60-C , 82-H ) :   0.9937
B( 61-C , 62-C ) :   1.2409 B( 61-C , 66-C ) :   1.2416 B( 62-C , 63-C ) :   1.2754
B( 63-C , 64-C ) :   1.4759 B( 63-C , 83-H ) :   0.9868 B( 64-C , 65-C ) :   1.2559
B( 64-C , 84-H ) :   0.9872 B( 65-C , 66-C ) :   1.4953 B( 65-C , 85-H ) :   0.9889
B( 66-C , 86-H ) :   0.9973

-----------------------------------------------------------------------------
         ABSORPTION SPECTRUM VIA TRANSITION ELECTRIC DIPOLE MOMENTS
-----------------------------------------------------------------------------
State   Energy  Wavelength   fosc         T2         TX        TY        TZ
        (cm-1)    (nm)                  (au**2)     (au)      (au)      (au)
-----------------------------------------------------------------------------
   0   21193.8    471.8   0.804335427  12.49407  -2.07895  -1.11785   2.63105
   1   22062.4    453.3   1.240794956  18.51498   2.02182   2.09966   3.16522
   2   24992.5    400.1   0.116137235   1.52981  -0.48571  -0.43673   1.05032
   3   25111.9    398.2   0.179746967   2.35645  -0.28479  -0.46871  -1.43376
   4   25835.7    387.1   0.148549185   1.89289  -0.98531  -0.61708   0.73571
   5   26834.0    372.7   0.014670157   0.17998   0.07678  -0.27011   0.31800
   6   27337.9    365.8   0.355832398   4.28504  -0.23913  -1.68486   1.17860
   7   27808.6    359.6   0.700146926   8.28867  -1.00406  -1.56064  -2.20112
   8   28713.9    348.3   0.118466634   1.35825  -0.31232  -0.46188  -1.02341
   9   29026.0    344.5   0.051434349   0.58337   0.29764   0.45328   0.53788
  10   29684.1    336.9   0.008485874   0.09411  -0.01743  -0.11747   0.28286
  11   29992.6    333.4   0.075590352   0.82971   0.36210   0.80603  -0.22116
  12   30378.6    329.2   0.022211141   0.24070  -0.30371  -0.30911  -0.23003
  13   30698.0    325.8   0.103066326   1.10531  -0.01058  -0.82885   0.64669
  14   30772.7    325.0   0.149734553   1.60189   0.15979  -1.10525   0.59563
  15   31048.4    322.1   0.058113363   0.61619  -0.14840   0.13197  -0.75944
  16   31213.4    320.4   0.203160030   2.14275   0.40700   0.87277   1.10244
  17   31873.9    313.7   0.042850816   0.44259   0.15786   0.30884  -0.56770
  18   32156.4    311.0   0.112338901   1.15011   0.50260   0.94599   0.05107
  19   32221.6    310.4   0.128512662   1.31303  -0.16282  -0.11071  -1.12883
  20   32486.2    307.8   0.594055585   6.02011  -0.30726  -2.15698   1.12833
  21   32635.6    306.4   0.239787021   2.41886  -0.40807  -0.69928  -1.32791
  22   33023.0    302.8   0.043296245   0.43163   0.52663  -0.23208   0.31691
  23   33860.4    295.3   0.220732878   2.14610  -0.51395  -0.44438  -1.29788
  24   34083.5    293.4   0.086745913   0.83788  -0.12911   0.77223  -0.47420
  25   34230.6    292.1   0.012207945   0.11741   0.15533   0.16239  -0.25868
  26   34412.5    290.6   0.189358615   1.81153   0.03374   1.29447  -0.36706
  27   34521.2    289.7   0.022842253   0.21784   0.09520  -0.00253  -0.45691
  28   35505.3    281.6   0.039501111   0.36626  -0.01251  -0.44850  -0.40615
  29   35730.7    279.9   0.001946021   0.01793  -0.00153  -0.06271   0.11830
  30   35806.3    279.3   0.035566993   0.32701  -0.28320  -0.41523  -0.27275
  31   36118.2    276.9   0.003085296   0.02812   0.06993  -0.14728   0.03925
  32   36172.1    276.5   0.014044882   0.12783   0.06697  -0.14620   0.31932
  33   36741.2    272.2   0.055093359   0.49365  -0.32008  -0.49815  -0.37821
  34   37066.3    269.8   0.007688479   0.06829  -0.03039  -0.18432   0.18272
  35   37614.3    265.9   0.124020256   1.08546   0.21538   0.83605  -0.58318
  36   38604.4    259.0   0.066832426   0.56994   0.14614   0.64576  -0.36273
  37   39392.8    253.9   0.086454803   0.72252   0.18049   0.64135   0.52783
  38   39589.1    252.6   0.014546026   0.12096   0.06200  -0.20933   0.27073
  39   39658.7    252.2   0.153680345   1.27572  -0.33312  -0.07296  -1.07677
  40   39801.4    251.2   0.047830677   0.39563  -0.05333   0.60891   0.14835
  41   39902.0    250.6   0.093594434   0.77220   0.00201   0.71047  -0.51714

FINAL SINGLE POINT ENERGY     -4212.810446900037

DIPOLE MOMENT
-------------
                                X             Y             Z
Electronic contribution:    -11.33611     -14.99146     -34.24576
Nuclear contribution   :     12.77376      17.02791      39.07962
                        -----------------------------------------
Total Dipole Moment    :      1.43764       2.03646       4.83386
                        -----------------------------------------
Magnitude (a.u.)       :      5.43877
Magnitude (Debye)      :     13.82425

Rotational constants in cm-1:     0.000915     0.000446     0.000314
Rotational constants in MHz :    27.416156    13.376355     9.399200

                             ****ORCA TERMINATED NORMALLY****
TOTAL RUN TIME: 0 days 0 hours 8 minutes 3 seconds 701 msec
