                         Program Version 4.2.0 -  RELEASE  -
|  1> # ORCA input file
|  2> # SCF done       -192.028355499428          0.000899529045
|  3> ! CAM-B3LYP def2-SVP def2/J RIJCOSX Grid4 TightSCF
|  4> %maxcore 5000
|  5> %tddft
|  6>     Mode sTDDFT
|  7>     Ethresh 5.0
|  8>     maxcore 5000
|  9> end
| 10>
| 11> %pal
| 12>   nprocs 6
| 13>   end
| 14> * xyz 0 1
| 15>    C        2.30936         1.30912        -0.00829
| 16>    C        1.12438         2.16464        -0.30476
| 17>    O        0.07429         1.78427        -0.77371
| 18>    C        1.50595         3.51601         0.14182
| 19>    C        2.84396         3.51530         0.54084
| 20>    C        3.41397         2.19327         0.30564
| 21>    C        4.74403         1.92260         0.12308
| 22>    C        5.23146         0.70567        -0.39890
| 23>    N        5.66865        -0.24469        -0.87233
| 24>    C        5.78028         2.85368         0.34133
| 25>    N        6.66785         3.55973         0.51704
| 26>    C        3.44411         4.68191         1.03181
| 27>    C        2.69543         5.82772         1.10056
| 28>    C        1.34572         5.86828         0.68648
| 29>    C        0.72074         4.68425         0.19642
| 30>    C       -0.62786         4.72909        -0.21160
| 31>    C       -1.32796         5.90202        -0.14193
| 32>    C       -0.71642         7.07209         0.33641
| 33>    C        0.58974         7.05674         0.74269
| 34>    C        2.19129        -0.04197        -0.00148
| 35>    C        3.06365        -0.99916         0.57945
| 36>    C        3.25371        -2.30207         0.14867
| 37>    C        4.20768        -2.97359         0.90002
| 38>    C        4.70313        -2.20345         1.95176
| 39>    S        4.02617        -0.63319         2.00220
| 40>    C        5.68021        -2.95169         2.65129
| 41>    C        5.82889        -4.18999         2.02830
| 42>    C        4.89477        -4.31710         0.84912
| 43>    C        5.68026        -4.46647        -0.45825
| 44>    C        3.91041        -5.47487         1.03096
| 45>    C        6.81458        -4.97350         2.61816
| 46>    C        7.40738        -4.33064         3.69102
| 47>    S        6.72529        -2.74726         3.99294
| 48>    C        8.44925        -4.79970         4.55280
| 49>    C        9.49285        -5.70157         4.38688
| 50>    C        9.91095        -6.44192         3.19132
| 51>    O       10.49495        -7.49240         3.23304
| 52>    O        9.62469        -5.87609         2.00304
| 53>    C       10.12630        -5.71719         5.67803
| 54>    N        9.50333        -4.88223         6.48592
| 55>    O        8.47936        -4.32603         5.80723
| 56>    C       11.29011        -6.40838         6.14238
| 57>    C       11.82512        -6.22482         7.40915
| 58>    C       12.98920        -6.95338         7.59243
| 59>    C       13.33760        -7.68741         6.45625
| 60>    S       12.22019        -7.51236         5.16849
| 61>    C       14.55536        -8.36082         6.71072
| 62>    C       14.98737        -8.05849         8.00586
| 63>    C       13.99965        -7.14902         8.69825
| 64>    C       13.36682        -7.84501         9.90715
| 65>    C       14.64493        -5.82381         9.11045
| 66>    C       16.20803        -8.63333         8.30899
| 67>    C       16.71236        -9.40499         7.26601
| 68>    S       15.64079        -9.37809         5.87122
| 69>    C       17.98506       -10.01227         7.24681
| 70>    C       18.51634       -10.90261         6.36417
| 71>    C       19.99341       -10.99515         6.21585
| 72>    O       20.81944       -10.55737         6.98823
| 73>    C       20.20542       -11.66676         4.91913
| 74>    C       18.97789       -12.08940         4.40871
| 75>    C       17.92629       -11.76790         5.36933
| 76>    C       16.71584       -12.40193         5.47363
| 77>    C       15.88260       -12.26660         6.60360
| 78>    N       15.21430       -12.21964         7.53580
| 79>    C       16.22887       -13.33670         4.53924
| 80>    N       15.78551       -14.09856         3.80374
| 81>    C       18.90228       -12.73398         3.16795
| 82>    C       20.05978       -12.94121         2.46361
| 83>    C       21.31961       -12.53315         2.95435
| 84>    C       21.40765       -11.87656         4.21646
| 85>    C       22.66716       -11.46719         4.69987
| 86>    C       23.79508       -11.69932         3.96244
| 87>    C       23.71460       -12.34628         2.71868
| 88>    C       22.50599       -12.75437         2.22533
| 89>    H        4.47091         4.67772         1.35989
| 90>    H        3.14125         6.73622         1.47919
| 91>    H       -1.08715         3.82442        -0.57774
| 92>    H       -2.36031         5.93623        -0.45633
| 93>    H       -1.28781         7.98742         0.38144
| 94>    H        1.06266         7.95585         1.11065
| 95>    H        1.28851        -0.43621        -0.45932
| 96>    H        2.74597        -2.70034        -0.71088
| 97>    H        6.33700        -3.61202        -0.60243
| 98>    H        4.99358        -4.51903        -1.29874
| 99>    H        6.27839        -5.37370        -0.43434
|100>    H        3.36289        -5.36560         1.96438
|101>    H        4.44686        -6.41998         1.04889
|102>    H        3.19953        -5.49112         0.20909
|103>    H        7.07299        -5.97042         2.30912
|104>    H        9.20253        -5.00929         2.07825
|105>    H       11.35832        -5.57380         8.12452
|106>    H       12.92751        -8.79348         9.60795
|107>    H       12.58857        -7.21663        10.33256
|108>    H       14.12194        -8.03519        10.66562
|109>    H       15.09433        -5.33744         8.24772
|110>    H       15.41778        -5.99938         9.85453
|111>    H       13.89428        -5.16084         9.53261
|112>    H       16.73013        -8.52872         9.24308
|113>    H       18.68470        -9.63313         7.98656
|114>    H       17.95184       -13.04777         2.76731
|115>    H       20.02050       -13.42985         1.50060
|116>    H       22.71560       -10.97063         5.65618
|117>    H       24.75945       -11.38483         4.33284
|118>    H       24.61818       -12.51878         2.15259
|119>    H       22.44191       -13.25282         1.26870
|120> *
|121>
|122>                          ****END OF INPUT****

CARTESIAN COORDINATES (ANGSTROEM)
---------------------------------
  C      2.309360    1.309120   -0.008290
  C      1.124380    2.164640   -0.304760
  O      0.074290    1.784270   -0.773710
  C      1.505950    3.516010    0.141820
  C      2.843960    3.515300    0.540840
  C      3.413970    2.193270    0.305640
  C      4.744030    1.922600    0.123080
  C      5.231460    0.705670   -0.398900
  N      5.668650   -0.244690   -0.872330
  C      5.780280    2.853680    0.341330
  N      6.667850    3.559730    0.517040
  C      3.444110    4.681910    1.031810
  C      2.695430    5.827720    1.100560
  C      1.345720    5.868280    0.686480
  C      0.720740    4.684250    0.196420
  C     -0.627860    4.729090   -0.211600
  C     -1.327960    5.902020   -0.141930
  C     -0.716420    7.072090    0.336410
  C      0.589740    7.056740    0.742690
  C      2.191290   -0.041970   -0.001480
  C      3.063650   -0.999160    0.579450
  C      3.253710   -2.302070    0.148670
  C      4.207680   -2.973590    0.900020
  C      4.703130   -2.203450    1.951760
  S      4.026170   -0.633190    2.002200
  C      5.680210   -2.951690    2.651290
  C      5.828890   -4.189990    2.028300
  C      4.894770   -4.317100    0.849120
  C      5.680260   -4.466470   -0.458250
  C      3.910410   -5.474870    1.030960
  C      6.814580   -4.973500    2.618160
  C      7.407380   -4.330640    3.691020
  S      6.725290   -2.747260    3.992940
  C      8.449250   -4.799700    4.552800
  C      9.492850   -5.701570    4.386880
  C      9.910950   -6.441920    3.191320
  O     10.494950   -7.492400    3.233040
  O      9.624690   -5.876090    2.003040
  C     10.126300   -5.717190    5.678030
  N      9.503330   -4.882230    6.485920
  O      8.479360   -4.326030    5.807230
  C     11.290110   -6.408380    6.142380
  C     11.825120   -6.224820    7.409150
  C     12.989200   -6.953380    7.592430
  C     13.337600   -7.687410    6.456250
  S     12.220190   -7.512360    5.168490
  C     14.555360   -8.360820    6.710720
  C     14.987370   -8.058490    8.005860
  C     13.999650   -7.149020    8.698250
  C     13.366820   -7.845010    9.907150
  C     14.644930   -5.823810    9.110450
  C     16.208030   -8.633330    8.308990
  C     16.712360   -9.404990    7.266010
  S     15.640790   -9.378090    5.871220
  C     17.985060  -10.012270    7.246810
  C     18.516340  -10.902610    6.364170
  C     19.993410  -10.995150    6.215850
  O     20.819440  -10.557370    6.988230
  C     20.205420  -11.666760    4.919130
  C     18.977890  -12.089400    4.408710
  C     17.926290  -11.767900    5.369330
  C     16.715840  -12.401930    5.473630
  C     15.882600  -12.266600    6.603600
  N     15.214300  -12.219640    7.535800
  C     16.228870  -13.336700    4.539240
  N     15.785510  -14.098560    3.803740
  C     18.902280  -12.733980    3.167950
  C     20.059780  -12.941210    2.463610
  C     21.319610  -12.533150    2.954350
  C     21.407650  -11.876560    4.216460
  C     22.667160  -11.467190    4.699870
  C     23.795080  -11.699320    3.962440
  C     23.714600  -12.346280    2.718680
  C     22.505990  -12.754370    2.225330
  H      4.470910    4.677720    1.359890
  H      3.141250    6.736220    1.479190
  H     -1.087150    3.824420   -0.577740
  H     -2.360310    5.936230   -0.456330
  H     -1.287810    7.987420    0.381440
  H      1.062660    7.955850    1.110650
  H      1.288510   -0.436210   -0.459320
  H      2.745970   -2.700340   -0.710880
  H      6.337000   -3.612020   -0.602430
  H      4.993580   -4.519030   -1.298740
  H      6.278390   -5.373700   -0.434340
  H      3.362890   -5.365600    1.964380
  H      4.446860   -6.419980    1.048890
  H      3.199530   -5.491120    0.209090
  H      7.072990   -5.970420    2.309120
  H      9.202530   -5.009290    2.078250
  H     11.358320   -5.573800    8.124520
  H     12.927510   -8.793480    9.607950
  H     12.588570   -7.216630   10.332560
  H     14.121940   -8.035190   10.665620
  H     15.094330   -5.337440    8.247720
  H     15.417780   -5.999380    9.854530
  H     13.894280   -5.160840    9.532610
  H     16.730130   -8.528720    9.243080
  H     18.684700   -9.633130    7.986560
  H     17.951840  -13.047770    2.767310
  H     20.020500  -13.429850    1.500600
  H     22.715600  -10.970630    5.656180
  H     24.759450  -11.384830    4.332840
  H     24.618180  -12.518780    2.152590
  H     22.441910  -13.252820    1.268700

 Total Charge           Charge          ....    0
 Multiplicity           Mult            ....    1
 Number of Electrons    NEL             ....  530
 Basis Dimension        Dim             .... 1207

ORBITAL ENERGIES
----------------

  NO   OCC          E(Eh)            E(eV)
   0   2.0000     -88.990047     -2421.5423
   1   2.0000     -88.982598     -2421.3396
   2   2.0000     -88.965388     -2420.8713
   3   2.0000     -88.962715     -2420.7985
   4   2.0000     -19.330105      -525.9989
   5   2.0000     -19.269382      -524.3465
   6   2.0000     -19.222326      -523.0661
   7   2.0000     -19.212747      -522.8054
   8   2.0000     -19.205523      -522.6089
   9   2.0000     -14.462355      -393.5407
  10   2.0000     -14.419876      -392.3848
  11   2.0000     -14.419748      -392.3813
  12   2.0000     -14.404247      -391.9595
  13   2.0000     -14.401517      -391.8852
  14   2.0000     -10.420689      -283.5614
  15   2.0000     -10.379040      -282.4280
  16   2.0000     -10.373174      -282.2684
  17   2.0000     -10.356905      -281.8257
  18   2.0000     -10.349651      -281.6283
  19   2.0000     -10.347167      -281.5607
  20   2.0000     -10.336630      -281.2740
  21   2.0000     -10.334759      -281.2231
  22   2.0000     -10.332041      -281.1491
  23   2.0000     -10.329752      -281.0868
  24   2.0000     -10.328586      -281.0551
  25   2.0000     -10.326116      -280.9879
  26   2.0000     -10.324748      -280.9507
  27   2.0000     -10.324067      -280.9321
  28   2.0000     -10.322337      -280.8851
  29   2.0000     -10.322209      -280.8816
  30   2.0000     -10.313984      -280.6578
  31   2.0000     -10.312017      -280.6043
  32   2.0000     -10.310860      -280.5728
  33   2.0000     -10.310712      -280.5687
  34   2.0000     -10.307925      -280.4929
  35   2.0000     -10.307308      -280.4761
  36   2.0000     -10.307124      -280.4711
  37   2.0000     -10.306496      -280.4540
  38   2.0000     -10.305682      -280.4319
  39   2.0000     -10.303639      -280.3763
  40   2.0000     -10.302658      -280.3496
  41   2.0000     -10.302549      -280.3466
  42   2.0000     -10.300720      -280.2968
  43   2.0000     -10.300050      -280.2786
  44   2.0000     -10.299931      -280.2754
  45   2.0000     -10.299186      -280.2551
  46   2.0000     -10.298536      -280.2374
  47   2.0000     -10.298344      -280.2322
  48   2.0000     -10.297790      -280.2171
  49   2.0000     -10.295618      -280.1580
  50   2.0000     -10.294004      -280.1141
  51   2.0000     -10.293947      -280.1125
  52   2.0000     -10.288930      -279.9760
  53   2.0000     -10.287535      -279.9381
  54   2.0000     -10.287434      -279.9353
  55   2.0000     -10.287009      -279.9237
  56   2.0000     -10.286369      -279.9063
  57   2.0000     -10.286052      -279.8977
  58   2.0000     -10.285103      -279.8719
  59   2.0000     -10.284723      -279.8615
  60   2.0000     -10.282278      -279.7950
  61   2.0000     -10.281360      -279.7700
  62   2.0000     -10.281330      -279.7692
  63   2.0000     -10.278652      -279.6964
  64   2.0000     -10.277932      -279.6767
  65   2.0000     -10.275717      -279.6165
  66   2.0000     -10.275626      -279.6140
  67   2.0000     -10.275213      -279.6027
  68   2.0000     -10.274617      -279.5866
  69   2.0000     -10.274167      -279.5743
  70   2.0000     -10.273417      -279.5539
  71   2.0000     -10.268963      -279.4327
  72   2.0000     -10.264331      -279.3066
  73   2.0000     -10.261569      -279.2315
  74   2.0000      -8.084699      -219.9959
  75   2.0000      -8.077196      -219.7917
  76   2.0000      -8.059891      -219.3208
  77   2.0000      -8.056128      -219.2184
  78   2.0000      -6.054040      -164.7388
  79   2.0000      -6.049853      -164.6249
  80   2.0000      -6.046830      -164.5426
  81   2.0000      -6.046585      -164.5359
  82   2.0000      -6.042451      -164.4234
  83   2.0000      -6.039207      -164.3352
  84   2.0000      -6.029207      -164.0631
  85   2.0000      -6.025568      -163.9640
  86   2.0000      -6.025119      -163.9518
  87   2.0000      -6.022025      -163.8676
  88   2.0000      -6.021103      -163.8425
  89   2.0000      -6.018361      -163.7679
  90   2.0000      -1.268042       -34.5052
  91   2.0000      -1.194107       -32.4933
  92   2.0000      -1.137141       -30.9432
  93   2.0000      -1.120202       -30.4822
  94   2.0000      -1.110302       -30.2128
  95   2.0000      -1.036673       -28.2093
  96   2.0000      -1.024138       -27.8682
  97   2.0000      -1.015877       -27.6434
  98   2.0000      -1.007282       -27.4095
  99   2.0000      -1.003646       -27.3106
 100   2.0000      -1.003504       -27.3067
 101   2.0000      -0.997026       -27.1304
 102   2.0000      -0.989065       -26.9138
 103   2.0000      -0.987967       -26.8840
 104   2.0000      -0.981197       -26.6997
 105   2.0000      -0.973365       -26.4866
 106   2.0000      -0.967093       -26.3159
 107   2.0000      -0.958061       -26.0702
 108   2.0000      -0.949088       -25.8260
 109   2.0000      -0.927188       -25.2301
 110   2.0000      -0.924671       -25.1616
 111   2.0000      -0.919761       -25.0280
 112   2.0000      -0.911272       -24.7970
 113   2.0000      -0.909510       -24.7490
 114   2.0000      -0.896387       -24.3919
 115   2.0000      -0.892948       -24.2984
 116   2.0000      -0.880896       -23.9704
 117   2.0000      -0.874733       -23.8027
 118   2.0000      -0.859510       -23.3885
 119   2.0000      -0.858824       -23.3698
 120   2.0000      -0.854131       -23.2421
 121   2.0000      -0.844628       -22.9835
 122   2.0000      -0.842656       -22.9298
 123   2.0000      -0.841889       -22.9090
 124   2.0000      -0.831850       -22.6358
 125   2.0000      -0.829168       -22.5628
 126   2.0000      -0.823920       -22.4200
 127   2.0000      -0.810361       -22.0511
 128   2.0000      -0.797348       -21.6969
 129   2.0000      -0.788487       -21.4558
 130   2.0000      -0.784562       -21.3490
 131   2.0000      -0.775580       -21.1046
 132   2.0000      -0.774859       -21.0850
 133   2.0000      -0.769585       -20.9415
 134   2.0000      -0.759754       -20.6740
 135   2.0000      -0.749992       -20.4083
 136   2.0000      -0.730787       -19.8857
 137   2.0000      -0.724145       -19.7050
 138   2.0000      -0.718670       -19.5560
 139   2.0000      -0.716841       -19.5062
 140   2.0000      -0.712110       -19.3775
 141   2.0000      -0.709151       -19.2970
 142   2.0000      -0.705033       -19.1849
 143   2.0000      -0.700320       -19.0567
 144   2.0000      -0.694918       -18.9097
 145   2.0000      -0.684262       -18.6197
 146   2.0000      -0.680350       -18.5133
 147   2.0000      -0.674134       -18.3441
 148   2.0000      -0.665542       -18.1103
 149   2.0000      -0.653244       -17.7757
 150   2.0000      -0.652161       -17.7462
 151   2.0000      -0.648758       -17.6536
 152   2.0000      -0.640671       -17.4335
 153   2.0000      -0.634118       -17.2552
 154   2.0000      -0.633923       -17.2499
 155   2.0000      -0.628704       -17.1079
 156   2.0000      -0.626435       -17.0462
 157   2.0000      -0.619896       -16.8682
 158   2.0000      -0.618405       -16.8277
 159   2.0000      -0.608083       -16.5468
 160   2.0000      -0.600185       -16.3319
 161   2.0000      -0.598676       -16.2908
 162   2.0000      -0.593419       -16.1478
 163   2.0000      -0.592482       -16.1222
 164   2.0000      -0.586376       -15.9561
 165   2.0000      -0.579433       -15.7672
 166   2.0000      -0.577903       -15.7255
 167   2.0000      -0.575468       -15.6593
 168   2.0000      -0.568531       -15.4705
 169   2.0000      -0.566451       -15.4139
 170   2.0000      -0.561810       -15.2876
 171   2.0000      -0.556740       -15.1497
 172   2.0000      -0.551672       -15.0118
 173   2.0000      -0.546905       -14.8820
 174   2.0000      -0.544583       -14.8189
 175   2.0000      -0.542496       -14.7621
 176   2.0000      -0.541886       -14.7455
 177   2.0000      -0.539747       -14.6872
 178   2.0000      -0.533372       -14.5138
 179   2.0000      -0.532580       -14.4922
 180   2.0000      -0.528548       -14.3825
 181   2.0000      -0.527829       -14.3629
 182   2.0000      -0.526845       -14.3362
 183   2.0000      -0.522716       -14.2238
 184   2.0000      -0.522487       -14.2176
 185   2.0000      -0.519215       -14.1286
 186   2.0000      -0.516331       -14.0501
 187   2.0000      -0.512333       -13.9413
 188   2.0000      -0.510397       -13.8886
 189   2.0000      -0.509613       -13.8673
 190   2.0000      -0.507962       -13.8223
 191   2.0000      -0.506484       -13.7821
 192   2.0000      -0.504290       -13.7224
 193   2.0000      -0.500721       -13.6253
 194   2.0000      -0.499388       -13.5890
 195   2.0000      -0.497782       -13.5453
 196   2.0000      -0.495039       -13.4707
 197   2.0000      -0.493667       -13.4334
 198   2.0000      -0.491750       -13.3812
 199   2.0000      -0.489262       -13.3135
 200   2.0000      -0.486553       -13.2398
 201   2.0000      -0.482285       -13.1237
 202   2.0000      -0.481536       -13.1033
 203   2.0000      -0.479723       -13.0539
 204   2.0000      -0.478059       -13.0086
 205   2.0000      -0.475810       -12.9475
 206   2.0000      -0.474422       -12.9097
 207   2.0000      -0.472816       -12.8660
 208   2.0000      -0.470236       -12.7958
 209   2.0000      -0.468111       -12.7380
 210   2.0000      -0.466876       -12.7043
 211   2.0000      -0.462159       -12.5760
 212   2.0000      -0.460319       -12.5259
 213   2.0000      -0.458746       -12.4831
 214   2.0000      -0.455077       -12.3833
 215   2.0000      -0.452660       -12.3175
 216   2.0000      -0.450230       -12.2514
 217   2.0000      -0.447510       -12.1774
 218   2.0000      -0.443146       -12.0586
 219   2.0000      -0.439687       -11.9645
 220   2.0000      -0.437981       -11.9181
 221   2.0000      -0.436969       -11.8905
 222   2.0000      -0.435730       -11.8568
 223   2.0000      -0.433973       -11.8090
 224   2.0000      -0.432073       -11.7573
 225   2.0000      -0.431431       -11.7398
 226   2.0000      -0.431133       -11.7317
 227   2.0000      -0.428155       -11.6507
 228   2.0000      -0.426690       -11.6108
 229   2.0000      -0.424912       -11.5624
 230   2.0000      -0.423000       -11.5104
 231   2.0000      -0.422677       -11.5016
 232   2.0000      -0.421180       -11.4609
 233   2.0000      -0.420561       -11.4440
 234   2.0000      -0.418628       -11.3915
 235   2.0000      -0.416107       -11.3228
 236   2.0000      -0.413621       -11.2552
 237   2.0000      -0.411755       -11.2044
 238   2.0000      -0.408399       -11.1131
 239   2.0000      -0.405658       -11.0385
 240   2.0000      -0.403490       -10.9795
 241   2.0000      -0.399836       -10.8801
 242   2.0000      -0.395868       -10.7721
 243   2.0000      -0.389932       -10.6106
 244   2.0000      -0.385675       -10.4947
 245   2.0000      -0.383259       -10.4290
 246   2.0000      -0.375592       -10.2204
 247   2.0000      -0.367944       -10.0123
 248   2.0000      -0.362855        -9.8738
 249   2.0000      -0.360108        -9.7990
 250   2.0000      -0.352578        -9.5941
 251   2.0000      -0.348603        -9.4860
 252   2.0000      -0.341966        -9.3054
 253   2.0000      -0.338533        -9.2119
 254   2.0000      -0.330334        -8.9888
 255   2.0000      -0.326839        -8.8937
 256   2.0000      -0.323421        -8.8007
 257   2.0000      -0.319066        -8.6822
 258   2.0000      -0.316350        -8.6083
 259   2.0000      -0.313458        -8.5296
 260   2.0000      -0.300753        -8.1839
 261   2.0000      -0.297885        -8.1059
 262   2.0000      -0.284640        -7.7454
 263   2.0000      -0.266550        -7.2532
 264   2.0000      -0.244873        -6.6633
 265   0.0000      -0.096698        -2.6313
 266   0.0000      -0.080360        -2.1867
 267   0.0000      -0.076568        -2.0835
 268   0.0000      -0.060527        -1.6470
 269   0.0000      -0.049174        -1.3381

MULLIKEN ATOMIC CHARGES
-----------------------
   0 C :   -0.128609
   1 C :    0.121208
   2 O :   -0.148748
   3 C :    0.008928
   4 C :   -0.009299
   5 C :    0.253280
   6 C :   -0.327559
   7 C :   -0.193617
   8 N :    0.171187
   9 C :   -0.179823
  10 N :    0.158635
  11 C :   -0.018663
  12 C :    0.005814
  13 C :    0.078599
  14 C :    0.036822
  15 C :   -0.025702
  16 C :    0.038807
  17 C :    0.037952
  18 C :   -0.020141
  19 C :    0.042943
  20 C :   -0.116783
  21 C :    0.014906
  22 C :    0.030480
  23 C :   -0.080761
  24 S :    0.176684
  25 C :   -0.071301
  26 C :    0.002897
  27 C :   -0.115106
  28 C :    0.099129
  29 C :    0.102849
  30 C :   -0.056557
  31 C :   -0.187586
  32 S :    0.217101
  33 C :    0.216292
  34 C :   -0.173414
  35 C :    0.166362
  36 O :   -0.176091
  37 O :   -0.161033
  38 C :    0.040082
  39 N :   -0.003290
  40 O :   -0.164462
  41 C :   -0.107401
  42 C :   -0.067919
  43 C :    0.036704
  44 C :   -0.068957
  45 S :    0.204370
  46 C :   -0.064564
  47 C :    0.018158
  48 C :   -0.109315
  49 C :    0.110756
  50 C :    0.100068
  51 C :   -0.010361
  52 C :   -0.081921
  53 S :    0.174272
  54 C :    0.033886
  55 C :   -0.132374
  56 C :    0.122933
  57 O :   -0.158519
  58 C :    0.007596
  59 C :   -0.007431
  60 C :    0.242633
  61 C :   -0.315746
  62 C :   -0.207877
  63 N :    0.166108
  64 C :   -0.176482
  65 N :    0.150695
  66 C :   -0.021564
  67 C :    0.006720
  68 C :    0.075896
  69 C :    0.030396
  70 C :   -0.023719
  71 C :    0.037435
  72 C :    0.035171
  73 C :   -0.016916
  74 H :    0.002127
  75 H :   -0.011968
  76 H :    0.000198
  77 H :   -0.005424
  78 H :   -0.004972
  79 H :   -0.020132
  80 H :    0.029539
  81 H :   -0.010328
  82 H :    0.038268
  83 H :    0.016672
  84 H :    0.017672
  85 H :    0.023655
  86 H :    0.018007
  87 H :    0.017066
  88 H :    0.010543
  89 H :    0.189429
  90 H :   -0.003695
  91 H :    0.029995
  92 H :    0.013164
  93 H :    0.011172
  94 H :    0.021567
  95 H :    0.012038
  96 H :    0.014327
  97 H :   -0.012391
  98 H :    0.019622
  99 H :    0.000386
 100 H :   -0.015814
 101 H :   -0.002126
 102 H :   -0.010104
 103 H :   -0.009306
 104 H :   -0.024326
Sum of atomic charges:   -0.0000000

LOEWDIN ATOMIC CHARGES
----------------------
   0 C :   -0.092686
   1 C :    0.086888
   2 O :   -0.142083
   3 C :   -0.033147
   4 C :   -0.004248
   5 C :    0.062935
   6 C :   -0.137738
   7 C :   -0.028706
   8 N :   -0.052239
   9 C :   -0.021425
  10 N :   -0.047769
  11 C :   -0.017579
  12 C :    0.020369
  13 C :   -0.009139
  14 C :   -0.002899
  15 C :   -0.002047
  16 C :   -0.011269
  17 C :   -0.011610
  18 C :   -0.011882
  19 C :    0.044982
  20 C :   -0.176598
  21 C :   -0.012035
  22 C :   -0.028898
  23 C :   -0.178445
  24 S :    0.471679
  25 C :   -0.183489
  26 C :   -0.033312
  27 C :   -0.034868
  28 C :   -0.021716
  29 C :   -0.023686
  30 C :   -0.040773
  31 C :   -0.211940
  32 S :    0.482051
  33 C :    0.038241
  34 C :   -0.156103
  35 C :    0.079471
  36 O :   -0.157491
  37 O :   -0.026008
  38 C :   -0.021063
  39 N :   -0.047465
  40 O :    0.031563
  41 C :   -0.191100
  42 C :   -0.027753
  43 C :   -0.030476
  44 C :   -0.202962
  45 S :    0.505637
  46 C :   -0.163084
  47 C :   -0.042697
  48 C :   -0.035388
  49 C :   -0.022430
  50 C :   -0.025381
  51 C :   -0.009874
  52 C :   -0.181367
  53 S :    0.476693
  54 C :    0.046865
  55 C :   -0.108074
  56 C :    0.087118
  57 O :   -0.151114
  58 C :   -0.033361
  59 C :   -0.004024
  60 C :    0.062244
  61 C :   -0.144069
  62 C :   -0.035349
  63 N :   -0.050275
  64 C :   -0.020843
  65 N :   -0.054349
  66 C :   -0.016903
  67 C :    0.015619
  68 C :   -0.010446
  69 C :   -0.003548
  70 C :   -0.002671
  71 C :   -0.014798
  72 C :   -0.015635
  73 C :   -0.013429
  74 H :    0.039892
  75 H :    0.036065
  76 H :    0.035486
  77 H :    0.033136
  78 H :    0.032569
  79 H :    0.030736
  80 H :    0.051713
  81 H :    0.037194
  82 H :    0.036204
  83 H :    0.027005
  84 H :    0.025745
  85 H :    0.030705
  86 H :    0.026995
  87 H :    0.026551
  88 H :    0.038280
  89 H :    0.088190
  90 H :    0.036057
  91 H :    0.033898
  92 H :    0.024671
  93 H :    0.024160
  94 H :    0.029779
  95 H :    0.023870
  96 H :    0.025391
  97 H :    0.035634
  98 H :    0.049759
  99 H :    0.039251
 100 H :    0.034378
 101 H :    0.034846
 102 H :    0.031198
 103 H :    0.030762
 104 H :    0.029287

  Mayer bond orders larger than 0.100000
B(  0-C ,  1-C ) :   0.9539 B(  0-C ,  5-C ) :   1.0193 B(  0-C , 19-C ) :   1.6839
B(  1-C ,  2-O ) :   2.2009 B(  1-C ,  3-C ) :   0.9405 B(  3-C ,  4-C ) :   1.4143
B(  3-C , 14-C ) :   1.2372 B(  4-C ,  5-C ) :   1.0062 B(  4-C , 11-C ) :   1.2604
B(  5-C ,  6-C ) :   1.6580 B(  6-C ,  7-C ) :   1.1546 B(  6-C ,  9-C ) :   1.1330
B(  7-C ,  8-N ) :   3.0146 B(  9-C , 10-N ) :   2.9971 B( 11-C , 12-C ) :   1.4696
B( 11-C , 74-H ) :   0.9856 B( 12-C , 13-C ) :   1.2241 B( 12-C , 75-H ) :   0.9938
B( 13-C , 14-C ) :   1.2412 B( 13-C , 18-C ) :   1.2409 B( 14-C , 15-C ) :   1.2762
B( 15-C , 16-C ) :   1.4750 B( 15-C , 76-H ) :   0.9864 B( 16-C , 17-C ) :   1.2564
B( 16-C , 77-H ) :   0.9869 B( 17-C , 18-C ) :   1.4950 B( 17-C , 78-H ) :   0.9891
B( 18-C , 79-H ) :   0.9976 B( 19-C , 20-C ) :   1.0987 B( 19-C , 80-H ) :   0.9462
B( 20-C , 21-C ) :   1.4156 B( 20-C , 24-S ) :   1.1098 B( 21-C , 22-C ) :   1.3145
B( 21-C , 81-H ) :   1.0088 B( 22-C , 23-C ) :   1.5155 B( 22-C , 27-C ) :   0.9396
B( 23-C , 24-S ) :   1.1012 B( 23-C , 25-C ) :   1.1754 B( 25-C , 26-C ) :   1.5284
B( 25-C , 32-S ) :   1.0953 B( 26-C , 27-C ) :   0.9402 B( 26-C , 30-C ) :   1.3171
B( 27-C , 28-C ) :   1.0338 B( 27-C , 29-C ) :   1.0318 B( 28-C , 82-H ) :   0.9629
B( 28-C , 83-H ) :   0.9633 B( 28-C , 84-H ) :   0.9648 B( 29-C , 85-H ) :   0.9646
B( 29-C , 86-H ) :   0.9656 B( 29-C , 87-H ) :   0.9648 B( 30-C , 31-C ) :   1.4621
B( 30-C , 88-H ) :   1.0009 B( 31-C , 32-S ) :   1.1109 B( 31-C , 33-C ) :   1.0548
B( 33-C , 34-C ) :   1.4680 B( 33-C , 40-O ) :   1.2151 B( 34-C , 35-C ) :   0.9164
B( 34-C , 38-C ) :   1.1882 B( 35-C , 36-O ) :   2.1232 B( 35-C , 37-O ) :   1.2464
B( 37-O , 89-H ) :   0.9396 B( 38-C , 39-N ) :   1.7314 B( 38-C , 41-C ) :   1.0741
B( 39-N , 40-O ) :   0.9792 B( 41-C , 42-C ) :   1.4539 B( 41-C , 45-S ) :   1.1393
B( 42-C , 43-C ) :   1.2881 B( 42-C , 90-H ) :   1.0198 B( 43-C , 44-C ) :   1.4992
B( 43-C , 48-C ) :   0.9391 B( 44-C , 45-S ) :   1.0714 B( 44-C , 46-C ) :   1.1766
B( 46-C , 47-C ) :   1.4843 B( 46-C , 53-S ) :   1.1253 B( 47-C , 48-C ) :   0.9354
B( 47-C , 51-C ) :   1.3366 B( 48-C , 49-C ) :   1.0325 B( 48-C , 50-C ) :   1.0385
B( 49-C , 91-H ) :   0.9630 B( 49-C , 92-H ) :   0.9646 B( 49-C , 93-H ) :   0.9643
B( 50-C , 94-H ) :   0.9649 B( 50-C , 95-H ) :   0.9642 B( 50-C , 96-H ) :   0.9648
B( 51-C , 52-C ) :   1.3750 B( 51-C , 97-H ) :   1.0112 B( 52-C , 53-S ) :   1.0883
B( 52-C , 54-C ) :   1.1755 B( 54-C , 55-C ) :   1.6063 B( 54-C , 98-H ) :   0.9465
B( 55-C , 56-C ) :   0.9686 B( 55-C , 60-C ) :   1.0396 B( 56-C , 57-O ) :   2.1851
B( 56-C , 58-C ) :   0.9381 B( 58-C , 59-C ) :   1.4213 B( 58-C , 69-C ) :   1.2391
B( 59-C , 60-C ) :   1.0009 B( 59-C , 66-C ) :   1.2628 B( 60-C , 61-C ) :   1.6479
B( 61-C , 62-C ) :   1.1493 B( 61-C , 64-C ) :   1.1330 B( 62-C , 63-N ) :   3.0273
B( 64-C , 65-N ) :   2.9962 B( 66-C , 67-C ) :   1.4660 B( 66-C , 99-H ) :   0.9870
B( 67-C , 68-C ) :   1.2261 B( 67-C ,100-H ) :   0.9930 B( 68-C , 69-C ) :   1.2419
B( 68-C , 73-C ) :   1.2405 B( 69-C , 70-C ) :   1.2736 B( 70-C , 71-C ) :   1.4769
B( 70-C ,101-H ) :   0.9857 B( 71-C , 72-C ) :   1.2537 B( 71-C ,102-H ) :   0.9874
B( 72-C , 73-C ) :   1.4962 B( 72-C ,103-H ) :   0.9892 B( 73-C ,104-H ) :   0.9963

-----------------------------------------------------------------------------
         ABSORPTION SPECTRUM VIA TRANSITION ELECTRIC DIPOLE MOMENTS
-----------------------------------------------------------------------------
State   Energy  Wavelength   fosc         T2         TX        TY        TZ
        (cm-1)    (nm)                  (au**2)     (au)      (au)      (au)
-----------------------------------------------------------------------------
   0   18518.0    540.0   1.318899161  23.44731   3.31797  -3.52353   0.15199
   1   19519.4    512.3   0.293186991   4.94485  -0.44749   1.61058  -1.46651
   2   23407.1    427.2   0.172048842   2.41980   1.38993  -0.60477   0.34951
   3   23743.5    421.2   0.492057258   6.82256   2.18451  -1.42482  -0.14260
   4   24769.1    403.7   0.251194791   3.33869  -0.86539   1.22845  -1.03957
   5   27088.5    369.2   0.373919043   4.54431   1.66457  -1.30981   0.24060
   6   27690.1    361.1   0.200043895   2.37835  -1.46245  -0.09474   0.48021
   7   28977.6    345.1   0.025044468   0.28453  -0.18907  -0.32784  -0.37590
   8   29495.4    339.0   0.027748289   0.30971  -0.42640  -0.23483  -0.26973
   9   29764.2    336.0   0.014929715   0.16513  -0.17077   0.23154   0.28698
  10   30025.3    333.1   0.146091253   1.60182   1.18770  -0.43662  -0.02340
  11   30059.6    332.7   0.040829792   0.44717   0.49352   0.39100  -0.22521
  12   30516.8    327.7   0.484389093   5.22554   1.96352  -0.43308   1.08747
  13   31555.4    316.9   0.035805029   0.37355  -0.58890   0.14644  -0.07280
  14   31613.9    316.3   0.224066393   2.33332  -1.51166  -0.14928  -0.16094
  15   31821.3    314.3   0.248026681   2.56600   1.13543  -1.10680  -0.22758
  16   31996.3    312.5   0.217195750   2.23474   1.29631   0.65083   0.36159
  17   32471.3    308.0   0.211184059   2.14110   1.26557  -0.05218  -0.73261
  18   32602.8    306.7   0.042489035   0.42904   0.60103  -0.06245   0.25278
  19   32790.3    305.0   0.006498162   0.06524  -0.07947  -0.12933   0.20543
  20   33169.5    301.5   0.046743423   0.46393  -0.64877  -0.15097   0.14226
  21   33266.3    300.6   0.048105985   0.47607   0.57492  -0.38073   0.02400
  22   34364.5    291.0   0.334018826   3.19990  -0.92237   1.39078   0.64411
  23   34758.3    287.7   0.130212781   1.23330   0.67478   0.24231  -0.84810
  24   35111.7    284.8   0.332083840   3.11366   1.49274   0.75113   0.56674
  25   35535.7    281.4   0.111294065   1.03106   0.23037   0.28220   0.94781
  26   35587.0    281.0   0.003960175   0.03664   0.05781   0.00292  -0.18244
  27   36094.9    277.0   0.089216481   0.81372   0.21622   0.13968   0.86456
  28   37083.0    269.7   0.016031127   0.14232  -0.35905  -0.10880  -0.03958
  29   37547.6    266.3   0.005735260   0.05029   0.11149   0.03143  -0.19201
  30   37659.1    265.5   0.001113774   0.00974   0.03818  -0.08561  -0.03082
  31   38437.5    260.2   0.065640352   0.56220   0.33208   0.35420   0.57137
  32   38517.2    259.6   0.034907904   0.29836  -0.54275   0.05979  -0.01433
  33   38587.6    259.2   0.028687671   0.24475  -0.39451  -0.23443   0.18481
  34   39705.6    251.9   0.073293851   0.60770   0.26668  -0.70129  -0.21160
  35   39910.7    250.6   0.062251109   0.51349   0.26096  -0.43250  -0.50826
  36   39952.9    250.3   0.040230775   0.33150  -0.23323   0.17895   0.49506

FINAL SINGLE POINT ENERGY     -4543.378963207640

DIPOLE MOMENT
-------------
                                X             Y             Z
Electronic contribution:     -1.87158      -0.95065      -0.90497
Nuclear contribution   :     -0.53530       4.25558       0.34513
                        -----------------------------------------
Total Dipole Moment    :     -2.40687       3.30493      -0.55983
                        -----------------------------------------
Magnitude (a.u.)       :      4.12662
Magnitude (Debye)      :     10.48904

Rotational constants in cm-1:     0.002217     0.000188     0.000186
Rotational constants in MHz :    66.472875     5.634329     5.584559

                             ****ORCA TERMINATED NORMALLY****
TOTAL RUN TIME: 0 days 0 hours 11 minutes 3 seconds 763 msec
