                         Program Version 4.2.0 -  RELEASE  -
|  1> # ORCA input file
|  2> # SCF done       -191.258421584615          0.000556923620
|  3> ! CAM-B3LYP def2-SVP def2/J RIJCOSX Grid4 TightSCF
|  4> %maxcore 5000
|  5> %tddft
|  6>     Mode sTDDFT
|  7>     Ethresh 5.0
|  8>     maxcore 5000
|  9> end
| 10>
| 11> %pal
| 12>   nprocs 6
| 13>   end
| 14> * xyz 0 1
| 15>    C       -3.24484         1.59758        -5.61494
| 16>    C       -1.95166         1.14613        -5.59364
| 17>    C       -1.37699         0.35836        -6.61433
| 18>    N       -0.84679        -0.27730        -7.40968
| 19>    C       -1.02022         1.34729        -4.55219
| 20>    N       -0.20985         1.44127        -3.74394
| 21>    C       -4.22582         1.28392        -6.64560
| 22>    C       -5.49628         1.76058        -6.21680
| 23>    C       -6.62195         1.59869        -6.97238
| 24>    C       -6.52399         0.94834        -8.22246
| 25>    C       -5.25338         0.47914        -8.66531
| 26>    C       -4.10700         0.65517        -7.85713
| 27>    C       -5.16509        -0.16132        -9.91815
| 28>    C       -6.27731        -0.33282       -10.69650
| 29>    C       -7.52809         0.12779       -10.25866
| 30>    C       -7.64893         0.75449        -9.04802
| 31>    C       -5.36330         2.41760        -4.90626
| 32>    O       -6.27262         2.87355        -4.24562
| 33>    C       -3.90916         2.40013        -4.59504
| 34>    C       -3.23611         3.09755        -3.63411
| 35>    C       -3.69477         3.94139        -2.59719
| 36>    C       -4.95065         4.23959        -2.10369
| 37>    C       -4.91489         5.15614        -1.05683
| 38>   Cl       -6.32947         5.70643        -0.26308
| 39>    C       -3.63670         5.59155        -0.70821
| 40>    S       -2.46153         4.81197        -1.71172
| 41>    C       -3.27824         6.54272         0.28129
| 42>    C       -2.00406         6.98535         0.62023
| 43>   Cl       -0.57794         6.39284        -0.11544
| 44>    C       -1.97969         7.96811         1.61381
| 45>    C       -3.24074         8.28920         2.05630
| 46>    S       -4.46889         7.37190         1.23853
| 47>    C       -3.64536         9.25755         3.02164
| 48>    C       -2.96453        10.05127         3.93651
| 49>    C       -1.51170        10.07403         4.20542
| 50>    O       -0.67589        10.02744         3.34673
| 51>    O       -1.16286        10.11955         5.50126
| 52>    C       -4.01436        10.79563         4.56809
| 53>    N       -5.18032        10.43552         4.07512
| 54>    O       -4.96254         9.49143         3.14559
| 55>    C       -3.94896        11.86431         5.52964
| 56>    C       -5.02210        12.39545         6.20055
| 57>    C       -4.66871        13.48680         7.00201
| 58>   Cl       -5.80619        14.33445         7.96071
| 59>    C       -3.32219        13.81916         6.94678
| 60>    S       -2.48701        12.73321         5.87600
| 61>    C       -2.64425        14.86692         7.62162
| 62>    C       -1.28927        15.18981         7.56010
| 63>   Cl       -0.16719        14.31136         6.60565
| 64>    C       -0.92013        16.28569         8.33507
| 65>    C       -1.98278        16.84047         9.02231
| 66>    S       -3.46125        15.96888         8.67636
| 67>    C       -2.10416        17.94316         9.89745
| 68>    C       -1.17144        18.78800        10.42712
| 69>    C       -1.50336        19.89164        11.32064
| 70>    C       -2.74793        20.40842        11.56962
| 71>    C       -2.99017        21.49361        12.43963
| 72>    N       -3.25954        22.36856        13.13216
| 73>    C       -3.96304        19.98469        10.98972
| 74>    N       -4.99568        19.72439        10.55903
| 75>    C       -0.25816        20.41369        11.86956
| 76>    C        0.82676        19.72274        11.26143
| 77>    C        0.30975        18.72074        10.31614
| 78>    O        0.98390        17.99901         9.61150
| 79>    C        2.12742        20.00322        11.56763
| 80>    C        2.40868        21.00556        12.52206
| 81>    C        1.32846        21.69734        13.14265
| 82>    C       -0.00775        21.38654        12.80167
| 83>    C        1.61946        22.69351        14.09696
| 84>    C        2.91405        22.99372        14.42287
| 85>    C        3.97670        22.31200        13.81097
| 86>    C        3.72950        21.33920        12.88063
| 87>    H       -7.57497         1.96569        -6.62121
| 88>    H       -3.15982         0.29294        -8.22353
| 89>    H       -4.20020        -0.51558       -10.24997
| 90>    H       -6.19945        -0.82486       -11.65437
| 91>    H       -8.39522        -0.01608       -10.88572
| 92>    H       -8.60931         1.11158        -8.70604
| 93>    H       -2.15389         3.04233        -3.67331
| 94>    H       -5.85611         3.81386        -2.49595
| 95>    H       -1.08135         8.43759         1.97024
| 96>    H       -1.91579        10.12019         6.10707
| 97>    H       -6.01888        12.00795         6.10906
| 98>    H        0.08447        16.66223         8.39879
| 99>    H       -3.13079        18.11744        10.19910
|100>    H        2.93116        19.46477        11.08771
|101>    H       -0.80077        21.92601        13.29402
|102>    H        0.79805        23.21639        14.56441
|103>    H        3.12663        23.75880        15.15440
|104>    H        4.99202        22.56146        14.08059
|105>    H        4.54348        20.81091        12.40614
|106> *
|107>
|108>                          ****END OF INPUT****

CARTESIAN COORDINATES (ANGSTROEM)
---------------------------------
  C     -3.244840    1.597580   -5.614940
  C     -1.951660    1.146130   -5.593640
  C     -1.376990    0.358360   -6.614330
  N     -0.846790   -0.277300   -7.409680
  C     -1.020220    1.347290   -4.552190
  N     -0.209850    1.441270   -3.743940
  C     -4.225820    1.283920   -6.645600
  C     -5.496280    1.760580   -6.216800
  C     -6.621950    1.598690   -6.972380
  C     -6.523990    0.948340   -8.222460
  C     -5.253380    0.479140   -8.665310
  C     -4.107000    0.655170   -7.857130
  C     -5.165090   -0.161320   -9.918150
  C     -6.277310   -0.332820  -10.696500
  C     -7.528090    0.127790  -10.258660
  C     -7.648930    0.754490   -9.048020
  C     -5.363300    2.417600   -4.906260
  O     -6.272620    2.873550   -4.245620
  C     -3.909160    2.400130   -4.595040
  C     -3.236110    3.097550   -3.634110
  C     -3.694770    3.941390   -2.597190
  C     -4.950650    4.239590   -2.103690
  C     -4.914890    5.156140   -1.056830
  Cl    -6.329470    5.706430   -0.263080
  C     -3.636700    5.591550   -0.708210
  S     -2.461530    4.811970   -1.711720
  C     -3.278240    6.542720    0.281290
  C     -2.004060    6.985350    0.620230
  Cl    -0.577940    6.392840   -0.115440
  C     -1.979690    7.968110    1.613810
  C     -3.240740    8.289200    2.056300
  S     -4.468890    7.371900    1.238530
  C     -3.645360    9.257550    3.021640
  C     -2.964530   10.051270    3.936510
  C     -1.511700   10.074030    4.205420
  O     -0.675890   10.027440    3.346730
  O     -1.162860   10.119550    5.501260
  C     -4.014360   10.795630    4.568090
  N     -5.180320   10.435520    4.075120
  O     -4.962540    9.491430    3.145590
  C     -3.948960   11.864310    5.529640
  C     -5.022100   12.395450    6.200550
  C     -4.668710   13.486800    7.002010
  Cl    -5.806190   14.334450    7.960710
  C     -3.322190   13.819160    6.946780
  S     -2.487010   12.733210    5.876000
  C     -2.644250   14.866920    7.621620
  C     -1.289270   15.189810    7.560100
  Cl    -0.167190   14.311360    6.605650
  C     -0.920130   16.285690    8.335070
  C     -1.982780   16.840470    9.022310
  S     -3.461250   15.968880    8.676360
  C     -2.104160   17.943160    9.897450
  C     -1.171440   18.788000   10.427120
  C     -1.503360   19.891640   11.320640
  C     -2.747930   20.408420   11.569620
  C     -2.990170   21.493610   12.439630
  N     -3.259540   22.368560   13.132160
  C     -3.963040   19.984690   10.989720
  N     -4.995680   19.724390   10.559030
  C     -0.258160   20.413690   11.869560
  C      0.826760   19.722740   11.261430
  C      0.309750   18.720740   10.316140
  O      0.983900   17.999010    9.611500
  C      2.127420   20.003220   11.567630
  C      2.408680   21.005560   12.522060
  C      1.328460   21.697340   13.142650
  C     -0.007750   21.386540   12.801670
  C      1.619460   22.693510   14.096960
  C      2.914050   22.993720   14.422870
  C      3.976700   22.312000   13.810970
  C      3.729500   21.339200   12.880630
  H     -7.574970    1.965690   -6.621210
  H     -3.159820    0.292940   -8.223530
  H     -4.200200   -0.515580  -10.249970
  H     -6.199450   -0.824860  -11.654370
  H     -8.395220   -0.016080  -10.885720
  H     -8.609310    1.111580   -8.706040
  H     -2.153890    3.042330   -3.673310
  H     -5.856110    3.813860   -2.495950
  H     -1.081350    8.437590    1.970240
  H     -1.915790   10.120190    6.107070
  H     -6.018880   12.007950    6.109060
  H      0.084470   16.662230    8.398790
  H     -3.130790   18.117440   10.199100
  H      2.931160   19.464770   11.087710
  H     -0.800770   21.926010   13.294020
  H      0.798050   23.216390   14.564410
  H      3.126630   23.758800   15.154400
  H      4.992020   22.561460   14.080590
  H      4.543480   20.810910   12.406140

 Total Charge           Charge          ....    0
 Multiplicity           Mult            ....    1
 Number of Electrons    NEL             ....  550
 Basis Dimension        Dim             .... 1135

ORBITAL ENERGIES
----------------

  NO   OCC          E(Eh)            E(eV)
   0   2.0000    -101.612540     -2765.0178
   1   2.0000    -101.608474     -2764.9071
   2   2.0000    -101.608437     -2764.9061
   3   2.0000    -101.607618     -2764.8838
   4   2.0000     -88.988885     -2421.5107
   5   2.0000     -88.983311     -2421.3590
   6   2.0000     -88.980966     -2421.2952
   7   2.0000     -88.979894     -2421.2660
   8   2.0000     -19.339886      -526.2650
   9   2.0000     -19.278796      -524.6027
  10   2.0000     -19.222070      -523.0591
  11   2.0000     -19.221739      -523.0501
  12   2.0000     -19.220184      -523.0078
  13   2.0000     -14.477720      -393.9588
  14   2.0000     -14.418370      -392.3438
  15   2.0000     -14.416892      -392.3036
  16   2.0000     -14.415264      -392.2593
  17   2.0000     -14.414790      -392.2464
  18   2.0000     -10.429247      -283.7942
  19   2.0000     -10.384619      -282.5798
  20   2.0000     -10.372938      -282.2620
  21   2.0000     -10.372762      -282.2572
  22   2.0000     -10.351715      -281.6845
  23   2.0000     -10.349414      -281.6219
  24   2.0000     -10.346931      -281.5543
  25   2.0000     -10.346008      -281.5292
  26   2.0000     -10.344796      -281.4962
  27   2.0000     -10.343955      -281.4733
  28   2.0000     -10.343607      -281.4639
  29   2.0000     -10.343038      -281.4484
  30   2.0000     -10.342839      -281.4430
  31   2.0000     -10.342091      -281.4226
  32   2.0000     -10.341884      -281.4170
  33   2.0000     -10.340685      -281.3843
  34   2.0000     -10.338727      -281.3311
  35   2.0000     -10.332586      -281.1640
  36   2.0000     -10.330344      -281.1030
  37   2.0000     -10.328769      -281.0601
  38   2.0000     -10.328063      -281.0409
  39   2.0000     -10.323238      -280.9096
  40   2.0000     -10.322109      -280.8789
  41   2.0000     -10.321125      -280.8521
  42   2.0000     -10.319619      -280.8111
  43   2.0000     -10.318315      -280.7756
  44   2.0000     -10.317742      -280.7600
  45   2.0000     -10.315155      -280.6896
  46   2.0000     -10.305300      -280.4215
  47   2.0000     -10.304772      -280.4071
  48   2.0000     -10.304652      -280.4038
  49   2.0000     -10.304185      -280.3911
  50   2.0000     -10.303850      -280.3820
  51   2.0000     -10.300790      -280.2987
  52   2.0000     -10.299175      -280.2548
  53   2.0000     -10.298928      -280.2481
  54   2.0000     -10.298899      -280.2473
  55   2.0000     -10.298652      -280.2406
  56   2.0000     -10.298236      -280.2292
  57   2.0000     -10.298102      -280.2256
  58   2.0000     -10.298045      -280.2241
  59   2.0000     -10.297815      -280.2178
  60   2.0000     -10.296919      -280.1934
  61   2.0000     -10.295872      -280.1649
  62   2.0000     -10.289980      -280.0046
  63   2.0000     -10.289954      -280.0039
  64   2.0000     -10.288033      -279.9516
  65   2.0000     -10.287759      -279.9441
  66   2.0000     -10.287483      -279.9367
  67   2.0000     -10.287259      -279.9305
  68   2.0000     -10.287130      -279.9270
  69   2.0000     -10.286885      -279.9204
  70   2.0000     -10.286641      -279.9137
  71   2.0000     -10.286398      -279.9071
  72   2.0000      -9.567212      -260.3371
  73   2.0000      -9.563170      -260.2271
  74   2.0000      -9.563134      -260.2261
  75   2.0000      -9.562360      -260.2050
  76   2.0000      -8.083322      -219.9584
  77   2.0000      -8.077689      -219.8051
  78   2.0000      -8.075933      -219.7573
  79   2.0000      -8.074652      -219.7225
  80   2.0000      -7.337342      -199.6592
  81   2.0000      -7.333265      -199.5483
  82   2.0000      -7.333260      -199.5481
  83   2.0000      -7.332470      -199.5267
  84   2.0000      -7.327308      -199.3862
  85   2.0000      -7.327174      -199.3826
  86   2.0000      -7.323229      -199.2752
  87   2.0000      -7.323210      -199.2747
  88   2.0000      -7.323191      -199.2742
  89   2.0000      -7.323104      -199.2718
  90   2.0000      -7.322422      -199.2532
  91   2.0000      -7.322359      -199.2515
  92   2.0000      -6.052777      -164.7044
  93   2.0000      -6.048359      -164.5842
  94   2.0000      -6.047268      -164.5545
  95   2.0000      -6.045263      -164.5000
  96   2.0000      -6.045235      -164.4992
  97   2.0000      -6.044044      -164.4668
  98   2.0000      -6.042735      -164.4312
  99   2.0000      -6.041020      -164.3845
 100   2.0000      -6.039698      -164.3485
 101   2.0000      -6.039509      -164.3434
 102   2.0000      -6.037905      -164.2997
 103   2.0000      -6.036660      -164.2659
 104   2.0000      -1.280387       -34.8411
 105   2.0000      -1.203688       -32.7540
 106   2.0000      -1.137000       -30.9393
 107   2.0000      -1.136691       -30.9309
 108   2.0000      -1.118730       -30.4422
 109   2.0000      -1.042286       -28.3620
 110   2.0000      -1.038919       -28.2704
 111   2.0000      -1.020991       -27.7826
 112   2.0000      -1.019825       -27.7508
 113   2.0000      -1.018423       -27.7127
 114   2.0000      -1.014491       -27.6057
 115   2.0000      -1.000571       -27.2269
 116   2.0000      -0.999910       -27.2089
 117   2.0000      -0.996847       -27.1256
 118   2.0000      -0.995021       -27.0759
 119   2.0000      -0.994242       -27.0547
 120   2.0000      -0.976215       -26.5642
 121   2.0000      -0.974824       -26.5263
 122   2.0000      -0.972743       -26.4697
 123   2.0000      -0.967754       -26.3339
 124   2.0000      -0.963197       -26.2099
 125   2.0000      -0.957954       -26.0673
 126   2.0000      -0.932721       -25.3806
 127   2.0000      -0.926912       -25.2226
 128   2.0000      -0.926126       -25.2012
 129   2.0000      -0.909393       -24.7458
 130   2.0000      -0.907423       -24.6922
 131   2.0000      -0.890728       -24.2380
 132   2.0000      -0.888427       -24.1753
 133   2.0000      -0.882318       -24.0091
 134   2.0000      -0.881900       -23.9977
 135   2.0000      -0.868929       -23.6447
 136   2.0000      -0.866303       -23.5733
 137   2.0000      -0.841640       -22.9022
 138   2.0000      -0.839087       -22.8327
 139   2.0000      -0.835662       -22.7395
 140   2.0000      -0.833812       -22.6892
 141   2.0000      -0.829780       -22.5795
 142   2.0000      -0.829485       -22.5714
 143   2.0000      -0.823359       -22.4048
 144   2.0000      -0.819246       -22.2928
 145   2.0000      -0.790046       -21.4982
 146   2.0000      -0.784823       -21.3561
 147   2.0000      -0.769255       -20.9325
 148   2.0000      -0.764388       -20.8001
 149   2.0000      -0.763688       -20.7810
 150   2.0000      -0.744880       -20.2692
 151   2.0000      -0.732975       -19.9453
 152   2.0000      -0.725136       -19.7320
 153   2.0000      -0.723878       -19.6977
 154   2.0000      -0.713462       -19.4143
 155   2.0000      -0.706172       -19.2159
 156   2.0000      -0.705469       -19.1968
 157   2.0000      -0.699645       -19.0383
 158   2.0000      -0.699273       -19.0282
 159   2.0000      -0.688115       -18.7246
 160   2.0000      -0.684911       -18.6374
 161   2.0000      -0.676518       -18.4090
 162   2.0000      -0.672564       -18.3014
 163   2.0000      -0.665390       -18.1062
 164   2.0000      -0.661303       -17.9950
 165   2.0000      -0.653049       -17.7704
 166   2.0000      -0.648988       -17.6599
 167   2.0000      -0.635099       -17.2819
 168   2.0000      -0.633415       -17.2361
 169   2.0000      -0.631337       -17.1796
 170   2.0000      -0.629340       -17.1252
 171   2.0000      -0.618570       -16.8322
 172   2.0000      -0.610007       -16.5991
 173   2.0000      -0.608326       -16.5534
 174   2.0000      -0.607786       -16.5387
 175   2.0000      -0.603874       -16.4323
 176   2.0000      -0.601066       -16.3558
 177   2.0000      -0.600796       -16.3485
 178   2.0000      -0.597541       -16.2599
 179   2.0000      -0.581825       -15.8323
 180   2.0000      -0.575236       -15.6530
 181   2.0000      -0.574793       -15.6409
 182   2.0000      -0.559788       -15.2326
 183   2.0000      -0.554830       -15.0977
 184   2.0000      -0.552848       -15.0438
 185   2.0000      -0.550355       -14.9759
 186   2.0000      -0.548700       -14.9309
 187   2.0000      -0.547746       -14.9049
 188   2.0000      -0.543942       -14.8014
 189   2.0000      -0.543538       -14.7904
 190   2.0000      -0.541707       -14.7406
 191   2.0000      -0.541134       -14.7250
 192   2.0000      -0.539250       -14.6737
 193   2.0000      -0.536476       -14.5983
 194   2.0000      -0.536131       -14.5889
 195   2.0000      -0.532977       -14.5030
 196   2.0000      -0.532361       -14.4863
 197   2.0000      -0.529235       -14.4012
 198   2.0000      -0.526312       -14.3217
 199   2.0000      -0.522715       -14.2238
 200   2.0000      -0.521472       -14.1900
 201   2.0000      -0.518518       -14.1096
 202   2.0000      -0.516499       -14.0546
 203   2.0000      -0.514536       -14.0012
 204   2.0000      -0.512881       -13.9562
 205   2.0000      -0.511625       -13.9220
 206   2.0000      -0.509879       -13.8745
 207   2.0000      -0.504535       -13.7291
 208   2.0000      -0.502959       -13.6862
 209   2.0000      -0.502231       -13.6664
 210   2.0000      -0.498666       -13.5694
 211   2.0000      -0.498130       -13.5548
 212   2.0000      -0.497472       -13.5369
 213   2.0000      -0.494489       -13.4557
 214   2.0000      -0.493230       -13.4215
 215   2.0000      -0.487926       -13.2771
 216   2.0000      -0.487116       -13.2551
 217   2.0000      -0.482303       -13.1241
 218   2.0000      -0.471687       -12.8352
 219   2.0000      -0.467785       -12.7291
 220   2.0000      -0.466706       -12.6997
 221   2.0000      -0.466311       -12.6890
 222   2.0000      -0.464969       -12.6525
 223   2.0000      -0.462134       -12.5753
 224   2.0000      -0.454534       -12.3685
 225   2.0000      -0.452257       -12.3065
 226   2.0000      -0.450440       -12.2571
 227   2.0000      -0.450001       -12.2452
 228   2.0000      -0.448733       -12.2106
 229   2.0000      -0.445766       -12.1299
 230   2.0000      -0.445254       -12.1160
 231   2.0000      -0.444540       -12.0966
 232   2.0000      -0.443752       -12.0751
 233   2.0000      -0.441570       -12.0157
 234   2.0000      -0.441168       -12.0048
 235   2.0000      -0.436627       -11.8812
 236   2.0000      -0.435134       -11.8406
 237   2.0000      -0.434986       -11.8366
 238   2.0000      -0.434569       -11.8252
 239   2.0000      -0.434062       -11.8114
 240   2.0000      -0.427469       -11.6320
 241   2.0000      -0.426592       -11.6082
 242   2.0000      -0.420993       -11.4558
 243   2.0000      -0.420394       -11.4395
 244   2.0000      -0.416566       -11.3353
 245   2.0000      -0.413853       -11.2615
 246   2.0000      -0.411039       -11.1849
 247   2.0000      -0.408246       -11.1089
 248   2.0000      -0.407198       -11.0804
 249   2.0000      -0.405687       -11.0393
 250   2.0000      -0.403107       -10.9691
 251   2.0000      -0.395233       -10.7548
 252   2.0000      -0.394175       -10.7261
 253   2.0000      -0.391213       -10.6454
 254   2.0000      -0.383278       -10.4295
 255   2.0000      -0.380465       -10.3530
 256   2.0000      -0.379628       -10.3302
 257   2.0000      -0.378481       -10.2990
 258   2.0000      -0.373369       -10.1599
 259   2.0000      -0.370295       -10.0763
 260   2.0000      -0.361222        -9.8293
 261   2.0000      -0.343860        -9.3569
 262   2.0000      -0.342921        -9.3314
 263   2.0000      -0.341242        -9.2857
 264   2.0000      -0.337153        -9.1744
 265   2.0000      -0.333040        -9.0625
 266   2.0000      -0.329513        -8.9665
 267   2.0000      -0.327414        -8.9094
 268   2.0000      -0.324856        -8.8398
 269   2.0000      -0.318246        -8.6599
 270   2.0000      -0.316886        -8.6229
 271   2.0000      -0.296321        -8.0633
 272   2.0000      -0.295459        -8.0398
 273   2.0000      -0.273983        -7.4554
 274   2.0000      -0.269077        -7.3220
 275   0.0000      -0.101912        -2.7732
 276   0.0000      -0.101600        -2.7647
 277   0.0000      -0.064377        -1.7518
 278   0.0000      -0.063129        -1.7178
 279   0.0000      -0.052596        -1.4312

MULLIKEN ATOMIC CHARGES
-----------------------
   0 C :    0.306630
   1 C :   -0.350670
   2 C :   -0.181664
   3 N :    0.147813
   4 C :   -0.200822
   5 N :    0.162168
   6 C :    0.049163
   7 C :   -0.000783
   8 C :   -0.084525
   9 C :    0.101127
  10 C :    0.097482
  11 C :   -0.085070
  12 C :   -0.019764
  13 C :    0.039323
  14 C :    0.035808
  15 C :   -0.017019
  16 C :    0.163033
  17 O :   -0.154202
  18 C :   -0.086516
  19 C :    0.052340
  20 C :   -0.100469
  21 C :    0.029612
  22 C :    0.052515
  23 Cl:   -0.049753
  24 C :   -0.076730
  25 S :    0.176181
  26 C :   -0.083016
  27 C :    0.056318
  28 Cl:   -0.041149
  29 C :    0.010155
  30 C :   -0.121769
  31 S :    0.202410
  32 C :    0.248396
  33 C :   -0.196722
  34 C :    0.176289
  35 O :   -0.166938
  36 O :   -0.150734
  37 C :    0.046839
  38 N :    0.017492
  39 O :   -0.164273
  40 C :   -0.127336
  41 C :    0.016495
  42 C :    0.073797
  43 Cl:   -0.042924
  44 C :   -0.082804
  45 S :    0.160017
  46 C :   -0.075912
  47 C :    0.051872
  48 Cl:   -0.044211
  49 C :    0.024466
  50 C :   -0.094681
  51 S :    0.174364
  52 C :    0.051622
  53 C :   -0.084648
  54 C :    0.314809
  55 C :   -0.353681
  56 C :   -0.183675
  57 N :    0.146659
  58 C :   -0.194575
  59 N :    0.158322
  60 C :    0.045298
  61 C :   -0.002223
  62 C :    0.159554
  63 O :   -0.153239
  64 C :   -0.078479
  65 C :    0.095301
  66 C :    0.094630
  67 C :   -0.077531
  68 C :   -0.016272
  69 C :    0.034393
  70 C :    0.036480
  71 C :   -0.015578
  72 H :   -0.013504
  73 H :   -0.006668
  74 H :   -0.009331
  75 H :   -0.004476
  76 H :   -0.004132
  77 H :   -0.017760
  78 H :    0.014308
  79 H :    0.015432
  80 H :    0.016164
  81 H :    0.186670
  82 H :    0.006146
  83 H :    0.014904
  84 H :    0.008646
  85 H :   -0.013029
  86 H :   -0.008523
  87 H :   -0.008236
  88 H :   -0.003328
  89 H :   -0.004930
  90 H :   -0.017169
Sum of atomic charges:   -0.0000000

LOEWDIN ATOMIC CHARGES
----------------------
   0 C :    0.076722
   1 C :   -0.139931
   2 C :   -0.016695
   3 N :   -0.053390
   4 C :   -0.026327
   5 N :   -0.049318
   6 C :   -0.026295
   7 C :   -0.055604
   8 C :    0.032467
   9 C :   -0.008202
  10 C :   -0.005904
  11 C :    0.020027
  12 C :   -0.004961
  13 C :   -0.012760
  14 C :   -0.012036
  15 C :   -0.009306
  16 C :    0.088980
  17 O :   -0.140528
  18 C :   -0.089092
  19 C :    0.046873
  20 C :   -0.182199
  21 C :   -0.024977
  22 C :   -0.172920
  23 Cl:    0.169339
  24 C :   -0.192571
  25 S :    0.477135
  26 C :   -0.203523
  27 C :   -0.167066
  28 Cl:    0.176584
  29 C :   -0.035749
  30 C :   -0.201303
  31 S :    0.481772
  32 C :    0.062896
  33 C :   -0.154681
  34 C :    0.077328
  35 O :   -0.142621
  36 O :   -0.019887
  37 C :   -0.048064
  38 N :   -0.035206
  39 O :    0.036760
  40 C :   -0.201659
  41 C :   -0.037677
  42 C :   -0.163902
  43 Cl:    0.174976
  44 C :   -0.209624
  45 S :    0.476150
  46 C :   -0.192543
  47 C :   -0.173820
  48 Cl:    0.171698
  49 C :   -0.023971
  50 C :   -0.182350
  51 S :    0.476119
  52 C :    0.047155
  53 C :   -0.090123
  54 C :    0.077002
  55 C :   -0.140173
  56 C :   -0.016509
  57 N :   -0.053592
  58 C :   -0.025485
  59 N :   -0.050122
  60 C :   -0.026779
  61 C :   -0.055787
  62 C :    0.088846
  63 O :   -0.140761
  64 C :    0.032805
  65 C :   -0.008292
  66 C :   -0.006140
  67 C :    0.020432
  68 C :   -0.004757
  69 C :   -0.013035
  70 C :   -0.011547
  71 C :   -0.009365
  72 H :    0.038680
  73 H :    0.039200
  74 H :    0.034817
  75 H :    0.033469
  76 H :    0.033089
  77 H :    0.031802
  78 H :    0.043722
  79 H :    0.038495
  80 H :    0.041536
  81 H :    0.085054
  82 H :    0.044178
  83 H :    0.038563
  84 H :    0.043024
  85 H :    0.038842
  86 H :    0.039041
  87 H :    0.035071
  88 H :    0.033588
  89 H :    0.032924
  90 H :    0.031968

  Mayer bond orders larger than 0.100000
B(  0-C ,  1-C ) :   1.6325 B(  0-C ,  6-C ) :   0.9862 B(  0-C , 18-C ) :   1.0676
B(  1-C ,  2-C ) :   1.1483 B(  1-C ,  4-C ) :   1.1363 B(  2-C ,  3-N ) :   2.9669
B(  4-C ,  5-N ) :   2.9884 B(  6-C ,  7-C ) :   1.2159 B(  6-C , 11-C ) :   1.4480
B(  7-C ,  8-C ) :   1.4682 B(  7-C , 16-C ) :   0.9535 B(  8-C ,  9-C ) :   1.1785
B(  8-C , 72-H ) :   1.0169 B(  9-C , 10-C ) :   1.2560 B(  9-C , 15-C ) :   1.2437
B( 10-C , 11-C ) :   1.2067 B( 10-C , 12-C ) :   1.2397 B( 11-C , 73-H ) :   0.9903
B( 12-C , 13-C ) :   1.4906 B( 12-C , 74-H ) :   0.9974 B( 13-C , 14-C ) :   1.2584
B( 13-C , 75-H ) :   0.9881 B( 14-C , 15-C ) :   1.4896 B( 14-C , 76-H ) :   0.9888
B( 15-C , 77-H ) :   0.9979 B( 16-C , 17-O ) :   2.1733 B( 16-C , 18-C ) :   0.9334
B( 18-C , 19-C ) :   1.6131 B( 19-C , 20-C ) :   1.2007 B( 19-C , 78-H ) :   0.9155
B( 20-C , 21-C ) :   1.4218 B( 20-C , 25-S ) :   1.0880 B( 21-C , 22-C ) :   1.2841
B( 21-C , 79-H ) :   0.9866 B( 22-C , 23-Cl) :   1.0467 B( 22-C , 24-C ) :   1.4223
B( 24-C , 25-S ) :   1.1669 B( 24-C , 26-C ) :   1.1707 B( 26-C , 27-C ) :   1.4578
B( 26-C , 30-C ) :   0.1135 B( 26-C , 31-S ) :   1.1362 B( 27-C , 28-Cl) :   1.0544
B( 27-C , 29-C ) :   1.2621 B( 29-C , 30-C ) :   1.4950 B( 29-C , 80-H ) :   0.9928
B( 30-C , 31-S ) :   1.0928 B( 30-C , 32-C ) :   1.1003 B( 32-C , 33-C ) :   1.5155
B( 32-C , 39-O ) :   1.2118 B( 33-C , 34-C ) :   0.8928 B( 33-C , 37-C ) :   1.1885
B( 34-C , 35-O ) :   2.1272 B( 34-C , 36-O ) :   1.2421 B( 36-O , 81-H ) :   0.9422
B( 37-C , 38-N ) :   1.7404 B( 37-C , 40-C ) :   1.0251 B( 38-N , 39-O ) :   0.9985
B( 40-C , 41-C ) :   1.4972 B( 40-C , 44-C ) :   0.1121 B( 40-C , 45-S ) :   1.1214
B( 41-C , 42-C ) :   1.2449 B( 41-C , 82-H ) :   1.0203 B( 42-C , 43-Cl) :   1.0443
B( 42-C , 44-C ) :   1.4648 B( 44-C , 45-S ) :   1.1263 B( 44-C , 46-C ) :   1.1683
B( 46-C , 47-C ) :   1.4235 B( 46-C , 51-S ) :   1.1672 B( 47-C , 48-Cl) :   1.0500
B( 47-C , 49-C ) :   1.2812 B( 49-C , 50-C ) :   1.4230 B( 49-C , 83-H ) :   0.9861
B( 50-C , 51-S ) :   1.0852 B( 50-C , 52-C ) :   1.2030 B( 52-C , 53-C ) :   1.6078
B( 52-C , 84-H ) :   0.9115 B( 53-C , 54-C ) :   1.0725 B( 53-C , 62-C ) :   0.9334
B( 54-C , 55-C ) :   1.6264 B( 54-C , 60-C ) :   0.9862 B( 55-C , 56-C ) :   1.1497
B( 55-C , 58-C ) :   1.1368 B( 56-C , 57-N ) :   2.9636 B( 58-C , 59-N ) :   2.9765
B( 60-C , 61-C ) :   1.2153 B( 60-C , 67-C ) :   1.4498 B( 61-C , 62-C ) :   0.9554
B( 61-C , 64-C ) :   1.4689 B( 62-C , 63-O ) :   2.1729 B( 64-C , 65-C ) :   1.1815
B( 64-C , 85-H ) :   1.0160 B( 65-C , 66-C ) :   1.2548 B( 65-C , 71-C ) :   1.2440
B( 66-C , 67-C ) :   1.2092 B( 66-C , 68-C ) :   1.2393 B( 67-C , 86-H ) :   0.9890
B( 68-C , 69-C ) :   1.4897 B( 68-C , 87-H ) :   0.9973 B( 69-C , 70-C ) :   1.2578
B( 69-C , 88-H ) :   0.9893 B( 70-C , 71-C ) :   1.4909 B( 70-C , 89-H ) :   0.9895
B( 71-C , 90-H ) :   0.9975

-----------------------------------------------------------------------------
         ABSORPTION SPECTRUM VIA TRANSITION ELECTRIC DIPOLE MOMENTS
-----------------------------------------------------------------------------
State   Energy  Wavelength   fosc         T2         TX        TY        TZ
        (cm-1)    (nm)                  (au**2)     (au)      (au)      (au)
-----------------------------------------------------------------------------
   0   20707.6    482.9   2.947575412  46.86097   0.89565   4.86238   4.73456
   1   21784.5    459.0   0.229262019   3.46466   0.97629   1.52878   0.41755
   2   26386.9    379.0   0.099022501   1.23544  -0.76383  -0.61406  -0.52434
   3   26448.9    378.1   0.120539099   1.50036   0.58755   0.46103   0.97087
   4   28251.7    354.0   0.001960219   0.02284   0.07686  -0.12135  -0.04700
   5   28407.2    352.0   0.053446924   0.61940   0.41952   0.37158   0.55257
   6   28504.9    350.8   0.046386799   0.53574  -0.50510  -0.39015  -0.35832
   7   28776.5    347.5   0.009805785   0.11218  -0.18834  -0.16919  -0.21928
   8   28953.2    345.4   0.003446164   0.03918  -0.16621  -0.10352   0.02898
   9   29036.7    344.4   0.089186638   1.01118  -0.66557  -0.47877  -0.58221
  10   29825.5    335.3   0.412056846   4.54826  -1.51525  -0.79631  -1.27207
  11   30207.4    331.0   0.183173355   1.99629  -1.26875  -0.55049  -0.28899
  12   31378.0    318.7   0.123070448   1.29123   0.69894  -0.77916  -0.44231
  13   32572.0    307.0   0.074260091   0.75056  -0.59026   0.22921   0.59129
  14   32786.9    305.0   0.117179048   1.17659   0.16198  -0.74837  -0.76830
  15   33331.1    300.0   0.506577813   5.00348   1.94400   0.36050   1.04613
  16   33434.4    299.1   0.343814982   3.38537   1.74800   0.45226   0.35403
  17   33573.0    297.9   0.106738814   1.04667  -0.70427   0.36241  -0.64756
  18   34287.1    291.7   0.412565681   3.96130  -1.21060  -0.56173  -1.47656
  19   34927.8    286.3   0.000532216   0.00502   0.06698  -0.02102   0.00936
  20   34996.0    285.7   0.198067297   1.86325  -1.04119  -0.57501  -0.66972
  21   35634.4    280.6   0.033075632   0.30557   0.53710  -0.12956   0.01769
  22   35778.9    279.5   0.053525649   0.49250  -0.64755   0.27051   0.00356
  23   36717.9    272.3   0.013997244   0.12550  -0.15923   0.22597   0.22154
  24   36963.4    270.5   0.070422837   0.62722   0.75972  -0.18111  -0.13129
  25   37446.0    267.1   0.003464104   0.03046  -0.09039   0.09471   0.11539
  26   37464.5    266.9   0.010629934   0.09341  -0.27740   0.12037   0.04436
  27   37574.3    266.1   0.001449113   0.01270  -0.04218   0.04313   0.09517
  28   38278.7    261.2   0.078846953   0.67812   0.80563  -0.15012   0.08091
  29   38714.8    258.3   0.097875901   0.83229   0.73294  -0.42148  -0.34271
  30   39764.9    251.5   0.284969284   2.35925   1.24988  -0.72520  -0.52071
  31   39958.5    250.3   0.004277721   0.03524  -0.11519  -0.08714  -0.11993
  32   40302.6    248.1   0.000162838   0.00133  -0.01818   0.02727   0.01600

FINAL SINGLE POINT ENERGY     -6148.102316545358

DIPOLE MOMENT
-------------
                                X             Y             Z
Electronic contribution:    -11.67442      -7.79246      10.37606
Nuclear contribution   :     11.35870       7.81399     -10.34635
                        -----------------------------------------
Total Dipole Moment    :     -0.31572       0.02153       0.02971
                        -----------------------------------------
Magnitude (a.u.)       :      0.31784
Magnitude (Debye)      :      0.80789

Rotational constants in cm-1:     0.002926     0.000148     0.000143
Rotational constants in MHz :    87.734257     4.436585     4.280201

                             ****ORCA TERMINATED NORMALLY****
TOTAL RUN TIME: 0 days 0 hours 8 minutes 17 seconds 107 msec
