                         Program Version 4.2.0 -  RELEASE  -
|  1> # ORCA input file
|  2> # SCF done       -209.434727527050          0.000577311165
|  3> ! CAM-B3LYP def2-SVP def2/J RIJCOSX Grid4 TightSCF
|  4> %maxcore 5000
|  5> %tddft
|  6>     Mode sTDDFT
|  7>     Ethresh 5.0
|  8>     maxcore 5000
|  9> end
| 10>
| 11> %pal
| 12>   nprocs 6
| 13>   end
| 14> * xyz 0 1
| 15>    C        1.03661         0.86209        -0.27557
| 16>    C        0.15173         1.20787         0.71716
| 17>    C        0.21342         0.70911         2.03289
| 18>    N        0.23690         0.35967         3.12667
| 19>    C       -0.96708         2.03755         0.51495
| 20>    N       -1.90568         2.68747         0.38989
| 21>    C        2.03061        -0.20450        -0.17342
| 22>    C        2.40879        -0.59583        -1.49072
| 23>    C        3.29959        -1.60500        -1.71277
| 24>    C        3.87454        -2.27221        -0.60709
| 25>    C        3.51472        -1.87423         0.71249
| 26>    C        2.58050        -0.83062         0.91173
| 27>    C        4.10167        -2.54178         1.80621
| 28>    C        4.99884        -3.55608         1.60838
| 29>    C        5.35129        -3.94821         0.30866
| 30>    C        4.80054        -3.32011        -0.77550
| 31>    C        1.71162         0.25911        -2.46796
| 32>    O        1.74443         0.19205        -3.67655
| 33>    C        0.98944         1.27699        -1.65573
| 34>    C        0.51368         2.38936        -2.29301
| 35>    C        0.15691         3.64928        -1.78455
| 36>    C        0.43134         4.23883        -0.54870
| 37>    C       -0.06003         5.52340        -0.45432
| 38>    C       -0.71918         5.94290        -1.62165
| 39>    S       -0.70640         4.75374        -2.84681
| 40>    C       -1.20760         7.24838        -1.43316
| 41>    C       -0.87275         7.67417        -0.13886
| 42>    C       -0.11483         6.59910         0.60427
| 43>    C        1.28274         7.07697         1.00639
| 44>    C       -0.89830         6.11436         1.82823
| 45>    C       -1.30998         8.95464         0.13112
| 46>    C       -1.97881         9.52937        -0.95031
| 47>    S       -2.06187         8.43881        -2.32346
| 48>    C       -2.55505        10.82287        -1.05209
| 49>    C       -2.57435        11.78636        -0.01305
| 50>    C       -3.17886        13.07799        -0.19350
| 51>    N       -3.17671        13.95836         0.82644
| 52>    C       -2.63292        13.64133         1.95631
| 53>    C       -2.03427        12.36997         2.13145
| 54>    N       -2.01510        11.49479         1.17952
| 55>    F       -1.46385        12.02962         3.28763
| 56>    F       -2.65250        14.54017         2.93542
| 57>    C       -3.78579        13.49476        -1.40216
| 58>    C       -3.76720        12.53582        -2.44375
| 59>    C       -3.16855        11.23726        -2.25851
| 60>    N       -3.26203        10.48953        -3.35649
| 61>    S       -4.01918        11.31747        -4.50346
| 62>    N       -4.26865        12.66873        -3.67270
| 63>    C       -4.36777        14.77970        -1.54556
| 64>    C       -4.96023        15.29627        -2.69939
| 65>    C       -5.43928        16.57571        -2.51619
| 66>    C       -5.22194        17.05410        -1.21392
| 67>    S       -4.40986        15.91540        -0.21503
| 68>    C       -5.75117        18.35495        -1.11773
| 69>    C       -6.30785        18.71946        -2.35836
| 70>    C       -6.14599        17.60542        -3.36410
| 71>    C       -7.50355        17.09557        -3.85485
| 72>    C       -5.27630        18.04725        -4.54480
| 73>    C       -6.86170        19.97949        -2.35838
| 74>    C       -6.74467        20.61460        -1.12042
| 75>    S       -5.91596        19.58328         0.05582
| 76>    C       -7.16617        21.86737        -0.65009
| 77>    C       -7.80406        22.91476        -1.26971
| 78>    C       -8.18110        24.13697        -0.57780
| 79>    C       -8.09241        24.39985         0.76676
| 80>    C       -8.48644        25.61803         1.35958
| 81>    N       -8.78308        26.57822         1.91549
| 82>    C       -7.62881        23.52671         1.77293
| 83>    N       -7.28357        22.89357         2.66796
| 84>    C       -8.72610        25.06439        -1.56453
| 85>    C       -8.73031        24.41839        -2.83097
| 86>    C       -8.17957        23.05981        -2.69435
| 87>    O       -8.07010        22.25649        -3.60155
| 88>    C       -9.19164        25.03300        -3.95870
| 89>    C       -9.68173        26.35489        -3.86990
| 90>    C       -9.67985        27.01196        -2.60621
| 91>    C       -9.19410        26.34722        -1.45619
| 92>    C      -10.17167        28.33067        -2.52699
| 93>    C      -10.64358        28.97034        -3.64086
| 94>    C      -10.64407        28.32219        -4.88491
| 95>    C      -10.17301        27.04214        -4.99695
| 96>    H        3.56444        -1.89158        -2.71969
| 97>    H        2.33176        -0.54593         1.92228
| 98>    H        3.82478        -2.23875         2.80540
| 99>    H        5.44151        -4.06235         2.45316
|100>    H        6.06115        -4.75005         0.17039
|101>    H        5.06782        -3.61756        -1.77904
|102>    H        0.47937         2.29523        -3.37509
|103>    H        1.00637         3.74617         0.21437
|104>    H        1.83315         7.41984         0.13296
|105>    H        1.83587         6.26494         1.47174
|106>    H        1.20387         7.89810         1.71392
|107>    H       -1.87046         5.73215         1.52696
|108>    H       -1.04128         6.93429         2.52715
|109>    H       -0.35563         5.31533         2.32696
|110>    H       -1.16918         9.48337         1.05376
|111>    H       -5.01627        14.72589        -3.60728
|112>    H       -8.11791        16.78413        -3.01321
|113>    H       -7.36419        16.24609        -4.51851
|114>    H       -8.02277        17.88423        -4.39305
|115>    H       -4.31142        18.40396        -4.19163
|116>    H       -5.76803        18.85077        -5.08682
|117>    H       -5.11347        17.21138        -5.22036
|118>    H       -7.33699        20.45553        -3.19604
|119>    H       -6.93253        22.01818         0.39723
|120>    H       -9.18318        24.51575        -4.90683
|121>    H       -9.20510        26.87712        -0.51747
|122>    H      -10.16968        28.82573        -1.56689
|123>    H      -11.01956        29.98003        -3.56927
|124>    H      -11.01943        28.84200        -5.75382
|125>    H      -10.17053        26.53739        -5.95223
|126> *
|127>
|128>                          ****END OF INPUT****

CARTESIAN COORDINATES (ANGSTROEM)
---------------------------------
  C      1.036610    0.862090   -0.275570
  C      0.151730    1.207870    0.717160
  C      0.213420    0.709110    2.032890
  N      0.236900    0.359670    3.126670
  C     -0.967080    2.037550    0.514950
  N     -1.905680    2.687470    0.389890
  C      2.030610   -0.204500   -0.173420
  C      2.408790   -0.595830   -1.490720
  C      3.299590   -1.605000   -1.712770
  C      3.874540   -2.272210   -0.607090
  C      3.514720   -1.874230    0.712490
  C      2.580500   -0.830620    0.911730
  C      4.101670   -2.541780    1.806210
  C      4.998840   -3.556080    1.608380
  C      5.351290   -3.948210    0.308660
  C      4.800540   -3.320110   -0.775500
  C      1.711620    0.259110   -2.467960
  O      1.744430    0.192050   -3.676550
  C      0.989440    1.276990   -1.655730
  C      0.513680    2.389360   -2.293010
  C      0.156910    3.649280   -1.784550
  C      0.431340    4.238830   -0.548700
  C     -0.060030    5.523400   -0.454320
  C     -0.719180    5.942900   -1.621650
  S     -0.706400    4.753740   -2.846810
  C     -1.207600    7.248380   -1.433160
  C     -0.872750    7.674170   -0.138860
  C     -0.114830    6.599100    0.604270
  C      1.282740    7.076970    1.006390
  C     -0.898300    6.114360    1.828230
  C     -1.309980    8.954640    0.131120
  C     -1.978810    9.529370   -0.950310
  S     -2.061870    8.438810   -2.323460
  C     -2.555050   10.822870   -1.052090
  C     -2.574350   11.786360   -0.013050
  C     -3.178860   13.077990   -0.193500
  N     -3.176710   13.958360    0.826440
  C     -2.632920   13.641330    1.956310
  C     -2.034270   12.369970    2.131450
  N     -2.015100   11.494790    1.179520
  F     -1.463850   12.029620    3.287630
  F     -2.652500   14.540170    2.935420
  C     -3.785790   13.494760   -1.402160
  C     -3.767200   12.535820   -2.443750
  C     -3.168550   11.237260   -2.258510
  N     -3.262030   10.489530   -3.356490
  S     -4.019180   11.317470   -4.503460
  N     -4.268650   12.668730   -3.672700
  C     -4.367770   14.779700   -1.545560
  C     -4.960230   15.296270   -2.699390
  C     -5.439280   16.575710   -2.516190
  C     -5.221940   17.054100   -1.213920
  S     -4.409860   15.915400   -0.215030
  C     -5.751170   18.354950   -1.117730
  C     -6.307850   18.719460   -2.358360
  C     -6.145990   17.605420   -3.364100
  C     -7.503550   17.095570   -3.854850
  C     -5.276300   18.047250   -4.544800
  C     -6.861700   19.979490   -2.358380
  C     -6.744670   20.614600   -1.120420
  S     -5.915960   19.583280    0.055820
  C     -7.166170   21.867370   -0.650090
  C     -7.804060   22.914760   -1.269710
  C     -8.181100   24.136970   -0.577800
  C     -8.092410   24.399850    0.766760
  C     -8.486440   25.618030    1.359580
  N     -8.783080   26.578220    1.915490
  C     -7.628810   23.526710    1.772930
  N     -7.283570   22.893570    2.667960
  C     -8.726100   25.064390   -1.564530
  C     -8.730310   24.418390   -2.830970
  C     -8.179570   23.059810   -2.694350
  O     -8.070100   22.256490   -3.601550
  C     -9.191640   25.033000   -3.958700
  C     -9.681730   26.354890   -3.869900
  C     -9.679850   27.011960   -2.606210
  C     -9.194100   26.347220   -1.456190
  C    -10.171670   28.330670   -2.526990
  C    -10.643580   28.970340   -3.640860
  C    -10.644070   28.322190   -4.884910
  C    -10.173010   27.042140   -4.996950
  H      3.564440   -1.891580   -2.719690
  H      2.331760   -0.545930    1.922280
  H      3.824780   -2.238750    2.805400
  H      5.441510   -4.062350    2.453160
  H      6.061150   -4.750050    0.170390
  H      5.067820   -3.617560   -1.779040
  H      0.479370    2.295230   -3.375090
  H      1.006370    3.746170    0.214370
  H      1.833150    7.419840    0.132960
  H      1.835870    6.264940    1.471740
  H      1.203870    7.898100    1.713920
  H     -1.870460    5.732150    1.526960
  H     -1.041280    6.934290    2.527150
  H     -0.355630    5.315330    2.326960
  H     -1.169180    9.483370    1.053760
  H     -5.016270   14.725890   -3.607280
  H     -8.117910   16.784130   -3.013210
  H     -7.364190   16.246090   -4.518510
  H     -8.022770   17.884230   -4.393050
  H     -4.311420   18.403960   -4.191630
  H     -5.768030   18.850770   -5.086820
  H     -5.113470   17.211380   -5.220360
  H     -7.336990   20.455530   -3.196040
  H     -6.932530   22.018180    0.397230
  H     -9.183180   24.515750   -4.906830
  H     -9.205100   26.877120   -0.517470
  H    -10.169680   28.825730   -1.566890
  H    -11.019560   29.980030   -3.569270
  H    -11.019430   28.842000   -5.753820
  H    -10.170530   26.537390   -5.952230

 Total Charge           Charge          ....    0
 Multiplicity           Mult            ....    1
 Number of Electrons    NEL             ....  584
 Basis Dimension        Dim             .... 1304

ORBITAL ENERGIES
----------------

  NO   OCC          E(Eh)            E(eV)
   0   2.0000     -89.048941     -2423.1449
   1   2.0000     -88.973643     -2421.0959
   2   2.0000     -88.970805     -2421.0187
   3   2.0000     -88.966935     -2420.9134
   4   2.0000     -88.966719     -2420.9075
   5   2.0000     -24.822282      -675.4486
   6   2.0000     -24.819986      -675.3861
   7   2.0000     -19.208871      -522.6999
   8   2.0000     -19.205566      -522.6100
   9   2.0000     -14.462887      -393.5552
  10   2.0000     -14.460440      -393.4886
  11   2.0000     -14.458365      -393.4321
  12   2.0000     -14.458215      -393.4280
  13   2.0000     -14.410431      -392.1278
  14   2.0000     -14.409503      -392.1025
  15   2.0000     -14.406765      -392.0280
  16   2.0000     -14.403071      -391.9275
  17   2.0000     -10.438807      -284.0544
  18   2.0000     -10.436156      -283.9822
  19   2.0000     -10.360018      -281.9104
  20   2.0000     -10.357035      -281.8292
  21   2.0000     -10.351973      -281.6915
  22   2.0000     -10.350485      -281.6510
  23   2.0000     -10.346668      -281.5471
  24   2.0000     -10.344904      -281.4992
  25   2.0000     -10.335494      -281.2431
  26   2.0000     -10.334370      -281.2125
  27   2.0000     -10.330564      -281.1089
  28   2.0000     -10.328802      -281.0610
  29   2.0000     -10.321050      -280.8500
  30   2.0000     -10.320566      -280.8369
  31   2.0000     -10.320433      -280.8333
  32   2.0000     -10.319349      -280.8038
  33   2.0000     -10.317877      -280.7637
  34   2.0000     -10.317442      -280.7519
  35   2.0000     -10.315308      -280.6938
  36   2.0000     -10.314578      -280.6739
  37   2.0000     -10.314110      -280.6612
  38   2.0000     -10.312968      -280.6301
  39   2.0000     -10.311935      -280.6020
  40   2.0000     -10.311484      -280.5897
  41   2.0000     -10.310332      -280.5584
  42   2.0000     -10.307077      -280.4698
  43   2.0000     -10.306512      -280.4545
  44   2.0000     -10.304587      -280.4021
  45   2.0000     -10.299304      -280.2583
  46   2.0000     -10.298914      -280.2477
  47   2.0000     -10.297492      -280.2090
  48   2.0000     -10.296462      -280.1810
  49   2.0000     -10.293478      -280.0998
  50   2.0000     -10.292677      -280.0780
  51   2.0000     -10.292279      -280.0672
  52   2.0000     -10.291232      -280.0387
  53   2.0000     -10.291090      -280.0348
  54   2.0000     -10.290155      -280.0094
  55   2.0000     -10.289730      -279.9978
  56   2.0000     -10.288539      -279.9654
  57   2.0000     -10.288208      -279.9564
  58   2.0000     -10.288137      -279.9545
  59   2.0000     -10.287783      -279.9448
  60   2.0000     -10.284983      -279.8686
  61   2.0000     -10.283311      -279.8231
  62   2.0000     -10.282935      -279.8129
  63   2.0000     -10.282407      -279.7985
  64   2.0000     -10.282180      -279.7923
  65   2.0000     -10.281813      -279.7824
  66   2.0000     -10.281799      -279.7820
  67   2.0000     -10.281772      -279.7812
  68   2.0000     -10.281541      -279.7750
  69   2.0000     -10.281077      -279.7623
  70   2.0000     -10.280754      -279.7535
  71   2.0000     -10.280713      -279.7524
  72   2.0000     -10.280415      -279.7443
  73   2.0000     -10.279818      -279.7281
  74   2.0000     -10.279372      -279.7159
  75   2.0000     -10.279312      -279.7143
  76   2.0000     -10.278772      -279.6996
  77   2.0000     -10.269207      -279.4393
  78   2.0000     -10.268066      -279.4083
  79   2.0000     -10.267892      -279.4035
  80   2.0000     -10.263165      -279.2749
  81   2.0000      -8.140047      -221.5019
  82   2.0000      -8.068636      -219.5587
  83   2.0000      -8.065738      -219.4799
  84   2.0000      -8.060269      -219.3311
  85   2.0000      -8.060029      -219.3245
  86   2.0000      -6.111204      -166.2943
  87   2.0000      -6.103401      -166.0820
  88   2.0000      -6.102718      -166.0634
  89   2.0000      -6.037869      -164.2988
  90   2.0000      -6.034906      -164.2181
  91   2.0000      -6.033847      -164.1893
  92   2.0000      -6.030921      -164.1097
  93   2.0000      -6.030847      -164.1077
  94   2.0000      -6.029820      -164.0797
  95   2.0000      -6.029616      -164.0742
  96   2.0000      -6.028000      -164.0302
  97   2.0000      -6.025318      -163.9572
  98   2.0000      -6.025019      -163.9491
  99   2.0000      -6.022315      -163.8755
 100   2.0000      -6.022158      -163.8713
 101   2.0000      -1.349042       -36.7093
 102   2.0000      -1.334798       -36.3217
 103   2.0000      -1.146723       -31.2039
 104   2.0000      -1.122952       -30.5571
 105   2.0000      -1.121040       -30.5051
 106   2.0000      -1.120791       -30.4983
 107   2.0000      -1.046664       -28.4812
 108   2.0000      -1.022516       -27.8241
 109   2.0000      -1.019769       -27.7493
 110   2.0000      -1.012156       -27.5422
 111   2.0000      -1.008499       -27.4426
 112   2.0000      -1.004145       -27.3242
 113   2.0000      -0.992568       -27.0092
 114   2.0000      -0.991418       -26.9779
 115   2.0000      -0.989893       -26.9364
 116   2.0000      -0.988240       -26.8914
 117   2.0000      -0.983442       -26.7608
 118   2.0000      -0.979528       -26.6543
 119   2.0000      -0.969738       -26.3879
 120   2.0000      -0.964945       -26.2575
 121   2.0000      -0.962369       -26.1874
 122   2.0000      -0.935869       -25.4663
 123   2.0000      -0.929671       -25.2976
 124   2.0000      -0.917594       -24.9690
 125   2.0000      -0.915116       -24.9016
 126   2.0000      -0.896963       -24.4076
 127   2.0000      -0.894517       -24.3411
 128   2.0000      -0.892268       -24.2798
 129   2.0000      -0.891511       -24.2593
 130   2.0000      -0.878091       -23.8941
 131   2.0000      -0.875955       -23.8360
 132   2.0000      -0.873917       -23.7805
 133   2.0000      -0.871490       -23.7144
 134   2.0000      -0.855942       -23.2914
 135   2.0000      -0.845290       -23.0015
 136   2.0000      -0.839613       -22.8470
 137   2.0000      -0.836469       -22.7615
 138   2.0000      -0.829243       -22.5648
 139   2.0000      -0.828094       -22.5336
 140   2.0000      -0.823125       -22.3984
 141   2.0000      -0.822036       -22.3687
 142   2.0000      -0.820453       -22.3257
 143   2.0000      -0.809806       -22.0359
 144   2.0000      -0.802765       -21.8444
 145   2.0000      -0.785624       -21.3779
 146   2.0000      -0.779910       -21.2224
 147   2.0000      -0.778267       -21.1777
 148   2.0000      -0.777267       -21.1505
 149   2.0000      -0.757813       -20.6211
 150   2.0000      -0.753374       -20.5003
 151   2.0000      -0.752484       -20.4761
 152   2.0000      -0.750017       -20.4090
 153   2.0000      -0.733565       -19.9613
 154   2.0000      -0.719973       -19.5915
 155   2.0000      -0.708896       -19.2900
 156   2.0000      -0.708405       -19.2767
 157   2.0000      -0.702263       -19.1095
 158   2.0000      -0.697149       -18.9704
 159   2.0000      -0.696497       -18.9526
 160   2.0000      -0.692947       -18.8560
 161   2.0000      -0.689625       -18.7657
 162   2.0000      -0.684277       -18.6201
 163   2.0000      -0.681373       -18.5411
 164   2.0000      -0.672450       -18.2983
 165   2.0000      -0.669264       -18.2116
 166   2.0000      -0.668970       -18.2036
 167   2.0000      -0.660831       -17.9821
 168   2.0000      -0.649296       -17.6682
 169   2.0000      -0.643962       -17.5231
 170   2.0000      -0.637108       -17.3366
 171   2.0000      -0.636288       -17.3143
 172   2.0000      -0.632247       -17.2043
 173   2.0000      -0.630162       -17.1476
 174   2.0000      -0.629311       -17.1244
 175   2.0000      -0.627311       -17.0700
 176   2.0000      -0.624616       -16.9967
 177   2.0000      -0.623169       -16.9573
 178   2.0000      -0.619608       -16.8604
 179   2.0000      -0.608544       -16.5593
 180   2.0000      -0.601933       -16.3794
 181   2.0000      -0.598799       -16.2941
 182   2.0000      -0.592974       -16.1356
 183   2.0000      -0.591254       -16.0888
 184   2.0000      -0.584685       -15.9101
 185   2.0000      -0.576266       -15.6810
 186   2.0000      -0.573569       -15.6076
 187   2.0000      -0.572575       -15.5806
 188   2.0000      -0.566906       -15.4263
 189   2.0000      -0.564039       -15.3483
 190   2.0000      -0.559372       -15.2213
 191   2.0000      -0.556113       -15.1326
 192   2.0000      -0.550998       -14.9934
 193   2.0000      -0.544170       -14.8076
 194   2.0000      -0.542065       -14.7503
 195   2.0000      -0.540919       -14.7192
 196   2.0000      -0.540445       -14.7063
 197   2.0000      -0.539187       -14.6720
 198   2.0000      -0.536145       -14.5892
 199   2.0000      -0.534280       -14.5385
 200   2.0000      -0.533997       -14.5308
 201   2.0000      -0.529770       -14.4158
 202   2.0000      -0.528087       -14.3700
 203   2.0000      -0.527003       -14.3405
 204   2.0000      -0.525814       -14.3081
 205   2.0000      -0.524175       -14.2635
 206   2.0000      -0.523773       -14.2526
 207   2.0000      -0.518000       -14.0955
 208   2.0000      -0.515817       -14.0361
 209   2.0000      -0.514761       -14.0074
 210   2.0000      -0.512941       -13.9578
 211   2.0000      -0.511691       -13.9238
 212   2.0000      -0.511048       -13.9063
 213   2.0000      -0.507164       -13.8006
 214   2.0000      -0.506454       -13.7813
 215   2.0000      -0.505573       -13.7574
 216   2.0000      -0.499804       -13.6003
 217   2.0000      -0.495989       -13.4966
 218   2.0000      -0.495372       -13.4797
 219   2.0000      -0.492254       -13.3949
 220   2.0000      -0.491359       -13.3706
 221   2.0000      -0.489452       -13.3187
 222   2.0000      -0.487550       -13.2669
 223   2.0000      -0.487438       -13.2639
 224   2.0000      -0.484111       -13.1733
 225   2.0000      -0.483224       -13.1492
 226   2.0000      -0.481333       -13.0977
 227   2.0000      -0.478145       -13.0110
 228   2.0000      -0.477610       -12.9964
 229   2.0000      -0.475381       -12.9358
 230   2.0000      -0.472464       -12.8564
 231   2.0000      -0.469264       -12.7693
 232   2.0000      -0.465172       -12.6580
 233   2.0000      -0.463512       -12.6128
 234   2.0000      -0.461617       -12.5612
 235   2.0000      -0.459488       -12.5033
 236   2.0000      -0.458251       -12.4697
 237   2.0000      -0.456128       -12.4119
 238   2.0000      -0.448315       -12.1993
 239   2.0000      -0.447718       -12.1830
 240   2.0000      -0.445118       -12.1123
 241   2.0000      -0.442203       -12.0330
 242   2.0000      -0.440668       -11.9912
 243   2.0000      -0.440041       -11.9741
 244   2.0000      -0.438133       -11.9222
 245   2.0000      -0.435440       -11.8489
 246   2.0000      -0.434331       -11.8187
 247   2.0000      -0.433459       -11.7950
 248   2.0000      -0.432033       -11.7562
 249   2.0000      -0.430467       -11.7136
 250   2.0000      -0.427983       -11.6460
 251   2.0000      -0.426004       -11.5922
 252   2.0000      -0.425797       -11.5865
 253   2.0000      -0.425023       -11.5655
 254   2.0000      -0.424870       -11.5613
 255   2.0000      -0.424496       -11.5511
 256   2.0000      -0.422545       -11.4980
 257   2.0000      -0.421347       -11.4654
 258   2.0000      -0.418599       -11.3906
 259   2.0000      -0.416789       -11.3414
 260   2.0000      -0.414474       -11.2784
 261   2.0000      -0.410600       -11.1730
 262   2.0000      -0.410099       -11.1594
 263   2.0000      -0.408485       -11.1155
 264   2.0000      -0.407097       -11.0777
 265   2.0000      -0.404774       -11.0144
 266   2.0000      -0.403029       -10.9670
 267   2.0000      -0.397914       -10.8278
 268   2.0000      -0.394953       -10.7472
 269   2.0000      -0.393785       -10.7154
 270   2.0000      -0.377873       -10.2824
 271   2.0000      -0.375204       -10.2098
 272   2.0000      -0.369294       -10.0490
 273   2.0000      -0.367302        -9.9948
 274   2.0000      -0.364439        -9.9169
 275   2.0000      -0.363348        -9.8872
 276   2.0000      -0.349779        -9.5180
 277   2.0000      -0.345835        -9.4106
 278   2.0000      -0.332278        -9.0417
 279   2.0000      -0.332131        -9.0377
 280   2.0000      -0.331090        -9.0094
 281   2.0000      -0.329738        -8.9726
 282   2.0000      -0.326600        -8.8872
 283   2.0000      -0.324882        -8.8405
 284   2.0000      -0.322426        -8.7737
 285   2.0000      -0.311348        -8.4722
 286   2.0000      -0.309174        -8.4130
 287   2.0000      -0.296430        -8.0663
 288   2.0000      -0.289830        -7.8867
 289   2.0000      -0.285034        -7.7562
 290   2.0000      -0.260456        -7.0874
 291   2.0000      -0.228742        -6.2244
 292   0.0000      -0.124997        -3.4013
 293   0.0000      -0.086706        -2.3594
 294   0.0000      -0.082350        -2.2409
 295   0.0000      -0.051212        -1.3935
 296   0.0000      -0.050675        -1.3789

MULLIKEN ATOMIC CHARGES
-----------------------
   0 C :    0.280268
   1 C :   -0.355202
   2 C :   -0.173476
   3 N :    0.145824
   4 C :   -0.203256
   5 N :    0.165859
   6 C :    0.032619
   7 C :    0.014829
   8 C :   -0.081880
   9 C :    0.092537
  10 C :    0.093656
  11 C :   -0.083305
  12 C :   -0.017360
  13 C :    0.035440
  14 C :    0.031446
  15 C :   -0.014103
  16 C :    0.136544
  17 O :   -0.152283
  18 C :   -0.152114
  19 C :    0.078666
  20 C :   -0.113024
  21 C :    0.006792
  22 C :   -0.001028
  23 C :   -0.063571
  24 S :    0.176090
  25 C :   -0.055436
  26 C :    0.044697
  27 C :   -0.115685
  28 C :    0.104975
  29 C :    0.110809
  30 C :   -0.063278
  31 C :   -0.185494
  32 S :    0.173408
  33 C :    0.205779
  34 C :   -0.073181
  35 C :   -0.064238
  36 N :   -0.043753
  37 C :    0.154288
  38 C :    0.139551
  39 N :    0.004631
  40 F :   -0.142786
  41 F :   -0.134304
  42 C :    0.175337
  43 C :    0.002772
  44 C :   -0.033376
  45 N :   -0.327723
  46 S :    0.551987
  47 N :   -0.295027
  48 C :   -0.179432
  49 C :   -0.065317
  50 C :    0.046327
  51 C :   -0.056628
  52 S :    0.179351
  53 C :   -0.069215
  54 C :   -0.000299
  55 C :   -0.106078
  56 C :    0.102786
  57 C :    0.107057
  58 C :   -0.017415
  59 C :   -0.117008
  60 S :    0.174160
  61 C :    0.040669
  62 C :   -0.100315
  63 C :    0.328255
  64 C :   -0.373063
  65 C :   -0.181798
  66 N :    0.138787
  67 C :   -0.186553
  68 N :    0.143334
  69 C :    0.047186
  70 C :    0.007387
  71 C :    0.157491
  72 O :   -0.169981
  73 C :   -0.091882
  74 C :    0.102465
  75 C :    0.098112
  76 C :   -0.089380
  77 C :   -0.022531
  78 C :    0.038144
  79 C :    0.037216
  80 C :   -0.020213
  81 H :   -0.014547
  82 H :   -0.008884
  83 H :   -0.012725
  84 H :   -0.006619
  85 H :   -0.006105
  86 H :   -0.019435
  87 H :    0.019881
  88 H :   -0.002165
  89 H :    0.018749
  90 H :    0.013023
  91 H :    0.017376
  92 H :    0.034159
  93 H :    0.012635
  94 H :    0.014395
  95 H :   -0.002750
  96 H :   -0.008791
  97 H :    0.020597
  98 H :    0.012971
  99 H :    0.021001
 100 H :    0.018807
 101 H :    0.020935
 102 H :    0.011493
 103 H :    0.009599
 104 H :   -0.001967
 105 H :   -0.019023
 106 H :   -0.010013
 107 H :   -0.010660
 108 H :   -0.007797
 109 H :   -0.008638
 110 H :   -0.021041
Sum of atomic charges:   -0.0000000

LOEWDIN ATOMIC CHARGES
----------------------
   0 C :    0.067771
   1 C :   -0.153494
   2 C :   -0.020982
   3 N :   -0.060950
   4 C :   -0.017329
   5 N :   -0.050609
   6 C :   -0.022577
   7 C :   -0.055523
   8 C :    0.029982
   9 C :   -0.010150
  10 C :   -0.006711
  11 C :    0.012845
  12 C :   -0.007351
  13 C :   -0.015011
  14 C :   -0.015331
  15 C :   -0.009914
  16 C :    0.081540
  17 O :   -0.151838
  18 C :   -0.106510
  19 C :    0.044707
  20 C :   -0.179165
  21 C :   -0.006857
  22 C :   -0.029328
  23 C :   -0.167083
  24 S :    0.463990
  25 C :   -0.197882
  26 C :   -0.026387
  27 C :   -0.035857
  28 C :   -0.024731
  29 C :   -0.021293
  30 C :   -0.037428
  31 C :   -0.156128
  32 S :    0.479435
  33 C :   -0.045318
  34 C :   -0.009223
  35 C :   -0.014368
  36 N :   -0.053445
  37 C :    0.063553
  38 C :    0.057929
  39 N :   -0.028813
  40 F :   -0.032010
  41 F :   -0.023913
  42 C :   -0.047510
  43 C :   -0.036848
  44 C :   -0.047243
  45 N :   -0.298308
  46 S :    0.671622
  47 N :   -0.278390
  48 C :   -0.156550
  49 C :   -0.040794
  50 C :   -0.025125
  51 C :   -0.202657
  52 S :    0.479829
  53 C :   -0.165417
  54 C :   -0.039807
  55 C :   -0.036602
  56 C :   -0.023809
  57 C :   -0.022950
  58 C :   -0.005559
  59 C :   -0.175807
  60 S :    0.462409
  61 C :    0.043556
  62 C :   -0.109224
  63 C :    0.077845
  64 C :   -0.151173
  65 C :   -0.016556
  66 N :   -0.063620
  67 C :   -0.024725
  68 N :   -0.059313
  69 C :   -0.025163
  70 C :   -0.053275
  71 C :    0.087301
  72 O :   -0.156153
  73 C :    0.027182
  74 C :   -0.009389
  75 C :   -0.007332
  76 C :    0.017192
  77 C :   -0.005916
  78 C :   -0.016182
  79 C :   -0.014925
  80 C :   -0.011587
  81 H :    0.038319
  82 H :    0.037614
  83 H :    0.033446
  84 H :    0.032276
  85 H :    0.032007
  86 H :    0.031033
  87 H :    0.044479
  88 H :    0.035704
  89 H :    0.028841
  90 H :    0.024704
  91 H :    0.026708
  92 H :    0.035098
  93 H :    0.024841
  94 H :    0.025558
  95 H :    0.029855
  96 H :    0.028795
  97 H :    0.029921
  98 H :    0.024610
  99 H :    0.027864
 100 H :    0.029453
 101 H :    0.027930
 102 H :    0.024236
 103 H :    0.034452
 104 H :    0.041823
 105 H :    0.036505
 106 H :    0.038515
 107 H :    0.034245
 108 H :    0.032050
 109 H :    0.031386
 110 H :    0.030463

  Mayer bond orders larger than 0.100000
B(  0-C ,  1-C ) :   1.6158 B(  0-C ,  6-C ) :   0.9962 B(  0-C , 18-C ) :   1.0641
B(  1-C ,  2-C ) :   1.1320 B(  1-C ,  4-C ) :   1.1751 B(  2-C ,  3-N ) :   2.9827
B(  4-C ,  5-N ) :   2.9816 B(  6-C ,  7-C ) :   1.2156 B(  6-C , 11-C ) :   1.4612
B(  7-C ,  8-C ) :   1.4831 B(  7-C , 16-C ) :   0.9190 B(  8-C ,  9-C ) :   1.1774
B(  8-C , 81-H ) :   1.0163 B(  9-C , 10-C ) :   1.2613 B(  9-C , 15-C ) :   1.2486
B( 10-C , 11-C ) :   1.2012 B( 10-C , 12-C ) :   1.2412 B( 11-C , 82-H ) :   0.9938
B( 12-C , 13-C ) :   1.4880 B( 12-C , 83-H ) :   0.9979 B( 13-C , 14-C ) :   1.2622
B( 13-C , 84-H ) :   0.9887 B( 14-C , 15-C ) :   1.4859 B( 14-C , 85-H ) :   0.9896
B( 15-C , 86-H ) :   0.9979 B( 16-C , 17-O ) :   2.2551 B( 16-C , 18-C ) :   0.9525
B( 18-C , 19-C ) :   1.6017 B( 19-C , 20-C ) :   1.1884 B( 19-C , 87-H ) :   0.9252
B( 20-C , 21-C ) :   1.3518 B( 20-C , 24-S ) :   1.0849 B( 21-C , 22-C ) :   1.4118
B( 21-C , 88-H ) :   0.9880 B( 22-C , 23-C ) :   1.4607 B( 22-C , 27-C ) :   0.9357
B( 23-C , 24-S ) :   1.1181 B( 23-C , 25-C ) :   1.1999 B( 25-C , 26-C ) :   1.4690
B( 25-C , 32-S ) :   1.0535 B( 26-C , 27-C ) :   0.9346 B( 26-C , 30-C ) :   1.3122
B( 27-C , 28-C ) :   1.0382 B( 27-C , 29-C ) :   1.0381 B( 28-C , 89-H ) :   0.9637
B( 28-C , 90-H ) :   0.9647 B( 28-C , 91-H ) :   0.9643 B( 29-C , 92-H ) :   0.9615
B( 29-C , 93-H ) :   0.9632 B( 29-C , 94-H ) :   0.9633 B( 30-C , 31-C ) :   1.3925
B( 30-C , 95-H ) :   0.9967 B( 31-C , 32-S ) :   1.1087 B( 31-C , 33-C ) :   1.2009
B( 33-C , 34-C ) :   1.2869 B( 33-C , 42-C ) :   0.1233 B( 33-C , 44-C ) :   1.1778
B( 34-C , 35-C ) :   1.1119 B( 34-C , 39-N ) :   1.4356 B( 35-C , 36-N ) :   1.3919
B( 35-C , 42-C ) :   1.2828 B( 36-N , 37-C ) :   1.6495 B( 37-C , 38-C ) :   1.1103
B( 37-C , 41-F ) :   1.1892 B( 38-C , 39-N ) :   1.6643 B( 38-C , 40-F ) :   1.1720
B( 42-C , 43-C ) :   1.1970 B( 42-C , 48-C ) :   1.2022 B( 43-C , 44-C ) :   1.1104
B( 43-C , 47-N ) :   1.5076 B( 44-C , 45-N ) :   1.4815 B( 45-N , 46-S ) :   1.2700
B( 45-N , 47-N ) :   0.1513 B( 46-S , 47-N ) :   1.2752 B( 48-C , 49-C ) :   1.4031
B( 48-C , 52-S ) :   1.1047 B( 49-C , 50-C ) :   1.3167 B( 49-C , 96-H ) :   0.9918
B( 50-C , 51-C ) :   1.4699 B( 50-C , 55-C ) :   0.9375 B( 51-C , 52-S ) :   1.0415
B( 51-C , 53-C ) :   1.2029 B( 53-C , 54-C ) :   1.4359 B( 53-C , 60-S ) :   1.1273
B( 54-C , 55-C ) :   0.9334 B( 54-C , 58-C ) :   1.3574 B( 55-C , 56-C ) :   1.0379
B( 55-C , 57-C ) :   1.0355 B( 56-C , 97-H ) :   0.9636 B( 56-C , 98-H ) :   0.9642
B( 56-C , 99-H ) :   0.9649 B( 57-C ,100-H ) :   0.9634 B( 57-C ,101-H ) :   0.9651
B( 57-C ,102-H ) :   0.9644 B( 58-C , 59-C ) :   1.3592 B( 58-C ,103-H ) :   0.9796
B( 59-C , 60-S ) :   1.0724 B( 59-C , 61-C ) :   1.2692 B( 61-C , 62-C ) :   1.5327
B( 61-C ,104-H ) :   0.9059 B( 62-C , 63-C ) :   1.1013 B( 62-C , 71-C ) :   0.9484
B( 63-C , 64-C ) :   1.5977 B( 63-C , 69-C ) :   0.9748 B( 64-C , 65-C ) :   1.1542
B( 64-C , 67-C ) :   1.1413 B( 65-C , 66-N ) :   2.9567 B( 67-C , 68-N ) :   2.9596
B( 69-C , 70-C ) :   1.2202 B( 69-C , 76-C ) :   1.4501 B( 70-C , 71-C ) :   0.9553
B( 70-C , 73-C ) :   1.4697 B( 71-C , 72-O ) :   2.1444 B( 72-O ,103-H ) :   0.1019
B( 73-C , 74-C ) :   1.1706 B( 73-C ,105-H ) :   1.0173 B( 74-C , 75-C ) :   1.2619
B( 74-C , 80-C ) :   1.2443 B( 75-C , 76-C ) :   1.2011 B( 75-C , 77-C ) :   1.2406
B( 76-C ,106-H ) :   0.9895 B( 77-C , 78-C ) :   1.4879 B( 77-C ,107-H ) :   0.9973
B( 78-C , 79-C ) :   1.2618 B( 78-C ,108-H ) :   0.9878 B( 79-C , 80-C ) :   1.4870
B( 79-C ,109-H ) :   0.9885 B( 80-C ,110-H ) :   0.9977

-----------------------------------------------------------------------------
         ABSORPTION SPECTRUM VIA TRANSITION ELECTRIC DIPOLE MOMENTS
-----------------------------------------------------------------------------
State   Energy  Wavelength   fosc         T2         TX        TY        TZ
        (cm-1)    (nm)                  (au**2)     (au)      (au)      (au)
-----------------------------------------------------------------------------
   0    8423.8   1187.1   1.321448618  51.64368  -2.76216   6.62956  -0.25104
   1   16388.8    610.2   0.007545688   0.15157   0.10300   0.31862  -0.19862
   2   17739.1    563.7   0.925175677  17.16991  -1.30732   3.91485  -0.36710
   3   18780.1    532.5   0.656208077  11.50319   1.36983  -3.07392  -0.42164
   4   23566.2    424.3   0.088417344   1.23516  -0.31039   1.06709   0.01197
   5   24971.6    400.5   0.068543211   0.90364  -0.42550   0.78555   0.32479
   6   25306.8    395.2   0.015172219   0.19737   0.08553  -0.42785  -0.08369
   7   25379.7    394.0   0.006244212   0.08100   0.17999   0.12007  -0.18488
   8   26118.4    382.9   0.256664591   3.23515   1.04809  -1.45424   0.14778
   9   26168.7    382.1   0.128517502   1.61680   0.04796   0.04719  -1.26975
  10   26339.4    379.7   0.006516909   0.08145  -0.15170   0.02624  -0.24032
  11   26590.2    376.1   0.012423810   0.15382  -0.08573   0.15055  -0.35186
  12   27111.9    368.8   0.122336861   1.48550  -0.46252   1.10171  -0.24044
  13   27366.1    365.4   0.040601339   0.48843   0.27296  -0.61724  -0.18149
  14   28326.3    353.0   0.063454620   0.73748   0.31735  -0.56692  -0.56158
  15   28764.9    347.6   0.031419535   0.35959   0.33691  -0.47910   0.12866
  16   28944.2    345.5   0.010171195   0.11569   0.23159  -0.15534   0.19474
  17   29542.5    338.5   0.022139903   0.24672   0.33994  -0.18646   0.31048
  18   29727.1    336.4   0.019490921   0.21585   0.10329   0.23863   0.38502
  19   30365.9    329.3   0.273292743   2.96290   0.72369  -1.55643   0.12918
  20   30447.6    328.4   0.001653572   0.01788  -0.02254  -0.13104   0.01411
  21   30739.2    325.3   0.085135578   0.91179  -0.16837   0.32793   0.88085
  22   31026.0    322.3   0.196005877   2.07978   0.70391  -0.95319   0.82203
  23   31212.2    320.4   0.006462168   0.06816  -0.25711  -0.00432  -0.04515
  24   31230.5    320.2   0.056420624   0.59475   0.67423  -0.34005  -0.15660
  25   31385.1    318.6   0.021109648   0.22143   0.00330  -0.38803  -0.26618
  26   31711.1    315.3   0.025363501   0.26331   0.02827   0.05836   0.50903
  27   32320.4    309.4   0.086857514   0.88472  -0.16362  -0.45165  -0.80868
  28   32483.1    307.9   0.207197577   2.09992  -0.85431   0.90608  -0.74101
  29   33016.6    302.9   0.052497719   0.52346   0.52588  -0.20524  -0.45254
  30   33566.7    297.9   0.087885706   0.86196   0.31553  -0.12445  -0.86424
  31   34072.6    293.5   0.064849303   0.62658   0.52302  -0.51695   0.29289
  32   34224.8    292.2   0.023062421   0.22184  -0.33144   0.30183  -0.14452
  33   34471.6    290.1   0.048365140   0.46190  -0.36649   0.38820  -0.42058
  34   34641.1    288.7   0.231158313   2.19682   0.81409  -0.98799   0.74695
  35   34879.9    286.7   0.065712040   0.62022  -0.24863   0.03080  -0.74663
  36   35215.1    284.0   0.047246935   0.44169   0.37655  -0.23871   0.49286
  37   35414.3    282.4   0.043545853   0.40480  -0.29865   0.22035   0.51678
  38   35616.3    280.8   0.084372492   0.77988  -0.65751   0.51533  -0.28633
  39   35769.2    279.6   0.150736713   1.38735   0.60042   0.30564   0.96614
  40   35903.2    278.5   0.300221178   2.75286  -0.87647   1.40354  -0.12136
  41   35980.9    277.9   0.617149158   5.64669   0.37602  -0.72410  -2.23181
  42   36570.9    273.4   0.005652436   0.05088   0.10691  -0.06679   0.18706
  43   36750.0    272.1   0.081743937   0.73228   0.61589  -0.44990   0.38800
  44   36907.0    271.0   0.316875620   2.82655   0.82294  -0.40122   1.41008
  45   36981.5    270.4   0.059450343   0.52923   0.22341  -0.04416   0.69092
  46   37392.9    267.4   0.035453915   0.31214   0.32439  -0.34345  -0.29825
  47   37530.0    266.5   0.010853745   0.09521  -0.25279   0.10668   0.14115
  48   38042.6    262.9   0.002205405   0.01909  -0.08742   0.08726  -0.06188
  49   38635.9    258.8   0.009464489   0.08065  -0.09057  -0.00273  -0.26914
  50   38825.2    257.6   0.017043579   0.14452   0.29065  -0.07755   0.23244
  51   39199.2    255.1   0.020732113   0.17412  -0.24031   0.06224   0.33540
  52   39269.4    254.7   0.150673739   1.26316  -0.01392  -0.57692  -0.96443
  53   39385.2    253.9   0.002418900   0.02022  -0.03881  -0.01539  -0.13592
  54   39831.3    251.1   0.012696190   0.10494  -0.12257  -0.25630  -0.15563
  55   40228.7    248.6   0.015502653   0.12687   0.08687  -0.31807  -0.13473

FINAL SINGLE POINT ENERGY     -5231.229697330647

DIPOLE MOMENT
-------------
                                X             Y             Z
Electronic contribution:     -2.76893       3.03994      17.79361
Nuclear contribution   :      4.39503      -3.94686     -20.95566
                        -----------------------------------------
Total Dipole Moment    :      1.62610      -0.90691      -3.16205
                        -----------------------------------------
Magnitude (a.u.)       :      3.66950
Magnitude (Debye)      :      9.32714

Rotational constants in cm-1:     0.003117     0.000141     0.000136
Rotational constants in MHz :    93.434589     4.220573     4.073510

                             ****ORCA TERMINATED NORMALLY****
TOTAL RUN TIME: 0 days 0 hours 12 minutes 36 seconds 472 msec
