                         Program Version 4.2.0 -  RELEASE  -
|  1> # ORCA input file
|  2> # SCF done       -169.572590869485          0.002143194973
|  3> ! CAM-B3LYP def2-SVP def2/J RIJCOSX Grid4 TightSCF
|  4> %maxcore 5000
|  5> %tddft
|  6>     Mode sTDDFT
|  7>     Ethresh 5.0
|  8>     maxcore 5000
|  9> end
| 10>
| 11> %pal
| 12>   nprocs 6
| 13>   end
| 14> * xyz 0 1
| 15>    C       12.91869         5.09697         3.42621
| 16>    S       11.87038         5.11281         2.07098
| 17>    C       12.70764         3.75944         1.34844
| 18>    C       13.75555         3.35838         2.15746
| 19>    C       13.85884         4.11381         3.34914
| 20>    C       14.90236         3.85477         4.38745
| 21>    C       15.45044         2.43706         4.25450
| 22>    C       15.86650         2.16628         2.81193
| 23>    C       14.67797         2.21586         1.83922
| 24>    C       13.86639         0.94506         1.93047
| 25>    O       13.58319         0.24039         1.00333
| 26>    C       12.26578         3.17053         0.13287
| 27>    C       11.15861         3.56545        -0.53695
| 28>    C       10.63882         2.87228        -1.67415
| 29>    C        9.48713         3.21709        -2.33573
| 30>    O        8.95348         2.45241        -3.36308
| 31>    C        9.65030         1.32345        -3.66934
| 32>    C       10.86614         0.98632        -3.00710
| 33>    C       11.41218        -0.16754        -3.46120
| 34>    S       10.44676        -0.86595        -4.70800
| 35>    C        9.29701         0.41662        -4.61249
| 36>    O       11.39033         1.76631        -2.02273
| 37>    C        8.75887         4.42082        -2.08158
| 38>    C        7.67527         4.83615        -2.77000
| 39>    C        7.16271         6.17629        -2.60527
| 40>    C        7.06962         6.87375        -1.46499
| 41>    C        7.17166         6.28413        -0.09300
| 42>    C        7.06202         8.38501        -1.51269
| 43>    N        8.44486         8.80489        -1.27477
| 44>    C        9.41671         8.22463        -2.01018
| 45>    C       10.67419         7.91892        -1.58436
| 46>    C       11.53850         7.14519        -2.37234
| 47>    C       12.72213         6.59652        -1.94582
| 48>    C       13.52802         5.66968        -2.64416
| 49>    C       14.62290         5.24788        -1.95077
| 50>    C       14.74547         5.83231        -0.67224
| 51>    S       13.42769         6.92428        -0.36928
| 52>    C       15.76120         5.63270         0.25274
| 53>    C       16.90974         4.83629         0.11272
| 54>    C       17.74838         4.88649         1.19357
| 55>    C       17.28923         5.71011         2.23977
| 56>    S       15.76270         6.43983         1.80566
| 57>    C       17.91570         5.91716         3.46146
| 58>    C       17.35204         6.64548         4.49480
| 59>    C       17.96323         6.89675         5.71497
| 60>    C       17.37993         7.57049         6.83709
| 61>    C       16.04877         7.88072         7.02315
| 62>    C       15.54380         8.54396         8.15621
| 63>    N       15.06821         9.08661         9.05084
| 64>    C       15.00550         7.53352         6.14902
| 65>    N       14.08966         7.26174         5.50780
| 66>    C       18.44031         7.80943         7.81576
| 67>    C       19.63229         7.21349         7.33928
| 68>    C       19.36748         6.58908         6.02207
| 69>    O       20.16971         5.96569         5.35181
| 70>    C       20.81361         7.26348         8.03471
| 71>    C       20.82198         7.94094         9.26006
| 72>    C       19.62725         8.53271         9.72644
| 73>    C       18.42859         8.47744         9.02345
| 74>    S       19.86020         9.32348        11.25725
| 75>    C       21.53947         8.85362        11.24703
| 76>    C       21.90771         8.14166        10.15688
| 77>   Br       22.64874         9.35021        12.67718
| 78>    H       12.80476         5.83053         4.19916
| 79>    H       14.48098         4.01832         5.38069
| 80>    H       15.71769         4.57165         4.26364
| 81>    H       14.69320         1.71737         4.57051
| 82>    H       16.31578         2.31738         4.90867
| 83>    H       16.34622         1.18806         2.73477
| 84>    H       16.59582         2.92065         2.50803
| 85>    H       15.04586         2.30943         0.81084
| 86>    H       13.52119         0.70850         2.95391
| 87>    H       12.82795         2.32371        -0.23195
| 88>    H       10.59983         4.40821        -0.16380
| 89>    H       12.31132        -0.64381        -3.13217
| 90>    H        8.43785         0.42511        -5.24928
| 91>    H        9.18013         5.07731        -1.33996
| 92>    H        7.27840         4.23305        -3.57311
| 93>    H        6.91563         6.67810        -3.53574
| 94>    H        7.06856         5.20467        -0.12820
| 95>    H        6.38031         6.69108         0.53563
| 96>    H        8.12297         6.52313         0.38242
| 97>    H        6.43047         8.83462        -0.74641
| 98>    H        6.74923         8.74787        -2.49509
| 99>    H        8.68086         8.98645        -0.30793
|100>    H        9.11710         7.94428        -3.01105
|101>    H       10.98984         8.17861        -0.58281
|102>    H       11.20878         6.88207        -3.36901
|103>    H       13.26726         5.33312        -3.63176
|104>    H       15.33798         4.53722        -2.32298
|105>    H       17.10021         4.25390        -0.77084
|106>    H       18.67923         4.35241         1.26748
|107>    H       18.88495         5.46381         3.60922
|108>    H       16.36128         7.05423         4.32885
|109>    H       21.70672         6.79902         7.64701
|110>    H       17.54532         8.94888         9.42032
|111>    H       22.90337         7.77381         9.98871
|112> *
|113>
|114>                          ****END OF INPUT****

CARTESIAN COORDINATES (ANGSTROEM)
---------------------------------
  C     12.918690    5.096970    3.426210
  S     11.870380    5.112810    2.070980
  C     12.707640    3.759440    1.348440
  C     13.755550    3.358380    2.157460
  C     13.858840    4.113810    3.349140
  C     14.902360    3.854770    4.387450
  C     15.450440    2.437060    4.254500
  C     15.866500    2.166280    2.811930
  C     14.677970    2.215860    1.839220
  C     13.866390    0.945060    1.930470
  O     13.583190    0.240390    1.003330
  C     12.265780    3.170530    0.132870
  C     11.158610    3.565450   -0.536950
  C     10.638820    2.872280   -1.674150
  C      9.487130    3.217090   -2.335730
  O      8.953480    2.452410   -3.363080
  C      9.650300    1.323450   -3.669340
  C     10.866140    0.986320   -3.007100
  C     11.412180   -0.167540   -3.461200
  S     10.446760   -0.865950   -4.708000
  C      9.297010    0.416620   -4.612490
  O     11.390330    1.766310   -2.022730
  C      8.758870    4.420820   -2.081580
  C      7.675270    4.836150   -2.770000
  C      7.162710    6.176290   -2.605270
  C      7.069620    6.873750   -1.464990
  C      7.171660    6.284130   -0.093000
  C      7.062020    8.385010   -1.512690
  N      8.444860    8.804890   -1.274770
  C      9.416710    8.224630   -2.010180
  C     10.674190    7.918920   -1.584360
  C     11.538500    7.145190   -2.372340
  C     12.722130    6.596520   -1.945820
  C     13.528020    5.669680   -2.644160
  C     14.622900    5.247880   -1.950770
  C     14.745470    5.832310   -0.672240
  S     13.427690    6.924280   -0.369280
  C     15.761200    5.632700    0.252740
  C     16.909740    4.836290    0.112720
  C     17.748380    4.886490    1.193570
  C     17.289230    5.710110    2.239770
  S     15.762700    6.439830    1.805660
  C     17.915700    5.917160    3.461460
  C     17.352040    6.645480    4.494800
  C     17.963230    6.896750    5.714970
  C     17.379930    7.570490    6.837090
  C     16.048770    7.880720    7.023150
  C     15.543800    8.543960    8.156210
  N     15.068210    9.086610    9.050840
  C     15.005500    7.533520    6.149020
  N     14.089660    7.261740    5.507800
  C     18.440310    7.809430    7.815760
  C     19.632290    7.213490    7.339280
  C     19.367480    6.589080    6.022070
  O     20.169710    5.965690    5.351810
  C     20.813610    7.263480    8.034710
  C     20.821980    7.940940    9.260060
  C     19.627250    8.532710    9.726440
  C     18.428590    8.477440    9.023450
  S     19.860200    9.323480   11.257250
  C     21.539470    8.853620   11.247030
  C     21.907710    8.141660   10.156880
  Br    22.648740    9.350210   12.677180
  H     12.804760    5.830530    4.199160
  H     14.480980    4.018320    5.380690
  H     15.717690    4.571650    4.263640
  H     14.693200    1.717370    4.570510
  H     16.315780    2.317380    4.908670
  H     16.346220    1.188060    2.734770
  H     16.595820    2.920650    2.508030
  H     15.045860    2.309430    0.810840
  H     13.521190    0.708500    2.953910
  H     12.827950    2.323710   -0.231950
  H     10.599830    4.408210   -0.163800
  H     12.311320   -0.643810   -3.132170
  H      8.437850    0.425110   -5.249280
  H      9.180130    5.077310   -1.339960
  H      7.278400    4.233050   -3.573110
  H      6.915630    6.678100   -3.535740
  H      7.068560    5.204670   -0.128200
  H      6.380310    6.691080    0.535630
  H      8.122970    6.523130    0.382420
  H      6.430470    8.834620   -0.746410
  H      6.749230    8.747870   -2.495090
  H      8.680860    8.986450   -0.307930
  H      9.117100    7.944280   -3.011050
  H     10.989840    8.178610   -0.582810
  H     11.208780    6.882070   -3.369010
  H     13.267260    5.333120   -3.631760
  H     15.337980    4.537220   -2.322980
  H     17.100210    4.253900   -0.770840
  H     18.679230    4.352410    1.267480
  H     18.884950    5.463810    3.609220
  H     16.361280    7.054230    4.328850
  H     21.706720    6.799020    7.647010
  H     17.545320    8.948880    9.420320
  H     22.903370    7.773810    9.988710

 Total Charge           Charge          ....    0
 Multiplicity           Mult            ....    1
 Number of Electrons    NEL             ....  502
 Basis Dimension        Dim             .... 1090

ORBITAL ENERGIES
----------------

  NO   OCC          E(Eh)            E(eV)
   0   2.0000    -482.870871    -13139.5844
   1   2.0000     -88.961558     -2420.7671
   2   2.0000     -88.956992     -2420.6428
   3   2.0000     -88.954384     -2420.5719
   4   2.0000     -88.953246     -2420.5409
   5   2.0000     -88.940936     -2420.2059
   6   2.0000     -62.548595     -1702.0338
   7   2.0000     -56.382524     -1534.2465
   8   2.0000     -56.379850     -1534.1737
   9   2.0000     -56.379805     -1534.1725
  10   2.0000     -19.271290      -524.3985
  11   2.0000     -19.270331      -524.3724
  12   2.0000     -19.207924      -522.6742
  13   2.0000     -19.187050      -522.1062
  14   2.0000     -14.462755      -393.5516
  15   2.0000     -14.396255      -391.7420
  16   2.0000     -14.387465      -391.5028
  17   2.0000     -10.347973      -281.5827
  18   2.0000     -10.347859      -281.5796
  19   2.0000     -10.346317      -281.5376
  20   2.0000     -10.340719      -281.3853
  21   2.0000     -10.339599      -281.3548
  22   2.0000     -10.337427      -281.2957
  23   2.0000     -10.337341      -281.2934
  24   2.0000     -10.336550      -281.2718
  25   2.0000     -10.334634      -281.2197
  26   2.0000     -10.329885      -281.0905
  27   2.0000     -10.317474      -280.7527
  28   2.0000     -10.315383      -280.6958
  29   2.0000     -10.312625      -280.6208
  30   2.0000     -10.312261      -280.6109
  31   2.0000     -10.308214      -280.5008
  32   2.0000     -10.307686      -280.4864
  33   2.0000     -10.304010      -280.3864
  34   2.0000     -10.303442      -280.3709
  35   2.0000     -10.303025      -280.3596
  36   2.0000     -10.296706      -280.1876
  37   2.0000     -10.293100      -280.0895
  38   2.0000     -10.292073      -280.0615
  39   2.0000     -10.290887      -280.0293
  40   2.0000     -10.290020      -280.0057
  41   2.0000     -10.289144      -279.9818
  42   2.0000     -10.287413      -279.9347
  43   2.0000     -10.286463      -279.9089
  44   2.0000     -10.286027      -279.8970
  45   2.0000     -10.285554      -279.8842
  46   2.0000     -10.285292      -279.8770
  47   2.0000     -10.283580      -279.8304
  48   2.0000     -10.282430      -279.7991
  49   2.0000     -10.280532      -279.7475
  50   2.0000     -10.279436      -279.7177
  51   2.0000     -10.279429      -279.7175
  52   2.0000     -10.278341      -279.6879
  53   2.0000     -10.277703      -279.6705
  54   2.0000     -10.277595      -279.6676
  55   2.0000     -10.276279      -279.6318
  56   2.0000     -10.275287      -279.6048
  57   2.0000     -10.274463      -279.5824
  58   2.0000     -10.270666      -279.4790
  59   2.0000     -10.269775      -279.4548
  60   2.0000     -10.267549      -279.3942
  61   2.0000     -10.263588      -279.2864
  62   2.0000     -10.259186      -279.1666
  63   2.0000     -10.258527      -279.1487
  64   2.0000     -10.257771      -279.1281
  65   2.0000     -10.256018      -279.0804
  66   2.0000     -10.251999      -278.9711
  67   2.0000      -8.778022      -238.8621
  68   2.0000      -8.057318      -219.2508
  69   2.0000      -8.053013      -219.1336
  70   2.0000      -8.050122      -219.0549
  71   2.0000      -8.048309      -219.0056
  72   2.0000      -8.036127      -218.6741
  73   2.0000      -6.614245      -179.9827
  74   2.0000      -6.599775      -179.5890
  75   2.0000      -6.599635      -179.5852
  76   2.0000      -6.026860      -163.9992
  77   2.0000      -6.022804      -163.8888
  78   2.0000      -6.022716      -163.8864
  79   2.0000      -6.019648      -163.8030
  80   2.0000      -6.018666      -163.7762
  81   2.0000      -6.018449      -163.7703
  82   2.0000      -6.017853      -163.7541
  83   2.0000      -6.015462      -163.6890
  84   2.0000      -6.014217      -163.6552
  85   2.0000      -6.013809      -163.6441
  86   2.0000      -6.011808      -163.5896
  87   2.0000      -6.009820      -163.5355
  88   2.0000      -6.005260      -163.4114
  89   2.0000      -6.001207      -163.3011
  90   2.0000      -5.998643      -163.2314
  91   2.0000      -2.730097       -74.2897
  92   2.0000      -2.726061       -74.1799
  93   2.0000      -2.725980       -74.1777
  94   2.0000      -2.714461       -73.8642
  95   2.0000      -2.714456       -73.8641
  96   2.0000      -1.196716       -32.5643
  97   2.0000      -1.159691       -31.5568
  98   2.0000      -1.122639       -30.5486
  99   2.0000      -1.100222       -29.9386
 100   2.0000      -1.064867       -28.9765
 101   2.0000      -1.006136       -27.3784
 102   2.0000      -1.000794       -27.2330
 103   2.0000      -0.991807       -26.9885
 104   2.0000      -0.983242       -26.7554
 105   2.0000      -0.981842       -26.7173
 106   2.0000      -0.975409       -26.5422
 107   2.0000      -0.971826       -26.4447
 108   2.0000      -0.964481       -26.2449
 109   2.0000      -0.933353       -25.3978
 110   2.0000      -0.923549       -25.1310
 111   2.0000      -0.920777       -25.0556
 112   2.0000      -0.914541       -24.8859
 113   2.0000      -0.906222       -24.6596
 114   2.0000      -0.894972       -24.3534
 115   2.0000      -0.886454       -24.1216
 116   2.0000      -0.884284       -24.0626
 117   2.0000      -0.869147       -23.6507
 118   2.0000      -0.864232       -23.5169
 119   2.0000      -0.859690       -23.3933
 120   2.0000      -0.854523       -23.2528
 121   2.0000      -0.849649       -23.1201
 122   2.0000      -0.836721       -22.7683
 123   2.0000      -0.829914       -22.5831
 124   2.0000      -0.827280       -22.5114
 125   2.0000      -0.819708       -22.3054
 126   2.0000      -0.811370       -22.0785
 127   2.0000      -0.810905       -22.0658
 128   2.0000      -0.808127       -21.9903
 129   2.0000      -0.797212       -21.6932
 130   2.0000      -0.790089       -21.4994
 131   2.0000      -0.775917       -21.1138
 132   2.0000      -0.766554       -20.8590
 133   2.0000      -0.748852       -20.3773
 134   2.0000      -0.734322       -19.9819
 135   2.0000      -0.729207       -19.8427
 136   2.0000      -0.724792       -19.7226
 137   2.0000      -0.717962       -19.5367
 138   2.0000      -0.705442       -19.1960
 139   2.0000      -0.698575       -19.0092
 140   2.0000      -0.687828       -18.7167
 141   2.0000      -0.681464       -18.5436
 142   2.0000      -0.677297       -18.4302
 143   2.0000      -0.675025       -18.3684
 144   2.0000      -0.674021       -18.3411
 145   2.0000      -0.666612       -18.1394
 146   2.0000      -0.662686       -18.0326
 147   2.0000      -0.651941       -17.7402
 148   2.0000      -0.647739       -17.6259
 149   2.0000      -0.641879       -17.4664
 150   2.0000      -0.638305       -17.3692
 151   2.0000      -0.633584       -17.2407
 152   2.0000      -0.621733       -16.9182
 153   2.0000      -0.614731       -16.7277
 154   2.0000      -0.613419       -16.6920
 155   2.0000      -0.609696       -16.5907
 156   2.0000      -0.603108       -16.4114
 157   2.0000      -0.600322       -16.3356
 158   2.0000      -0.593894       -16.1607
 159   2.0000      -0.592436       -16.1210
 160   2.0000      -0.583998       -15.8914
 161   2.0000      -0.580175       -15.7874
 162   2.0000      -0.576912       -15.6986
 163   2.0000      -0.571778       -15.5589
 164   2.0000      -0.566620       -15.4185
 165   2.0000      -0.565196       -15.3798
 166   2.0000      -0.561655       -15.2834
 167   2.0000      -0.558724       -15.2037
 168   2.0000      -0.548829       -14.9344
 169   2.0000      -0.541275       -14.7288
 170   2.0000      -0.538878       -14.6636
 171   2.0000      -0.535404       -14.5691
 172   2.0000      -0.527190       -14.3456
 173   2.0000      -0.525413       -14.2972
 174   2.0000      -0.522864       -14.2278
 175   2.0000      -0.519418       -14.1341
 176   2.0000      -0.517881       -14.0923
 177   2.0000      -0.515461       -14.0264
 178   2.0000      -0.511586       -13.9210
 179   2.0000      -0.508711       -13.8427
 180   2.0000      -0.507658       -13.8141
 181   2.0000      -0.506304       -13.7772
 182   2.0000      -0.505085       -13.7440
 183   2.0000      -0.502586       -13.6761
 184   2.0000      -0.501861       -13.6563
 185   2.0000      -0.500427       -13.6173
 186   2.0000      -0.496313       -13.5054
 187   2.0000      -0.493171       -13.4199
 188   2.0000      -0.489758       -13.3270
 189   2.0000      -0.488911       -13.3040
 190   2.0000      -0.487741       -13.2721
 191   2.0000      -0.486150       -13.2288
 192   2.0000      -0.483457       -13.1555
 193   2.0000      -0.478887       -13.0312
 194   2.0000      -0.478109       -13.0100
 195   2.0000      -0.476349       -12.9621
 196   2.0000      -0.474063       -12.8999
 197   2.0000      -0.472780       -12.8650
 198   2.0000      -0.471154       -12.8208
 199   2.0000      -0.469157       -12.7664
 200   2.0000      -0.468097       -12.7376
 201   2.0000      -0.464392       -12.6368
 202   2.0000      -0.462705       -12.5908
 203   2.0000      -0.462004       -12.5718
 204   2.0000      -0.457098       -12.4383
 205   2.0000      -0.453608       -12.3433
 206   2.0000      -0.449168       -12.2225
 207   2.0000      -0.446342       -12.1456
 208   2.0000      -0.442065       -12.0292
 209   2.0000      -0.441115       -12.0034
 210   2.0000      -0.440854       -11.9963
 211   2.0000      -0.437455       -11.9038
 212   2.0000      -0.434299       -11.8179
 213   2.0000      -0.429222       -11.6797
 214   2.0000      -0.428888       -11.6706
 215   2.0000      -0.426781       -11.6133
 216   2.0000      -0.425583       -11.5807
 217   2.0000      -0.420254       -11.4357
 218   2.0000      -0.418727       -11.3941
 219   2.0000      -0.414367       -11.2755
 220   2.0000      -0.412848       -11.2342
 221   2.0000      -0.407266       -11.0823
 222   2.0000      -0.406385       -11.0583
 223   2.0000      -0.402317       -10.9476
 224   2.0000      -0.401408       -10.9229
 225   2.0000      -0.395789       -10.7700
 226   2.0000      -0.394631       -10.7385
 227   2.0000      -0.390210       -10.6181
 228   2.0000      -0.386803       -10.5254
 229   2.0000      -0.386011       -10.5039
 230   2.0000      -0.384482       -10.4623
 231   2.0000      -0.379783       -10.3344
 232   2.0000      -0.373108       -10.1528
 233   2.0000      -0.364575        -9.9206
 234   2.0000      -0.360688        -9.8148
 235   2.0000      -0.347636        -9.4597
 236   2.0000      -0.343328        -9.3424
 237   2.0000      -0.341680        -9.2976
 238   2.0000      -0.332039        -9.0352
 239   2.0000      -0.322573        -8.7777
 240   2.0000      -0.316869        -8.6224
 241   2.0000      -0.308654        -8.3989
 242   2.0000      -0.306891        -8.3509
 243   2.0000      -0.295091        -8.0298
 244   2.0000      -0.294796        -8.0218
 245   2.0000      -0.290946        -7.9170
 246   2.0000      -0.279929        -7.6173
 247   2.0000      -0.274058        -7.4575
 248   2.0000      -0.269217        -7.3258
 249   2.0000      -0.232330        -6.3220
 250   2.0000      -0.214059        -5.8249
 251   0.0000      -0.097513        -2.6535
 252   0.0000      -0.050330        -1.3696
 253   0.0000      -0.043586        -1.1860
 254   0.0000      -0.027383        -0.7451
 255   0.0000       0.002174         0.0592

MULLIKEN ATOMIC CHARGES
-----------------------
   0 C :   -0.108231
   1 S :    0.073415
   2 C :   -0.130860
   3 C :   -0.019742
   4 C :   -0.061015
   5 C :    0.151378
   6 C :    0.008083
   7 C :    0.048128
   8 C :    0.012957
   9 C :    0.150720
  10 O :   -0.185124
  11 C :    0.023204
  12 C :   -0.084089
  13 C :    0.184792
  14 C :    0.148336
  15 O :   -0.261538
  16 C :    0.225316
  17 C :    0.214827
  18 C :   -0.168917
  19 S :    0.105190
  20 C :   -0.182025
  21 O :   -0.251627
  22 C :   -0.062782
  23 C :    0.016803
  24 C :   -0.004112
  25 C :   -0.223520
  26 C :    0.094313
  27 C :    0.188470
  28 N :   -0.147774
  29 C :    0.086240
  30 C :   -0.032035
  31 C :    0.022079
  32 C :   -0.063912
  33 C :    0.077824
  34 C :    0.005289
  35 C :   -0.011986
  36 S :    0.122252
  37 C :   -0.065359
  38 C :    0.035881
  39 C :    0.022669
  40 C :   -0.012159
  41 S :    0.118220
  42 C :   -0.036922
  43 C :   -0.032618
  44 C :   -0.113700
  45 C :    0.330083
  46 C :   -0.383568
  47 C :   -0.190338
  48 N :    0.126997
  49 C :   -0.192895
  50 N :    0.131292
  51 C :    0.009919
  52 C :   -0.005884
  53 C :    0.134586
  54 O :   -0.172830
  55 C :   -0.083936
  56 C :    0.120784
  57 C :   -0.091350
  58 C :   -0.030413
  59 S :    0.173492
  60 C :   -0.124858
  61 C :    0.035853
  62 Br:    0.007435
  63 H :    0.021669
  64 H :    0.010238
  65 H :    0.009613
  66 H :    0.004128
  67 H :    0.006972
  68 H :    0.003104
  69 H :    0.012918
  70 H :    0.003210
  71 H :   -0.004905
  72 H :    0.012699
  73 H :   -0.009569
  74 H :    0.030082
  75 H :    0.021170
  76 H :   -0.003713
  77 H :    0.001750
  78 H :   -0.005695
  79 H :    0.040255
  80 H :    0.018198
  81 H :    0.013877
  82 H :    0.020424
  83 H :    0.025047
  84 H :    0.128391
  85 H :    0.021373
  86 H :    0.001178
  87 H :    0.000363
  88 H :   -0.005532
  89 H :   -0.010848
  90 H :   -0.011335
  91 H :   -0.006660
  92 H :    0.009003
  93 H :    0.012857
  94 H :   -0.019410
  95 H :   -0.012216
  96 H :   -0.009344
Sum of atomic charges:   -0.0000000

LOEWDIN ATOMIC CHARGES
----------------------
   0 C :   -0.172136
   1 S :    0.420045
   2 C :   -0.184792
   3 C :   -0.051785
   4 C :   -0.071837
   5 C :   -0.024819
   6 C :   -0.029217
   7 C :   -0.020931
   8 C :   -0.060747
   9 C :    0.121742
  10 O :   -0.131502
  11 C :   -0.015437
  12 C :   -0.062383
  13 C :    0.038290
  14 C :    0.007490
  15 O :   -0.061140
  16 C :   -0.008197
  17 C :   -0.008837
  18 C :   -0.207203
  19 S :    0.432361
  20 C :   -0.214713
  21 O :   -0.048305
  22 C :   -0.026527
  23 C :   -0.037183
  24 C :   -0.045800
  25 C :   -0.050771
  26 C :   -0.052695
  27 C :    0.051568
  28 N :    0.006505
  29 C :    0.084331
  30 C :   -0.118602
  31 C :    0.015189
  32 C :   -0.189282
  33 C :    0.005861
  34 C :   -0.056924
  35 C :   -0.126141
  36 S :    0.416075
  37 C :   -0.213868
  38 C :   -0.008444
  39 C :   -0.064874
  40 C :   -0.107213
  41 S :    0.431917
  42 C :   -0.095580
  43 C :    0.040162
  44 C :   -0.128867
  45 C :    0.075941
  46 C :   -0.178399
  47 C :   -0.021526
  48 N :   -0.081500
  49 C :   -0.003269
  50 N :   -0.085938
  51 C :   -0.017365
  52 C :   -0.046357
  53 C :    0.079331
  54 O :   -0.167155
  55 C :    0.013372
  56 C :   -0.038252
  57 C :   -0.147917
  58 C :   -0.016236
  59 S :    0.422533
  60 C :   -0.277360
  61 C :   -0.071193
  62 Br:    0.124392
  63 H :    0.019579
  64 H :    0.034307
  65 H :    0.031788
  66 H :    0.016534
  67 H :    0.028380
  68 H :    0.024521
  69 H :    0.029322
  70 H :    0.032985
  71 H :   -0.004974
  72 H :    0.034538
  73 H :    0.020011
  74 H :    0.031532
  75 H :    0.027390
  76 H :    0.030773
  77 H :    0.028932
  78 H :    0.024214
  79 H :    0.038506
  80 H :    0.033290
  81 H :    0.025826
  82 H :    0.029268
  83 H :    0.029697
  84 H :    0.081405
  85 H :    0.034693
  86 H :    0.023616
  87 H :    0.039996
  88 H :    0.037600
  89 H :    0.033087
  90 H :    0.033163
  91 H :    0.035115
  92 H :    0.036235
  93 H :    0.028175
  94 H :    0.037176
  95 H :    0.039038
  96 H :    0.036401

  Mayer bond orders larger than 0.100000
B(  0-C ,  1-S ) :   1.1532 B(  0-C ,  4-C ) :   1.5765 B(  0-C , 63-H ) :   0.9489
B(  1-S ,  2-C ) :   1.1217 B(  2-C ,  3-C ) :   1.4733 B(  2-C , 11-C ) :   1.1309
B(  3-C ,  4-C ) :   1.3075 B(  3-C ,  8-C ) :   0.9863 B(  4-C ,  5-C ) :   1.0305
B(  5-C ,  6-C ) :   1.0866 B(  5-C , 64-H ) :   0.9171 B(  5-C , 65-H ) :   0.9057
B(  6-C ,  7-C ) :   1.0611 B(  6-C , 66-H ) :   0.9527 B(  6-C , 67-H ) :   0.9306
B(  7-C ,  8-C ) :   1.0513 B(  7-C , 68-H ) :   0.9342 B(  7-C , 69-H ) :   0.9352
B(  8-C ,  9-C ) :   0.9224 B(  8-C , 70-H ) :   0.8883 B(  9-C , 10-O ) :   2.1616
B(  9-C , 71-H ) :   0.9445 B( 11-C , 12-C ) :   1.6610 B( 11-C , 72-H ) :   0.9624
B( 12-C , 13-C ) :   1.1672 B( 12-C , 73-H ) :   0.9574 B( 13-C , 14-C ) :   1.4632
B( 13-C , 21-O ) :   1.0729 B( 14-C , 15-O ) :   1.0541 B( 14-C , 22-C ) :   1.1782
B( 15-O , 16-C ) :   1.0568 B( 16-C , 17-C ) :   1.2009 B( 16-C , 20-C ) :   1.5687
B( 17-C , 18-C ) :   1.5768 B( 17-C , 21-O ) :   1.0490 B( 18-C , 19-S ) :   1.1402
B( 18-C , 74-H ) :   0.9709 B( 19-S , 20-C ) :   1.1400 B( 20-C , 75-H ) :   0.9732
B( 22-C , 23-C ) :   1.7191 B( 22-C , 76-H ) :   0.9500 B( 23-C , 24-C ) :   1.0467
B( 23-C , 77-H ) :   0.9667 B( 24-C , 25-C ) :   1.8347 B( 24-C , 78-H ) :   0.9471
B( 25-C , 26-C ) :   1.0783 B( 25-C , 27-C ) :   1.0389 B( 26-C , 79-H ) :   0.9506
B( 26-C , 80-H ) :   0.9469 B( 26-C , 81-H ) :   0.9437 B( 27-C , 28-N ) :   0.9869
B( 27-C , 82-H ) :   0.9456 B( 27-C , 83-H ) :   0.9433 B( 28-N , 29-C ) :   1.2762
B( 28-N , 84-H ) :   0.9380 B( 29-C , 30-C ) :   1.5624 B( 29-C , 85-H ) :   0.9591
B( 30-C , 31-C ) :   1.2129 B( 30-C , 86-H ) :   0.9647 B( 31-C , 32-C ) :   1.5232
B( 31-C , 87-H ) :   0.9791 B( 32-C , 33-C ) :   1.1784 B( 32-C , 36-S ) :   1.0194
B( 33-C , 34-C ) :   1.5384 B( 33-C , 88-H ) :   0.9978 B( 34-C , 35-C ) :   1.2321
B( 34-C , 89-H ) :   0.9951 B( 35-C , 36-S ) :   1.1260 B( 35-C , 37-C ) :   1.3911
B( 37-C , 38-C ) :   1.2734 B( 37-C , 41-S ) :   1.0477 B( 38-C , 39-C ) :   1.4657
B( 38-C , 90-H ) :   0.9969 B( 39-C , 40-C ) :   1.2278 B( 39-C , 91-H ) :   1.0004
B( 40-C , 41-S ) :   1.1225 B( 40-C , 42-C ) :   1.3270 B( 42-C , 43-C ) :   1.3310
B( 42-C , 92-H ) :   0.9798 B( 43-C , 44-C ) :   1.4037 B( 43-C , 93-H ) :   0.9459
B( 44-C , 45-C ) :   1.1544 B( 44-C , 53-C ) :   0.9874 B( 45-C , 46-C ) :   1.5359
B( 45-C , 51-C ) :   0.9815 B( 46-C , 47-C ) :   1.1493 B( 46-C , 49-C ) :   1.1757
B( 47-C , 48-N ) :   2.9633 B( 49-C , 50-N ) :   2.9328 B( 51-C , 52-C ) :   1.2822
B( 51-C , 58-C ) :   1.4256 B( 52-C , 53-C ) :   0.9281 B( 52-C , 55-C ) :   1.4386
B( 53-C , 54-O ) :   2.1794 B( 55-C , 56-C ) :   1.2304 B( 55-C , 94-H ) :   1.0166
B( 56-C , 57-C ) :   1.3258 B( 56-C , 61-C ) :   1.1578 B( 57-C , 58-C ) :   1.3112
B( 57-C , 59-S ) :   1.0800 B( 58-C , 95-H ) :   0.9809 B( 59-S , 60-C ) :   1.0856
B( 60-C , 61-C ) :   1.6223 B( 60-C , 62-Br) :   1.0090 B( 61-C , 96-H ) :   1.0003

-----------------------------------------------------------------------------
         ABSORPTION SPECTRUM VIA TRANSITION ELECTRIC DIPOLE MOMENTS
-----------------------------------------------------------------------------
State   Energy  Wavelength   fosc         T2         TX        TY        TZ
        (cm-1)    (nm)                  (au**2)     (au)      (au)      (au)
-----------------------------------------------------------------------------
   0   11231.7    890.3   0.906938964  26.58328   3.05805   0.18158   4.14712
   1   13372.9    747.8   0.232472210   5.72296   1.40664  -0.09168   1.93285
   2   20598.2    485.5   0.111425030   1.78085   0.65191  -0.56925  -1.01579
   3   21570.4    463.6   0.031245755   0.47688   0.00189  -0.21897  -0.65493
   4   21929.8    456.0   0.118687240   1.78174  -1.21199   0.47502  -0.29527
   5   24024.0    416.3   0.356002735   4.87847  -1.82025   0.11375  -1.24588
   6   24174.8    413.7   0.161842015   2.20396  -0.26964  -0.30480  -1.42771
   7   25034.7    399.4   0.088300270   1.16117  -0.32404   0.00994  -1.02765
   8   25962.6    385.2   0.642103736   8.14202   2.57227  -0.74780   0.98299
   9   26730.3    374.1   0.026683433   0.32864  -0.02293  -0.02353  -0.57232
  10   27403.2    364.9   0.392284108   4.71275  -1.38582   1.44590   0.83764
  11   28212.2    354.5   0.011550066   0.13478  -0.31238   0.18249   0.06243
  12   29464.2    339.4   0.031642750   0.35355   0.48843  -0.32901  -0.08209
  13   29697.5    336.7   0.005851711   0.06487  -0.00693  -0.13034  -0.21871
  14   30880.5    323.8   0.033480469   0.35693   0.20369   0.34362   0.44426
  15   31397.7    318.5   0.019967752   0.20937  -0.08110   0.19612   0.40537
  16   31767.4    314.8   0.041839424   0.43359  -0.53096  -0.12376  -0.36926
  17   31981.5    312.7   0.024062579   0.24770  -0.06226  -0.02137  -0.49332
  18   32087.7    311.6   0.004906299   0.05034  -0.19419  -0.00292  -0.11234
  19   32317.7    309.4   0.115450295   1.17606  -0.45816  -0.51880  -0.83486
  20   32672.0    306.1   0.242564614   2.44414   1.01657   0.47555   1.08839
  21   32940.9    303.6   0.014582134   0.14573  -0.04457  -0.18573  -0.33053
  22   33418.5    299.2   0.303072651   2.98563   1.43885   0.09185   0.95231
  23   33735.9    296.4   0.005130699   0.05007   0.06133  -0.19567  -0.08955
  24   33944.2    294.6   0.188055658   1.82388  -0.70202  -0.61391  -0.97681
  25   34155.2    292.8   0.002898689   0.02794  -0.04662   0.06786   0.14547
  26   34743.0    287.8   0.034186044   0.32393  -0.48523  -0.25304  -0.15639
  27   35292.5    283.3   0.151900009   1.41694  -1.10767   0.43584  -0.00734
  28   35528.0    281.5   0.060925794   0.56455   0.42705  -0.24026   0.56961
  29   36131.3    276.8   0.016799676   0.15307   0.04831  -0.16208  -0.35280
  30   36808.7    271.7   0.078006041   0.69768  -0.63809   0.40196   0.35910
  31   37141.2    269.2   0.015091033   0.13376  -0.25595  -0.06632  -0.25270
  32   37292.2    268.2   0.103372264   0.91256  -0.68315   0.65162   0.14576
  33   37578.0    266.1   0.048415739   0.42416   0.56574  -0.29511   0.13043
  34   37660.1    265.5   0.264960746   2.31620  -0.66782   1.25538   0.54244
  35   37797.9    264.6   0.017341343   0.15104   0.17817   0.30368   0.16454
  36   38117.9    262.3   0.083745466   0.72328  -0.18067  -0.74755  -0.36305
  37   38518.8    259.6   0.147513768   1.26077  -0.02206   0.80053   0.78704
  38   38692.3    258.4   0.084548206   0.71937   0.77127  -0.29226  -0.19775
  39   38833.8    257.5   0.156734005   1.32871   0.92305  -0.57152  -0.38737
  40   39234.3    254.9   0.028764452   0.24136   0.07154  -0.37416  -0.31023
  41   39768.0    251.5   0.095630266   0.79166  -0.40708   0.50752   0.60693
  42   40206.2    248.7   0.056163196   0.45987  -0.49746   0.39076  -0.24434

FINAL SINGLE POINT ENERGY     -6952.067089299359

DIPOLE MOMENT
-------------
                                X             Y             Z
Electronic contribution:    129.16976      54.88525     146.43551
Nuclear contribution   :   -131.34510     -54.62137    -150.78224
                        -----------------------------------------
Total Dipole Moment    :     -2.17534       0.26387      -4.34673
                        -----------------------------------------
Magnitude (a.u.)       :      4.86784
Magnitude (Debye)      :     12.37305

Rotational constants in cm-1:     0.002378     0.000344     0.000322
Rotational constants in MHz :    71.290495    10.303225     9.665377

                             ****ORCA TERMINATED NORMALLY****
TOTAL RUN TIME: 0 days 0 hours 9 minutes 57 seconds 80 msec
