                         Program Version 4.2.0 -  RELEASE  -
|  1> # ORCA input file
|  2> # SCF done       -188.295322238085          0.000497679001
|  3> ! CAM-B3LYP def2-SVP def2/J RIJCOSX Grid4 TightSCF
|  4> %maxcore 5000
|  5> %tddft
|  6>     Mode sTDDFT
|  7>     Ethresh 5.0
|  8>     maxcore 5000
|  9> end
| 10>
| 11> %pal
| 12>   nprocs 6
| 13>   end
| 14> * xyz 0 1
| 15>    C      -20.02940        -7.07592         1.50647
| 16>    C      -18.92840        -7.79411         1.91720
| 17>    C      -19.01156        -8.97669         2.68477
| 18>    N      -19.02314        -9.93696         3.31365
| 19>    C      -17.57375        -7.51213         1.67445
| 20>    N      -16.43192        -7.41498         1.55825
| 21>    C      -21.41717        -7.44022         1.79277
| 22>    C      -22.26950        -6.46699         1.21634
| 23>    C      -23.63782        -6.52454         1.30920
| 24>    C      -24.19949        -7.59982         2.00618
| 25>    C      -23.34280        -8.56944         2.57765
| 26>    C      -21.95696        -8.50876         2.48356
| 27>    S      -24.24104        -9.81480         3.39085
| 28>    C      -25.73418        -9.02567         2.95800
| 29>    C      -25.57130        -7.88812         2.24123
| 30>   Br      -27.36753        -9.77765         3.49068
| 31>    C      -21.45154        -5.44374         0.53699
| 32>    O      -21.87071        -4.47062        -0.05835
| 33>    C      -20.04620        -5.85704         0.73931
| 34>    C      -18.95565        -5.15762         0.26348
| 35>    C      -19.04105        -3.97602        -0.46959
| 36>    C      -17.93610        -3.28288        -0.92378
| 37>    C      -17.92648        -2.07691        -1.66261
| 38>    C      -16.67641        -1.61490        -1.96435
| 39>    C      -15.64226        -2.43744        -1.47748
| 40>    S      -16.30025        -3.81753        -0.62777
| 41>    C      -14.26552        -2.30475        -1.56868
| 42>    C      -13.45879        -1.31155        -2.16239
| 43>    C      -12.11986        -1.53996        -2.02042
| 44>    C      -11.80156        -2.72335        -1.30935
| 45>    S      -13.27461        -3.53743        -0.83555
| 46>    C      -10.55735        -3.21800        -0.99063
| 47>    C      -10.32795        -4.39983        -0.27733
| 48>    S      -11.60926        -5.45362         0.29571
| 49>    C      -10.53617        -6.60349         1.03327
| 50>    C       -9.21370        -6.19080         0.84446
| 51>    C       -9.12069        -4.97282         0.11732
| 52>    O       -7.83914        -4.60413        -0.04386
| 53>    C       -7.10622        -5.57164         0.56910
| 54>    N       -5.69486        -5.43777         0.56200
| 55>    O       -5.06873        -6.31870         1.11768
| 56>    O       -5.22167        -4.46794         0.01319
| 57>    C       -7.87496        -6.56071         1.12617
| 58>    C      -11.08873        -7.73327         1.67495
| 59>    S      -12.81212        -7.95047         1.68168
| 60>    C      -12.67383        -9.45042         2.53464
| 61>    C      -13.87805       -10.19664         2.93621
| 62>    O      -13.81664       -11.26067         3.50662
| 63>    O      -15.06158        -9.66405         2.64150
| 64>    C      -11.34141        -9.75416         2.80547
| 65>    C      -10.45958        -8.76347         2.33996
| 66>    C      -10.83892       -10.91627         3.50925
| 67>    C      -11.17345       -12.20632         3.34948
| 68>    C      -12.07519       -12.86491         2.41337
| 69>    C      -12.29728       -12.50670         1.11456
| 70>    C      -13.11965       -13.23704         0.22967
| 71>    N      -13.77320       -13.79457        -0.53052
| 72>    C      -11.68158       -11.40664         0.48408
| 73>    N      -11.18074       -10.55089        -0.09508
| 74>    C      -12.51690       -14.09232         3.05387
| 75>    C      -11.72346       -14.32412         4.20791
| 76>    C      -10.77547       -13.21103         4.38476
| 77>    O       -9.89859       -13.09041         5.20480
| 78>    C      -11.89427       -15.42869         5.00831
| 79>    C      -12.89739       -16.33805         4.65962
| 80>    C      -13.69511       -16.08690         3.51543
| 81>    C      -13.51993       -14.97574         2.70171
| 82>    S      -14.88377       -17.33064         3.28102
| 83>    C      -14.29822       -18.16383         4.69631
| 84>    C      -13.26772       -17.54242         5.31784
| 85>   Br      -15.10131       -19.77349         5.22089
| 86>    H      -24.25592        -5.76440         0.85774
| 87>    H      -21.35354        -9.27571         2.93820
| 88>    H      -26.38353        -7.27716         1.89188
| 89>    H      -17.96305        -5.54370         0.47113
| 90>    H      -20.01844        -3.57357        -0.69372
| 91>    H      -18.84184        -1.58861        -1.94576
| 92>    H      -16.47700        -0.71444        -2.51730
| 93>    H      -13.87839        -0.46198        -2.67046
| 94>    H      -11.35024        -0.89367        -2.40371
| 95>    H       -9.68278        -2.66374        -1.30239
| 96>    H       -7.50228        -7.41546         1.65071
| 97>    H      -15.06686        -8.79478         2.19738
| 98>    H       -9.39371        -8.82873         2.45339
| 99>    H      -10.09941       -10.70859         4.27678
|100>    H      -11.27627       -15.58480         5.87862
|101>    H      -14.15845       -14.81304         1.84927
|102>    H      -12.78809       -17.91576         6.20418
|103> *
|104>
|105>                          ****END OF INPUT****

CARTESIAN COORDINATES (ANGSTROEM)
---------------------------------
  C    -20.029400   -7.075920    1.506470
  C    -18.928400   -7.794110    1.917200
  C    -19.011560   -8.976690    2.684770
  N    -19.023140   -9.936960    3.313650
  C    -17.573750   -7.512130    1.674450
  N    -16.431920   -7.414980    1.558250
  C    -21.417170   -7.440220    1.792770
  C    -22.269500   -6.466990    1.216340
  C    -23.637820   -6.524540    1.309200
  C    -24.199490   -7.599820    2.006180
  C    -23.342800   -8.569440    2.577650
  C    -21.956960   -8.508760    2.483560
  S    -24.241040   -9.814800    3.390850
  C    -25.734180   -9.025670    2.958000
  C    -25.571300   -7.888120    2.241230
  Br   -27.367530   -9.777650    3.490680
  C    -21.451540   -5.443740    0.536990
  O    -21.870710   -4.470620   -0.058350
  C    -20.046200   -5.857040    0.739310
  C    -18.955650   -5.157620    0.263480
  C    -19.041050   -3.976020   -0.469590
  C    -17.936100   -3.282880   -0.923780
  C    -17.926480   -2.076910   -1.662610
  C    -16.676410   -1.614900   -1.964350
  C    -15.642260   -2.437440   -1.477480
  S    -16.300250   -3.817530   -0.627770
  C    -14.265520   -2.304750   -1.568680
  C    -13.458790   -1.311550   -2.162390
  C    -12.119860   -1.539960   -2.020420
  C    -11.801560   -2.723350   -1.309350
  S    -13.274610   -3.537430   -0.835550
  C    -10.557350   -3.218000   -0.990630
  C    -10.327950   -4.399830   -0.277330
  S    -11.609260   -5.453620    0.295710
  C    -10.536170   -6.603490    1.033270
  C     -9.213700   -6.190800    0.844460
  C     -9.120690   -4.972820    0.117320
  O     -7.839140   -4.604130   -0.043860
  C     -7.106220   -5.571640    0.569100
  N     -5.694860   -5.437770    0.562000
  O     -5.068730   -6.318700    1.117680
  O     -5.221670   -4.467940    0.013190
  C     -7.874960   -6.560710    1.126170
  C    -11.088730   -7.733270    1.674950
  S    -12.812120   -7.950470    1.681680
  C    -12.673830   -9.450420    2.534640
  C    -13.878050  -10.196640    2.936210
  O    -13.816640  -11.260670    3.506620
  O    -15.061580   -9.664050    2.641500
  C    -11.341410   -9.754160    2.805470
  C    -10.459580   -8.763470    2.339960
  C    -10.838920  -10.916270    3.509250
  C    -11.173450  -12.206320    3.349480
  C    -12.075190  -12.864910    2.413370
  C    -12.297280  -12.506700    1.114560
  C    -13.119650  -13.237040    0.229670
  N    -13.773200  -13.794570   -0.530520
  C    -11.681580  -11.406640    0.484080
  N    -11.180740  -10.550890   -0.095080
  C    -12.516900  -14.092320    3.053870
  C    -11.723460  -14.324120    4.207910
  C    -10.775470  -13.211030    4.384760
  O     -9.898590  -13.090410    5.204800
  C    -11.894270  -15.428690    5.008310
  C    -12.897390  -16.338050    4.659620
  C    -13.695110  -16.086900    3.515430
  C    -13.519930  -14.975740    2.701710
  S    -14.883770  -17.330640    3.281020
  C    -14.298220  -18.163830    4.696310
  C    -13.267720  -17.542420    5.317840
  Br   -15.101310  -19.773490    5.220890
  H    -24.255920   -5.764400    0.857740
  H    -21.353540   -9.275710    2.938200
  H    -26.383530   -7.277160    1.891880
  H    -17.963050   -5.543700    0.471130
  H    -20.018440   -3.573570   -0.693720
  H    -18.841840   -1.588610   -1.945760
  H    -16.477000   -0.714440   -2.517300
  H    -13.878390   -0.461980   -2.670460
  H    -11.350240   -0.893670   -2.403710
  H     -9.682780   -2.663740   -1.302390
  H     -7.502280   -7.415460    1.650710
  H    -15.066860   -8.794780    2.197380
  H     -9.393710   -8.828730    2.453390
  H    -10.099410  -10.708590    4.276780
  H    -11.276270  -15.584800    5.878620
  H    -14.158450  -14.813040    1.849270
  H    -12.788090  -17.915760    6.204180

 Total Charge           Charge          ....    0
 Multiplicity           Mult            ....    1
 Number of Electrons    NEL             ....  580
 Basis Dimension        Dim             .... 1139

ORBITAL ENERGIES
----------------

  NO   OCC          E(Eh)            E(eV)
   0   2.0000    -482.882029    -13139.8880
   1   2.0000    -482.880851    -13139.8560
   2   2.0000     -88.993891     -2421.6469
   3   2.0000     -88.982145     -2421.3273
   4   2.0000     -88.973999     -2421.1056
   5   2.0000     -88.970792     -2421.0183
   6   2.0000     -88.969945     -2420.9953
   7   2.0000     -88.968237     -2420.9488
   8   2.0000     -62.559724     -1702.3366
   9   2.0000     -62.558565     -1702.3051
  10   2.0000     -56.393669     -1534.5497
  11   2.0000     -56.392512     -1534.5183
  12   2.0000     -56.390963     -1534.4761
  13   2.0000     -56.390930     -1534.4752
  14   2.0000     -56.389804     -1534.4446
  15   2.0000     -56.389769     -1534.4436
  16   2.0000     -19.330191      -526.0012
  17   2.0000     -19.254831      -523.9506
  18   2.0000     -19.252913      -523.8984
  19   2.0000     -19.250442      -523.8312
  20   2.0000     -19.213537      -522.8269
  21   2.0000     -19.209899      -522.7279
  22   2.0000     -19.195674      -522.3408
  23   2.0000     -14.667210      -399.1151
  24   2.0000     -14.425510      -392.5381
  25   2.0000     -14.410633      -392.1333
  26   2.0000     -14.409986      -392.1157
  27   2.0000     -14.405360      -391.9898
  28   2.0000     -10.408367      -283.2261
  29   2.0000     -10.402006      -283.0530
  30   2.0000     -10.371944      -282.2349
  31   2.0000     -10.363986      -282.0184
  32   2.0000     -10.359880      -281.9067
  33   2.0000     -10.354490      -281.7600
  34   2.0000     -10.353669      -281.7376
  35   2.0000     -10.347606      -281.5727
  36   2.0000     -10.343634      -281.4646
  37   2.0000     -10.340178      -281.3706
  38   2.0000     -10.337981      -281.3108
  39   2.0000     -10.337768      -281.3050
  40   2.0000     -10.337091      -281.2866
  41   2.0000     -10.336771      -281.2778
  42   2.0000     -10.335877      -281.2535
  43   2.0000     -10.334020      -281.2030
  44   2.0000     -10.333874      -281.1990
  45   2.0000     -10.333296      -281.1833
  46   2.0000     -10.332461      -281.1606
  47   2.0000     -10.328546      -281.0540
  48   2.0000     -10.324562      -280.9456
  49   2.0000     -10.323246      -280.9098
  50   2.0000     -10.320561      -280.8367
  51   2.0000     -10.319720      -280.8139
  52   2.0000     -10.319381      -280.8046
  53   2.0000     -10.316467      -280.7253
  54   2.0000     -10.314987      -280.6851
  55   2.0000     -10.314011      -280.6585
  56   2.0000     -10.313485      -280.6442
  57   2.0000     -10.312331      -280.6128
  58   2.0000     -10.311852      -280.5998
  59   2.0000     -10.311139      -280.5804
  60   2.0000     -10.310621      -280.5663
  61   2.0000     -10.309362      -280.5320
  62   2.0000     -10.302798      -280.3534
  63   2.0000     -10.302708      -280.3509
  64   2.0000     -10.302425      -280.3432
  65   2.0000     -10.302285      -280.3394
  66   2.0000     -10.302092      -280.3342
  67   2.0000     -10.301307      -280.3128
  68   2.0000     -10.299358      -280.2598
  69   2.0000     -10.299295      -280.2581
  70   2.0000     -10.297834      -280.2183
  71   2.0000     -10.296230      -280.1747
  72   2.0000     -10.295048      -280.1425
  73   2.0000     -10.292331      -280.0686
  74   2.0000     -10.291374      -280.0425
  75   2.0000     -10.288478      -279.9637
  76   2.0000     -10.288022      -279.9513
  77   2.0000     -10.285642      -279.8866
  78   2.0000     -10.283926      -279.8398
  79   2.0000      -8.789144      -239.1648
  80   2.0000      -8.787995      -239.1335
  81   2.0000      -8.088689      -220.1044
  82   2.0000      -8.077832      -219.8090
  83   2.0000      -8.070679      -219.6143
  84   2.0000      -8.066785      -219.5084
  85   2.0000      -8.065945      -219.4855
  86   2.0000      -8.064455      -219.4450
  87   2.0000      -6.625404      -180.2864
  88   2.0000      -6.624268      -180.2555
  89   2.0000      -6.610900      -179.8917
  90   2.0000      -6.610703      -179.8864
  91   2.0000      -6.609749      -179.8604
  92   2.0000      -6.609544      -179.8548
  93   2.0000      -6.058136      -164.8503
  94   2.0000      -6.053780      -164.7317
  95   2.0000      -6.050610      -164.6455
  96   2.0000      -6.047124      -164.5506
  97   2.0000      -6.042858      -164.4345
  98   2.0000      -6.040382      -164.3672
  99   2.0000      -6.039948      -164.3553
 100   2.0000      -6.036491      -164.2613
 101   2.0000      -6.036069      -164.2498
 102   2.0000      -6.035646      -164.2383
 103   2.0000      -6.034049      -164.1948
 104   2.0000      -6.032178      -164.1439
 105   2.0000      -6.031693      -164.1307
 106   2.0000      -6.031346      -164.1213
 107   2.0000      -6.030007      -164.0848
 108   2.0000      -6.028011      -164.0305
 109   2.0000      -6.027164      -164.0075
 110   2.0000      -6.025623      -163.9655
 111   2.0000      -2.741302       -74.5946
 112   2.0000      -2.740157       -74.5635
 113   2.0000      -2.737201       -74.4830
 114   2.0000      -2.737062       -74.4792
 115   2.0000      -2.736058       -74.4519
 116   2.0000      -2.735932       -74.4485
 117   2.0000      -2.725526       -74.1653
 118   2.0000      -2.725511       -74.1649
 119   2.0000      -2.724374       -74.1340
 120   2.0000      -2.724354       -74.1334
 121   2.0000      -1.339034       -36.4370
 122   2.0000      -1.250922       -34.0393
 123   2.0000      -1.178867       -32.0786
 124   2.0000      -1.155682       -31.4477
 125   2.0000      -1.129323       -30.7305
 126   2.0000      -1.123804       -30.5803
 127   2.0000      -1.091468       -29.7004
 128   2.0000      -1.031000       -28.0549
 129   2.0000      -1.022631       -27.8272
 130   2.0000      -1.019936       -27.7539
 131   2.0000      -1.017811       -27.6960
 132   2.0000      -1.012890       -27.5621
 133   2.0000      -1.009415       -27.4676
 134   2.0000      -1.003590       -27.3091
 135   2.0000      -0.996935       -27.1280
 136   2.0000      -0.993040       -27.0220
 137   2.0000      -0.988496       -26.8983
 138   2.0000      -0.984723       -26.7957
 139   2.0000      -0.982748       -26.7419
 140   2.0000      -0.953201       -25.9379
 141   2.0000      -0.939295       -25.5595
 142   2.0000      -0.938491       -25.5376
 143   2.0000      -0.926611       -25.2144
 144   2.0000      -0.913141       -24.8478
 145   2.0000      -0.912458       -24.8292
 146   2.0000      -0.903966       -24.5982
 147   2.0000      -0.903876       -24.5957
 148   2.0000      -0.897226       -24.4148
 149   2.0000      -0.886270       -24.1166
 150   2.0000      -0.880780       -23.9672
 151   2.0000      -0.880629       -23.9631
 152   2.0000      -0.873493       -23.7689
 153   2.0000      -0.870989       -23.7008
 154   2.0000      -0.867861       -23.6157
 155   2.0000      -0.851193       -23.1621
 156   2.0000      -0.847006       -23.0482
 157   2.0000      -0.834247       -22.7010
 158   2.0000      -0.825104       -22.4522
 159   2.0000      -0.824192       -22.4274
 160   2.0000      -0.819493       -22.2995
 161   2.0000      -0.806279       -21.9400
 162   2.0000      -0.795964       -21.6593
 163   2.0000      -0.774322       -21.0704
 164   2.0000      -0.767830       -20.8937
 165   2.0000      -0.756158       -20.5761
 166   2.0000      -0.753492       -20.5036
 167   2.0000      -0.745428       -20.2841
 168   2.0000      -0.735985       -20.0272
 169   2.0000      -0.721439       -19.6314
 170   2.0000      -0.712770       -19.3955
 171   2.0000      -0.704199       -19.1622
 172   2.0000      -0.700473       -19.0608
 173   2.0000      -0.692289       -18.8381
 174   2.0000      -0.688756       -18.7420
 175   2.0000      -0.684845       -18.6356
 176   2.0000      -0.681523       -18.5452
 177   2.0000      -0.679680       -18.4950
 178   2.0000      -0.669239       -18.2109
 179   2.0000      -0.668442       -18.1892
 180   2.0000      -0.664785       -18.0897
 181   2.0000      -0.655087       -17.8258
 182   2.0000      -0.654506       -17.8100
 183   2.0000      -0.652971       -17.7682
 184   2.0000      -0.646794       -17.6002
 185   2.0000      -0.642941       -17.4953
 186   2.0000      -0.635186       -17.2843
 187   2.0000      -0.627938       -17.0871
 188   2.0000      -0.621469       -16.9110
 189   2.0000      -0.618351       -16.8262
 190   2.0000      -0.618114       -16.8197
 191   2.0000      -0.615168       -16.7396
 192   2.0000      -0.605847       -16.4859
 193   2.0000      -0.595906       -16.2154
 194   2.0000      -0.595881       -16.2148
 195   2.0000      -0.590577       -16.0704
 196   2.0000      -0.588477       -16.0133
 197   2.0000      -0.586389       -15.9564
 198   2.0000      -0.581985       -15.8366
 199   2.0000      -0.576529       -15.6881
 200   2.0000      -0.568470       -15.4688
 201   2.0000      -0.560130       -15.2419
 202   2.0000      -0.556639       -15.1469
 203   2.0000      -0.549102       -14.9418
 204   2.0000      -0.545350       -14.8397
 205   2.0000      -0.543695       -14.7947
 206   2.0000      -0.540013       -14.6945
 207   2.0000      -0.538540       -14.6544
 208   2.0000      -0.536036       -14.5863
 209   2.0000      -0.534622       -14.5478
 210   2.0000      -0.534072       -14.5328
 211   2.0000      -0.529876       -14.4187
 212   2.0000      -0.526057       -14.3147
 213   2.0000      -0.525248       -14.2927
 214   2.0000      -0.524852       -14.2819
 215   2.0000      -0.523447       -14.2437
 216   2.0000      -0.517891       -14.0925
 217   2.0000      -0.515698       -14.0329
 218   2.0000      -0.513332       -13.9685
 219   2.0000      -0.510808       -13.8998
 220   2.0000      -0.506731       -13.7889
 221   2.0000      -0.505401       -13.7527
 222   2.0000      -0.504899       -13.7390
 223   2.0000      -0.503462       -13.6999
 224   2.0000      -0.498506       -13.5650
 225   2.0000      -0.494588       -13.4584
 226   2.0000      -0.494142       -13.4463
 227   2.0000      -0.492137       -13.3917
 228   2.0000      -0.490043       -13.3347
 229   2.0000      -0.489592       -13.3225
 230   2.0000      -0.488009       -13.2794
 231   2.0000      -0.487935       -13.2774
 232   2.0000      -0.483439       -13.1550
 233   2.0000      -0.479421       -13.0457
 234   2.0000      -0.475101       -12.9281
 235   2.0000      -0.471993       -12.8436
 236   2.0000      -0.468252       -12.7418
 237   2.0000      -0.466078       -12.6826
 238   2.0000      -0.463161       -12.6033
 239   2.0000      -0.456481       -12.4215
 240   2.0000      -0.453937       -12.3522
 241   2.0000      -0.453283       -12.3345
 242   2.0000      -0.448228       -12.1969
 243   2.0000      -0.446039       -12.1373
 244   2.0000      -0.444186       -12.0869
 245   2.0000      -0.443182       -12.0596
 246   2.0000      -0.440405       -11.9840
 247   2.0000      -0.439624       -11.9628
 248   2.0000      -0.438183       -11.9236
 249   2.0000      -0.436947       -11.8899
 250   2.0000      -0.435070       -11.8389
 251   2.0000      -0.433154       -11.7867
 252   2.0000      -0.431141       -11.7319
 253   2.0000      -0.426994       -11.6191
 254   2.0000      -0.425913       -11.5897
 255   2.0000      -0.422364       -11.4931
 256   2.0000      -0.421204       -11.4616
 257   2.0000      -0.417381       -11.3575
 258   2.0000      -0.409626       -11.1465
 259   2.0000      -0.407134       -11.0787
 260   2.0000      -0.405338       -11.0298
 261   2.0000      -0.403531       -10.9806
 262   2.0000      -0.402933       -10.9644
 263   2.0000      -0.399307       -10.8657
 264   2.0000      -0.392268       -10.6741
 265   2.0000      -0.389667       -10.6034
 266   2.0000      -0.384928       -10.4744
 267   2.0000      -0.383285       -10.4297
 268   2.0000      -0.382813       -10.4169
 269   2.0000      -0.379133       -10.3167
 270   2.0000      -0.373438       -10.1618
 271   2.0000      -0.371391       -10.1061
 272   2.0000      -0.370226       -10.0744
 273   2.0000      -0.365287        -9.9400
 274   2.0000      -0.363733        -9.8977
 275   2.0000      -0.354252        -9.6397
 276   2.0000      -0.352078        -9.5805
 277   2.0000      -0.346282        -9.4228
 278   2.0000      -0.341626        -9.2961
 279   2.0000      -0.337476        -9.1832
 280   2.0000      -0.330963        -9.0060
 281   2.0000      -0.329691        -8.9713
 282   2.0000      -0.319499        -8.6940
 283   2.0000      -0.311181        -8.4677
 284   2.0000      -0.310443        -8.4476
 285   2.0000      -0.309203        -8.4138
 286   2.0000      -0.290380        -7.9016
 287   2.0000      -0.287633        -7.8269
 288   2.0000      -0.279838        -7.6148
 289   2.0000      -0.233170        -6.3449
 290   0.0000      -0.124846        -3.3972
 291   0.0000      -0.088971        -2.4210
 292   0.0000      -0.078987        -2.1493
 293   0.0000      -0.066681        -1.8145
 294   0.0000      -0.050070        -1.3625

MULLIKEN ATOMIC CHARGES
-----------------------
   0 C :    0.340700
   1 C :   -0.374048
   2 C :   -0.201705
   3 N :    0.150056
   4 C :   -0.107167
   5 N :    0.062272
   6 C :    0.012074
   7 C :   -0.007939
   8 C :   -0.073333
   9 C :    0.117015
  10 C :   -0.095011
  11 C :   -0.019865
  12 S :    0.185593
  13 C :   -0.123832
  14 C :    0.039154
  15 Br:    0.020017
  16 C :    0.139110
  17 O :   -0.163243
  18 C :   -0.090198
  19 C :   -0.042698
  20 C :   -0.024491
  21 C :    0.011257
  22 C :    0.027897
  23 C :    0.047022
  24 C :   -0.047241
  25 S :    0.093760
  26 C :   -0.003389
  27 C :    0.027524
  28 C :    0.054176
  29 C :   -0.038039
  30 S :    0.056329
  31 C :    0.038361
  32 C :   -0.174732
  33 S :    0.126828
  34 C :   -0.057787
  35 C :    0.116685
  36 C :    0.196111
  37 O :   -0.171002
  38 C :    0.231997
  39 N :    0.274105
  40 O :   -0.242122
  41 O :   -0.225912
  42 C :   -0.086225
  43 C :    0.002286
  44 S :    0.137313
  45 C :   -0.185146
  46 C :    0.199548
  47 O :   -0.194987
  48 O :   -0.153673
  49 C :    0.058374
  50 C :   -0.019414
  51 C :   -0.004133
  52 C :   -0.066965
  53 C :    0.311888
  54 C :   -0.341866
  55 C :   -0.189792
  56 N :    0.162370
  57 C :   -0.193749
  58 N :    0.163973
  59 C :    0.014390
  60 C :    0.006090
  61 C :    0.127396
  62 O :   -0.136966
  63 C :   -0.072911
  64 C :    0.115848
  65 C :   -0.087457
  66 C :   -0.010342
  67 S :    0.188971
  68 C :   -0.125574
  69 C :    0.041257
  70 Br:    0.022307
  71 H :   -0.013505
  72 H :   -0.007010
  73 H :   -0.005383
  74 H :    0.013712
  75 H :    0.020719
  76 H :    0.002836
  77 H :   -0.002085
  78 H :   -0.004433
  79 H :    0.002454
  80 H :    0.014801
  81 H :    0.019467
  82 H :    0.195703
  83 H :   -0.020338
  84 H :    0.027398
  85 H :   -0.009380
  86 H :    0.001676
  87 H :   -0.003734
Sum of atomic charges:   -0.0000000

LOEWDIN ATOMIC CHARGES
----------------------
   0 C :    0.078789
   1 C :   -0.161125
   2 C :   -0.020361
   3 N :   -0.055314
   4 C :    0.021722
   5 N :   -0.094797
   6 C :   -0.020033
   7 C :   -0.048546
   8 C :    0.018888
   9 C :   -0.033787
  10 C :   -0.145537
  11 C :   -0.010040
  12 S :    0.432267
  13 C :   -0.272832
  14 C :   -0.070967
  15 Br:    0.134221
  16 C :    0.083659
  17 O :   -0.154015
  18 C :   -0.105824
  19 C :    0.047152
  20 C :   -0.069342
  21 C :   -0.105218
  22 C :   -0.037296
  23 C :   -0.007157
  24 C :   -0.188135
  25 S :    0.405213
  26 C :   -0.149261
  27 C :   -0.041269
  28 C :   -0.007531
  29 C :   -0.163561
  30 S :    0.393749
  31 C :   -0.034653
  32 C :   -0.201931
  33 S :    0.472234
  34 C :   -0.169489
  35 C :   -0.073677
  36 C :    0.034088
  37 O :    0.014501
  38 C :    0.029078
  39 N :    0.271068
  40 O :   -0.203457
  41 O :   -0.188231
  42 C :   -0.005802
  43 C :   -0.164171
  44 S :    0.472106
  45 C :   -0.220318
  46 C :    0.065002
  47 O :   -0.168122
  48 O :   -0.018620
  49 C :   -0.033643
  50 C :   -0.027316
  51 C :    0.054459
  52 C :   -0.051457
  53 C :    0.086587
  54 C :   -0.134486
  55 C :   -0.017973
  56 N :   -0.049268
  57 C :   -0.017450
  58 N :   -0.059151
  59 C :   -0.006910
  60 C :   -0.049348
  61 C :    0.088827
  62 O :   -0.136137
  63 C :    0.023221
  64 C :   -0.031151
  65 C :   -0.139925
  66 C :   -0.002008
  67 S :    0.435001
  68 C :   -0.271605
  69 C :   -0.070166
  70 Br:    0.136551
  71 H :    0.039687
  72 H :    0.040956
  73 H :    0.038102
  74 H :    0.029788
  75 H :    0.039916
  76 H :    0.039948
  77 H :    0.037441
  78 H :    0.036346
  79 H :    0.040014
  80 H :    0.051571
  81 H :    0.047976
  82 H :    0.062919
  83 H :    0.033509
  84 H :    0.048732
  85 H :    0.041223
  86 H :    0.043244
  87 H :    0.038649

  Mayer bond orders larger than 0.100000
B(  0-C ,  1-C ) :   1.5550 B(  0-C ,  6-C ) :   0.9939 B(  0-C , 18-C ) :   1.1189
B(  1-C ,  2-C ) :   1.1465 B(  1-C ,  4-C ) :   1.1803 B(  2-C ,  3-N ) :   2.9633
B(  4-C ,  5-N ) :   2.8424 B(  6-C ,  7-C ) :   1.2738 B(  6-C , 11-C ) :   1.4171
B(  7-C ,  8-C ) :   1.4348 B(  7-C , 16-C ) :   0.9395 B(  8-C ,  9-C ) :   1.2374
B(  8-C , 71-H ) :   1.0159 B(  9-C , 10-C ) :   1.3123 B(  9-C , 14-C ) :   1.1631
B( 10-C , 11-C ) :   1.3232 B( 10-C , 12-S ) :   1.0857 B( 11-C , 72-H ) :   0.9775
B( 12-S , 13-C ) :   1.0880 B( 13-C , 14-C ) :   1.6165 B( 13-C , 15-Br) :   1.0168
B( 14-C , 73-H ) :   1.0001 B( 16-C , 17-O ) :   2.1804 B( 16-C , 18-C ) :   0.9618
B( 18-C , 19-C ) :   1.4779 B( 19-C , 20-C ) :   1.2631 B( 19-C , 74-H ) :   0.9452
B( 20-C , 21-C ) :   1.4113 B( 20-C , 75-H ) :   0.9762 B( 21-C , 22-C ) :   1.1857
B( 21-C , 25-S ) :   1.0848 B( 22-C , 23-C ) :   1.5314 B( 22-C , 76-H ) :   1.0019
B( 23-C , 24-C ) :   1.2274 B( 23-C , 77-H ) :   0.9962 B( 24-C , 25-S ) :   1.0476
B( 24-C , 26-C ) :   1.4524 B( 26-C , 27-C ) :   1.2074 B( 26-C , 30-S ) :   1.0735
B( 27-C , 28-C ) :   1.5665 B( 27-C , 78-H ) :   0.9938 B( 28-C , 29-C ) :   1.1614
B( 28-C , 79-H ) :   0.9996 B( 29-C , 30-S ) :   1.0368 B( 29-C , 31-C ) :   1.5146
B( 31-C , 32-C ) :   1.2240 B( 31-C , 80-H ) :   0.9786 B( 32-C , 33-S ) :   1.0689
B( 32-C , 34-C ) :   0.1104 B( 32-C , 36-C ) :   1.3975 B( 33-S , 34-C ) :   1.1582
B( 34-C , 35-C ) :   1.3507 B( 34-C , 43-C ) :   1.1791 B( 35-C , 36-C ) :   1.2504
B( 35-C , 42-C ) :   1.0900 B( 36-C , 37-O ) :   1.1507 B( 37-O , 38-C ) :   1.1189
B( 38-C , 39-N ) :   0.9137 B( 38-C , 42-C ) :   1.5712 B( 39-N , 40-O ) :   1.5327
B( 39-N , 41-O ) :   1.5137 B( 40-O , 41-O ) :   0.2826 B( 42-C , 81-H ) :   1.0205
B( 43-C , 44-S ) :   1.1344 B( 43-C , 50-C ) :   1.4623 B( 44-S , 45-C ) :   1.1117
B( 45-C , 46-C ) :   0.9469 B( 45-C , 49-C ) :   1.4976 B( 46-C , 47-O ) :   2.0878
B( 46-C , 48-O ) :   1.3089 B( 48-O , 82-H ) :   0.8950 B( 49-C , 50-C ) :   1.2779
B( 49-C , 51-C ) :   0.9882 B( 50-C , 83-H ) :   1.0037 B( 51-C , 52-C ) :   1.8300
B( 51-C , 84-H ) :   0.9400 B( 52-C , 53-C ) :   0.9780 B( 52-C , 61-C ) :   0.9273
B( 53-C , 54-C ) :   1.6823 B( 53-C , 59-C ) :   1.0290 B( 54-C , 55-C ) :   1.1276
B( 54-C , 57-C ) :   1.1732 B( 55-C , 56-N ) :   3.0014 B( 57-C , 58-N ) :   3.0038
B( 59-C , 60-C ) :   1.2689 B( 59-C , 66-C ) :   1.4122 B( 60-C , 61-C ) :   0.9240
B( 60-C , 63-C ) :   1.4153 B( 61-C , 62-O ) :   2.2787 B( 63-C , 64-C ) :   1.2609
B( 63-C , 85-H ) :   1.0159 B( 64-C , 65-C ) :   1.2979 B( 64-C , 69-C ) :   1.1637
B( 65-C , 66-C ) :   1.3359 B( 65-C , 67-S ) :   1.0845 B( 66-C , 86-H ) :   0.9830
B( 67-S , 68-C ) :   1.0868 B( 68-C , 69-C ) :   1.6193 B( 68-C , 70-Br) :   1.0184
B( 69-C , 87-H ) :   0.9997

-----------------------------------------------------------------------------
         ABSORPTION SPECTRUM VIA TRANSITION ELECTRIC DIPOLE MOMENTS
-----------------------------------------------------------------------------
State   Energy  Wavelength   fosc         T2         TX        TY        TZ
        (cm-1)    (nm)                  (au**2)     (au)      (au)      (au)
-----------------------------------------------------------------------------
   0    9714.0   1029.4   0.670720161  22.73101  -4.76378   0.15052   0.12140
   1   17066.8    585.9   0.117200517   2.26076  -0.65768  -1.16738   0.68223
   2   20255.6    493.7   1.173686519  19.07575  -1.59984  -3.50498   2.05703
   3   20929.3    477.8   0.130981662   2.06031  -0.02984  -1.26187   0.68345
   4   21739.4    460.0   0.122194062   1.85045   0.99856  -0.78152   0.49250
   5   23813.4    419.9   0.264299057   3.65385  -1.90860   0.10386  -0.01691
   6   24822.6    402.9   0.184333095   2.44473  -0.71658  -1.13817   0.79739
   7   25062.4    399.0   0.119594928   1.57096   0.32559   1.11293  -0.47576
   8   26301.2    380.2   0.000313909   0.00393  -0.02002   0.05539  -0.02146
   9   26863.2    372.3   0.233250073   2.85851  -0.97739   1.25914  -0.56373
  10   27211.5    367.5   0.011521344   0.13939   0.32661  -0.05333   0.17283
  11   27280.2    366.6   0.200686588   2.42184  -1.12643  -0.95106   0.49849
  12   27524.3    363.3   0.104728210   1.25263   0.53785   0.75350  -0.62895
  13   28093.6    356.0   0.122786381   1.43886   0.26653   0.85797  -0.79479
  14   28795.5    347.3   0.180673645   2.06560   1.09136   0.93208   0.07585
  15   28835.5    346.8   0.016034127   0.18306   0.36407  -0.22339   0.02471
  16   29235.1    342.1   0.124749921   1.40479   1.04872   0.40285  -0.37773
  17   29592.4    337.9   0.043066032   0.47910  -0.54770   0.04179  -0.42117
  18   29794.2    335.6   0.083632287   0.92410  -0.04883  -0.84528   0.45520
  19   30284.9    330.2   0.010837684   0.11781   0.06118  -0.28241   0.18524
  20   30743.2    325.3   0.185991093   1.99168  -1.38054  -0.28891   0.04800
  21   31178.8    320.7   0.248332711   2.62210  -1.51575  -0.50937   0.25521
  22   31443.9    318.0   0.050279359   0.52642  -0.71278  -0.13065  -0.03586
  23   31623.0    316.2   0.124566366   1.29680  -1.06587   0.33517   0.21998
  24   31813.1    314.3   0.000542729   0.00562  -0.05976  -0.04282   0.01456
  25   31880.1    313.7   0.124561554   1.28629   0.45939   0.93451  -0.44938
  26   32515.2    307.5   0.101264492   1.02529  -0.08297  -1.00913   0.00738
  27   32632.9    306.4   0.047382223   0.47801   0.22936   0.55719  -0.33902
  28   33189.0    301.3   0.015768759   0.15642   0.19340   0.33277   0.09097
  29   33450.4    299.0   0.012283752   0.12089  -0.30564   0.00066   0.16577
  30   33553.0    298.0   0.027289124   0.26775  -0.40129  -0.29574   0.13877
  31   33924.8    294.8   0.213667867   2.07347  -0.28592  -0.83962   1.13435
  32   34246.6    292.0   0.277887097   2.67132   0.01125  -1.26045   1.04042
  33   34713.7    288.1   0.155946155   1.47894   0.82169   0.67610  -0.58877
  34   34785.5    287.5   0.030899524   0.29244  -0.47648   0.14255  -0.21233
  35   35425.5    282.3   0.035954641   0.33413  -0.55571  -0.15773   0.02080
  36   35612.8    280.8   0.388160565   3.58824  -1.89133   0.03008  -0.10101
  37   35757.4    279.7   0.054567380   0.50239   0.67630  -0.03107   0.20987
  38   36002.6    277.8   0.036280590   0.33175   0.06918  -0.56968  -0.04932
  39   36405.3    274.7   0.032077309   0.29007  -0.13711  -0.46908   0.22637
  40   36605.5    273.2   0.081166320   0.72997   0.37306  -0.65766   0.39784
  41   36740.8    272.2   0.067604641   0.60576   0.46748  -0.60413   0.14919
  42   36967.8    270.5   0.027686297   0.24656  -0.16314   0.46657  -0.04747
  43   37002.7    270.3   0.007204615   0.06410  -0.16649  -0.08865  -0.16889
  44   37252.0    268.4   0.216670384   1.91481  -0.44383   1.27933  -0.28484
  45   38046.9    262.8   0.027142292   0.23486   0.04458  -0.40633   0.26032
  46   38430.7    260.2   0.151664616   1.29922   1.12008  -0.07468   0.19765
  47   38759.0    258.0   0.042708072   0.36275   0.48066   0.07885  -0.35426
  48   38992.9    256.5   0.016595427   0.14011  -0.18714  -0.17512   0.27281
  49   39027.0    256.2   0.000115851   0.00098  -0.02835  -0.01315   0.00081
  50   39241.0    254.8   0.073238238   0.61443   0.22815   0.73621  -0.14273
  51   39427.4    253.6   0.058972444   0.49241  -0.25996  -0.60174   0.25049
  52   39538.7    252.9   0.033236273   0.27674  -0.24669   0.46378  -0.02798
  53   39733.4    251.7   0.024078203   0.19950   0.21618   0.36464  -0.14072
  54   39926.2    250.5   0.015729540   0.12970  -0.19322   0.30303  -0.02315
  55   40009.4    249.9   0.003546175   0.02918  -0.15437   0.04195  -0.05991
  56   40296.5    248.2   0.069680089   0.56927   0.08774   0.66401  -0.34737

FINAL SINGLE POINT ENERGY    -10286.697205910428

DIPOLE MOMENT
-------------
                                X             Y             Z
Electronic contribution:   -110.92242    -132.72689      57.43717
Nuclear contribution   :    109.65519     135.98270     -58.07956
                        -----------------------------------------
Total Dipole Moment    :     -1.26723       3.25581      -0.64240
                        -----------------------------------------
Magnitude (a.u.)       :      3.55230
Magnitude (Debye)      :      9.02923

Rotational constants in cm-1:     0.000504     0.000438     0.000241
Rotational constants in MHz :    15.101488    13.119654     7.211399

                             ****ORCA TERMINATED NORMALLY****
TOTAL RUN TIME: 0 days 0 hours 10 minutes 2 seconds 243 msec
