                         Program Version 4.2.0 -  RELEASE  -
|  1> # ORCA input file
|  2> # SCF done       -190.048819387189          0.000458146319
|  3> ! CAM-B3LYP def2-SVP def2/J RIJCOSX Grid4 TightSCF
|  4> %maxcore 5000
|  5> %tddft
|  6>     Mode sTDDFT
|  7>     Ethresh 5.0
|  8>     maxcore 5000
|  9> end
| 10>
| 11> %pal
| 12>   nprocs 6
| 13>   end
| 14> * xyz 0 1
| 15>    C       -1.70896        -0.41728        -2.17375
| 16>    C       -2.46691        -1.27460        -2.93664
| 17>    C       -2.07474        -2.58269        -3.28107
| 18>    N       -1.79277        -3.64379        -3.61775
| 19>    C       -3.74876        -0.96894        -3.43345
| 20>    N       -4.81952        -0.79473        -3.81439
| 21>    C       -0.46421        -0.75419        -1.49204
| 22>    C       -0.02825         0.38129        -0.76627
| 23>    C        1.11720         0.38008        -0.01022
| 24>    C        1.86482        -0.80247         0.03818
| 25>    C        1.41799        -1.93215        -0.68573
| 26>    C        0.25940        -1.92984        -1.45411
| 27>    S        2.49212        -3.28393        -0.48807
| 28>    C        3.51200        -2.32527         0.55131
| 29>    C        3.07333        -1.05883         0.74231
| 30>   Br        5.06180        -3.08650         1.28420
| 31>    C       -0.97987         1.49388        -0.97686
| 32>    O       -0.84674         2.64067        -0.59316
| 33>    C       -2.03599         0.94819        -1.84712
| 34>    C       -3.01472         1.69048        -2.47640
| 35>    C       -3.54143         2.93064        -2.12016
| 36>    S       -4.31393         3.85999        -3.38039
| 37>    C       -4.76296         5.14772        -2.31409
| 38>    C       -4.28225         4.88471        -1.00495
| 39>    C       -3.64418         3.61532        -0.88770
| 40>    C       -3.27457         3.13915         0.37994
| 41>    C       -3.39625         3.97273         1.45796
| 42>    F       -3.06281         3.53501         2.68369
| 43>    C       -3.87858         5.28590         1.31208
| 44>    F       -3.92674         6.09063         2.38972
| 45>    C       -4.33709         5.74037         0.10470
| 46>    C       -5.57855         6.17135        -2.81409
| 47>    C       -6.46055         6.91869        -2.07015
| 48>    C       -7.36349         7.82615        -2.61973
| 49>    C       -8.41035         8.37310        -1.90155
| 50>    C       -9.42907         9.22688        -2.38215
| 51>    C      -10.38270         9.53832        -1.45618
| 52>    C      -10.15573         8.95098        -0.19431
| 53>    S       -8.68778         8.00051        -0.21728
| 54>    C      -10.92633         9.02565         0.95301
| 55>    C      -12.16032         9.68111         1.16581
| 56>    C      -12.65598         9.53468         2.42613
| 57>    C      -11.83724         8.76241         3.29093
| 58>    S      -10.40991         8.21586         2.40913
| 59>    C      -12.02149         8.46739         4.61414
| 60>    C      -11.04527         7.72667         5.32817
| 61>    C      -10.95919         7.44480         6.64363
| 62>    C      -11.97157         7.80829         7.67643
| 63>    C       -9.71545         6.74092         7.15918
| 64>    N       -8.54063         7.09415         6.40133
| 65>    C       -8.14513         6.43741         5.29878
| 66>    C       -7.55592         7.03559         4.22298
| 67>    C       -7.19261         6.38779         3.03223
| 68>    C       -6.82724         5.09094         2.76194
| 69>    C       -6.25393         4.03263         3.55569
| 70>    C       -5.71430         4.11652         4.81702
| 71>    C       -5.16617         3.02877         5.52596
| 72>    N       -4.75325         2.18419         6.18598
| 73>    C       -5.59394         5.29294         5.57637
| 74>    N       -5.44991         6.20735         6.25709
| 75>    C       -6.10543         2.86418         2.68583
| 76>    C       -6.49861         3.21221         1.37033
| 77>    C       -6.94341         4.61768         1.36978
| 78>    O       -7.34385         5.25774         0.41401
| 79>    C       -6.38216         2.35008         0.30635
| 80>    C       -5.83411         1.08447         0.54560
| 81>    C       -5.44981         0.74774         1.86475
| 82>    C       -5.58351         1.61237         2.94357
| 83>    S       -4.77455        -0.84940         1.94905
| 84>    C       -5.01578        -1.04395         0.23327
| 85>    C       -5.57087         0.03110        -0.37576
| 86>   Br       -4.51348        -2.66973        -0.56157
| 87>    H        1.42580         1.26048         0.53140
| 88>    H       -0.04135        -2.81450        -1.99020
| 89>    H        3.57918        -0.33348         1.35310
| 90>    H       -3.39773         1.29511        -3.41076
| 91>    H       -2.91713         2.13580         0.52525
| 92>    H       -4.71773         6.74422         0.02570
| 93>    H       -5.60780         6.26929        -3.89293
| 94>    H       -6.56448         6.70287        -1.01722
| 95>    H       -7.28645         8.08426        -3.66804
| 96>    H       -9.43514         9.57538        -3.39997
| 97>    H      -11.23402        10.16613        -1.64984
| 98>    H      -12.64782        10.23660         0.38456
| 99>    H      -13.58279         9.96089         2.76775
|100>    H      -12.90319         8.84491         5.10986
|101>    H      -10.23563         7.37807         4.69799
|102>    H      -12.91552         8.09607         7.22504
|103>    H      -11.61073         8.63996         8.28340
|104>    H      -12.14339         6.96533         8.34457
|105>    H       -9.84829         5.65492         7.10837
|106>    H       -9.55297         7.01137         8.20659
|107>    H       -8.29476         8.07523         6.43448
|108>    H       -8.38580         5.38152         5.27549
|109>    H       -7.48655         8.11521         4.22353
|110>    H       -7.28167         7.00045         2.13853
|111>    H       -6.68849         2.64734        -0.68459
|112>    H       -5.26883         1.30155         3.92506
|113>    H       -5.78505         0.07639        -1.42872
|114> *
|115>
|116>                          ****END OF INPUT****

CARTESIAN COORDINATES (ANGSTROEM)
---------------------------------
  C     -1.708960   -0.417280   -2.173750
  C     -2.466910   -1.274600   -2.936640
  C     -2.074740   -2.582690   -3.281070
  N     -1.792770   -3.643790   -3.617750
  C     -3.748760   -0.968940   -3.433450
  N     -4.819520   -0.794730   -3.814390
  C     -0.464210   -0.754190   -1.492040
  C     -0.028250    0.381290   -0.766270
  C      1.117200    0.380080   -0.010220
  C      1.864820   -0.802470    0.038180
  C      1.417990   -1.932150   -0.685730
  C      0.259400   -1.929840   -1.454110
  S      2.492120   -3.283930   -0.488070
  C      3.512000   -2.325270    0.551310
  C      3.073330   -1.058830    0.742310
  Br     5.061800   -3.086500    1.284200
  C     -0.979870    1.493880   -0.976860
  O     -0.846740    2.640670   -0.593160
  C     -2.035990    0.948190   -1.847120
  C     -3.014720    1.690480   -2.476400
  C     -3.541430    2.930640   -2.120160
  S     -4.313930    3.859990   -3.380390
  C     -4.762960    5.147720   -2.314090
  C     -4.282250    4.884710   -1.004950
  C     -3.644180    3.615320   -0.887700
  C     -3.274570    3.139150    0.379940
  C     -3.396250    3.972730    1.457960
  F     -3.062810    3.535010    2.683690
  C     -3.878580    5.285900    1.312080
  F     -3.926740    6.090630    2.389720
  C     -4.337090    5.740370    0.104700
  C     -5.578550    6.171350   -2.814090
  C     -6.460550    6.918690   -2.070150
  C     -7.363490    7.826150   -2.619730
  C     -8.410350    8.373100   -1.901550
  C     -9.429070    9.226880   -2.382150
  C    -10.382700    9.538320   -1.456180
  C    -10.155730    8.950980   -0.194310
  S     -8.687780    8.000510   -0.217280
  C    -10.926330    9.025650    0.953010
  C    -12.160320    9.681110    1.165810
  C    -12.655980    9.534680    2.426130
  C    -11.837240    8.762410    3.290930
  S    -10.409910    8.215860    2.409130
  C    -12.021490    8.467390    4.614140
  C    -11.045270    7.726670    5.328170
  C    -10.959190    7.444800    6.643630
  C    -11.971570    7.808290    7.676430
  C     -9.715450    6.740920    7.159180
  N     -8.540630    7.094150    6.401330
  C     -8.145130    6.437410    5.298780
  C     -7.555920    7.035590    4.222980
  C     -7.192610    6.387790    3.032230
  C     -6.827240    5.090940    2.761940
  C     -6.253930    4.032630    3.555690
  C     -5.714300    4.116520    4.817020
  C     -5.166170    3.028770    5.525960
  N     -4.753250    2.184190    6.185980
  C     -5.593940    5.292940    5.576370
  N     -5.449910    6.207350    6.257090
  C     -6.105430    2.864180    2.685830
  C     -6.498610    3.212210    1.370330
  C     -6.943410    4.617680    1.369780
  O     -7.343850    5.257740    0.414010
  C     -6.382160    2.350080    0.306350
  C     -5.834110    1.084470    0.545600
  C     -5.449810    0.747740    1.864750
  C     -5.583510    1.612370    2.943570
  S     -4.774550   -0.849400    1.949050
  C     -5.015780   -1.043950    0.233270
  C     -5.570870    0.031100   -0.375760
  Br    -4.513480   -2.669730   -0.561570
  H      1.425800    1.260480    0.531400
  H     -0.041350   -2.814500   -1.990200
  H      3.579180   -0.333480    1.353100
  H     -3.397730    1.295110   -3.410760
  H     -2.917130    2.135800    0.525250
  H     -4.717730    6.744220    0.025700
  H     -5.607800    6.269290   -3.892930
  H     -6.564480    6.702870   -1.017220
  H     -7.286450    8.084260   -3.668040
  H     -9.435140    9.575380   -3.399970
  H    -11.234020   10.166130   -1.649840
  H    -12.647820   10.236600    0.384560
  H    -13.582790    9.960890    2.767750
  H    -12.903190    8.844910    5.109860
  H    -10.235630    7.378070    4.697990
  H    -12.915520    8.096070    7.225040
  H    -11.610730    8.639960    8.283400
  H    -12.143390    6.965330    8.344570
  H     -9.848290    5.654920    7.108370
  H     -9.552970    7.011370    8.206590
  H     -8.294760    8.075230    6.434480
  H     -8.385800    5.381520    5.275490
  H     -7.486550    8.115210    4.223530
  H     -7.281670    7.000450    2.138530
  H     -6.688490    2.647340   -0.684590
  H     -5.268830    1.301550    3.925060
  H     -5.785050    0.076390   -1.428720

 Total Charge           Charge          ....    0
 Multiplicity           Mult            ....    1
 Number of Electrons    NEL             ....  582
 Basis Dimension        Dim             .... 1199

ORBITAL ENERGIES
----------------

  NO   OCC          E(Eh)            E(eV)
   0   2.0000    -482.874739    -13139.6896
   1   2.0000    -482.871493    -13139.6013
   2   2.0000     -88.970332     -2421.0058
   3   2.0000     -88.962709     -2420.7984
   4   2.0000     -88.962414     -2420.7903
   5   2.0000     -88.957555     -2420.6581
   6   2.0000     -88.954189     -2420.5665
   7   2.0000     -62.552459     -1702.1390
   8   2.0000     -62.548761     -1702.0383
   9   2.0000     -56.386395     -1534.3518
  10   2.0000     -56.383707     -1534.2787
  11   2.0000     -56.383666     -1534.2776
  12   2.0000     -56.382748     -1534.2526
  13   2.0000     -56.380016     -1534.1782
  14   2.0000     -56.379976     -1534.1771
  15   2.0000     -24.786694      -674.4802
  16   2.0000     -24.785168      -674.4387
  17   2.0000     -19.201940      -522.5114
  18   2.0000     -19.195684      -522.3411
  19   2.0000     -14.460908      -393.5013
  20   2.0000     -14.401843      -391.8941
  21   2.0000     -14.401115      -391.8743
  22   2.0000     -14.399932      -391.8421
  23   2.0000     -14.398598      -391.8058
  24   2.0000     -10.365705      -282.0652
  25   2.0000     -10.363149      -281.9956
  26   2.0000     -10.352973      -281.7187
  27   2.0000     -10.346802      -281.5508
  28   2.0000     -10.346193      -281.5342
  29   2.0000     -10.346113      -281.5320
  30   2.0000     -10.344587      -281.4905
  31   2.0000     -10.333869      -281.1989
  32   2.0000     -10.330649      -281.1113
  33   2.0000     -10.327728      -281.0318
  34   2.0000     -10.326643      -281.0022
  35   2.0000     -10.323179      -280.9080
  36   2.0000     -10.322293      -280.8839
  37   2.0000     -10.321739      -280.8688
  38   2.0000     -10.321110      -280.8517
  39   2.0000     -10.320487      -280.8347
  40   2.0000     -10.319981      -280.8210
  41   2.0000     -10.311973      -280.6031
  42   2.0000     -10.310713      -280.5688
  43   2.0000     -10.306417      -280.4519
  44   2.0000     -10.306395      -280.4513
  45   2.0000     -10.306233      -280.4469
  46   2.0000     -10.305622      -280.4302
  47   2.0000     -10.305037      -280.4143
  48   2.0000     -10.304296      -280.3941
  49   2.0000     -10.303059      -280.3605
  50   2.0000     -10.302713      -280.3511
  51   2.0000     -10.302199      -280.3371
  52   2.0000     -10.301970      -280.3309
  53   2.0000     -10.301372      -280.3146
  54   2.0000     -10.298281      -280.2305
  55   2.0000     -10.296929      -280.1937
  56   2.0000     -10.295963      -280.1674
  57   2.0000     -10.294707      -280.1332
  58   2.0000     -10.294035      -280.1149
  59   2.0000     -10.293966      -280.1131
  60   2.0000     -10.292858      -280.0829
  61   2.0000     -10.291283      -280.0401
  62   2.0000     -10.291038      -280.0334
  63   2.0000     -10.290631      -280.0223
  64   2.0000     -10.290411      -280.0163
  65   2.0000     -10.289854      -280.0012
  66   2.0000     -10.289763      -279.9987
  67   2.0000     -10.288245      -279.9574
  68   2.0000     -10.287372      -279.9336
  69   2.0000     -10.285927      -279.8943
  70   2.0000     -10.285223      -279.8751
  71   2.0000     -10.285093      -279.8716
  72   2.0000     -10.284244      -279.8485
  73   2.0000     -10.282688      -279.8062
  74   2.0000     -10.281212      -279.7660
  75   2.0000     -10.278363      -279.6885
  76   2.0000     -10.276112      -279.6272
  77   2.0000     -10.275437      -279.6089
  78   2.0000     -10.274934      -279.5952
  79   2.0000     -10.273886      -279.5667
  80   2.0000      -8.781885      -238.9672
  81   2.0000      -8.778016      -238.8620
  82   2.0000      -8.066044      -219.4882
  83   2.0000      -8.058640      -219.2867
  84   2.0000      -8.058421      -219.2808
  85   2.0000      -8.053423      -219.1448
  86   2.0000      -8.050025      -219.0523
  87   2.0000      -6.618125      -180.0883
  88   2.0000      -6.614312      -179.9846
  89   2.0000      -6.603633      -179.6940
  90   2.0000      -6.603480      -179.6898
  91   2.0000      -6.599823      -179.5903
  92   2.0000      -6.599472      -179.5808
  93   2.0000      -6.035014      -164.2211
  94   2.0000      -6.031050      -164.1132
  95   2.0000      -6.028552      -164.0453
  96   2.0000      -6.028332      -164.0392
  97   2.0000      -6.028069      -164.0321
  98   2.0000      -6.024068      -163.9232
  99   2.0000      -6.023826      -163.9166
 100   2.0000      -6.023165      -163.8987
 101   2.0000      -6.019895      -163.8097
 102   2.0000      -6.019752      -163.8058
 103   2.0000      -6.019697      -163.8043
 104   2.0000      -6.019121      -163.7886
 105   2.0000      -6.015545      -163.6913
 106   2.0000      -6.014351      -163.6588
 107   2.0000      -6.011054      -163.5691
 108   2.0000      -2.734024       -74.3966
 109   2.0000      -2.730198       -74.2925
 110   2.0000      -2.729953       -74.2858
 111   2.0000      -2.729788       -74.2813
 112   2.0000      -2.726139       -74.1820
 113   2.0000      -2.725906       -74.1757
 114   2.0000      -2.718303       -73.9688
 115   2.0000      -2.718277       -73.9681
 116   2.0000      -2.714372       -73.8618
 117   2.0000      -2.714362       -73.8616
 118   2.0000      -1.306094       -35.5406
 119   2.0000      -1.291056       -35.1314
 120   2.0000      -1.116322       -30.3767
 121   2.0000      -1.110141       -30.2085
 122   2.0000      -1.064737       -28.9730
 123   2.0000      -1.009659       -27.4742
 124   2.0000      -1.008808       -27.4510
 125   2.0000      -1.007987       -27.4287
 126   2.0000      -1.006385       -27.3851
 127   2.0000      -0.999705       -27.2033
 128   2.0000      -0.998595       -27.1731
 129   2.0000      -0.986627       -26.8475
 130   2.0000      -0.980382       -26.6775
 131   2.0000      -0.979692       -26.6588
 132   2.0000      -0.975185       -26.5361
 133   2.0000      -0.973434       -26.4885
 134   2.0000      -0.945142       -25.7186
 135   2.0000      -0.935413       -25.4539
 136   2.0000      -0.930180       -25.3115
 137   2.0000      -0.928375       -25.2624
 138   2.0000      -0.920542       -25.0492
 139   2.0000      -0.905719       -24.6459
 140   2.0000      -0.897482       -24.4217
 141   2.0000      -0.894265       -24.3342
 142   2.0000      -0.892968       -24.2989
 143   2.0000      -0.885330       -24.0910
 144   2.0000      -0.872191       -23.7335
 145   2.0000      -0.871636       -23.7184
 146   2.0000      -0.869804       -23.6686
 147   2.0000      -0.866124       -23.5684
 148   2.0000      -0.860581       -23.4176
 149   2.0000      -0.849938       -23.1280
 150   2.0000      -0.843835       -22.9619
 151   2.0000      -0.836191       -22.7539
 152   2.0000      -0.832648       -22.6575
 153   2.0000      -0.827513       -22.5178
 154   2.0000      -0.816478       -22.2175
 155   2.0000      -0.814983       -22.1768
 156   2.0000      -0.813958       -22.1489
 157   2.0000      -0.796007       -21.6605
 158   2.0000      -0.788533       -21.4571
 159   2.0000      -0.774072       -21.0636
 160   2.0000      -0.756891       -20.5961
 161   2.0000      -0.750528       -20.4229
 162   2.0000      -0.742897       -20.2153
 163   2.0000      -0.741379       -20.1739
 164   2.0000      -0.734891       -19.9974
 165   2.0000      -0.731518       -19.9056
 166   2.0000      -0.717029       -19.5114
 167   2.0000      -0.707956       -19.2645
 168   2.0000      -0.702466       -19.1151
 169   2.0000      -0.688279       -18.7290
 170   2.0000      -0.687241       -18.7008
 171   2.0000      -0.676699       -18.4139
 172   2.0000      -0.673166       -18.3178
 173   2.0000      -0.669342       -18.2137
 174   2.0000      -0.664592       -18.0845
 175   2.0000      -0.660798       -17.9812
 176   2.0000      -0.652420       -17.7533
 177   2.0000      -0.649326       -17.6691
 178   2.0000      -0.643407       -17.5080
 179   2.0000      -0.641388       -17.4531
 180   2.0000      -0.636695       -17.3254
 181   2.0000      -0.630374       -17.1534
 182   2.0000      -0.627307       -17.0699
 183   2.0000      -0.619433       -16.8556
 184   2.0000      -0.615270       -16.7424
 185   2.0000      -0.614912       -16.7326
 186   2.0000      -0.609515       -16.5857
 187   2.0000      -0.608603       -16.5609
 188   2.0000      -0.605322       -16.4716
 189   2.0000      -0.603620       -16.4253
 190   2.0000      -0.599211       -16.3054
 191   2.0000      -0.583319       -15.8729
 192   2.0000      -0.581714       -15.8292
 193   2.0000      -0.579231       -15.7617
 194   2.0000      -0.576849       -15.6968
 195   2.0000      -0.576205       -15.6793
 196   2.0000      -0.568826       -15.4785
 197   2.0000      -0.564869       -15.3709
 198   2.0000      -0.562990       -15.3197
 199   2.0000      -0.556246       -15.1362
 200   2.0000      -0.547021       -14.8852
 201   2.0000      -0.541548       -14.7363
 202   2.0000      -0.540497       -14.7077
 203   2.0000      -0.538215       -14.6456
 204   2.0000      -0.536368       -14.5953
 205   2.0000      -0.534900       -14.5554
 206   2.0000      -0.530927       -14.4473
 207   2.0000      -0.529344       -14.4042
 208   2.0000      -0.525291       -14.2939
 209   2.0000      -0.522344       -14.2137
 210   2.0000      -0.520670       -14.1682
 211   2.0000      -0.519275       -14.1302
 212   2.0000      -0.518903       -14.1201
 213   2.0000      -0.515824       -14.0363
 214   2.0000      -0.511901       -13.9295
 215   2.0000      -0.510216       -13.8837
 216   2.0000      -0.509640       -13.8680
 217   2.0000      -0.505743       -13.7620
 218   2.0000      -0.504036       -13.7155
 219   2.0000      -0.500578       -13.6214
 220   2.0000      -0.497264       -13.5312
 221   2.0000      -0.496333       -13.5059
 222   2.0000      -0.494186       -13.4475
 223   2.0000      -0.492834       -13.4107
 224   2.0000      -0.492356       -13.3977
 225   2.0000      -0.491803       -13.3826
 226   2.0000      -0.485931       -13.2229
 227   2.0000      -0.484801       -13.1921
 228   2.0000      -0.481745       -13.1090
 229   2.0000      -0.481167       -13.0932
 230   2.0000      -0.478474       -13.0199
 231   2.0000      -0.477898       -13.0043
 232   2.0000      -0.477127       -12.9833
 233   2.0000      -0.473928       -12.8962
 234   2.0000      -0.472661       -12.8617
 235   2.0000      -0.470064       -12.7911
 236   2.0000      -0.463806       -12.6208
 237   2.0000      -0.460329       -12.5262
 238   2.0000      -0.458360       -12.4726
 239   2.0000      -0.454728       -12.3738
 240   2.0000      -0.452622       -12.3165
 241   2.0000      -0.447151       -12.1676
 242   2.0000      -0.445120       -12.1123
 243   2.0000      -0.444229       -12.0881
 244   2.0000      -0.443235       -12.0610
 245   2.0000      -0.438486       -11.9318
 246   2.0000      -0.437782       -11.9126
 247   2.0000      -0.436313       -11.8727
 248   2.0000      -0.435861       -11.8604
 249   2.0000      -0.431974       -11.7546
 250   2.0000      -0.430564       -11.7162
 251   2.0000      -0.430024       -11.7015
 252   2.0000      -0.429617       -11.6905
 253   2.0000      -0.426957       -11.6181
 254   2.0000      -0.425092       -11.5673
 255   2.0000      -0.423784       -11.5318
 256   2.0000      -0.422947       -11.5090
 257   2.0000      -0.414963       -11.2917
 258   2.0000      -0.414604       -11.2819
 259   2.0000      -0.413357       -11.2480
 260   2.0000      -0.411080       -11.1860
 261   2.0000      -0.407449       -11.0872
 262   2.0000      -0.405010       -11.0209
 263   2.0000      -0.402315       -10.9475
 264   2.0000      -0.396635       -10.7930
 265   2.0000      -0.394976       -10.7478
 266   2.0000      -0.393460       -10.7066
 267   2.0000      -0.391339       -10.6489
 268   2.0000      -0.381298       -10.3756
 269   2.0000      -0.373733       -10.1698
 270   2.0000      -0.373360       -10.1596
 271   2.0000      -0.364291        -9.9129
 272   2.0000      -0.362788        -9.8720
 273   2.0000      -0.357622        -9.7314
 274   2.0000      -0.354874        -9.6566
 275   2.0000      -0.349853        -9.5200
 276   2.0000      -0.341515        -9.2931
 277   2.0000      -0.337264        -9.1774
 278   2.0000      -0.335410        -9.1270
 279   2.0000      -0.326252        -8.8778
 280   2.0000      -0.323347        -8.7987
 281   2.0000      -0.316504        -8.6125
 282   2.0000      -0.309034        -8.4092
 283   2.0000      -0.302063        -8.2195
 284   2.0000      -0.301164        -8.1951
 285   2.0000      -0.299437        -8.1481
 286   2.0000      -0.281590        -7.6625
 287   2.0000      -0.277831        -7.5602
 288   2.0000      -0.263998        -7.1837
 289   2.0000      -0.256754        -6.9866
 290   2.0000      -0.216011        -5.8780
 291   0.0000      -0.108583        -2.9547
 292   0.0000      -0.071685        -1.9507
 293   0.0000      -0.070429        -1.9165
 294   0.0000      -0.051582        -1.4036
 295   0.0000      -0.045463        -1.2371

MULLIKEN ATOMIC CHARGES
-----------------------
   0 C :    0.310124
   1 C :   -0.370960
   2 C :   -0.186560
   3 N :    0.143738
   4 C :   -0.195998
   5 N :    0.132761
   6 C :    0.023700
   7 C :   -0.016075
   8 C :   -0.077507
   9 C :    0.117081
  10 C :   -0.090230
  11 C :   -0.029469
  12 S :    0.178379
  13 C :   -0.123594
  14 C :    0.037847
  15 Br:    0.014507
  16 C :    0.120942
  17 O :   -0.158877
  18 C :   -0.118582
  19 C :    0.007916
  20 C :   -0.159243
  21 S :    0.173266
  22 C :   -0.084254
  23 C :    0.110922
  24 C :    0.156259
  25 C :   -0.043546
  26 C :    0.236685
  27 F :   -0.175063
  28 C :    0.201179
  29 F :   -0.180893
  30 C :   -0.094882
  31 C :    0.004782
  32 C :    0.019964
  33 C :   -0.015941
  34 C :   -0.009744
  35 C :    0.032522
  36 C :    0.029622
  37 C :   -0.040720
  38 S :    0.096635
  39 C :   -0.029964
  40 C :    0.031360
  41 C :    0.040447
  42 C :   -0.031578
  43 S :    0.046953
  44 C :    0.013813
  45 C :   -0.018505
  46 C :   -0.228323
  47 C :    0.097769
  48 C :    0.211612
  49 N :   -0.125051
  50 C :    0.077579
  51 C :   -0.003979
  52 C :    0.010679
  53 C :   -0.123129
  54 C :    0.303001
  55 C :   -0.372633
  56 C :   -0.169139
  57 N :    0.132862
  58 C :   -0.201232
  59 N :    0.145109
  60 C :    0.008646
  61 C :   -0.018215
  62 C :    0.134348
  63 O :   -0.181743
  64 C :   -0.054804
  65 C :    0.108920
  66 C :   -0.098031
  67 C :   -0.028691
  68 S :    0.176504
  69 C :   -0.136716
  70 C :    0.036859
  71 Br:    0.036718
  72 H :   -0.014903
  73 H :   -0.010201
  74 H :   -0.005288
  75 H :    0.020635
  76 H :   -0.005684
  77 H :   -0.010322
  78 H :   -0.010946
  79 H :    0.032490
  80 H :   -0.014129
  81 H :   -0.008784
  82 H :   -0.009358
  83 H :   -0.008962
  84 H :   -0.007950
  85 H :   -0.018175
  86 H :    0.001875
  87 H :    0.019857
  88 H :    0.034650
  89 H :    0.028135
  90 H :    0.046566
  91 H :    0.023820
  92 H :    0.129270
  93 H :    0.034155
  94 H :   -0.008616
  95 H :    0.019725
  96 H :   -0.017230
  97 H :   -0.011152
  98 H :    0.002383
Sum of atomic charges:   -0.0000000

LOEWDIN ATOMIC CHARGES
----------------------
   0 C :    0.077628
   1 C :   -0.165157
   2 C :   -0.022846
   3 N :   -0.068598
   4 C :   -0.022706
   5 N :   -0.078381
   6 C :   -0.020495
   7 C :   -0.046721
   8 C :    0.016632
   9 C :   -0.034934
  10 C :   -0.147314
  11 C :   -0.012165
  12 S :    0.426751
  13 C :   -0.274906
  14 C :   -0.070401
  15 Br:    0.129888
  16 C :    0.068610
  17 O :   -0.152722
  18 C :   -0.126215
  19 C :    0.032277
  20 C :   -0.195429
  21 S :    0.484258
  22 C :   -0.118590
  23 C :   -0.051341
  24 C :   -0.009292
  25 C :   -0.014945
  26 C :    0.072102
  27 F :   -0.047966
  28 C :    0.051460
  29 F :   -0.055016
  30 C :   -0.024176
  31 C :   -0.064960
  32 C :    0.009220
  33 C :   -0.065895
  34 C :   -0.125988
  35 C :   -0.038553
  36 C :   -0.020354
  37 C :   -0.185810
  38 S :    0.416700
  39 C :   -0.167293
  40 C :   -0.030314
  41 C :   -0.026439
  42 C :   -0.139848
  43 S :    0.384202
  44 C :   -0.045801
  45 C :   -0.064215
  46 C :   -0.036318
  47 C :   -0.046465
  48 C :    0.047432
  49 N :    0.039092
  50 C :    0.095211
  51 C :   -0.118768
  52 C :    0.079531
  53 C :   -0.135315
  54 C :    0.067002
  55 C :   -0.159524
  56 C :   -0.018428
  57 N :   -0.068068
  58 C :   -0.012813
  59 N :   -0.063064
  60 C :   -0.021209
  61 C :   -0.058684
  62 C :    0.086431
  63 O :   -0.177720
  64 C :    0.021775
  65 C :   -0.036590
  66 C :   -0.147648
  67 C :   -0.013042
  68 S :    0.426349
  69 C :   -0.274117
  70 C :   -0.067794
  71 Br:    0.155067
  72 H :    0.039313
  73 H :    0.039743
  74 H :    0.037937
  75 H :    0.040853
  76 H :    0.041529
  77 H :    0.041025
  78 H :    0.030163
  79 H :    0.024703
  80 H :    0.032649
  81 H :    0.034878
  82 H :    0.033381
  83 H :    0.033758
  84 H :    0.035269
  85 H :    0.030162
  86 H :    0.018762
  87 H :    0.032115
  88 H :    0.040784
  89 H :    0.037599
  90 H :    0.043066
  91 H :    0.032585
  92 H :    0.087701
  93 H :    0.035967
  94 H :    0.029270
  95 H :    0.032392
  96 H :    0.038383
  97 H :    0.039688
  98 H :    0.040063

  Mayer bond orders larger than 0.100000
B(  0-C ,  1-C ) :   1.5949 B(  0-C ,  6-C ) :   0.9991 B(  0-C , 18-C ) :   1.1208
B(  1-C ,  2-C ) :   1.1427 B(  1-C ,  4-C ) :   1.1596 B(  2-C ,  3-N ) :   2.9733
B(  4-C ,  5-N ) :   2.9181 B(  6-C ,  7-C ) :   1.2756 B(  6-C , 11-C ) :   1.4173
B(  7-C ,  8-C ) :   1.4342 B(  7-C , 16-C ) :   0.9256 B(  8-C ,  9-C ) :   1.2354
B(  8-C , 72-H ) :   1.0174 B(  9-C , 10-C ) :   1.3184 B(  9-C , 14-C ) :   1.1616
B( 10-C , 11-C ) :   1.3170 B( 10-C , 12-S ) :   1.0813 B( 11-C , 73-H ) :   0.9814
B( 12-S , 13-C ) :   1.0865 B( 13-C , 14-C ) :   1.6188 B( 13-C , 15-Br) :   1.0137
B( 14-C , 74-H ) :   1.0003 B( 16-C , 17-O ) :   2.2034 B( 16-C , 18-C ) :   0.9826
B( 18-C , 19-C ) :   1.4489 B( 19-C , 20-C ) :   1.3316 B( 19-C , 75-H ) :   0.9287
B( 20-C , 21-S ) :   1.0845 B( 20-C , 24-C ) :   1.2595 B( 21-S , 22-C ) :   1.1945
B( 22-C , 23-C ) :   1.2411 B( 22-C , 31-C ) :   1.2106 B( 23-C , 24-C ) :   1.2672
B( 23-C , 30-C ) :   1.1940 B( 24-C , 25-C ) :   1.2091 B( 25-C , 26-C ) :   1.4842
B( 25-C , 30-C ) :   0.1040 B( 25-C , 76-H ) :   0.9769 B( 26-C , 27-F ) :   1.0982
B( 26-C , 28-C ) :   1.2032 B( 28-C , 29-F ) :   1.0980 B( 28-C , 30-C ) :   1.4570
B( 30-C , 77-H ) :   0.9942 B( 31-C , 32-C ) :   1.5546 B( 31-C , 78-H ) :   0.9561
B( 32-C , 33-C ) :   1.2303 B( 32-C , 79-H ) :   0.9460 B( 33-C , 34-C ) :   1.4883
B( 33-C , 80-H ) :   0.9850 B( 34-C , 35-C ) :   1.1627 B( 34-C , 38-S ) :   1.0761
B( 35-C , 36-C ) :   1.5688 B( 35-C , 81-H ) :   0.9988 B( 36-C , 37-C ) :   1.2024
B( 36-C , 82-H ) :   0.9947 B( 37-C , 38-S ) :   1.0485 B( 37-C , 39-C ) :   1.4843
B( 39-C , 40-C ) :   1.1872 B( 39-C , 43-S ) :   1.0573 B( 40-C , 41-C ) :   1.5979
B( 40-C , 83-H ) :   0.9942 B( 41-C , 42-C ) :   1.1256 B( 41-C , 84-H ) :   0.9980
B( 42-C , 43-S ) :   1.0295 B( 42-C , 44-C ) :   1.6196 B( 44-C , 45-C ) :   1.1194
B( 44-C , 85-H ) :   0.9756 B( 45-C , 46-C ) :   1.7715 B( 45-C , 86-H ) :   0.9458
B( 46-C , 47-C ) :   1.0946 B( 46-C , 48-C ) :   0.9940 B( 47-C , 87-H ) :   0.9535
B( 47-C , 88-H ) :   0.9423 B( 47-C , 89-H ) :   0.9490 B( 48-C , 49-N ) :   1.0203
B( 48-C , 90-H ) :   0.9242 B( 48-C , 91-H ) :   0.9450 B( 49-N , 50-C ) :   1.3247
B( 49-N , 92-H ) :   0.9358 B( 50-C , 51-C ) :   1.4856 B( 50-C , 93-H ) :   0.9607
B( 51-C , 52-C ) :   1.2891 B( 51-C , 94-H ) :   0.9420 B( 52-C , 53-C ) :   1.5225
B( 52-C , 95-H ) :   0.9314 B( 53-C , 54-C ) :   1.0815 B( 53-C , 62-C ) :   0.9952
B( 54-C , 55-C ) :   1.5890 B( 54-C , 60-C ) :   1.0117 B( 55-C , 56-C ) :   1.1266
B( 55-C , 58-C ) :   1.1856 B( 56-C , 57-N ) :   2.9656 B( 58-C , 59-N ) :   2.9649
B( 60-C , 61-C ) :   1.2708 B( 60-C , 67-C ) :   1.4116 B( 61-C , 62-C ) :   0.9336
B( 61-C , 64-C ) :   1.4274 B( 62-C , 63-O ) :   2.1399 B( 64-C , 65-C ) :   1.2386
B( 64-C , 96-H ) :   1.0148 B( 65-C , 66-C ) :   1.3111 B( 65-C , 70-C ) :   1.1562
B( 66-C , 67-C ) :   1.3228 B( 66-C , 68-S ) :   1.0853 B( 67-C , 97-H ) :   0.9782
B( 68-S , 69-C ) :   1.0778 B( 69-C , 70-C ) :   1.6206 B( 69-C , 71-Br) :   1.0276
B( 70-C , 98-H ) :   0.9952

-----------------------------------------------------------------------------
         ABSORPTION SPECTRUM VIA TRANSITION ELECTRIC DIPOLE MOMENTS
-----------------------------------------------------------------------------
State   Energy  Wavelength   fosc         T2         TX        TY        TZ
        (cm-1)    (nm)                  (au**2)     (au)      (au)      (au)
-----------------------------------------------------------------------------
   0   10023.3    997.7   1.077581799  35.39281  -4.29934   3.32991   2.41250
   1   16596.5    602.5   0.109489077   2.17186   0.97702  -1.07646  -0.24192
   2   18070.4    553.4   0.129440945   2.35820   0.85705  -1.26830   0.12273
   3   18395.0    543.6   0.231110095   4.13614  -0.34271   1.77189  -0.93761
   4   19531.5    512.0   0.180253673   3.03825   0.44313   1.16347  -1.21993
   5   20966.0    477.0   0.081522204   1.28008   0.41591   0.50537  -0.92287
   6   21963.2    455.3   0.094881224   1.42220   0.28586  -0.33771   1.10745
   7   22485.7    444.7   0.092591503   1.35563  -0.50268   0.75681  -0.72813
   8   22856.3    437.5   0.294587738   4.24312  -1.37917   1.34221   0.73448
   9   25212.4    396.6   0.035897349   0.46873  -0.41288  -0.17219  -0.51828
  10   25347.4    394.5   0.060144432   0.78115   0.75843  -0.41733   0.17823
  11   25692.1    389.2   0.103984929   1.33243   0.80555  -0.49198   0.66444
  12   26203.3    381.6   0.011870806   0.14914  -0.34089   0.13390  -0.12249
  13   26951.2    371.0   0.023425403   0.28614  -0.41632   0.11029  -0.31727
  14   27091.3    369.1   0.143949576   1.74927   0.26763  -0.43714   1.21924
  15   27706.7    360.9   0.057791736   0.68668   0.19861   0.26374  -0.76005
  16   27854.6    359.0   0.019460551   0.23000  -0.24424  -0.13819  -0.38891
  17   28211.8    354.5   0.082590797   0.96378   0.07851   0.42827  -0.87989
  18   28728.2    348.1   0.005056525   0.05795   0.01525  -0.06382  -0.23160
  19   28927.5    345.7   0.003743386   0.04260  -0.01398  -0.13520  -0.15533
  20   29492.9    339.1   0.065841140   0.73495   0.46158  -0.70346   0.16443
  21   29512.6    338.8   0.690532094   7.70285   0.80991  -1.85066  -1.90314
  22   29913.1    334.3   0.156949152   1.72732   0.37731  -0.35628  -1.20749
  23   30097.1    332.3   0.010193630   0.11150  -0.02354  -0.09242   0.32001
  24   30314.0    329.9   0.068738841   0.74651  -0.45515  -0.27766  -0.67989
  25   30906.2    323.6   0.027044892   0.28808  -0.34598   0.05070   0.40720
  26   31248.4    320.0   0.226073275   2.38176   0.74055  -1.08164  -0.81450
  27   31472.3    317.7   0.032577885   0.34078  -0.49463   0.01975  -0.30940
  28   31768.2    314.8   0.056758900   0.58819   0.57065   0.30722   0.41008
  29   32051.3    312.0   0.407307056   4.18362   1.78412  -0.32401   0.94633
  30   32336.5    309.2   0.090293581   0.91926  -0.62614   0.66527  -0.29091
  31   32536.9    307.3   0.110559673   1.11865   0.50866   0.06993   0.92468
  32   32910.0    303.9   0.006447304   0.06449  -0.06835  -0.05939  -0.23727
  33   33121.6    301.9   0.014274192   0.14188  -0.04804   0.31241   0.20487
  34   33466.0    298.8   0.090016752   0.88551  -0.27091  -0.43779  -0.78769
  35   33563.0    297.9   0.216839086   2.12693   0.10084  -0.51048  -1.36241
  36   33857.1    295.4   0.003958025   0.03849  -0.12517  -0.03670   0.14653
  37   33878.3    295.2   0.009595660   0.09325  -0.03506  -0.22398   0.20457
  38   34249.1    292.0   0.019621495   0.18861   0.09971  -0.07662  -0.41568
  39   34271.6    291.8   0.034400646   0.33045  -0.13615   0.26033   0.49411
  40   34602.7    289.0   0.047784743   0.45463   0.25009   0.26892   0.56547
  41   34801.9    287.3   0.103270493   0.97690   0.18034   0.83999   0.48866
  42   35225.7    283.9   0.014194283   0.13266   0.00799  -0.31847  -0.17655
  43   35622.5    280.7   0.134308695   1.24124   0.67922  -0.60652  -0.64189
  44   35626.4    280.7   0.012347282   0.11410  -0.19486  -0.14042  -0.23750
  45   35989.9    277.9   0.010613882   0.09709  -0.09462   0.19879   0.22050
  46   36252.0    275.8   0.102501791   0.93084   0.61049  -0.51683   0.53947
  47   36601.1    273.2   0.040872907   0.36764   0.34226   0.35869   0.34905
  48   36710.8    272.4   0.311745437   2.79565  -0.90783  -0.67501  -1.23120
  49   36764.8    272.0   0.053923334   0.48286  -0.34543  -0.34695  -0.49312
  50   37079.4    269.7   0.016091261   0.14287   0.14458  -0.31635  -0.14795
  51   37232.6    268.6   0.000566556   0.00501  -0.01341  -0.01363  -0.06815
  52   37688.7    265.3   0.058871777   0.51425   0.33299  -0.63323   0.04878
  53   37905.7    263.8   0.019748434   0.17152   0.07076   0.36502   0.18241
  54   38158.9    262.1   0.096061183   0.82876   0.11802  -0.88120   0.19573
  55   38531.7    259.5   0.037878897   0.32363  -0.13151   0.33883  -0.43764
  56   38816.9    257.6   0.010023734   0.08501   0.03654  -0.18497   0.22241
  57   38913.6    257.0   0.020289294   0.17165   0.03110  -0.04557  -0.41061
  58   39010.4    256.3   0.010196694   0.08605   0.19042   0.22045  -0.03449
  59   39338.2    254.2   0.017064678   0.14281   0.08289   0.36546   0.04878
  60   39444.7    253.5   0.054064181   0.45123   0.48031  -0.41383   0.22197
  61   39592.3    252.6   0.023305100   0.19378  -0.19906  -0.12950  -0.37066
  62   39729.0    251.7   0.052944539   0.43872  -0.45445   0.32176   0.35871
  63   39888.6    250.7   0.006781768   0.05597   0.19151   0.07011   0.11993
  64   39981.8    250.1   0.009989088   0.08225   0.24074  -0.08289  -0.13200
  65   40295.9    248.2   0.006661450   0.05442   0.10804  -0.00669   0.20666
  66   40310.3    248.1   0.006127563   0.05004   0.00035   0.20640  -0.08626

FINAL SINGLE POINT ENERGY     -9908.731084286361

DIPOLE MOMENT
-------------
                                X             Y             Z
Electronic contribution:    160.47326    -170.68443     -35.47695
Nuclear contribution   :   -164.75243     175.66417      36.66340
                        -----------------------------------------
Total Dipole Moment    :     -4.27916       4.97974       1.18645
                        -----------------------------------------
Magnitude (a.u.)       :      6.67208
Magnitude (Debye)      :     16.95909

Rotational constants in cm-1:     0.001455     0.000371     0.000344
Rotational constants in MHz :    43.630009    11.136395    10.303174

                             ****ORCA TERMINATED NORMALLY****
TOTAL RUN TIME: 0 days 0 hours 13 minutes 17 seconds 578 msec
