                         Program Version 4.2.0 -  RELEASE  -
|  1> # ORCA input file
|  2> # SCF done       -185.397198563536          0.000912256245
|  3> ! CAM-B3LYP def2-SVP def2/J RIJCOSX Grid4 TightSCF
|  4> %maxcore 5000
|  5> %tddft
|  6>     Mode sTDDFT
|  7>     Ethresh 5.0
|  8>     maxcore 5000
|  9> end
| 10>
| 11> %pal
| 12>   nprocs 6
| 13>   end
| 14> * xyz 0 1
| 15>    C       -6.51565        -0.08434         0.07747
| 16>    C       -7.29012        -1.04957        -0.50925
| 17>    C       -6.98052        -2.42664        -0.50613
| 18>    N       -6.78182        -3.55633        -0.55419
| 19>    C       -8.52857        -0.83871        -1.14742
| 20>    N       -9.56078        -0.78495        -1.64966
| 21>    C       -5.32149        -0.32791         0.87502
| 22>    C       -4.90752         0.89184         1.46510
| 23>    C       -3.82405         0.97856         2.30506
| 24>    C       -3.10641        -0.19251         2.56837
| 25>    C       -3.52091        -1.40571         1.96683
| 26>    C       -4.62048        -1.49497         1.12366
| 27>    S       -2.49473        -2.73020         2.42753
| 28>    C       -1.53718        -1.65227         3.40795
| 29>    C       -1.96152        -0.36595         3.39262
| 30>   Br       -0.07086        -2.32634         4.36266
| 31>    C       -5.80797         1.98014         1.03349
| 32>    O       -5.78297         3.12935         1.41213
| 33>    C       -6.76420         1.34979         0.08328
| 34>    C       -7.70661         2.01314        -0.62640
| 35>    C       -7.85033         3.44732        -0.69937
| 36>    C       -6.80405         4.24673        -1.05657
| 37>    S       -7.23137         5.87781        -1.35566
| 38>    C       -8.88473         5.52827        -0.94775
| 39>    C       -9.08483         4.18707        -0.59215
| 40>    C      -10.32796         3.79505        -0.04650
| 41>    C      -10.41223         2.46349         0.64994
| 42>    C       -9.73804         2.54303         2.02272
| 43>    C      -11.39510         4.68284        -0.03635
| 44>    C      -12.66453         4.33248         0.70241
| 45>    C      -13.52691         3.24618         0.03278
| 46>    C      -11.23838         5.97668        -0.59321
| 47>    C      -12.18605         7.06131        -0.73708
| 48>    C      -11.56273         8.24633        -1.01861
| 49>    S       -9.87080         8.11931        -1.26991
| 50>    C       -9.94809         6.41426        -0.93583
| 51>    C      -13.62428         6.99047        -0.81066
| 52>    C      -14.27123         5.98361        -1.44731
| 53>    C      -15.66376         5.91711        -1.65433
| 54>    C      -16.25432         4.88316        -2.33642
| 55>    C      -17.62828         4.66494        -2.60539
| 56>    C      -17.88952         3.50683        -3.27743
| 57>    C      -16.73464         2.75200        -3.57545
| 58>    S      -15.30368         3.56161        -2.99921
| 59>    C      -16.60296         1.52542        -4.20701
| 60>    C      -17.57106         0.66598        -4.75938
| 61>    C      -17.04364        -0.47646        -5.29080
| 62>    C      -15.63464        -0.57479        -5.18323
| 63>    S      -15.00442         0.84105        -4.37871
| 64>    C      -14.86262        -1.61378        -5.65768
| 65>    C      -13.47172        -1.75108        -5.57945
| 66>    S      -12.69464        -3.11357        -6.38469
| 67>    C      -11.06987        -2.64531        -5.93003
| 68>    C      -11.13873        -1.47342        -5.17374
| 69>    C      -12.46417        -0.99807        -4.98060
| 70>    O      -12.45474         0.12005        -4.22953
| 71>    C      -11.15079         0.37379        -3.95651
| 72>    N      -10.85233         1.50030        -3.17453
| 73>    O       -9.66960         1.75098        -2.99808
| 74>    O      -11.76970         2.15956        -2.72676
| 75>    C      -10.29826        -0.55374        -4.50502
| 76>    C       -9.94806        -3.39838        -6.31686
| 77>    S       -8.34559        -2.94632        -5.80927
| 78>    C       -7.64881        -4.28899        -6.67771
| 79>    C       -6.21304        -4.56551        -6.72509
| 80>    O       -5.75309        -5.46069        -7.38493
| 81>    O       -5.41399        -3.76372        -5.99235
| 82>    C       -8.62646        -5.02674        -7.30875
| 83>    C       -9.91197        -4.53595        -7.10768
| 84>    H       -3.53900         1.92168         2.74437
| 85>    H       -4.89626        -2.44218         0.69113
| 86>    H       -1.48839         0.42849         3.94032
| 87>    H       -8.37921         1.46659        -1.27598
| 88>    H       -5.79250         3.93592        -1.23193
| 89>    H       -9.91936         1.69805         0.05431
| 90>    H      -11.44544         2.15472         0.77097
| 91>    H       -8.69579         2.83975         1.92952
| 92>    H       -9.78026         1.57549         2.51902
| 93>    H      -10.23925         3.27494         2.65268
| 94>    H      -13.25270         5.24041         0.82916
| 95>    H      -12.37946         4.00404         1.70433
| 96>    H      -13.09640         2.93270        -0.91501
| 97>    H      -14.53003         3.61887        -0.15464
| 98>    H      -13.62388         2.36862         0.66830
| 99>    H      -12.04021         9.19399        -1.17885
|100>    H      -14.17450         7.85881        -0.46988
|101>    H      -13.67986         5.17295        -1.85132
|102>    H      -16.29409         6.70409        -1.26183
|103>    H      -18.38043         5.36541        -2.28681
|104>    H      -18.87353         3.17502        -3.55752
|105>    H      -18.61997         0.90361        -4.75313
|106>    H      -17.62389        -1.25308        -5.75720
|107>    H      -15.38403        -2.41229        -6.16844
|108>    H       -9.23237        -0.55948        -4.41787
|109>    H       -5.90688        -3.09771        -5.49557
|110>    H       -8.38537        -5.89561        -7.89350
|111>    H      -10.80540        -4.97278        -7.51633
|112> *
|113>
|114>                          ****END OF INPUT****

CARTESIAN COORDINATES (ANGSTROEM)
---------------------------------
  C     -6.515650   -0.084340    0.077470
  C     -7.290120   -1.049570   -0.509250
  C     -6.980520   -2.426640   -0.506130
  N     -6.781820   -3.556330   -0.554190
  C     -8.528570   -0.838710   -1.147420
  N     -9.560780   -0.784950   -1.649660
  C     -5.321490   -0.327910    0.875020
  C     -4.907520    0.891840    1.465100
  C     -3.824050    0.978560    2.305060
  C     -3.106410   -0.192510    2.568370
  C     -3.520910   -1.405710    1.966830
  C     -4.620480   -1.494970    1.123660
  S     -2.494730   -2.730200    2.427530
  C     -1.537180   -1.652270    3.407950
  C     -1.961520   -0.365950    3.392620
  Br    -0.070860   -2.326340    4.362660
  C     -5.807970    1.980140    1.033490
  O     -5.782970    3.129350    1.412130
  C     -6.764200    1.349790    0.083280
  C     -7.706610    2.013140   -0.626400
  C     -7.850330    3.447320   -0.699370
  C     -6.804050    4.246730   -1.056570
  S     -7.231370    5.877810   -1.355660
  C     -8.884730    5.528270   -0.947750
  C     -9.084830    4.187070   -0.592150
  C    -10.327960    3.795050   -0.046500
  C    -10.412230    2.463490    0.649940
  C     -9.738040    2.543030    2.022720
  C    -11.395100    4.682840   -0.036350
  C    -12.664530    4.332480    0.702410
  C    -13.526910    3.246180    0.032780
  C    -11.238380    5.976680   -0.593210
  C    -12.186050    7.061310   -0.737080
  C    -11.562730    8.246330   -1.018610
  S     -9.870800    8.119310   -1.269910
  C     -9.948090    6.414260   -0.935830
  C    -13.624280    6.990470   -0.810660
  C    -14.271230    5.983610   -1.447310
  C    -15.663760    5.917110   -1.654330
  C    -16.254320    4.883160   -2.336420
  C    -17.628280    4.664940   -2.605390
  C    -17.889520    3.506830   -3.277430
  C    -16.734640    2.752000   -3.575450
  S    -15.303680    3.561610   -2.999210
  C    -16.602960    1.525420   -4.207010
  C    -17.571060    0.665980   -4.759380
  C    -17.043640   -0.476460   -5.290800
  C    -15.634640   -0.574790   -5.183230
  S    -15.004420    0.841050   -4.378710
  C    -14.862620   -1.613780   -5.657680
  C    -13.471720   -1.751080   -5.579450
  S    -12.694640   -3.113570   -6.384690
  C    -11.069870   -2.645310   -5.930030
  C    -11.138730   -1.473420   -5.173740
  C    -12.464170   -0.998070   -4.980600
  O    -12.454740    0.120050   -4.229530
  C    -11.150790    0.373790   -3.956510
  N    -10.852330    1.500300   -3.174530
  O     -9.669600    1.750980   -2.998080
  O    -11.769700    2.159560   -2.726760
  C    -10.298260   -0.553740   -4.505020
  C     -9.948060   -3.398380   -6.316860
  S     -8.345590   -2.946320   -5.809270
  C     -7.648810   -4.288990   -6.677710
  C     -6.213040   -4.565510   -6.725090
  O     -5.753090   -5.460690   -7.384930
  O     -5.413990   -3.763720   -5.992350
  C     -8.626460   -5.026740   -7.308750
  C     -9.911970   -4.535950   -7.107680
  H     -3.539000    1.921680    2.744370
  H     -4.896260   -2.442180    0.691130
  H     -1.488390    0.428490    3.940320
  H     -8.379210    1.466590   -1.275980
  H     -5.792500    3.935920   -1.231930
  H     -9.919360    1.698050    0.054310
  H    -11.445440    2.154720    0.770970
  H     -8.695790    2.839750    1.929520
  H     -9.780260    1.575490    2.519020
  H    -10.239250    3.274940    2.652680
  H    -13.252700    5.240410    0.829160
  H    -12.379460    4.004040    1.704330
  H    -13.096400    2.932700   -0.915010
  H    -14.530030    3.618870   -0.154640
  H    -13.623880    2.368620    0.668300
  H    -12.040210    9.193990   -1.178850
  H    -14.174500    7.858810   -0.469880
  H    -13.679860    5.172950   -1.851320
  H    -16.294090    6.704090   -1.261830
  H    -18.380430    5.365410   -2.286810
  H    -18.873530    3.175020   -3.557520
  H    -18.619970    0.903610   -4.753130
  H    -17.623890   -1.253080   -5.757200
  H    -15.384030   -2.412290   -6.168440
  H     -9.232370   -0.559480   -4.417870
  H     -5.906880   -3.097710   -5.495570
  H     -8.385370   -5.895610   -7.893500
  H    -10.805400   -4.972780   -7.516330

 Total Charge           Charge          ....    0
 Multiplicity           Mult            ....    1
 Number of Electrons    NEL             ....  556
 Basis Dimension        Dim             .... 1152

ORBITAL ENERGIES
----------------

  NO   OCC          E(Eh)            E(eV)
   0   2.0000    -482.887306    -13140.0316
   1   2.0000     -88.977708     -2421.2065
   2   2.0000     -88.973739     -2421.0985
   3   2.0000     -88.972852     -2421.0744
   4   2.0000     -88.951636     -2420.4971
   5   2.0000     -88.947525     -2420.3852
   6   2.0000     -88.940290     -2420.1883
   7   2.0000     -88.938594     -2420.1422
   8   2.0000     -62.565029     -1702.4810
   9   2.0000     -56.398988     -1534.6945
  10   2.0000     -56.396257     -1534.6202
  11   2.0000     -56.396228     -1534.6194
  12   2.0000     -19.309765      -525.4454
  13   2.0000     -19.251594      -523.8625
  14   2.0000     -19.250254      -523.8260
  15   2.0000     -19.248214      -523.7705
  16   2.0000     -19.215232      -522.8731
  17   2.0000     -19.185027      -522.0511
  18   2.0000     -14.659502      -398.9053
  19   2.0000     -14.423549      -392.4847
  20   2.0000     -14.418897      -392.3581
  21   2.0000     -10.396161      -282.8939
  22   2.0000     -10.386753      -282.6379
  23   2.0000     -10.367226      -282.1066
  24   2.0000     -10.361577      -281.9529
  25   2.0000     -10.349586      -281.6266
  26   2.0000     -10.345926      -281.5270
  27   2.0000     -10.345199      -281.5072
  28   2.0000     -10.328269      -281.0465
  29   2.0000     -10.327683      -281.0306
  30   2.0000     -10.326266      -280.9920
  31   2.0000     -10.324119      -280.9336
  32   2.0000     -10.323097      -280.9058
  33   2.0000     -10.322000      -280.8759
  34   2.0000     -10.314695      -280.6771
  35   2.0000     -10.312150      -280.6079
  36   2.0000     -10.311330      -280.5855
  37   2.0000     -10.311116      -280.5797
  38   2.0000     -10.311086      -280.5789
  39   2.0000     -10.310661      -280.5673
  40   2.0000     -10.308882      -280.5189
  41   2.0000     -10.303669      -280.3771
  42   2.0000     -10.303193      -280.3641
  43   2.0000     -10.303133      -280.3625
  44   2.0000     -10.302501      -280.3453
  45   2.0000     -10.301245      -280.3111
  46   2.0000     -10.299083      -280.2523
  47   2.0000     -10.298750      -280.2432
  48   2.0000     -10.296262      -280.1755
  49   2.0000     -10.294439      -280.1259
  50   2.0000     -10.292662      -280.0776
  51   2.0000     -10.292280      -280.0672
  52   2.0000     -10.290381      -280.0155
  53   2.0000     -10.287867      -279.9471
  54   2.0000     -10.287760      -279.9442
  55   2.0000     -10.287631      -279.9407
  56   2.0000     -10.287045      -279.9247
  57   2.0000     -10.286547      -279.9112
  58   2.0000     -10.283051      -279.8160
  59   2.0000     -10.282128      -279.7909
  60   2.0000     -10.282000      -279.7874
  61   2.0000     -10.281669      -279.7784
  62   2.0000     -10.279531      -279.7202
  63   2.0000     -10.277287      -279.6592
  64   2.0000     -10.272741      -279.5355
  65   2.0000     -10.272142      -279.5192
  66   2.0000     -10.270549      -279.4758
  67   2.0000     -10.264989      -279.3246
  68   2.0000     -10.263360      -279.2802
  69   2.0000     -10.253309      -279.0067
  70   2.0000     -10.249773      -278.9105
  71   2.0000     -10.245837      -278.8034
  72   2.0000     -10.235362      -278.5184
  73   2.0000      -8.794464      -239.3095
  74   2.0000      -8.073705      -219.6967
  75   2.0000      -8.068272      -219.5488
  76   2.0000      -8.068209      -219.5471
  77   2.0000      -8.047702      -218.9891
  78   2.0000      -8.043609      -218.8777
  79   2.0000      -8.036488      -218.6840
  80   2.0000      -8.035038      -218.6445
  81   2.0000      -6.630801      -180.4333
  82   2.0000      -6.616178      -180.0354
  83   2.0000      -6.615972      -180.0297
  84   2.0000      -6.043407      -164.4495
  85   2.0000      -6.039107      -164.3325
  86   2.0000      -6.037767      -164.2960
  87   2.0000      -6.037569      -164.2906
  88   2.0000      -6.034927      -164.2187
  89   2.0000      -6.033729      -164.1861
  90   2.0000      -6.033499      -164.1799
  91   2.0000      -6.030270      -164.0920
  92   2.0000      -6.030017      -164.0851
  93   2.0000      -6.017164      -163.7354
  94   2.0000      -6.013117      -163.6252
  95   2.0000      -6.012940      -163.6204
  96   2.0000      -6.009472      -163.5261
  97   2.0000      -6.008901      -163.5105
  98   2.0000      -6.006198      -163.4370
  99   2.0000      -6.005290      -163.4123
 100   2.0000      -6.004758      -163.3978
 101   2.0000      -6.002145      -163.3267
 102   2.0000      -6.000567      -163.2837
 103   2.0000      -5.997382      -163.1971
 104   2.0000      -5.995845      -163.1552
 105   2.0000      -2.746642       -74.7399
 106   2.0000      -2.742581       -74.6294
 107   2.0000      -2.742416       -74.6249
 108   2.0000      -2.730790       -74.3086
 109   2.0000      -2.730782       -74.3083
 110   2.0000      -1.329503       -36.1776
 111   2.0000      -1.232945       -33.5501
 112   2.0000      -1.172252       -31.8986
 113   2.0000      -1.144652       -31.1476
 114   2.0000      -1.130794       -30.7705
 115   2.0000      -1.085048       -29.5257
 116   2.0000      -1.026360       -27.9287
 117   2.0000      -1.018122       -27.7045
 118   2.0000      -1.006946       -27.4004
 119   2.0000      -1.000147       -27.2154
 120   2.0000      -0.998148       -27.1610
 121   2.0000      -0.994868       -27.0717
 122   2.0000      -0.991900       -26.9910
 123   2.0000      -0.983280       -26.7564
 124   2.0000      -0.971841       -26.4451
 125   2.0000      -0.969141       -26.3717
 126   2.0000      -0.944774       -25.7086
 127   2.0000      -0.938316       -25.5329
 128   2.0000      -0.917097       -24.9555
 129   2.0000      -0.911534       -24.8041
 130   2.0000      -0.910369       -24.7724
 131   2.0000      -0.904318       -24.6077
 132   2.0000      -0.899999       -24.4902
 133   2.0000      -0.888751       -24.1842
 134   2.0000      -0.886738       -24.1294
 135   2.0000      -0.874703       -23.8019
 136   2.0000      -0.869218       -23.6526
 137   2.0000      -0.856378       -23.3032
 138   2.0000      -0.848513       -23.0892
 139   2.0000      -0.846559       -23.0360
 140   2.0000      -0.842388       -22.9225
 141   2.0000      -0.841750       -22.9052
 142   2.0000      -0.832060       -22.6415
 143   2.0000      -0.822195       -22.3731
 144   2.0000      -0.818823       -22.2813
 145   2.0000      -0.813873       -22.1466
 146   2.0000      -0.804969       -21.9043
 147   2.0000      -0.794745       -21.6261
 148   2.0000      -0.787647       -21.4330
 149   2.0000      -0.777796       -21.1649
 150   2.0000      -0.764744       -20.8098
 151   2.0000      -0.762730       -20.7549
 152   2.0000      -0.755156       -20.5488
 153   2.0000      -0.735499       -20.0139
 154   2.0000      -0.728025       -19.8106
 155   2.0000      -0.712953       -19.4004
 156   2.0000      -0.708930       -19.2910
 157   2.0000      -0.704491       -19.1702
 158   2.0000      -0.701008       -19.0754
 159   2.0000      -0.694709       -18.9040
 160   2.0000      -0.689900       -18.7731
 161   2.0000      -0.684258       -18.6196
 162   2.0000      -0.679390       -18.4872
 163   2.0000      -0.675272       -18.3751
 164   2.0000      -0.673266       -18.3205
 165   2.0000      -0.660840       -17.9824
 166   2.0000      -0.659635       -17.9496
 167   2.0000      -0.652765       -17.7626
 168   2.0000      -0.651299       -17.7228
 169   2.0000      -0.643861       -17.5203
 170   2.0000      -0.638087       -17.3632
 171   2.0000      -0.632371       -17.2077
 172   2.0000      -0.629430       -17.1277
 173   2.0000      -0.627183       -17.0665
 174   2.0000      -0.622493       -16.9389
 175   2.0000      -0.619095       -16.8464
 176   2.0000      -0.618072       -16.8186
 177   2.0000      -0.612895       -16.6777
 178   2.0000      -0.611429       -16.6378
 179   2.0000      -0.602838       -16.4040
 180   2.0000      -0.599420       -16.3111
 181   2.0000      -0.590034       -16.0556
 182   2.0000      -0.589335       -16.0366
 183   2.0000      -0.583722       -15.8839
 184   2.0000      -0.571750       -15.5581
 185   2.0000      -0.568921       -15.4811
 186   2.0000      -0.566454       -15.4140
 187   2.0000      -0.557624       -15.1737
 188   2.0000      -0.552510       -15.0346
 189   2.0000      -0.548407       -14.9229
 190   2.0000      -0.543877       -14.7996
 191   2.0000      -0.541087       -14.7237
 192   2.0000      -0.535268       -14.5654
 193   2.0000      -0.534097       -14.5335
 194   2.0000      -0.529058       -14.3964
 195   2.0000      -0.528737       -14.3877
 196   2.0000      -0.526388       -14.3237
 197   2.0000      -0.524702       -14.2779
 198   2.0000      -0.519893       -14.1470
 199   2.0000      -0.517989       -14.0952
 200   2.0000      -0.517447       -14.0804
 201   2.0000      -0.514671       -14.0049
 202   2.0000      -0.511026       -13.9057
 203   2.0000      -0.509471       -13.8634
 204   2.0000      -0.504467       -13.7272
 205   2.0000      -0.502439       -13.6721
 206   2.0000      -0.499365       -13.5884
 207   2.0000      -0.499171       -13.5831
 208   2.0000      -0.497042       -13.5252
 209   2.0000      -0.495318       -13.4783
 210   2.0000      -0.494029       -13.4432
 211   2.0000      -0.491867       -13.3844
 212   2.0000      -0.490156       -13.3378
 213   2.0000      -0.488843       -13.3021
 214   2.0000      -0.480647       -13.0791
 215   2.0000      -0.478705       -13.0262
 216   2.0000      -0.476196       -12.9579
 217   2.0000      -0.473649       -12.8887
 218   2.0000      -0.472003       -12.8439
 219   2.0000      -0.469551       -12.7771
 220   2.0000      -0.465289       -12.6612
 221   2.0000      -0.463438       -12.6108
 222   2.0000      -0.462064       -12.5734
 223   2.0000      -0.460529       -12.5316
 224   2.0000      -0.456872       -12.4321
 225   2.0000      -0.454261       -12.3611
 226   2.0000      -0.451685       -12.2910
 227   2.0000      -0.450486       -12.2583
 228   2.0000      -0.449922       -12.2430
 229   2.0000      -0.449076       -12.2200
 230   2.0000      -0.448488       -12.2040
 231   2.0000      -0.443635       -12.0719
 232   2.0000      -0.442182       -12.0324
 233   2.0000      -0.438110       -11.9216
 234   2.0000      -0.436484       -11.8773
 235   2.0000      -0.434502       -11.8234
 236   2.0000      -0.432326       -11.7642
 237   2.0000      -0.430984       -11.7277
 238   2.0000      -0.429915       -11.6986
 239   2.0000      -0.427426       -11.6308
 240   2.0000      -0.425354       -11.5745
 241   2.0000      -0.422096       -11.4858
 242   2.0000      -0.418748       -11.3947
 243   2.0000      -0.416032       -11.3208
 244   2.0000      -0.414321       -11.2742
 245   2.0000      -0.413607       -11.2548
 246   2.0000      -0.409505       -11.1432
 247   2.0000      -0.408406       -11.1133
 248   2.0000      -0.397660       -10.8209
 249   2.0000      -0.396439       -10.7876
 250   2.0000      -0.390983       -10.6392
 251   2.0000      -0.389862       -10.6087
 252   2.0000      -0.385133       -10.4800
 253   2.0000      -0.384225       -10.4553
 254   2.0000      -0.382723       -10.4144
 255   2.0000      -0.377918       -10.2837
 256   2.0000      -0.376627       -10.2485
 257   2.0000      -0.375699       -10.2233
 258   2.0000      -0.374163       -10.1815
 259   2.0000      -0.368651       -10.0315
 260   2.0000      -0.365338        -9.9414
 261   2.0000      -0.353836        -9.6284
 262   2.0000      -0.347007        -9.4425
 263   2.0000      -0.342421        -9.3178
 264   2.0000      -0.336469        -9.1558
 265   2.0000      -0.335065        -9.1176
 266   2.0000      -0.331459        -9.0195
 267   2.0000      -0.330051        -8.9811
 268   2.0000      -0.320786        -8.7290
 269   2.0000      -0.317777        -8.6472
 270   2.0000      -0.316452        -8.6111
 271   2.0000      -0.311987        -8.4896
 272   2.0000      -0.301256        -8.1976
 273   2.0000      -0.295997        -8.0545
 274   2.0000      -0.271261        -7.3814
 275   2.0000      -0.259905        -7.0724
 276   2.0000      -0.250602        -6.8192
 277   2.0000      -0.202444        -5.5088
 278   0.0000      -0.093083        -2.5329
 279   0.0000      -0.086932        -2.3655
 280   0.0000      -0.066690        -1.8147
 281   0.0000      -0.055018        -1.4971
 282   0.0000      -0.029910        -0.8139

MULLIKEN ATOMIC CHARGES
-----------------------
   0 C :    0.317351
   1 C :   -0.359781
   2 C :   -0.195144
   3 N :    0.151754
   4 C :   -0.169148
   5 N :    0.132701
   6 C :    0.010102
   7 C :   -0.011387
   8 C :   -0.070123
   9 C :    0.117646
  10 C :   -0.088167
  11 C :   -0.018515
  12 S :    0.189566
  13 C :   -0.123483
  14 C :    0.040300
  15 Br:    0.027412
  16 C :    0.125659
  17 O :   -0.135053
  18 C :   -0.049576
  19 C :   -0.092373
  20 C :    0.047209
  21 C :   -0.052231
  22 S :    0.135769
  23 C :   -0.137182
  24 C :    0.123371
  25 C :   -0.103274
  26 C :    0.079344
  27 C :    0.025544
  28 C :   -0.124755
  29 C :    0.035066
  30 C :   -0.004810
  31 C :    0.090462
  32 C :    0.051033
  33 C :   -0.100049
  34 S :    0.123566
  35 C :   -0.152698
  36 C :   -0.035828
  37 C :    0.007651
  38 C :   -0.005903
  39 C :   -0.024627
  40 C :    0.046707
  41 C :    0.019861
  42 C :   -0.039350
  43 S :    0.080980
  44 C :   -0.037537
  45 C :    0.035363
  46 C :    0.023848
  47 C :   -0.025758
  48 S :    0.088013
  49 C :    0.037693
  50 C :   -0.200379
  51 S :    0.152806
  52 C :   -0.093302
  53 C :    0.078327
  54 C :    0.195000
  55 O :   -0.187432
  56 C :    0.255350
  57 N :    0.308512
  58 O :   -0.250876
  59 O :   -0.222716
  60 C :   -0.061880
  61 C :   -0.046685
  62 S :    0.080403
  63 C :   -0.166835
  64 C :    0.180215
  65 O :   -0.176562
  66 O :   -0.163213
  67 C :    0.053504
  68 C :   -0.013253
  69 H :   -0.009202
  70 H :   -0.004927
  71 H :   -0.002296
  72 H :    0.052464
  73 H :    0.020363
  74 H :   -0.017855
  75 H :   -0.017031
  76 H :    0.021779
  77 H :    0.009770
  78 H :    0.006973
  79 H :    0.005200
  80 H :    0.007161
  81 H :    0.047566
  82 H :    0.014142
  83 H :    0.013648
  84 H :    0.015035
  85 H :   -0.009923
  86 H :    0.027682
  87 H :   -0.016530
  88 H :   -0.012486
  89 H :   -0.015010
  90 H :   -0.013715
  91 H :   -0.014862
  92 H :   -0.023940
  93 H :    0.004598
  94 H :    0.175474
  95 H :    0.011289
  96 H :   -0.003571
Sum of atomic charges:   -0.0000000

LOEWDIN ATOMIC CHARGES
----------------------
   0 C :    0.083032
   1 C :   -0.146229
   2 C :   -0.020786
   3 N :   -0.053689
   4 C :   -0.009291
   5 N :   -0.061412
   6 C :   -0.023698
   7 C :   -0.050194
   8 C :    0.022604
   9 C :   -0.030356
  10 C :   -0.143585
  11 C :   -0.008225
  12 S :    0.434630
  13 C :   -0.269710
  14 C :   -0.070259
  15 Br:    0.139913
  16 C :    0.080090
  17 O :   -0.132128
  18 C :   -0.100098
  19 C :    0.094562
  20 C :   -0.068486
  21 C :   -0.131080
  22 S :    0.428912
  23 C :   -0.179835
  24 C :   -0.029108
  25 C :   -0.012572
  26 C :   -0.027775
  27 C :   -0.050251
  28 C :   -0.015607
  29 C :   -0.035071
  30 C :   -0.066374
  31 C :   -0.041105
  32 C :   -0.062460
  33 C :   -0.168741
  34 S :    0.412505
  35 C :   -0.177513
  36 C :   -0.008131
  37 C :   -0.034646
  38 C :   -0.041892
  39 C :   -0.151262
  40 C :   -0.026419
  41 C :   -0.037271
  42 C :   -0.168130
  43 S :    0.402416
  44 C :   -0.193287
  45 C :   -0.026640
  46 C :   -0.043896
  47 C :   -0.137269
  48 S :    0.407060
  49 C :   -0.099984
  50 C :   -0.180481
  51 S :    0.459226
  52 C :   -0.198242
  53 C :   -0.071994
  54 C :    0.011165
  55 O :    0.007176
  56 C :    0.032042
  57 N :    0.289197
  58 O :   -0.209645
  59 O :   -0.183341
  60 C :   -0.001264
  61 C :   -0.161256
  62 S :    0.421743
  63 C :   -0.242590
  64 C :    0.062144
  65 O :   -0.165010
  66 O :   -0.038459
  67 C :   -0.001997
  68 C :   -0.067025
  69 H :    0.041505
  70 H :    0.041285
  71 H :    0.039389
  72 H :    0.038077
  73 H :    0.024860
  74 H :    0.023904
  75 H :    0.031100
  76 H :    0.023536
  77 H :    0.022239
  78 H :    0.023128
  79 H :    0.026532
  80 H :    0.028497
  81 H :    0.022396
  82 H :    0.020016
  83 H :    0.021793
  84 H :    0.022227
  85 H :    0.029034
  86 H :    0.028691
  87 H :    0.032174
  88 H :    0.033494
  89 H :    0.031611
  90 H :    0.031861
  91 H :    0.031577
  92 H :    0.033250
  93 H :    0.035666
  94 H :    0.075843
  95 H :    0.044148
  96 H :    0.029518

  Mayer bond orders larger than 0.100000
B(  0-C ,  1-C ) :   1.6357 B(  0-C ,  6-C ) :   1.0125 B(  0-C , 18-C ) :   1.0319
B(  1-C ,  2-C ) :   1.1335 B(  1-C ,  4-C ) :   1.1631 B(  2-C ,  3-N ) :   2.9763
B(  4-C ,  5-N ) :   2.9095 B(  6-C ,  7-C ) :   1.2675 B(  6-C , 11-C ) :   1.3987
B(  7-C ,  8-C ) :   1.4230 B(  7-C , 16-C ) :   0.9407 B(  8-C ,  9-C ) :   1.2484
B(  8-C , 69-H ) :   1.0170 B(  9-C , 10-C ) :   1.3002 B(  9-C , 14-C ) :   1.1623
B( 10-C , 11-C ) :   1.3385 B( 10-C , 12-S ) :   1.0849 B( 11-C , 70-H ) :   0.9800
B( 12-S , 13-C ) :   1.0878 B( 13-C , 14-C ) :   1.6168 B( 13-C , 15-Br) :   1.0212
B( 14-C , 71-H ) :   1.0009 B( 16-C , 17-O ) :   2.2284 B( 16-C , 18-C ) :   0.9137
B( 18-C , 19-C ) :   1.6865 B( 19-C , 20-C ) :   1.0149 B( 19-C , 72-H ) :   0.9206
B( 20-C , 21-C ) :   1.5943 B( 20-C , 24-C ) :   1.1520 B( 21-C , 22-S ) :   1.1449
B( 21-C , 73-H ) :   0.9612 B( 22-S , 23-C ) :   1.0649 B( 23-C , 24-C ) :   1.3773
B( 23-C , 35-C ) :   1.3774 B( 24-C , 25-C ) :   1.2732 B( 25-C , 26-C ) :   1.0842
B( 25-C , 28-C ) :   1.4907 B( 26-C , 27-C ) :   1.1070 B( 26-C , 74-H ) :   0.9003
B( 26-C , 75-H ) :   0.8991 B( 27-C , 76-H ) :   0.9660 B( 27-C , 77-H ) :   0.9652
B( 27-C , 78-H ) :   0.9578 B( 28-C , 29-C ) :   1.0722 B( 28-C , 31-C ) :   1.2894
B( 29-C , 30-C ) :   1.0725 B( 29-C , 79-H ) :   0.9226 B( 29-C , 80-H ) :   0.9215
B( 30-C , 81-H ) :   0.9727 B( 30-C , 82-H ) :   0.9610 B( 30-C , 83-H ) :   0.9521
B( 31-C , 32-C ) :   1.1255 B( 31-C , 35-C ) :   1.3789 B( 32-C , 33-C ) :   1.5889
B( 32-C , 36-C ) :   1.0475 B( 33-C , 34-S ) :   1.1217 B( 33-C , 84-H ) :   0.9680
B( 34-S , 35-C ) :   1.0701 B( 36-C , 37-C ) :   1.6972 B( 36-C , 85-H ) :   0.9711
B( 37-C , 38-C ) :   1.1480 B( 37-C , 86-H ) :   0.9567 B( 38-C , 39-C ) :   1.5726
B( 38-C , 87-H ) :   0.9860 B( 39-C , 40-C ) :   1.1398 B( 39-C , 43-S ) :   1.0300
B( 40-C , 41-C ) :   1.5835 B( 40-C , 88-H ) :   0.9989 B( 41-C , 42-C ) :   1.1941
B( 41-C , 89-H ) :   0.9959 B( 42-C , 43-S ) :   1.0694 B( 42-C , 44-C ) :   1.4745
B( 44-C , 45-C ) :   1.2043 B( 44-C , 48-S ) :   1.0355 B( 45-C , 46-C ) :   1.5665
B( 45-C , 90-H ) :   0.9950 B( 46-C , 47-C ) :   1.1634 B( 46-C , 91-H ) :   0.9999
B( 47-C , 48-S ) :   1.0657 B( 47-C , 49-C ) :   1.5460 B( 49-C , 50-C ) :   1.1932
B( 49-C , 92-H ) :   0.9429 B( 50-C , 51-S ) :   1.1079 B( 50-C , 52-C ) :   0.1052
B( 50-C , 54-C ) :   1.3886 B( 51-S , 52-C ) :   1.1185 B( 52-C , 53-C ) :   1.3553
B( 52-C , 61-C ) :   1.2166 B( 53-C , 54-C ) :   1.2521 B( 53-C , 60-C ) :   1.1125
B( 54-C , 55-O ) :   1.0938 B( 55-O , 56-C ) :   1.1289 B( 56-C , 57-N ) :   0.9341
B( 56-C , 60-C ) :   1.5467 B( 57-N , 58-O ) :   1.4798 B( 57-N , 59-O ) :   1.4775
B( 58-O , 59-O ) :   0.2604 B( 60-C , 93-H ) :   1.0106 B( 61-C , 62-S ) :   1.1496
B( 61-C , 68-C ) :   1.4458 B( 62-S , 63-C ) :   1.0730 B( 63-C , 64-C ) :   0.9505
B( 63-C , 67-C ) :   1.5311 B( 64-C , 65-O ) :   2.1967 B( 64-C , 66-O ) :   1.2289
B( 66-O , 94-H ) :   0.9532 B( 67-C , 68-C ) :   1.2760 B( 67-C , 95-H ) :   1.0017
B( 68-C , 96-H ) :   0.9963

-----------------------------------------------------------------------------
         ABSORPTION SPECTRUM VIA TRANSITION ELECTRIC DIPOLE MOMENTS
-----------------------------------------------------------------------------
State   Energy  Wavelength   fosc         T2         TX        TY        TZ
        (cm-1)    (nm)                  (au**2)     (au)      (au)      (au)
-----------------------------------------------------------------------------
   0    9575.1   1044.4   0.434888238  14.95243   1.80530  -3.03696  -1.57168
   1   13914.9    718.7   0.159447314   3.77235  -0.26912   1.62188   1.03414
   2   14458.9    691.6   0.366001197   8.33340  -0.33400   2.53661   1.33696
   3   19938.9    501.5   0.216991812   3.58276   1.73549  -0.74214  -0.14159
   4   20553.6    486.5   0.236595101   3.78960   0.69383  -1.78284   0.36011
   5   21709.2    460.6   0.008438498   0.12797   0.27410  -0.22973   0.00777
   6   22031.4    453.9   0.029436887   0.43987  -0.62953  -0.16794   0.12394
   7   22522.1    444.0   0.015147367   0.22141  -0.37112  -0.26808  -0.10871
   8   22797.0    438.7   0.195440457   2.82236  -1.65636   0.22789  -0.16401
   9   24257.8    412.2   0.176230710   2.39169   1.36247   0.49613   0.53779
  10   24869.1    402.1   0.566187176   7.49508  -2.73433   0.09826  -0.09418
  11   25652.0    389.8   0.011040456   0.14169   0.08435  -0.29911   0.21239
  12   26614.4    375.7   0.014242577   0.17618  -0.36168  -0.21124   0.02726
  13   26865.9    372.2   0.005931768   0.07269   0.04598   0.03736   0.26302
  14   28227.6    354.3   0.134657334   1.57048  -1.14725  -0.29792  -0.40686
  15   28646.5    349.1   0.495403570   5.69330  -1.96615  -0.10300  -1.34793
  16   28673.7    348.8   0.032836073   0.37700  -0.15209  -0.59146  -0.06357
  17   29238.1    342.0   0.006195943   0.06976  -0.20796   0.09701  -0.13079
  18   29876.6    334.7   0.142572278   1.57101  -0.18206  -1.07142  -0.62445
  19   30334.9    329.7   0.004200795   0.04559  -0.12536   0.13527  -0.10759
  20   30721.0    325.5   0.066270225   0.71016   0.54499   0.48454   0.42234
  21   30794.8    324.7   0.024463619   0.26153  -0.05531   0.42875  -0.27321
  22   31620.6    316.2   0.179481879   1.86864  -1.12198  -0.13931  -0.76838
  23   32017.2    312.3   0.237926550   2.44644  -0.81738  -1.12303  -0.71911
  24   32247.0    310.1   0.034284975   0.35002  -0.35088  -0.32868  -0.34478
  25   32389.4    308.7   0.270229460   2.74666  -0.75266   1.39898  -0.47225
  26   32813.8    304.8   0.193503524   1.94137   0.53183   1.13094   0.61605
  27   32894.2    304.0   0.010126960   0.10135   0.11735   0.22656   0.19041
  28   33799.1    295.9   0.005278695   0.05142   0.12500   0.15236   0.11215
  29   33895.9    295.0   0.046794482   0.45449  -0.53232  -0.35784  -0.20755
  30   34064.6    293.6   0.026600281   0.25707   0.19766   0.33701   0.32316
  31   34233.9    292.1   0.013472017   0.12955  -0.05725  -0.27367  -0.22668
  32   34459.0    290.2   0.006245704   0.05967   0.12131   0.17577   0.11857
  33   34474.5    290.1   0.415010462   3.96312   1.56421   0.32020   1.18905
  34   35048.8    285.3   0.014545696   0.13663   0.02873   0.35481   0.09957
  35   35132.6    284.6   0.019771946   0.18527  -0.29352   0.30681  -0.07062
  36   35230.3    283.8   0.029706639   0.27760  -0.40403  -0.15789  -0.29904
  37   35873.5    278.8   0.049066503   0.45028   0.04059  -0.63387  -0.21643
  38   36033.6    277.5   0.018722112   0.17105   0.32919   0.14306  -0.20548
  39   36319.7    275.3   0.009690693   0.08784   0.13802   0.24583  -0.09141
  40   36597.4    273.2   0.029849396   0.26851  -0.39516   0.33102  -0.05283
  41   36710.8    272.4   0.009888128   0.08867   0.06311  -0.27063  -0.10701
  42   36846.1    271.4   0.081618248   0.72924   0.56673  -0.63715  -0.04582
  43   36991.6    270.3   0.151201206   1.34564  -1.04284   0.03210  -0.50704
  44   37271.6    268.3   0.031541827   0.27860   0.07954  -0.44785   0.26779
  45   37417.1    267.3   0.107620641   0.94689  -0.41737   0.87902   0.00326
  46   37582.9    266.1   0.058839446   0.51541  -0.06578   0.65423  -0.28822
  47   37810.4    264.5   0.026728078   0.23272  -0.27423  -0.38194  -0.10789
  48   37934.5    263.6   0.177017582   1.53623   0.17843  -0.88548  -0.84872
  49   38350.6    260.8   0.020355380   0.17474  -0.26601  -0.23444   0.22139
  50   38586.0    259.2   0.055843111   0.47645   0.64035   0.17531   0.18886
  51   38717.7    258.3   0.090534028   0.76980  -0.70694   0.50185  -0.13482
  52   38971.0    256.6   0.032525220   0.27476  -0.49612  -0.14298  -0.09048
  53   39163.7    255.3   0.013323222   0.11200   0.00352  -0.33420  -0.01710
  54   39654.3    252.2   0.169562661   1.40772   0.94573  -0.70419  -0.13200
  55   39800.8    251.3   0.086012110   0.71145  -0.40618   0.73782  -0.04566
  56   39965.0    250.2   0.086183580   0.70994   0.33955  -0.76704   0.07931
  57   40307.6    248.1   0.011530741   0.09418  -0.10434   0.28852   0.00684

FINAL SINGLE POINT ENERGY     -7970.977058385341

DIPOLE MOMENT
-------------
                                X             Y             Z
Electronic contribution:    140.11652     -56.95621      47.86998
Nuclear contribution   :   -142.16865      58.68249     -46.89822
                        -----------------------------------------
Total Dipole Moment    :     -2.05212       1.72628       0.97176
                        -----------------------------------------
Magnitude (a.u.)       :      2.85229
Magnitude (Debye)      :      7.24995

Rotational constants in cm-1:     0.000927     0.000484     0.000349
Rotational constants in MHz :    27.798086    14.512558    10.452760

                             ****ORCA TERMINATED NORMALLY****
TOTAL RUN TIME: 0 days 0 hours 11 minutes 17 seconds 32 msec
