                         Program Version 4.2.0 -  RELEASE  -
|  1> # ORCA input file
|  2> # SCF done       -209.935126276478          0.000521259753
|  3> ! CAM-B3LYP def2-SVP def2/J RIJCOSX Grid4 TightSCF
|  4> %maxcore 5000
|  5> %tddft
|  6>     Mode sTDDFT
|  7>     Ethresh 5.0
|  8>     maxcore 5000
|  9> end
| 10>
| 11> %pal
| 12>   nprocs 6
| 13>   end
| 14> * xyz 0 1
| 15>    C       -7.80874        -1.31398        -1.73516
| 16>    C       -6.88841        -2.20557        -2.21483
| 17>    C       -7.17204        -3.55469        -2.51678
| 18>    N       -7.34334        -4.65759        -2.78338
| 19>    C       -5.53948        -1.89635        -2.49006
| 20>    N       -4.43126        -1.71178        -2.72609
| 21>    C       -9.20044        -1.60564        -1.41820
| 22>    C       -9.84464        -0.41271        -1.00229
| 23>    C      -11.15706        -0.37818        -0.59969
| 24>    C      -11.87183        -1.58015        -0.60611
| 25>    C      -11.22600        -2.76576        -1.03487
| 26>    C       -9.89915        -2.80036        -1.44216
| 27>    S      -12.29399        -4.13487        -0.96743
| 28>    C      -13.57330        -3.11216        -0.36953
| 29>    C      -13.22197        -1.81162        -0.22800
| 30>   Br      -15.25168        -3.85694         0.00824
| 31>    C       -8.88960         0.70729        -1.07292
| 32>    O       -9.13734         1.88800        -1.00254
| 33>    C       -7.57376         0.08733        -1.41064
| 34>    C       -6.41843         0.78625        -1.42024
| 35>    C       -6.33828         2.13860        -0.88453
| 36>    C       -5.97938         3.19582        -1.72878
| 37>    C       -5.99805         4.50642        -1.30038
| 38>    C       -6.34753         4.81918         0.01021
| 39>    C       -6.64183         3.78952         0.87250
| 40>    C       -6.63306         2.45461         0.44284
| 41>    N       -6.84755         1.61897         1.52634
| 42>    C       -6.82296         0.18483         1.55191
| 43>    C       -7.03053         2.33479         2.68430
| 44>    O       -7.17335         1.85236         3.77978
| 45>    C       -7.00495         3.81492         2.32464
| 46>    C       -8.40833         4.40792         2.57691
| 47>    C       -9.41867         3.73852         1.63887
| 48>    O       -9.72603         2.56987         1.62067
| 49>    N       -9.91561         4.70338         0.81089
| 50>    C      -10.83685         4.43537        -0.25863
| 51>    C       -9.39461         5.95223         1.11130
| 52>    C       -9.64955         7.16456         0.50893
| 53>    C       -9.00792         8.31295         1.00085
| 54>    C       -8.12460         8.19178         2.08085
| 55>    C       -7.86732         6.96639         2.67322
| 56>    C       -8.50524         5.84560         2.18874
| 57>    C       -9.27505         9.57626         0.35563
| 58>    C       -8.92158        10.79419         0.82396
| 59>    C       -9.16353        12.01097         0.11923
| 60>    C       -8.84221        13.26474         0.60713
| 61>    O       -8.99549        14.41135        -0.15305
| 62>    C       -9.54082        14.23680        -1.38661
| 63>    C       -9.91307        12.94942        -1.86913
| 64>    C      -10.44975        12.98802        -3.11454
| 65>    S      -10.50704        14.60122        -3.71890
| 66>    C       -9.80069        15.22723        -2.27514
| 67>    O       -9.72236        11.82345        -1.12923
| 68>    C       -8.35188        13.51591         1.91042
| 69>    C       -7.95181        14.75261         2.34257
| 70>    C       -7.53351        15.00834         3.65089
| 71>    C       -7.07453        16.22600         4.10048
| 72>    C       -6.69191        16.55482         5.42087
| 73>    C       -6.26515        17.84019         5.57790
| 74>    C       -6.27139        18.59281         4.38370
| 75>    S       -6.86573        17.62145         3.05625
| 76>    C       -5.85539        19.89892         4.20303
| 77>    C       -5.37864        20.80174         5.17886
| 78>    C       -5.01467        22.01356         4.67785
| 79>    C       -5.17324        22.13522         3.27327
| 80>    S       -5.83599        20.64892         2.61885
| 81>    C       -4.84147        23.23041         2.52089
| 82>    C       -4.94324        23.36990         1.12632
| 83>    S       -5.56428        22.15293         0.02237
| 84>    C       -5.30276        23.11058        -1.38097
| 85>    C       -4.75925        24.32814        -1.04306
| 86>    C       -4.56441        24.46315         0.36454
| 87>    O       -4.02454        25.66256         0.66590
| 88>    C       -3.87179        26.29351        -0.53004
| 89>    N       -3.31311        27.59236        -0.51972
| 90>    O       -3.17771        28.13237        -1.60252
| 91>    O       -3.01032        28.07462         0.55064
| 92>    C       -4.29303        25.55018        -1.60053
| 93>    H      -11.60878         0.54329        -0.26877
| 94>    H       -9.45083        -3.72934        -1.75260
| 95>    H      -13.88561        -1.04589         0.12983
| 96>    H       -5.51690         0.37540        -1.85607
| 97>    H       -5.72712         2.96794        -2.75370
| 98>    H       -5.74389         5.29698        -1.98919
| 99>    H       -6.37031         5.84495         0.34476
|100>    H       -5.97171        -0.19491         0.98381
|101>    H       -7.74884        -0.23316         1.14847
|102>    H       -6.73397        -0.11075         2.59841
|103>    H       -6.27925         4.35072         2.94192
|104>    H       -8.67543         4.21523         3.62034
|105>    H      -10.90222         3.35448        -0.36384
|106>    H      -10.46007         4.85845        -1.19031
|107>    H      -11.82251         4.85226        -0.03815
|108>    H      -10.33387         7.24525        -0.32123
|109>    H       -7.61352         9.06523         2.45224
|110>    H       -7.17610         6.89392         3.49963
|111>    H       -9.81540         9.52409        -0.57935
|112>    H       -8.41439        10.88245         1.76888
|113>    H      -10.80942        12.17132        -3.70440
|114>    H       -9.62009        16.27579        -2.16570
|115>    H       -8.31365        12.69072         2.60246
|116>    H       -7.95853        15.57861         1.64481
|117>    H       -7.57600        14.20210         4.37229
|118>    H       -6.74742        15.83187         6.21572
|119>    H       -5.93847        18.25912         6.51254
|120>    H       -5.31872        20.53508         6.21864
|121>    H       -4.62799        22.82657         5.26624
|122>    H       -4.43690        24.09019         3.03881
|123>    H       -5.55866        22.72635        -2.34605
|124>    H       -4.26336        25.85212        -2.62673
|125> *
|126>
|127>                          ****END OF INPUT****

CARTESIAN COORDINATES (ANGSTROEM)
---------------------------------
  C     -7.808740   -1.313980   -1.735160
  C     -6.888410   -2.205570   -2.214830
  C     -7.172040   -3.554690   -2.516780
  N     -7.343340   -4.657590   -2.783380
  C     -5.539480   -1.896350   -2.490060
  N     -4.431260   -1.711780   -2.726090
  C     -9.200440   -1.605640   -1.418200
  C     -9.844640   -0.412710   -1.002290
  C    -11.157060   -0.378180   -0.599690
  C    -11.871830   -1.580150   -0.606110
  C    -11.226000   -2.765760   -1.034870
  C     -9.899150   -2.800360   -1.442160
  S    -12.293990   -4.134870   -0.967430
  C    -13.573300   -3.112160   -0.369530
  C    -13.221970   -1.811620   -0.228000
  Br   -15.251680   -3.856940    0.008240
  C     -8.889600    0.707290   -1.072920
  O     -9.137340    1.888000   -1.002540
  C     -7.573760    0.087330   -1.410640
  C     -6.418430    0.786250   -1.420240
  C     -6.338280    2.138600   -0.884530
  C     -5.979380    3.195820   -1.728780
  C     -5.998050    4.506420   -1.300380
  C     -6.347530    4.819180    0.010210
  C     -6.641830    3.789520    0.872500
  C     -6.633060    2.454610    0.442840
  N     -6.847550    1.618970    1.526340
  C     -6.822960    0.184830    1.551910
  C     -7.030530    2.334790    2.684300
  O     -7.173350    1.852360    3.779780
  C     -7.004950    3.814920    2.324640
  C     -8.408330    4.407920    2.576910
  C     -9.418670    3.738520    1.638870
  O     -9.726030    2.569870    1.620670
  N     -9.915610    4.703380    0.810890
  C    -10.836850    4.435370   -0.258630
  C     -9.394610    5.952230    1.111300
  C     -9.649550    7.164560    0.508930
  C     -9.007920    8.312950    1.000850
  C     -8.124600    8.191780    2.080850
  C     -7.867320    6.966390    2.673220
  C     -8.505240    5.845600    2.188740
  C     -9.275050    9.576260    0.355630
  C     -8.921580   10.794190    0.823960
  C     -9.163530   12.010970    0.119230
  C     -8.842210   13.264740    0.607130
  O     -8.995490   14.411350   -0.153050
  C     -9.540820   14.236800   -1.386610
  C     -9.913070   12.949420   -1.869130
  C    -10.449750   12.988020   -3.114540
  S    -10.507040   14.601220   -3.718900
  C     -9.800690   15.227230   -2.275140
  O     -9.722360   11.823450   -1.129230
  C     -8.351880   13.515910    1.910420
  C     -7.951810   14.752610    2.342570
  C     -7.533510   15.008340    3.650890
  C     -7.074530   16.226000    4.100480
  C     -6.691910   16.554820    5.420870
  C     -6.265150   17.840190    5.577900
  C     -6.271390   18.592810    4.383700
  S     -6.865730   17.621450    3.056250
  C     -5.855390   19.898920    4.203030
  C     -5.378640   20.801740    5.178860
  C     -5.014670   22.013560    4.677850
  C     -5.173240   22.135220    3.273270
  S     -5.835990   20.648920    2.618850
  C     -4.841470   23.230410    2.520890
  C     -4.943240   23.369900    1.126320
  S     -5.564280   22.152930    0.022370
  C     -5.302760   23.110580   -1.380970
  C     -4.759250   24.328140   -1.043060
  C     -4.564410   24.463150    0.364540
  O     -4.024540   25.662560    0.665900
  C     -3.871790   26.293510   -0.530040
  N     -3.313110   27.592360   -0.519720
  O     -3.177710   28.132370   -1.602520
  O     -3.010320   28.074620    0.550640
  C     -4.293030   25.550180   -1.600530
  H    -11.608780    0.543290   -0.268770
  H     -9.450830   -3.729340   -1.752600
  H    -13.885610   -1.045890    0.129830
  H     -5.516900    0.375400   -1.856070
  H     -5.727120    2.967940   -2.753700
  H     -5.743890    5.296980   -1.989190
  H     -6.370310    5.844950    0.344760
  H     -5.971710   -0.194910    0.983810
  H     -7.748840   -0.233160    1.148470
  H     -6.733970   -0.110750    2.598410
  H     -6.279250    4.350720    2.941920
  H     -8.675430    4.215230    3.620340
  H    -10.902220    3.354480   -0.363840
  H    -10.460070    4.858450   -1.190310
  H    -11.822510    4.852260   -0.038150
  H    -10.333870    7.245250   -0.321230
  H     -7.613520    9.065230    2.452240
  H     -7.176100    6.893920    3.499630
  H     -9.815400    9.524090   -0.579350
  H     -8.414390   10.882450    1.768880
  H    -10.809420   12.171320   -3.704400
  H     -9.620090   16.275790   -2.165700
  H     -8.313650   12.690720    2.602460
  H     -7.958530   15.578610    1.644810
  H     -7.576000   14.202100    4.372290
  H     -6.747420   15.831870    6.215720
  H     -5.938470   18.259120    6.512540
  H     -5.318720   20.535080    6.218640
  H     -4.627990   22.826570    5.266240
  H     -4.436900   24.090190    3.038810
  H     -5.558660   22.726350   -2.346050
  H     -4.263360   25.852120   -2.626730

 Total Charge           Charge          ....    0
 Multiplicity           Mult            ....    1
 Number of Electrons    NEL             ....  600
 Basis Dimension        Dim             .... 1290

ORBITAL ENERGIES
----------------

  NO   OCC          E(Eh)            E(eV)
   0   2.0000    -482.888431    -13140.0622
   1   2.0000     -88.979007     -2421.2419
   2   2.0000     -88.974530     -2421.1200
   3   2.0000     -88.957639     -2420.6604
   4   2.0000     -88.949402     -2420.4363
   5   2.0000     -88.946451     -2420.3560
   6   2.0000     -62.566151     -1702.5115
   7   2.0000     -56.400103     -1534.7248
   8   2.0000     -56.397380     -1534.6507
   9   2.0000     -56.397352     -1534.6500
  10   2.0000     -19.307856      -525.3935
  11   2.0000     -19.275796      -524.5211
  12   2.0000     -19.273595      -524.4612
  13   2.0000     -19.242192      -523.6067
  14   2.0000     -19.239816      -523.5420
  15   2.0000     -19.221097      -523.0326
  16   2.0000     -19.188893      -522.1563
  17   2.0000     -19.188176      -522.1368
  18   2.0000     -14.653674      -398.7467
  19   2.0000     -14.451537      -393.2463
  20   2.0000     -14.450373      -393.2146
  21   2.0000     -14.422099      -392.4453
  22   2.0000     -14.421116      -392.4185
  23   2.0000     -10.385460      -282.6027
  24   2.0000     -10.371436      -282.2211
  25   2.0000     -10.370571      -282.1976
  26   2.0000     -10.370435      -282.1939
  27   2.0000     -10.362529      -281.9787
  28   2.0000     -10.349619      -281.6275
  29   2.0000     -10.347833      -281.5789
  30   2.0000     -10.347208      -281.5619
  31   2.0000     -10.346487      -281.5422
  32   2.0000     -10.344183      -281.4795
  33   2.0000     -10.340825      -281.3881
  34   2.0000     -10.340311      -281.3742
  35   2.0000     -10.329815      -281.0886
  36   2.0000     -10.324231      -280.9366
  37   2.0000     -10.323404      -280.9141
  38   2.0000     -10.321128      -280.8522
  39   2.0000     -10.318534      -280.7816
  40   2.0000     -10.316486      -280.7258
  41   2.0000     -10.315541      -280.7001
  42   2.0000     -10.313929      -280.6563
  43   2.0000     -10.313482      -280.6441
  44   2.0000     -10.312253      -280.6107
  45   2.0000     -10.311682      -280.5951
  46   2.0000     -10.311095      -280.5792
  47   2.0000     -10.310981      -280.5761
  48   2.0000     -10.310384      -280.5598
  49   2.0000     -10.310207      -280.5550
  50   2.0000     -10.309025      -280.5228
  51   2.0000     -10.304181      -280.3910
  52   2.0000     -10.303132      -280.3625
  53   2.0000     -10.302101      -280.3344
  54   2.0000     -10.299663      -280.2681
  55   2.0000     -10.298376      -280.2331
  56   2.0000     -10.296661      -280.1864
  57   2.0000     -10.296415      -280.1797
  58   2.0000     -10.295847      -280.1642
  59   2.0000     -10.294608      -280.1305
  60   2.0000     -10.294450      -280.1262
  61   2.0000     -10.293739      -280.1069
  62   2.0000     -10.290842      -280.0281
  63   2.0000     -10.290514      -280.0191
  64   2.0000     -10.288968      -279.9770
  65   2.0000     -10.288962      -279.9769
  66   2.0000     -10.287843      -279.9464
  67   2.0000     -10.286552      -279.9113
  68   2.0000     -10.286462      -279.9089
  69   2.0000     -10.283934      -279.8401
  70   2.0000     -10.283297      -279.8227
  71   2.0000     -10.281545      -279.7751
  72   2.0000     -10.281525      -279.7745
  73   2.0000     -10.279063      -279.7075
  74   2.0000     -10.278905      -279.7032
  75   2.0000     -10.278177      -279.6834
  76   2.0000     -10.277904      -279.6760
  77   2.0000     -10.277731      -279.6713
  78   2.0000     -10.277210      -279.6571
  79   2.0000     -10.276586      -279.6401
  80   2.0000     -10.272135      -279.5190
  81   2.0000     -10.268479      -279.4195
  82   2.0000      -8.795592      -239.3402
  83   2.0000      -8.074981      -219.7314
  84   2.0000      -8.069101      -219.5714
  85   2.0000      -8.053437      -219.1452
  86   2.0000      -8.045552      -218.9306
  87   2.0000      -8.042865      -218.8575
  88   2.0000      -6.631902      -180.4632
  89   2.0000      -6.617340      -180.0670
  90   2.0000      -6.617104      -180.0606
  91   2.0000      -6.044701      -164.4847
  92   2.0000      -6.040381      -164.3671
  93   2.0000      -6.038444      -164.3144
  94   2.0000      -6.036185      -164.2529
  95   2.0000      -6.034017      -164.1940
  96   2.0000      -6.031508      -164.1257
  97   2.0000      -6.022955      -163.8929
  98   2.0000      -6.018796      -163.7798
  99   2.0000      -6.015350      -163.6860
 100   2.0000      -6.015089      -163.6789
 101   2.0000      -6.012551      -163.6098
 102   2.0000      -6.011226      -163.5738
 103   2.0000      -6.008615      -163.5027
 104   2.0000      -6.006419      -163.4430
 105   2.0000      -6.003744      -163.3702
 106   2.0000      -2.747781       -74.7709
 107   2.0000      -2.743669       -74.6590
 108   2.0000      -2.743532       -74.6553
 109   2.0000      -2.731930       -74.3396
 110   2.0000      -2.731926       -74.3395
 111   2.0000      -1.324888       -36.0520
 112   2.0000      -1.227683       -33.4069
 113   2.0000      -1.201012       -32.6812
 114   2.0000      -1.164206       -31.6797
 115   2.0000      -1.141067       -31.0500
 116   2.0000      -1.138555       -30.9816
 117   2.0000      -1.134440       -30.8697
 118   2.0000      -1.128360       -30.7042
 119   2.0000      -1.057435       -28.7743
 120   2.0000      -1.057179       -28.7673
 121   2.0000      -1.027495       -27.9596
 122   2.0000      -1.018280       -27.7088
 123   2.0000      -1.000417       -27.2227
 124   2.0000      -1.000091       -27.2139
 125   2.0000      -0.994325       -27.0570
 126   2.0000      -0.992977       -27.0203
 127   2.0000      -0.986610       -26.8470
 128   2.0000      -0.974888       -26.5281
 129   2.0000      -0.958989       -26.0954
 130   2.0000      -0.954836       -25.9824
 131   2.0000      -0.946161       -25.7463
 132   2.0000      -0.934051       -25.4168
 133   2.0000      -0.931167       -25.3383
 134   2.0000      -0.923891       -25.1404
 135   2.0000      -0.913255       -24.8509
 136   2.0000      -0.908021       -24.7085
 137   2.0000      -0.902081       -24.5469
 138   2.0000      -0.896107       -24.3843
 139   2.0000      -0.889996       -24.2180
 140   2.0000      -0.883806       -24.0496
 141   2.0000      -0.877447       -23.8766
 142   2.0000      -0.868481       -23.6326
 143   2.0000      -0.863422       -23.4949
 144   2.0000      -0.851771       -23.1779
 145   2.0000      -0.844531       -22.9809
 146   2.0000      -0.840447       -22.8697
 147   2.0000      -0.834495       -22.7078
 148   2.0000      -0.833781       -22.6883
 149   2.0000      -0.828706       -22.5502
 150   2.0000      -0.826941       -22.5022
 151   2.0000      -0.816710       -22.2238
 152   2.0000      -0.813679       -22.1413
 153   2.0000      -0.809365       -22.0239
 154   2.0000      -0.797114       -21.6906
 155   2.0000      -0.794475       -21.6188
 156   2.0000      -0.784388       -21.3443
 157   2.0000      -0.774087       -21.0640
 158   2.0000      -0.772060       -21.0088
 159   2.0000      -0.761943       -20.7335
 160   2.0000      -0.755415       -20.5559
 161   2.0000      -0.743329       -20.2270
 162   2.0000      -0.721845       -19.6424
 163   2.0000      -0.716224       -19.4894
 164   2.0000      -0.711650       -19.3650
 165   2.0000      -0.705943       -19.2097
 166   2.0000      -0.701155       -19.0794
 167   2.0000      -0.700712       -19.0674
 168   2.0000      -0.695364       -18.9218
 169   2.0000      -0.689292       -18.7566
 170   2.0000      -0.687654       -18.7120
 171   2.0000      -0.684595       -18.6288
 172   2.0000      -0.677758       -18.4427
 173   2.0000      -0.673005       -18.3134
 174   2.0000      -0.670436       -18.2435
 175   2.0000      -0.665797       -18.1173
 176   2.0000      -0.659078       -17.9344
 177   2.0000      -0.653050       -17.7704
 178   2.0000      -0.649696       -17.6791
 179   2.0000      -0.644345       -17.5335
 180   2.0000      -0.638788       -17.3823
 181   2.0000      -0.635029       -17.2800
 182   2.0000      -0.629124       -17.1193
 183   2.0000      -0.626312       -17.0428
 184   2.0000      -0.625632       -17.0243
 185   2.0000      -0.620475       -16.8840
 186   2.0000      -0.616069       -16.7641
 187   2.0000      -0.610295       -16.6070
 188   2.0000      -0.604957       -16.4617
 189   2.0000      -0.600510       -16.3407
 190   2.0000      -0.599230       -16.3059
 191   2.0000      -0.595655       -16.2086
 192   2.0000      -0.592664       -16.1272
 193   2.0000      -0.589607       -16.0440
 194   2.0000      -0.588430       -16.0120
 195   2.0000      -0.583195       -15.8695
 196   2.0000      -0.580256       -15.7896
 197   2.0000      -0.575018       -15.6470
 198   2.0000      -0.571924       -15.5628
 199   2.0000      -0.567357       -15.4386
 200   2.0000      -0.564544       -15.3620
 201   2.0000      -0.563126       -15.3234
 202   2.0000      -0.557097       -15.1594
 203   2.0000      -0.555508       -15.1162
 204   2.0000      -0.551319       -15.0021
 205   2.0000      -0.550905       -14.9909
 206   2.0000      -0.549774       -14.9601
 207   2.0000      -0.547444       -14.8967
 208   2.0000      -0.543083       -14.7780
 209   2.0000      -0.539781       -14.6882
 210   2.0000      -0.534388       -14.5414
 211   2.0000      -0.532785       -14.4978
 212   2.0000      -0.530797       -14.4437
 213   2.0000      -0.529378       -14.4051
 214   2.0000      -0.526192       -14.3184
 215   2.0000      -0.525553       -14.3010
 216   2.0000      -0.520839       -14.1728
 217   2.0000      -0.517560       -14.0835
 218   2.0000      -0.516651       -14.0588
 219   2.0000      -0.515599       -14.0302
 220   2.0000      -0.512202       -13.9377
 221   2.0000      -0.510945       -13.9035
 222   2.0000      -0.504992       -13.7415
 223   2.0000      -0.504767       -13.7354
 224   2.0000      -0.501977       -13.6595
 225   2.0000      -0.501395       -13.6436
 226   2.0000      -0.500297       -13.6138
 227   2.0000      -0.499790       -13.6000
 228   2.0000      -0.497126       -13.5275
 229   2.0000      -0.495211       -13.4754
 230   2.0000      -0.493562       -13.4305
 231   2.0000      -0.492390       -13.3986
 232   2.0000      -0.484466       -13.1830
 233   2.0000      -0.481399       -13.0995
 234   2.0000      -0.480559       -13.0767
 235   2.0000      -0.479062       -13.0359
 236   2.0000      -0.478440       -13.0190
 237   2.0000      -0.476213       -12.9584
 238   2.0000      -0.473581       -12.8868
 239   2.0000      -0.471824       -12.8390
 240   2.0000      -0.468253       -12.7418
 241   2.0000      -0.467682       -12.7263
 242   2.0000      -0.464959       -12.6522
 243   2.0000      -0.462475       -12.5846
 244   2.0000      -0.461823       -12.5669
 245   2.0000      -0.458345       -12.4722
 246   2.0000      -0.458028       -12.4636
 247   2.0000      -0.456151       -12.4125
 248   2.0000      -0.454169       -12.3586
 249   2.0000      -0.452970       -12.3259
 250   2.0000      -0.452628       -12.3166
 251   2.0000      -0.450984       -12.2719
 252   2.0000      -0.449675       -12.2363
 253   2.0000      -0.448572       -12.2063
 254   2.0000      -0.443313       -12.0632
 255   2.0000      -0.442997       -12.0546
 256   2.0000      -0.441088       -12.0026
 257   2.0000      -0.439088       -11.9482
 258   2.0000      -0.432929       -11.7806
 259   2.0000      -0.432713       -11.7747
 260   2.0000      -0.431289       -11.7360
 261   2.0000      -0.430467       -11.7136
 262   2.0000      -0.423222       -11.5165
 263   2.0000      -0.420172       -11.4335
 264   2.0000      -0.418105       -11.3772
 265   2.0000      -0.417650       -11.3648
 266   2.0000      -0.415627       -11.3098
 267   2.0000      -0.414263       -11.2727
 268   2.0000      -0.413239       -11.2448
 269   2.0000      -0.403117       -10.9694
 270   2.0000      -0.399986       -10.8842
 271   2.0000      -0.396126       -10.7791
 272   2.0000      -0.391428       -10.6513
 273   2.0000      -0.387949       -10.5566
 274   2.0000      -0.381173       -10.3723
 275   2.0000      -0.378489       -10.2992
 276   2.0000      -0.377741       -10.2789
 277   2.0000      -0.376642       -10.2489
 278   2.0000      -0.375185       -10.2093
 279   2.0000      -0.369644       -10.0585
 280   2.0000      -0.367153        -9.9907
 281   2.0000      -0.350726        -9.5437
 282   2.0000      -0.348881        -9.4935
 283   2.0000      -0.340921        -9.2769
 284   2.0000      -0.340006        -9.2520
 285   2.0000      -0.334469        -9.1014
 286   2.0000      -0.331104        -9.0098
 287   2.0000      -0.329050        -8.9539
 288   2.0000      -0.327261        -8.9052
 289   2.0000      -0.318610        -8.6698
 290   2.0000      -0.314692        -8.5632
 291   2.0000      -0.309756        -8.4289
 292   2.0000      -0.305485        -8.3127
 293   2.0000      -0.299337        -8.1454
 294   2.0000      -0.297144        -8.0857
 295   2.0000      -0.283341        -7.7101
 296   2.0000      -0.280047        -7.6205
 297   2.0000      -0.272429        -7.4132
 298   2.0000      -0.248390        -6.7590
 299   2.0000      -0.205958        -5.6044
 300   0.0000      -0.090590        -2.4651
 301   0.0000      -0.088235        -2.4010
 302   0.0000      -0.060358        -1.6424
 303   0.0000      -0.056850        -1.5470
 304   0.0000      -0.035960        -0.9785

MULLIKEN ATOMIC CHARGES
-----------------------
   0 C :    0.328266
   1 C :   -0.355042
   2 C :   -0.181211
   3 N :    0.155389
   4 C :   -0.189080
   5 N :    0.160124
   6 C :    0.016448
   7 C :   -0.001082
   8 C :   -0.059896
   9 C :    0.114749
  10 C :   -0.090345
  11 C :   -0.026661
  12 S :    0.189535
  13 C :   -0.124123
  14 C :    0.043091
  15 Br:    0.027482
  16 C :    0.148640
  17 O :   -0.128131
  18 C :   -0.106976
  19 C :   -0.076419
  20 C :   -0.012490
  21 C :   -0.001963
  22 C :    0.033042
  23 C :   -0.034922
  24 C :   -0.051583
  25 C :    0.191972
  26 N :   -0.229767
  27 C :    0.153948
  28 C :    0.132543
  29 O :   -0.190119
  30 C :    0.023254
  31 C :    0.046034
  32 C :    0.118797
  33 O :   -0.205311
  34 N :   -0.224434
  35 C :    0.129094
  36 C :    0.240431
  37 C :   -0.167703
  38 C :    0.133541
  39 C :   -0.025587
  40 C :   -0.041481
  41 C :   -0.025338
  42 C :    0.007030
  43 C :   -0.047232
  44 C :    0.174371
  45 C :    0.185028
  46 O :   -0.259123
  47 C :    0.223802
  48 C :    0.220171
  49 C :   -0.174144
  50 S :    0.107775
  51 C :   -0.177274
  52 O :   -0.256367
  53 C :   -0.080793
  54 C :    0.032043
  55 C :   -0.016988
  56 C :   -0.016362
  57 C :    0.037933
  58 C :    0.022106
  59 C :   -0.045661
  60 S :    0.078643
  61 C :   -0.037128
  62 C :    0.024235
  63 C :    0.036899
  64 C :   -0.025849
  65 S :    0.062215
  66 C :   -0.012843
  67 C :   -0.190496
  68 S :    0.140079
  69 C :   -0.133561
  70 C :    0.129124
  71 C :    0.192867
  72 O :   -0.185459
  73 C :    0.239969
  74 N :    0.271607
  75 O :   -0.251349
  76 O :   -0.230890
  77 C :   -0.076498
  78 H :   -0.008496
  79 H :   -0.004925
  80 H :   -0.001572
  81 H :    0.042324
  82 H :   -0.023721
  83 H :   -0.017224
  84 H :   -0.016935
  85 H :    0.030227
  86 H :    0.031065
  87 H :    0.055024
  88 H :    0.037654
  89 H :    0.051162
  90 H :    0.061139
  91 H :    0.030012
  92 H :    0.022736
  93 H :   -0.042337
  94 H :   -0.033464
  95 H :   -0.028315
  96 H :   -0.008063
  97 H :   -0.011883
  98 H :    0.022758
  99 H :    0.025015
 100 H :   -0.010713
 101 H :    0.013144
 102 H :   -0.018344
 103 H :   -0.011931
 104 H :   -0.013306
 105 H :   -0.012688
 106 H :   -0.009371
 107 H :    0.003770
 108 H :    0.030707
 109 H :    0.011955
Sum of atomic charges:   -0.0000000

LOEWDIN ATOMIC CHARGES
----------------------
   0 C :    0.074557
   1 C :   -0.134557
   2 C :   -0.018426
   3 N :   -0.047677
   4 C :   -0.019688
   5 N :   -0.046312
   6 C :   -0.023710
   7 C :   -0.050118
   8 C :    0.027898
   9 C :   -0.029650
  10 C :   -0.142801
  11 C :   -0.008970
  12 S :    0.434237
  13 C :   -0.269655
  14 C :   -0.069136
  15 Br:    0.140042
  16 C :    0.084847
  17 O :   -0.113651
  18 C :   -0.084146
  19 C :    0.076460
  20 C :   -0.061995
  21 C :    0.001967
  22 C :   -0.038880
  23 C :   -0.005925
  24 C :   -0.044817
  25 C :    0.054314
  26 N :   -0.003325
  27 C :    0.034866
  28 C :    0.083650
  29 O :   -0.183331
  30 C :   -0.020904
  31 C :   -0.020138
  32 C :    0.081349
  33 O :   -0.194383
  34 N :   -0.002707
  35 C :    0.032920
  36 C :    0.038266
  37 C :   -0.053244
  38 C :   -0.014182
  39 C :   -0.035680
  40 C :   -0.017227
  41 C :   -0.044175
  42 C :   -0.010616
  43 C :   -0.036949
  44 C :    0.027191
  45 C :    0.026078
  46 O :   -0.054527
  47 C :   -0.007287
  48 C :   -0.008087
  49 C :   -0.212126
  50 S :    0.434439
  51 C :   -0.211250
  52 O :   -0.051418
  53 C :   -0.041367
  54 C :   -0.022404
  55 C :   -0.055279
  56 C :   -0.144758
  57 C :   -0.032235
  58 C :   -0.032736
  59 C :   -0.174719
  60 S :    0.373338
  61 C :   -0.180088
  62 C :   -0.034816
  63 C :   -0.031878
  64 C :   -0.151091
  65 S :    0.363181
  66 C :   -0.071876
  67 C :   -0.202920
  68 S :    0.472045
  69 C :   -0.192678
  70 C :   -0.084401
  71 C :    0.018793
  72 O :    0.001032
  73 C :    0.025005
  74 N :    0.272096
  75 O :   -0.212183
  76 O :   -0.193048
  77 C :   -0.009265
  78 H :    0.043659
  79 H :    0.041236
  80 H :    0.039848
  81 H :    0.044850
  82 H :    0.030628
  83 H :    0.028926
  84 H :    0.034033
  85 H :    0.026657
  86 H :    0.025462
  87 H :    0.039860
  88 H :    0.048584
  89 H :    0.054030
  90 H :    0.034693
  91 H :    0.028592
  92 H :    0.021775
  93 H :    0.027266
  94 H :    0.023202
  95 H :    0.029380
  96 H :    0.029456
  97 H :    0.029044
  98 H :    0.028300
  99 H :    0.029140
 100 H :    0.031167
 101 H :    0.026454
 102 H :    0.031144
 103 H :    0.033733
 104 H :    0.031904
 105 H :    0.032346
 106 H :    0.034806
 107 H :    0.045961
 108 H :    0.028045
 109 H :    0.046659

  Mayer bond orders larger than 0.100000
B(  0-C ,  1-C ) :   1.6624 B(  0-C ,  6-C ) :   1.0156 B(  0-C , 18-C ) :   1.0300
B(  1-C ,  2-C ) :   1.1320 B(  1-C ,  4-C ) :   1.1508 B(  2-C ,  3-N ) :   2.9739
B(  4-C ,  5-N ) :   2.9718 B(  6-C ,  7-C ) :   1.2682 B(  6-C , 11-C ) :   1.3995
B(  7-C ,  8-C ) :   1.4265 B(  7-C , 16-C ) :   0.9252 B(  8-C ,  9-C ) :   1.2507
B(  8-C , 78-H ) :   1.0194 B(  9-C , 10-C ) :   1.2970 B(  9-C , 14-C ) :   1.1652
B( 10-C , 11-C ) :   1.3405 B( 10-C , 12-S ) :   1.0868 B( 11-C , 79-H ) :   0.9800
B( 12-S , 13-C ) :   1.0864 B( 13-C , 14-C ) :   1.6167 B( 13-C , 15-Br) :   1.0213
B( 14-C , 80-H ) :   0.9990 B( 16-C , 17-O ) :   2.1949 B( 16-C , 18-C ) :   0.9314
B( 18-C , 19-C ) :   1.7425 B( 19-C , 20-C ) :   0.9960 B( 19-C , 81-H ) :   0.9387
B( 20-C , 21-C ) :   1.3311 B( 20-C , 25-C ) :   1.3833 B( 21-C , 22-C ) :   1.4120
B( 21-C , 82-H ) :   0.9934 B( 22-C , 23-C ) :   1.3012 B( 22-C , 83-H ) :   0.9908
B( 23-C , 24-C ) :   1.4617 B( 23-C , 84-H ) :   1.0045 B( 24-C , 25-C ) :   1.3418
B( 24-C , 30-C ) :   0.9411 B( 25-C , 26-N ) :   1.0824 B( 26-N , 27-C ) :   0.9700
B( 26-N , 28-C ) :   1.1005 B( 27-C , 85-H ) :   0.9605 B( 27-C , 86-H ) :   0.9608
B( 27-C , 87-H ) :   0.9483 B( 28-C , 29-O ) :   2.1748 B( 28-C , 30-C ) :   0.9277
B( 30-C , 31-C ) :   1.0428 B( 30-C , 88-H ) :   0.8855 B( 31-C , 32-C ) :   0.9039
B( 31-C , 41-C ) :   0.9823 B( 31-C , 89-H ) :   0.8758 B( 32-C , 33-O ) :   2.1165
B( 32-C , 34-N ) :   1.1435 B( 34-N , 35-C ) :   0.9622 B( 34-N , 36-C ) :   1.0500
B( 35-C , 90-H ) :   0.9542 B( 35-C , 91-H ) :   0.9674 B( 35-C , 92-H ) :   0.9706
B( 36-C , 37-C ) :   1.3395 B( 36-C , 41-C ) :   1.3557 B( 37-C , 38-C ) :   1.2627
B( 37-C , 93-H ) :   1.0202 B( 38-C , 39-C ) :   1.3695 B( 38-C , 42-C ) :   1.0433
B( 39-C , 40-C ) :   1.3540 B( 39-C , 94-H ) :   0.9870 B( 40-C , 41-C ) :   1.4128
B( 40-C , 95-H ) :   1.0057 B( 42-C , 43-C ) :   1.6809 B( 42-C , 96-H ) :   0.9862
B( 43-C , 44-C ) :   1.1777 B( 43-C , 97-H ) :   0.9481 B( 44-C , 45-C ) :   1.4252
B( 44-C , 52-O ) :   1.0629 B( 45-C , 46-O ) :   1.0566 B( 45-C , 53-C ) :   1.1796
B( 46-O , 47-C ) :   1.0543 B( 47-C , 48-C ) :   1.2017 B( 47-C , 51-C ) :   1.5712
B( 48-C , 49-C ) :   1.5702 B( 48-C , 52-O ) :   1.0507 B( 49-C , 50-S ) :   1.1416
B( 49-C , 98-H ) :   0.9728 B( 50-S , 51-C ) :   1.1416 B( 51-C , 99-H ) :   0.9726
B( 53-C , 54-C ) :   1.5991 B( 53-C ,100-H ) :   0.9663 B( 54-C , 55-C ) :   1.1511
B( 54-C ,101-H ) :   0.9782 B( 55-C , 56-C ) :   1.5420 B( 55-C ,102-H ) :   0.9846
B( 56-C , 57-C ) :   1.1529 B( 56-C , 60-S ) :   1.0341 B( 57-C , 58-C ) :   1.5778
B( 57-C ,103-H ) :   1.0001 B( 58-C , 59-C ) :   1.1956 B( 58-C ,104-H ) :   0.9941
B( 59-C , 60-S ) :   1.0473 B( 59-C , 61-C ) :   1.5052 B( 61-C , 62-C ) :   1.1886
B( 61-C , 65-S ) :   1.0385 B( 62-C , 63-C ) :   1.5896 B( 62-C ,105-H ) :   0.9936
B( 63-C , 64-C ) :   1.1428 B( 63-C ,106-H ) :   1.0001 B( 64-C , 65-S ) :   1.0354
B( 64-C , 66-C ) :   1.5659 B( 66-C , 67-C ) :   1.1773 B( 66-C ,107-H ) :   0.9732
B( 67-C , 68-S ) :   1.1072 B( 67-C , 69-C ) :   0.1082 B( 67-C , 71-C ) :   1.4412
B( 68-S , 69-C ) :   1.1853 B( 69-C , 70-C ) :   1.4150 B( 69-C ,108-H ) :   0.9761
B( 70-C , 71-C ) :   1.2299 B( 70-C , 77-C ) :   1.0585 B( 71-C , 72-O ) :   1.1210
B( 72-O , 73-C ) :   1.1221 B( 73-C , 74-N ) :   0.9168 B( 73-C , 77-C ) :   1.5732
B( 74-N , 75-O ) :   1.5320 B( 74-N , 76-O ) :   1.5148 B( 75-O , 76-O ) :   0.2794
B( 77-C ,109-H ) :   1.0276

-----------------------------------------------------------------------------
         ABSORPTION SPECTRUM VIA TRANSITION ELECTRIC DIPOLE MOMENTS
-----------------------------------------------------------------------------
State   Energy  Wavelength   fosc         T2         TX        TY        TZ
        (cm-1)    (nm)                  (au**2)     (au)      (au)      (au)
-----------------------------------------------------------------------------
   0   13040.3    766.9   1.653939517  41.75486  -1.94396  -6.16119   0.12501
   1   18527.4    539.7   0.218333884   3.87956   0.52683   1.60828   1.00770
   2   18786.1    532.3   0.000294969   0.00517   0.00462   0.05385   0.04742
   3   20718.4    482.7   0.104220932   1.65606  -0.16955  -0.44689  -1.19482
   4   21156.9    472.7   0.138997628   2.16287  -0.41538  -1.17849  -0.77557
   5   24045.2    415.9   0.237779445   3.25553   0.12054  -0.56167  -1.71042
   6   25449.0    392.9   0.000616220   0.00797  -0.05143  -0.07298  -0.00058
   7   26218.0    381.4   0.007252464   0.09107  -0.17704  -0.19481  -0.14756
   8   26487.8    377.5   0.005857420   0.07280  -0.09301  -0.01763   0.25266
   9   26994.5    370.4   0.143282034   1.74740  -0.29250  -0.88757  -0.93492
  10   28117.9    355.6   0.375364366   4.39486  -1.95087  -0.52605   0.55879
  11   28287.3    353.5   0.071116973   0.82767  -0.57165   0.68903   0.16164
  12   28896.6    346.1   0.049330809   0.56201  -0.11355   0.65509   0.34638
  13   29240.2    342.0   0.019347693   0.21783   0.06852  -0.46059   0.03152
  14   29622.2    337.6   0.017742117   0.19718  -0.22015   0.30957  -0.22996
  15   30289.0    330.2   0.082825735   0.90023  -0.84055   0.31274   0.30969
  16   30764.6    325.0   0.570627696   6.10629   0.49440  -0.94592   2.22870
  17   31059.2    322.0   0.007447632   0.07894   0.12604   0.14262   0.20667
  18   31168.1    320.8   0.033385597   0.35263  -0.03813   0.28084  -0.52183
  19   31938.0    313.1   0.033508577   0.34540   0.22664   0.52818  -0.12272
  20   32088.0    311.6   0.006886488   0.07065   0.09732   0.17575   0.17405
  21   32320.4    309.4   0.128550223   1.30940   0.36115   1.08291   0.07919
  22   32388.2    308.8   0.121800980   1.23805   0.31982  -0.51143   0.93499
  23   32795.2    304.9   0.001333157   0.01338  -0.02076  -0.11365  -0.00603
  24   32814.1    304.7   0.060223593   0.60420  -0.13783  -0.76186  -0.06911
  25   32935.7    303.6   0.079597856   0.79563   0.30910   0.79870   0.24933
  26   33677.8    296.9   0.283315917   2.76951   0.07081   1.66143  -0.06442
  27   33955.9    294.5   0.528728369   5.12617   2.16896  -0.13054  -0.63620
  28   34990.3    285.8   0.056422864   0.53086   0.47693   0.30023   0.46181
  29   35059.0    285.2   0.004259117   0.03999   0.00385   0.11951   0.16030
  30   35214.4    284.0   0.067968344   0.63542  -0.03287  -0.57755   0.54843
  31   35442.7    282.1   0.037872618   0.35178   0.41487  -0.34273  -0.24941
  32   35706.0    280.1   0.002998863   0.02765   0.11870  -0.08271  -0.08197
  33   36021.9    277.6   0.069183502   0.63228  -0.66464  -0.43650  -0.00154
  34   36188.2    276.3   0.030114308   0.27396   0.28647   0.21137  -0.38369
  35   36217.4    276.1   0.122203059   1.11081   0.27986   0.99096  -0.22468
  36   36239.3    275.9   0.004799034   0.04360  -0.14057  -0.15347   0.01687
  37   36702.0    272.5   0.049659548   0.44544  -0.07350  -0.48643   0.45103
  38   36921.1    270.8   0.169182315   1.50854   0.21650   1.17538  -0.28309
  39   36978.2    270.4   0.008419669   0.07496   0.22899   0.12786  -0.07858
  40   37585.2    266.1   0.037554821   0.32895   0.16241  -0.42765   0.34596
  41   38486.6    259.8   0.099559803   0.85163   0.34944   0.85074  -0.07591
  42   38664.1    258.6   0.114324393   0.97343  -0.60471  -0.73707  -0.25396
  43   38743.3    258.1   0.012509589   0.10630   0.05428   0.31775  -0.04886
  44   39301.6    254.4   0.068108578   0.57051   0.32438   0.65927   0.17509
  45   39376.1    254.0   0.082713743   0.69155   0.53830   0.06343   0.63068
  46   39610.1    252.5   0.074265304   0.61724   0.16175   0.76799  -0.03555
  47   39884.2    250.7   0.035404027   0.29223  -0.29345  -0.26055  -0.37180
  48   39925.3    250.5   0.050269937   0.41451   0.32838   0.36912   0.41283
  49   40216.0    248.7   0.037831133   0.30969  -0.02561   0.53132   0.16350
  50   40261.4    248.4   0.001399438   0.01144   0.02769   0.09940   0.02820

FINAL SINGLE POINT ENERGY     -7703.304214872403

DIPOLE MOMENT
-------------
                                X             Y             Z
Electronic contribution:    -77.73432    -122.74672     -22.18511
Nuclear contribution   :     75.53646     122.74781      22.74882
                        -----------------------------------------
Total Dipole Moment    :     -2.19787       0.00108       0.56372
                        -----------------------------------------
Magnitude (a.u.)       :      2.26901
Magnitude (Debye)      :      5.76736

Rotational constants in cm-1:     0.001582     0.000128     0.000127
Rotational constants in MHz :    47.419893     3.829259     3.806364

                             ****ORCA TERMINATED NORMALLY****
TOTAL RUN TIME: 0 days 0 hours 12 minutes 39 seconds 285 msec
