                         Program Version 4.2.0 -  RELEASE  -
|  1> # ORCA input file
|  2> # SCF done       -168.231848384441          0.000484183500
|  3> ! CAM-B3LYP def2-SVP def2/J RIJCOSX Grid4 TightSCF
|  4> %maxcore 5000
|  5> %tddft
|  6>     Mode sTDDFT
|  7>     Ethresh 5.0
|  8>     maxcore 5000
|  9> end
| 10>
| 11> %pal
| 12>   nprocs 6
| 13>   end
| 14> * xyz 0 1
| 15>    C       -2.08172         0.24691         3.06761
| 16>    C       -3.43803         0.13605         3.26615
| 17>    C       -4.02686        -0.55361         4.34439
| 18>    N       -4.56953        -1.09199         5.20177
| 19>    C       -4.42811         0.69743         2.43648
| 20>    N       -5.29288         1.12364         1.81095
| 21>    C       -1.05105        -0.35322         3.90546
| 22>    C        0.22141        -0.01426         3.38252
| 23>    C        1.39548        -0.43682         3.95471
| 24>    C        1.31248        -1.24257         5.09579
| 25>    C        0.03795        -1.57570         5.61229
| 26>    C       -1.15023        -1.14286         5.03668
| 27>    S        0.16385        -2.57340         7.02961
| 28>    C        1.90310        -2.53073         6.90939
| 29>    C        2.36760        -1.80779         5.86302
| 30>   Br        2.94050        -3.44221         8.17819
| 31>    C        0.05098         0.83932         2.19241
| 32>    O        0.91820         1.45369         1.61376
| 33>    C       -1.42123         0.92654         1.97479
| 34>    C       -2.00740         1.65191         0.97864
| 35>    C       -1.33498         2.07164        -0.19534
| 36>    O       -1.81540         3.14526        -0.88671
| 37>    C       -0.27465         1.54000        -0.90728
| 38>    C        0.66816         0.41658        -0.98070
| 39>    O        0.79967        -0.56178        -0.29376
| 40>    N        1.40189         0.68491        -2.13565
| 41>    C        1.00778         1.81449        -2.84769
| 42>    O        1.50538         2.19876        -3.87412
| 43>    C       -0.10296         2.34845        -2.05400
| 44>    C       -1.06924         3.33648        -2.00463
| 45>    C       -1.33317         4.41499        -2.89222
| 46>    C       -2.30009         5.33473        -2.68111
| 47>    C       -2.53500         6.42790        -3.57155
| 48>    C       -3.41933         7.42209        -3.38657
| 49>    C       -4.31932         7.55708        -2.19990
| 50>    C       -3.57444         8.53777        -4.40110
| 51>    N       -3.14098         8.22532        -5.73403
| 52>    C       -1.85765         8.32822        -6.14789
| 53>    C       -1.39825         7.83695        -7.32917
| 54>    C       -0.07091         7.98392        -7.76938
| 55>    C        0.40064         7.52893        -8.97265
| 56>    C        1.72376         7.61592        -9.46868
| 57>    C        1.89568         7.08510       -10.71029
| 58>    C        0.71476         6.55179       -11.27635
| 59>    S       -0.62400         6.73413       -10.16659
| 60>    C        0.55548         5.97130       -12.51842
| 61>    C        1.53652         5.74443       -13.50957
| 62>    C        1.05486         5.16143       -14.63878
| 63>    C       -0.34299         4.89085       -14.62549
| 64>    S       -1.00614         5.40868       -13.07966
| 65>    C       -1.02414         4.33266       -15.66913
| 66>    C       -2.40827         4.02693       -15.81785
| 67>    C       -3.38546         4.22121       -14.84840
| 68>    C       -4.72387         3.90627       -15.07839
| 69>    C       -5.13884         3.38808       -16.27918
| 70>    C       -4.19261         3.16655       -17.29613
| 71>    C       -2.82694         3.47924       -17.07425
| 72>    N       -1.92173         3.26317       -18.04632
| 73>    C       -2.32514         2.76527       -19.18891
| 74>    C       -3.69744         2.45680       -19.41236
| 75>    N       -4.59314         2.65697       -18.48119
| 76>    C       -4.16912         1.89407       -20.71275
| 77>    C       -1.29134         2.53676       -20.24204
| 78>    H        2.34769        -0.16127         3.53007
| 79>    H       -2.09557        -1.42205         5.47104
| 80>    H        3.41073        -1.67693         5.63984
| 81>    H       -3.04858         1.93707         1.04270
| 82>    H        2.15224         0.08428        -2.44630
| 83>    H       -0.68874         4.46266        -3.75823
| 84>    H       -2.91670         5.24003        -1.79961
| 85>    H       -1.91938         6.43385        -4.46262
| 86>    H       -3.89843         7.08675        -1.31724
| 87>    H       -5.28263         7.08934        -2.40753
| 88>    H       -4.50074         8.60760        -1.98099
| 89>    H       -3.00591         9.40774        -4.04975
| 90>    H       -4.62875         8.83063        -4.44342
| 91>    H       -3.73689         7.60792        -6.26642
| 92>    H       -1.20222         8.88463        -5.49132
| 93>    H       -2.07895         7.29973        -7.97668
| 94>    H        0.63203         8.48460        -7.11643
| 95>    H        2.50814         8.06826        -8.88733
| 96>    H        2.83328         7.06670       -11.23630
| 97>    H        2.56633         6.01592       -13.36035
| 98>    H        1.65410         4.91412       -15.49727
| 99>    H       -0.43048         4.08820       -16.54122
|100>    H       -3.11137         4.62483       -13.88714
|101>    H       -5.44209         4.07813       -14.29002
|102>    H       -6.17067         3.14220       -16.47329
|103>    H       -3.68421         0.93939       -20.91158
|104>    H       -3.92802         2.57159       -21.53045
|105>    H       -5.24462         1.74859       -20.67028
|106>    H       -1.51697         3.12617       -21.12980
|107>    H       -1.26944         1.48727       -20.53205
|108>    H       -0.31631         2.82440       -19.85925
|109> *
|110>
|111>                          ****END OF INPUT****

CARTESIAN COORDINATES (ANGSTROEM)
---------------------------------
  C     -2.081720    0.246910    3.067610
  C     -3.438030    0.136050    3.266150
  C     -4.026860   -0.553610    4.344390
  N     -4.569530   -1.091990    5.201770
  C     -4.428110    0.697430    2.436480
  N     -5.292880    1.123640    1.810950
  C     -1.051050   -0.353220    3.905460
  C      0.221410   -0.014260    3.382520
  C      1.395480   -0.436820    3.954710
  C      1.312480   -1.242570    5.095790
  C      0.037950   -1.575700    5.612290
  C     -1.150230   -1.142860    5.036680
  S      0.163850   -2.573400    7.029610
  C      1.903100   -2.530730    6.909390
  C      2.367600   -1.807790    5.863020
  Br     2.940500   -3.442210    8.178190
  C      0.050980    0.839320    2.192410
  O      0.918200    1.453690    1.613760
  C     -1.421230    0.926540    1.974790
  C     -2.007400    1.651910    0.978640
  C     -1.334980    2.071640   -0.195340
  O     -1.815400    3.145260   -0.886710
  C     -0.274650    1.540000   -0.907280
  C      0.668160    0.416580   -0.980700
  O      0.799670   -0.561780   -0.293760
  N      1.401890    0.684910   -2.135650
  C      1.007780    1.814490   -2.847690
  O      1.505380    2.198760   -3.874120
  C     -0.102960    2.348450   -2.054000
  C     -1.069240    3.336480   -2.004630
  C     -1.333170    4.414990   -2.892220
  C     -2.300090    5.334730   -2.681110
  C     -2.535000    6.427900   -3.571550
  C     -3.419330    7.422090   -3.386570
  C     -4.319320    7.557080   -2.199900
  C     -3.574440    8.537770   -4.401100
  N     -3.140980    8.225320   -5.734030
  C     -1.857650    8.328220   -6.147890
  C     -1.398250    7.836950   -7.329170
  C     -0.070910    7.983920   -7.769380
  C      0.400640    7.528930   -8.972650
  C      1.723760    7.615920   -9.468680
  C      1.895680    7.085100  -10.710290
  C      0.714760    6.551790  -11.276350
  S     -0.624000    6.734130  -10.166590
  C      0.555480    5.971300  -12.518420
  C      1.536520    5.744430  -13.509570
  C      1.054860    5.161430  -14.638780
  C     -0.342990    4.890850  -14.625490
  S     -1.006140    5.408680  -13.079660
  C     -1.024140    4.332660  -15.669130
  C     -2.408270    4.026930  -15.817850
  C     -3.385460    4.221210  -14.848400
  C     -4.723870    3.906270  -15.078390
  C     -5.138840    3.388080  -16.279180
  C     -4.192610    3.166550  -17.296130
  C     -2.826940    3.479240  -17.074250
  N     -1.921730    3.263170  -18.046320
  C     -2.325140    2.765270  -19.188910
  C     -3.697440    2.456800  -19.412360
  N     -4.593140    2.656970  -18.481190
  C     -4.169120    1.894070  -20.712750
  C     -1.291340    2.536760  -20.242040
  H      2.347690   -0.161270    3.530070
  H     -2.095570   -1.422050    5.471040
  H      3.410730   -1.676930    5.639840
  H     -3.048580    1.937070    1.042700
  H      2.152240    0.084280   -2.446300
  H     -0.688740    4.462660   -3.758230
  H     -2.916700    5.240030   -1.799610
  H     -1.919380    6.433850   -4.462620
  H     -3.898430    7.086750   -1.317240
  H     -5.282630    7.089340   -2.407530
  H     -4.500740    8.607600   -1.980990
  H     -3.005910    9.407740   -4.049750
  H     -4.628750    8.830630   -4.443420
  H     -3.736890    7.607920   -6.266420
  H     -1.202220    8.884630   -5.491320
  H     -2.078950    7.299730   -7.976680
  H      0.632030    8.484600   -7.116430
  H      2.508140    8.068260   -8.887330
  H      2.833280    7.066700  -11.236300
  H      2.566330    6.015920  -13.360350
  H      1.654100    4.914120  -15.497270
  H     -0.430480    4.088200  -16.541220
  H     -3.111370    4.624830  -13.887140
  H     -5.442090    4.078130  -14.290020
  H     -6.170670    3.142200  -16.473290
  H     -3.684210    0.939390  -20.911580
  H     -3.928020    2.571590  -21.530450
  H     -5.244620    1.748590  -20.670280
  H     -1.516970    3.126170  -21.129800
  H     -1.269440    1.487270  -20.532050
  H     -0.316310    2.824400  -19.859250

 Total Charge           Charge          ....    0
 Multiplicity           Mult            ....    1
 Number of Electrons    NEL             ....  482
 Basis Dimension        Dim             .... 1067

ORBITAL ENERGIES
----------------

  NO   OCC          E(Eh)            E(eV)
   0   2.0000    -482.887192    -13140.0285
   1   2.0000     -88.977257     -2421.1943
   2   2.0000     -88.925114     -2419.7754
   3   2.0000     -88.924220     -2419.7511
   4   2.0000     -62.564910     -1702.4777
   5   2.0000     -56.398862     -1534.6911
   6   2.0000     -56.396140     -1534.6170
   7   2.0000     -56.396111     -1534.6162
   8   2.0000     -19.319095      -525.6993
   9   2.0000     -19.218493      -522.9618
  10   2.0000     -19.216264      -522.9011
  11   2.0000     -19.212839      -522.8079
  12   2.0000     -14.457135      -393.3986
  13   2.0000     -14.441912      -392.9844
  14   2.0000     -14.421158      -392.4196
  15   2.0000     -14.419001      -392.3610
  16   2.0000     -14.398081      -391.7917
  17   2.0000     -14.395269      -391.7152
  18   2.0000     -10.404336      -283.1164
  19   2.0000     -10.402590      -283.0689
  20   2.0000     -10.372718      -282.2560
  21   2.0000     -10.371019      -282.2098
  22   2.0000     -10.366453      -282.0855
  23   2.0000     -10.360998      -281.9371
  24   2.0000     -10.347347      -281.5656
  25   2.0000     -10.346533      -281.5435
  26   2.0000     -10.328241      -281.0457
  27   2.0000     -10.327796      -281.0336
  28   2.0000     -10.327727      -281.0317
  29   2.0000     -10.323628      -280.9202
  30   2.0000     -10.321618      -280.8655
  31   2.0000     -10.319158      -280.7986
  32   2.0000     -10.311152      -280.5807
  33   2.0000     -10.309854      -280.5454
  34   2.0000     -10.309804      -280.5440
  35   2.0000     -10.308033      -280.4958
  36   2.0000     -10.305623      -280.4303
  37   2.0000     -10.302556      -280.3468
  38   2.0000     -10.302025      -280.3323
  39   2.0000     -10.301885      -280.3285
  40   2.0000     -10.300997      -280.3044
  41   2.0000     -10.300877      -280.3011
  42   2.0000     -10.298362      -280.2327
  43   2.0000     -10.295772      -280.1622
  44   2.0000     -10.295703      -280.1603
  45   2.0000     -10.294382      -280.1244
  46   2.0000     -10.293434      -280.0986
  47   2.0000     -10.288750      -279.9711
  48   2.0000     -10.287413      -279.9347
  49   2.0000     -10.285796      -279.8907
  50   2.0000     -10.284692      -279.8607
  51   2.0000     -10.284614      -279.8586
  52   2.0000     -10.283192      -279.8199
  53   2.0000     -10.281211      -279.7660
  54   2.0000     -10.272334      -279.5244
  55   2.0000     -10.270160      -279.4653
  56   2.0000     -10.267237      -279.3857
  57   2.0000     -10.266449      -279.3643
  58   2.0000     -10.264292      -279.3056
  59   2.0000     -10.260842      -279.2117
  60   2.0000     -10.258547      -279.1492
  61   2.0000     -10.257275      -279.1146
  62   2.0000     -10.256864      -279.1035
  63   2.0000     -10.255896      -279.0771
  64   2.0000     -10.254456      -279.0379
  65   2.0000     -10.251655      -278.9617
  66   2.0000     -10.247216      -278.8409
  67   2.0000      -8.794345      -239.3063
  68   2.0000      -8.073274      -219.6849
  69   2.0000      -8.021441      -218.2745
  70   2.0000      -8.019914      -218.2329
  71   2.0000      -6.630646      -180.4290
  72   2.0000      -6.616082      -180.0327
  73   2.0000      -6.615873      -180.0270
  74   2.0000      -6.042971      -164.4376
  75   2.0000      -6.038679      -164.3208
  76   2.0000      -6.034489      -164.2068
  77   2.0000      -5.991198      -163.0288
  78   2.0000      -5.989672      -162.9873
  79   2.0000      -5.987260      -162.9216
  80   2.0000      -5.985676      -162.8785
  81   2.0000      -5.982252      -162.7854
  82   2.0000      -5.980886      -162.7482
  83   2.0000      -2.746535       -74.7370
  84   2.0000      -2.742432       -74.6254
  85   2.0000      -2.742261       -74.6207
  86   2.0000      -2.730692       -74.3059
  87   2.0000      -2.730675       -74.3054
  88   2.0000      -1.234804       -33.6007
  89   2.0000      -1.159149       -31.5420
  90   2.0000      -1.139530       -31.0082
  91   2.0000      -1.132781       -30.8245
  92   2.0000      -1.055974       -28.7345
  93   2.0000      -1.046225       -28.4692
  94   2.0000      -1.045554       -28.4510
  95   2.0000      -1.026093       -27.9214
  96   2.0000      -1.016753       -27.6673
  97   2.0000      -0.998146       -27.1609
  98   2.0000      -0.993519       -27.0350
  99   2.0000      -0.979683       -26.6585
 100   2.0000      -0.974062       -26.5056
 101   2.0000      -0.952236       -25.9116
 102   2.0000      -0.950319       -25.8595
 103   2.0000      -0.940702       -25.5978
 104   2.0000      -0.930688       -25.3253
 105   2.0000      -0.930242       -25.3132
 106   2.0000      -0.923816       -25.1383
 107   2.0000      -0.911260       -24.7967
 108   2.0000      -0.900458       -24.5027
 109   2.0000      -0.888088       -24.1661
 110   2.0000      -0.887039       -24.1376
 111   2.0000      -0.873185       -23.7606
 112   2.0000      -0.866707       -23.5843
 113   2.0000      -0.860189       -23.4069
 114   2.0000      -0.843495       -22.9527
 115   2.0000      -0.836332       -22.7577
 116   2.0000      -0.831359       -22.6224
 117   2.0000      -0.823440       -22.4069
 118   2.0000      -0.814778       -22.1712
 119   2.0000      -0.801387       -21.8069
 120   2.0000      -0.799046       -21.7431
 121   2.0000      -0.794209       -21.6115
 122   2.0000      -0.782510       -21.2932
 123   2.0000      -0.781898       -21.2765
 124   2.0000      -0.778004       -21.1706
 125   2.0000      -0.769810       -20.9476
 126   2.0000      -0.765024       -20.8174
 127   2.0000      -0.757047       -20.6003
 128   2.0000      -0.747216       -20.3328
 129   2.0000      -0.722338       -19.6558
 130   2.0000      -0.715129       -19.4596
 131   2.0000      -0.705988       -19.2109
 132   2.0000      -0.698762       -19.0143
 133   2.0000      -0.696837       -18.9619
 134   2.0000      -0.693289       -18.8654
 135   2.0000      -0.691646       -18.8206
 136   2.0000      -0.690494       -18.7893
 137   2.0000      -0.676151       -18.3990
 138   2.0000      -0.663946       -18.0669
 139   2.0000      -0.659704       -17.9515
 140   2.0000      -0.650740       -17.7075
 141   2.0000      -0.636390       -17.3171
 142   2.0000      -0.631659       -17.1883
 143   2.0000      -0.626050       -17.0357
 144   2.0000      -0.622617       -16.9423
 145   2.0000      -0.612734       -16.6733
 146   2.0000      -0.611090       -16.6286
 147   2.0000      -0.610604       -16.6154
 148   2.0000      -0.602175       -16.3860
 149   2.0000      -0.598957       -16.2985
 150   2.0000      -0.598211       -16.2781
 151   2.0000      -0.596494       -16.2314
 152   2.0000      -0.593633       -16.1536
 153   2.0000      -0.589425       -16.0391
 154   2.0000      -0.586835       -15.9686
 155   2.0000      -0.572140       -15.5687
 156   2.0000      -0.570345       -15.5199
 157   2.0000      -0.563397       -15.3308
 158   2.0000      -0.560570       -15.2539
 159   2.0000      -0.556151       -15.1336
 160   2.0000      -0.553962       -15.0741
 161   2.0000      -0.552014       -15.0211
 162   2.0000      -0.549251       -14.9459
 163   2.0000      -0.543244       -14.7824
 164   2.0000      -0.538925       -14.6649
 165   2.0000      -0.533766       -14.5245
 166   2.0000      -0.532579       -14.4922
 167   2.0000      -0.531243       -14.4559
 168   2.0000      -0.528063       -14.3693
 169   2.0000      -0.526586       -14.3291
 170   2.0000      -0.523784       -14.2529
 171   2.0000      -0.520165       -14.1544
 172   2.0000      -0.516295       -14.0491
 173   2.0000      -0.514228       -13.9929
 174   2.0000      -0.510646       -13.8954
 175   2.0000      -0.509582       -13.8664
 176   2.0000      -0.506261       -13.7761
 177   2.0000      -0.497387       -13.5346
 178   2.0000      -0.496579       -13.5126
 179   2.0000      -0.496009       -13.4971
 180   2.0000      -0.491723       -13.3805
 181   2.0000      -0.490331       -13.3426
 182   2.0000      -0.483109       -13.1461
 183   2.0000      -0.481942       -13.1143
 184   2.0000      -0.480539       -13.0761
 185   2.0000      -0.479748       -13.0546
 186   2.0000      -0.479223       -13.0403
 187   2.0000      -0.478763       -13.0278
 188   2.0000      -0.475668       -12.9436
 189   2.0000      -0.474256       -12.9052
 190   2.0000      -0.472529       -12.8582
 191   2.0000      -0.471437       -12.8285
 192   2.0000      -0.466085       -12.6828
 193   2.0000      -0.462976       -12.5982
 194   2.0000      -0.462062       -12.5734
 195   2.0000      -0.460439       -12.5292
 196   2.0000      -0.459928       -12.5153
 197   2.0000      -0.456319       -12.4171
 198   2.0000      -0.453211       -12.3325
 199   2.0000      -0.448706       -12.2099
 200   2.0000      -0.447844       -12.1865
 201   2.0000      -0.447662       -12.1815
 202   2.0000      -0.441649       -12.0179
 203   2.0000      -0.439412       -11.9570
 204   2.0000      -0.438062       -11.9203
 205   2.0000      -0.433707       -11.8018
 206   2.0000      -0.430932       -11.7263
 207   2.0000      -0.430584       -11.7168
 208   2.0000      -0.428130       -11.6500
 209   2.0000      -0.425760       -11.5855
 210   2.0000      -0.418943       -11.4000
 211   2.0000      -0.418364       -11.3843
 212   2.0000      -0.412367       -11.2211
 213   2.0000      -0.406307       -11.0562
 214   2.0000      -0.404086       -10.9957
 215   2.0000      -0.400251       -10.8914
 216   2.0000      -0.394375       -10.7315
 217   2.0000      -0.393322       -10.7028
 218   2.0000      -0.387145       -10.5347
 219   2.0000      -0.381739       -10.3877
 220   2.0000      -0.376459       -10.2440
 221   2.0000      -0.375576       -10.2199
 222   2.0000      -0.374097       -10.1797
 223   2.0000      -0.372838       -10.1454
 224   2.0000      -0.363352        -9.8873
 225   2.0000      -0.360533        -9.8106
 226   2.0000      -0.354716        -9.6523
 227   2.0000      -0.348536        -9.4841
 228   2.0000      -0.341670        -9.2973
 229   2.0000      -0.336265        -9.1502
 230   2.0000      -0.324143        -8.8204
 231   2.0000      -0.319858        -8.7038
 232   2.0000      -0.316909        -8.6235
 233   2.0000      -0.304870        -8.2959
 234   2.0000      -0.298698        -8.1280
 235   2.0000      -0.296156        -8.0588
 236   2.0000      -0.295892        -8.0516
 237   2.0000      -0.292922        -7.9708
 238   2.0000      -0.271708        -7.3935
 239   2.0000      -0.252592        -6.8734
 240   2.0000      -0.188479        -5.1288
 241   0.0000      -0.104660        -2.8479
 242   0.0000      -0.065453        -1.7811
 243   0.0000      -0.054866        -1.4930
 244   0.0000      -0.051811        -1.4098
 245   0.0000      -0.018414        -0.5011

MULLIKEN ATOMIC CHARGES
-----------------------
   0 C :    0.307137
   1 C :   -0.345573
   2 C :   -0.183175
   3 N :    0.152259
   4 C :   -0.191155
   5 N :    0.154334
   6 C :    0.021989
   7 C :   -0.015770
   8 C :   -0.060276
   9 C :    0.117740
  10 C :   -0.089556
  11 C :   -0.021551
  12 S :    0.187574
  13 C :   -0.122953
  14 C :    0.038404
  15 Br:    0.026437
  16 C :    0.156631
  17 O :   -0.145955
  18 C :   -0.076369
  19 C :   -0.032209
  20 C :    0.118108
  21 O :   -0.203758
  22 C :   -0.014374
  23 C :    0.182519
  24 O :   -0.140703
  25 N :   -0.163456
  26 C :    0.168017
  27 O :   -0.137216
  28 C :   -0.049276
  29 C :    0.102716
  30 C :   -0.043323
  31 C :    0.039178
  32 C :   -0.001312
  33 C :   -0.201663
  34 C :    0.082665
  35 C :    0.195929
  36 N :   -0.153312
  37 C :    0.054229
  38 C :   -0.023613
  39 C :   -0.011107
  40 C :   -0.037794
  41 C :    0.045651
  42 C :    0.010044
  43 C :   -0.037745
  44 S :    0.050978
  45 C :   -0.042734
  46 C :    0.028883
  47 C :    0.023950
  48 C :    0.012731
  49 S :    0.037967
  50 C :   -0.075000
  51 C :    0.095266
  52 C :   -0.063466
  53 C :    0.045796
  54 C :   -0.017425
  55 C :   -0.006739
  56 C :   -0.035673
  57 N :    0.008086
  58 C :   -0.178639
  59 C :   -0.187788
  60 N :    0.007582
  61 C :    0.134081
  62 C :    0.131961
  63 H :   -0.008896
  64 H :   -0.006627
  65 H :   -0.001637
  66 H :    0.031254
  67 H :    0.140498
  68 H :    0.018850
  69 H :    0.004199
  70 H :   -0.002565
  71 H :    0.030576
  72 H :    0.043319
  73 H :    0.023169
  74 H :    0.037478
  75 H :    0.021811
  76 H :    0.122430
  77 H :    0.004371
  78 H :   -0.013581
  79 H :   -0.025609
  80 H :   -0.021898
  81 H :   -0.021416
  82 H :   -0.021604
  83 H :   -0.019518
  84 H :   -0.013445
  85 H :   -0.018491
  86 H :   -0.017925
  87 H :   -0.037253
  88 H :    0.019496
  89 H :    0.019312
  90 H :    0.023795
  91 H :    0.020183
  92 H :    0.019969
  93 H :    0.021569
Sum of atomic charges:   -0.0000000

LOEWDIN ATOMIC CHARGES
----------------------
   0 C :    0.074803
   1 C :   -0.136631
   2 C :   -0.018134
   3 N :   -0.050068
   4 C :   -0.020541
   5 N :   -0.050458
   6 C :   -0.020053
   7 C :   -0.044881
   8 C :    0.026915
   9 C :   -0.030327
  10 C :   -0.142581
  11 C :   -0.009120
  12 S :    0.433329
  13 C :   -0.269993
  14 C :   -0.069770
  15 Br:    0.138806
  16 C :    0.088709
  17 O :   -0.132852
  18 C :   -0.070150
  19 C :    0.046715
  20 C :    0.046202
  21 O :    0.018746
  22 C :   -0.050315
  23 C :    0.090398
  24 O :   -0.147825
  25 N :   -0.000859
  26 C :    0.085632
  27 O :   -0.155464
  28 C :   -0.100818
  29 C :    0.087122
  30 C :   -0.049610
  31 C :    0.020364
  32 C :   -0.060720
  33 C :   -0.019178
  34 C :   -0.047991
  35 C :    0.038513
  36 N :   -0.001845
  37 C :    0.039967
  38 C :   -0.121285
  39 C :   -0.039605
  40 C :   -0.173373
  41 C :   -0.028834
  42 C :   -0.049628
  43 C :   -0.169760
  44 S :    0.350807
  45 C :   -0.196807
  46 C :   -0.036836
  47 C :   -0.040312
  48 C :   -0.137185
  49 S :    0.365651
  50 C :   -0.064039
  51 C :   -0.025835
  52 C :   -0.032140
  53 C :   -0.017730
  54 C :   -0.029129
  55 C :   -0.016045
  56 C :   -0.008008
  57 N :   -0.044974
  58 C :   -0.009090
  59 C :   -0.010359
  60 N :   -0.050202
  61 C :   -0.054014
  62 C :   -0.053746
  63 H :    0.042277
  64 H :    0.041026
  65 H :    0.039515
  66 H :    0.051404
  67 H :    0.096217
  68 H :    0.047566
  69 H :    0.030562
  70 H :    0.032070
  71 H :    0.034499
  72 H :    0.045641
  73 H :    0.034486
  74 H :    0.040619
  75 H :    0.032623
  76 H :    0.081517
  77 H :    0.027341
  78 H :    0.018458
  79 H :    0.029041
  80 H :    0.029985
  81 H :    0.028538
  82 H :    0.028846
  83 H :    0.030559
  84 H :    0.031035
  85 H :    0.011012
  86 H :    0.028817
  87 H :    0.029360
  88 H :    0.035068
  89 H :    0.034794
  90 H :    0.037275
  91 H :    0.035304
  92 H :    0.035053
  93 H :    0.035936

  Mayer bond orders larger than 0.100000
B(  0-C ,  1-C ) :   1.6294 B(  0-C ,  6-C ) :   1.0112 B(  0-C , 18-C ) :   1.0808
B(  1-C ,  2-C ) :   1.1438 B(  1-C ,  4-C ) :   1.1465 B(  2-C ,  3-N ) :   2.9667
B(  4-C ,  5-N ) :   2.9712 B(  6-C ,  7-C ) :   1.2732 B(  6-C , 11-C ) :   1.4018
B(  7-C ,  8-C ) :   1.4272 B(  7-C , 16-C ) :   0.9393 B(  8-C ,  9-C ) :   1.2473
B(  8-C , 63-H ) :   1.0162 B(  9-C , 10-C ) :   1.3036 B(  9-C , 14-C ) :   1.1620
B( 10-C , 11-C ) :   1.3351 B( 10-C , 12-S ) :   1.0861 B( 11-C , 64-H ) :   0.9800
B( 12-S , 13-C ) :   1.0858 B( 13-C , 14-C ) :   1.6184 B( 13-C , 15-Br) :   1.0209
B( 14-C , 65-H ) :   1.0008 B( 16-C , 17-O ) :   2.2258 B( 16-C , 18-C ) :   0.9266
B( 18-C , 19-C ) :   1.6051 B( 19-C , 20-C ) :   1.1633 B( 19-C , 66-H ) :   0.9326
B( 20-C , 21-O ) :   1.1182 B( 20-C , 22-C ) :   1.4368 B( 21-O , 29-C ) :   1.1739
B( 22-C , 23-C ) :   0.8653 B( 22-C , 28-C ) :   1.3128 B( 23-C , 24-O ) :   2.2393
B( 23-C , 25-N ) :   1.0888 B( 25-N , 26-C ) :   1.0769 B( 25-N , 67-H ) :   0.9147
B( 26-C , 27-O ) :   2.2727 B( 26-C , 28-C ) :   0.8779 B( 28-C , 29-C ) :   1.3643
B( 29-C , 30-C ) :   1.1535 B( 30-C , 31-C ) :   1.6444 B( 30-C , 68-H ) :   0.9708
B( 31-C , 32-C ) :   1.0967 B( 31-C , 69-H ) :   0.9847 B( 32-C , 33-C ) :   1.7653
B( 32-C , 70-H ) :   0.9684 B( 33-C , 34-C ) :   1.0822 B( 33-C , 35-C ) :   0.9949
B( 34-C , 71-H ) :   0.9508 B( 34-C , 72-H ) :   0.9439 B( 34-C , 73-H ) :   0.9531
B( 35-C , 36-N ) :   1.0538 B( 35-C , 74-H ) :   0.9180 B( 35-C , 75-H ) :   0.9452
B( 36-N , 37-C ) :   1.2022 B( 36-N , 76-H ) :   0.9408 B( 37-C , 38-C ) :   1.6071
B( 37-C , 77-H ) :   0.9676 B( 38-C , 39-C ) :   1.1658 B( 38-C , 78-H ) :   0.9611
B( 39-C , 40-C ) :   1.5924 B( 39-C , 79-H ) :   0.9789 B( 40-C , 41-C ) :   1.1439
B( 40-C , 44-S ) :   1.0093 B( 41-C , 42-C ) :   1.5931 B( 41-C , 80-H ) :   0.9974
B( 42-C , 43-C ) :   1.1845 B( 42-C , 81-H ) :   0.9937 B( 43-C , 44-S ) :   1.0491
B( 43-C , 45-C ) :   1.5181 B( 45-C , 46-C ) :   1.1805 B( 45-C , 49-S ) :   1.0219
B( 46-C , 47-C ) :   1.5969 B( 46-C , 82-H ) :   0.9926 B( 47-C , 48-C ) :   1.1345
B( 47-C , 83-H ) :   1.0001 B( 48-C , 49-S ) :   1.0302 B( 48-C , 50-C ) :   1.5660
B( 50-C , 51-C ) :   1.1459 B( 50-C , 84-H ) :   0.9608 B( 51-C , 52-C ) :   1.4023
B( 51-C , 54-C ) :   0.1008 B( 51-C , 56-C ) :   1.1779 B( 52-C , 53-C ) :   1.2847
B( 52-C , 85-H ) :   0.9808 B( 53-C , 54-C ) :   1.4199 B( 53-C , 86-H ) :   0.9857
B( 54-C , 55-C ) :   1.2560 B( 54-C , 87-H ) :   1.0083 B( 55-C , 56-C ) :   1.2591
B( 55-C , 60-N ) :   1.3960 B( 56-C , 57-N ) :   1.4522 B( 57-N , 58-C ) :   1.6974
B( 58-C , 59-C ) :   1.1743 B( 58-C , 62-C ) :   1.0941 B( 59-C , 60-N ) :   1.7197
B( 59-C , 61-C ) :   1.0931 B( 61-C , 88-H ) :   0.9417 B( 61-C , 89-H ) :   0.9416
B( 61-C , 90-H ) :   0.9412 B( 62-C , 91-H ) :   0.9415 B( 62-C , 92-H ) :   0.9415
B( 62-C , 93-H ) :   0.9423

-----------------------------------------------------------------------------
         ABSORPTION SPECTRUM VIA TRANSITION ELECTRIC DIPOLE MOMENTS
-----------------------------------------------------------------------------
State   Energy  Wavelength   fosc         T2         TX        TY        TZ
        (cm-1)    (nm)                  (au**2)     (au)      (au)      (au)
-----------------------------------------------------------------------------
   0    9796.7   1020.8   0.017671713   0.59385   0.00171  -0.18837   0.74724
   1   16171.6    618.4   1.405460235  28.61153   0.83934   1.61575   5.02955
   2   17356.6    576.2   0.119979766   2.27572  -0.31290  -0.76492  -1.26203
   3   19520.7    512.3   0.614398662  10.36168  -0.46775  -2.13473   2.36343
   4   19789.0    505.3   0.008541004   0.14209  -0.07911  -0.27759   0.24243
   5   23821.7    419.8   0.078091975   1.07922  -0.44836   0.27182   0.89683
   6   23931.4    417.9   0.056729424   0.78040  -0.43698   0.19796   0.74180
   7   25325.4    394.9   0.178151275   2.31584  -1.08004   0.69610  -0.81535
   8   25987.0    384.8   0.046052478   0.58341   0.35987   0.52290  -0.42483
   9   27491.4    363.8   0.124814591   1.49467   1.11052   0.33156  -0.38920
  10   27878.6    358.7   0.117939706   1.39272   0.81150  -0.49056   0.70252
  11   28067.1    356.3   0.081031933   0.95046  -0.89807   0.22121  -0.30821
  12   29516.8    338.8   0.001817815   0.02027   0.04967   0.12875  -0.03507
  13   30605.7    326.7   0.345046529   3.71152  -0.48091   1.73715  -0.68011
  14   31083.2    321.7   0.001785348   0.01891   0.05175  -0.12050   0.04137
  15   31503.5    317.4   0.299727606   3.13216   0.27416  -1.57315   0.76303
  16   31682.9    315.6   0.005371589   0.05582   0.13377  -0.03544   0.19148
  17   31889.4    313.6   0.005456603   0.05633   0.02972  -0.21578   0.09427
  18   32080.3    311.7   0.797788327   8.18700   2.69533  -0.65953   0.69800
  19   32339.2    309.2   0.245197607   2.49611  -1.07751   0.29839  -1.11626
  20   32722.5    305.6   0.002348491   0.02363  -0.15063   0.00066  -0.03061
  21   33008.7    303.0   0.192324578   1.91815  -1.26045   0.52496   0.23203
  22   33143.3    301.7   0.026086534   0.25912  -0.18944   0.22440   0.41578
  23   33601.8    297.6   0.107328139   1.05154   0.80112  -0.37457  -0.51908
  24   33948.6    294.6   0.008046085   0.07803   0.20231  -0.12517  -0.14638
  25   34612.4    288.9   0.001728720   0.01644  -0.11784   0.02990  -0.04076
  26   35208.1    284.0   0.061896815   0.57876  -0.73711   0.07617   0.17213
  27   35494.1    281.7   0.038198441   0.35429  -0.58515   0.04486   0.09941
  28   35644.5    280.5   0.002175477   0.02009  -0.04846   0.12208   0.05329
  29   36237.9    276.0   0.002622117   0.02382   0.13037  -0.02355  -0.07919
  30   36656.0    272.8   0.307865353   2.76498  -1.12953  -0.40879   1.14980
  31   36788.1    271.8   0.000008596   0.00008   0.00304  -0.00639   0.00518
  32   36800.9    271.7   0.001502838   0.01344  -0.03805   0.02296  -0.10709
  33   37451.9    267.0   0.064432732   0.56638   0.53645  -0.07362  -0.52267
  34   37615.9    265.8   0.145832377   1.27632  -0.27515   0.35726   1.03585
  35   37656.8    265.6   0.016847615   0.14729   0.34135  -0.16501   0.05947
  36   38193.7    261.8   0.001131341   0.00975  -0.03966   0.05984  -0.06781
  37   38275.4    261.3   0.001036525   0.00892   0.01900   0.08318   0.04043
  38   39086.0    255.8   0.079513570   0.66972   0.57124   0.43350  -0.39433
  39   39181.5    255.2   0.023817021   0.20012  -0.19448  -0.26547  -0.30302
  40   39228.3    254.9   0.002773255   0.02327  -0.04538   0.12260   0.07863
  41   39535.5    252.9   0.077272110   0.64344   0.19677   0.34526   0.69680
  42   39643.0    252.3   0.017324365   0.14387   0.08186   0.13230  -0.34593

FINAL SINGLE POINT ENERGY     -6280.227652220206

DIPOLE MOMENT
-------------
                                X             Y             Z
Electronic contribution:     59.80371    -114.49488     247.49898
Nuclear contribution   :    -58.53592     116.21934    -246.17055
                        -----------------------------------------
Total Dipole Moment    :      1.26779       1.72446       1.32843
                        -----------------------------------------
Magnitude (a.u.)       :      2.51908
Magnitude (Debye)      :      6.40300

Rotational constants in cm-1:     0.001651     0.000199     0.000194
Rotational constants in MHz :    49.510232     5.973545     5.818708

                             ****ORCA TERMINATED NORMALLY****
TOTAL RUN TIME: 0 days 0 hours 8 minutes 13 seconds 657 msec
