                         Program Version 4.2.0 -  RELEASE  -
|  1> # ORCA input file
|  2> # SCF done       -207.693932054980          0.000476619103
|  3> ! CAM-B3LYP def2-SVP def2/J RIJCOSX Grid4 TightSCF
|  4> %maxcore 5000
|  5> %tddft
|  6>     Mode sTDDFT
|  7>     Ethresh 5.0
|  8>     maxcore 5000
|  9> end
| 10>
| 11> %pal
| 12>   nprocs 6
| 13>   end
| 14> * xyz 0 1
| 15>    C       -8.58125        -1.23247        -1.76049
| 16>    C       -7.82837        -2.29463        -2.18260
| 17>    C       -8.34251        -3.58813        -2.41116
| 18>    N       -8.71537        -4.65100        -2.63076
| 19>    C       -6.43917        -2.23801        -2.42392
| 20>    N       -5.30649        -2.26334        -2.60827
| 21>    C       -9.98933        -1.26429        -1.39321
| 22>    C      -10.36648         0.00843        -0.89481
| 23>    C      -11.63857         0.28608        -0.45779
| 24>    C      -12.58529        -0.74176        -0.51287
| 25>    C      -12.20290        -2.00758        -1.02020
| 26>    C      -10.91709        -2.28815        -1.46244
| 27>    S      -13.53022        -3.12827        -1.00936
| 28>    C      -14.56567        -1.90111        -0.32978
| 29>    C      -13.95128        -0.71188        -0.12175
| 30>   Br      -16.35901        -2.30549         0.03781
| 31>    C       -9.21609         0.92816        -0.96900
| 32>    O       -9.22151         2.12072        -0.76184
| 33>    C       -8.09687         0.11932        -1.52986
| 34>    C       -6.92476         0.66630        -1.92862
| 35>    C       -6.52023         2.02043        -1.59816
| 36>    C       -6.27135         2.91840        -2.64761
| 37>    C       -5.96879         4.24169        -2.41732
| 38>    C       -5.84362         4.72275        -1.11576
| 39>    C       -6.02154         3.84655        -0.07256
| 40>    C       -6.36507         2.50328        -0.29639
| 41>    N       -6.38206         1.82401         0.90547
| 42>    C       -6.60401         0.42359         1.11922
| 43>    C       -6.08318         2.65703         1.96007
| 44>    O       -5.97362         2.30369         3.10623
| 45>    C       -5.89981         4.06349         1.40401
| 46>    C       -7.00760         4.98033         1.96812
| 47>    C       -8.36135         4.48186         1.44999
| 48>    O       -8.88521         3.42336         1.70231
| 49>    N       -8.86609         5.44562         0.62519
| 50>    C      -10.09706         5.29948        -0.10270
| 51>    C       -8.04846         6.56275         0.58438
| 52>    C       -8.21347         7.73365        -0.12441
| 53>    C       -7.25797         8.75005         0.02719
| 54>    C       -6.16171         8.54777         0.87269
| 55>    C       -5.98956         7.35523         1.55756
| 56>    C       -6.93533         6.36416         1.41319
| 57>    C       -7.43209         9.98285        -0.71061
| 58>    C       -6.83690        11.15766        -0.42548
| 59>    C       -7.02266        12.35089        -1.17922
| 60>    O       -7.74867        12.36461        -2.33117
| 61>    C       -6.55773        13.62826        -0.94357
| 62>    C       -5.76343        14.45124        -0.02920
| 63>    O       -5.17420        14.17135         0.98374
| 64>    N       -5.81917        15.71920        -0.60144
| 65>    C       -6.55579        15.81040        -1.78610
| 66>    O       -6.71250        16.82148        -2.42302
| 67>    C       -7.03095        14.44717        -1.99887
| 68>    C       -7.76158        13.63009        -2.84740
| 69>    C       -8.41799        13.91758        -4.06112
| 70>    C       -9.01818        12.96104        -4.83037
| 71>    C       -9.64726        13.20522        -6.05607
| 72>    C      -10.18351        12.21213        -6.84340
| 73>    C      -10.81619        12.34743        -8.10076
| 74>    C      -11.21820        11.16889        -8.65933
| 75>    C      -10.92604        10.03719        -7.87189
| 76>    S      -10.13150        10.51856        -6.38838
| 77>    C      -11.17277         8.70363        -8.14297
| 78>    C      -11.77368         8.11234        -9.27145
| 79>    C      -11.84322         6.75082        -9.21122
| 80>    C      -11.30880         6.18124        -8.03115
| 81>    S      -10.70247         7.46521        -7.00108
| 82>    C      -11.26702         4.83485        -7.75303
| 83>    C      -10.80007         4.14599        -6.63008
| 84>    S      -10.87887         2.38272        -6.69887
| 85>    C      -10.22756         2.14892        -5.10615
| 86>    C       -9.95711         3.39122        -4.54115
| 87>    C      -10.27227         4.49902        -5.38309
| 88>    N       -9.97165         5.60305        -4.65823
| 89>    N       -9.49881         5.28184        -3.44297
| 90>    C       -9.47569         3.97701        -3.34308
| 91>    C      -10.03276         0.87231        -4.50769
| 92>    C      -10.32546        -0.30312        -5.07047
| 93>    H      -11.89154         1.26318        -0.07771
| 94>    H      -10.67484        -3.26637        -1.84326
| 95>    H      -14.43972         0.15156         0.29142
| 96>    H       -6.27443         0.12276        -2.60317
| 97>    H       -6.37281         2.55766        -3.66086
| 98>    H       -5.82510         4.91109        -3.25057
| 99>    H       -5.59299         5.75625        -0.93498
|100>    H       -6.01144        -0.17013         0.41976
|101>    H       -7.66202         0.17127         1.00825
|102>    H       -6.29795         0.20728         2.14366
|103>    H       -4.92619         4.46572         1.69707
|104>    H       -6.96862         4.93402         3.05982
|105>    H      -10.39071         4.25399        -0.02583
|106>    H       -9.94167         5.55825        -1.15063
|107>    H      -10.87744         5.93372         0.32502
|108>    H       -9.06123         7.87838        -0.77522
|109>    H       -5.42043         9.32347         0.97558
|110>    H       -5.12894         7.20952         2.19288
|111>    H       -8.12133         9.94435        -1.54426
|112>    H       -6.18533        11.27674         0.42714
|113>    H       -5.35549        16.51736        -0.19219
|114>    H       -8.39797        14.95199        -4.37004
|115>    H       -8.99268        11.93601        -4.48127
|116>    H       -9.70479        14.22232        -6.41893
|117>    H      -10.95112        13.31248        -8.55630
|118>    H      -11.71150        11.08630        -9.61132
|119>    H      -12.13523         8.70096       -10.09510
|120>    H      -12.26767         6.13269        -9.98259
|121>    H      -11.66112         4.19744        -8.53573
|122>    H      -10.05225         6.57149        -4.91779
|123>    H       -9.14099         3.50215        -2.44372
|124>    H       -9.61397         0.91846        -3.51104
|125>    H      -10.74325        -0.35952        -6.06171
|126>    H      -10.15771        -1.23417        -4.55907
|127> *
|128>
|129>                          ****END OF INPUT****

CARTESIAN COORDINATES (ANGSTROEM)
---------------------------------
  C     -8.581250   -1.232470   -1.760490
  C     -7.828370   -2.294630   -2.182600
  C     -8.342510   -3.588130   -2.411160
  N     -8.715370   -4.651000   -2.630760
  C     -6.439170   -2.238010   -2.423920
  N     -5.306490   -2.263340   -2.608270
  C     -9.989330   -1.264290   -1.393210
  C    -10.366480    0.008430   -0.894810
  C    -11.638570    0.286080   -0.457790
  C    -12.585290   -0.741760   -0.512870
  C    -12.202900   -2.007580   -1.020200
  C    -10.917090   -2.288150   -1.462440
  S    -13.530220   -3.128270   -1.009360
  C    -14.565670   -1.901110   -0.329780
  C    -13.951280   -0.711880   -0.121750
  Br   -16.359010   -2.305490    0.037810
  C     -9.216090    0.928160   -0.969000
  O     -9.221510    2.120720   -0.761840
  C     -8.096870    0.119320   -1.529860
  C     -6.924760    0.666300   -1.928620
  C     -6.520230    2.020430   -1.598160
  C     -6.271350    2.918400   -2.647610
  C     -5.968790    4.241690   -2.417320
  C     -5.843620    4.722750   -1.115760
  C     -6.021540    3.846550   -0.072560
  C     -6.365070    2.503280   -0.296390
  N     -6.382060    1.824010    0.905470
  C     -6.604010    0.423590    1.119220
  C     -6.083180    2.657030    1.960070
  O     -5.973620    2.303690    3.106230
  C     -5.899810    4.063490    1.404010
  C     -7.007600    4.980330    1.968120
  C     -8.361350    4.481860    1.449990
  O     -8.885210    3.423360    1.702310
  N     -8.866090    5.445620    0.625190
  C    -10.097060    5.299480   -0.102700
  C     -8.048460    6.562750    0.584380
  C     -8.213470    7.733650   -0.124410
  C     -7.257970    8.750050    0.027190
  C     -6.161710    8.547770    0.872690
  C     -5.989560    7.355230    1.557560
  C     -6.935330    6.364160    1.413190
  C     -7.432090    9.982850   -0.710610
  C     -6.836900   11.157660   -0.425480
  C     -7.022660   12.350890   -1.179220
  O     -7.748670   12.364610   -2.331170
  C     -6.557730   13.628260   -0.943570
  C     -5.763430   14.451240   -0.029200
  O     -5.174200   14.171350    0.983740
  N     -5.819170   15.719200   -0.601440
  C     -6.555790   15.810400   -1.786100
  O     -6.712500   16.821480   -2.423020
  C     -7.030950   14.447170   -1.998870
  C     -7.761580   13.630090   -2.847400
  C     -8.417990   13.917580   -4.061120
  C     -9.018180   12.961040   -4.830370
  C     -9.647260   13.205220   -6.056070
  C    -10.183510   12.212130   -6.843400
  C    -10.816190   12.347430   -8.100760
  C    -11.218200   11.168890   -8.659330
  C    -10.926040   10.037190   -7.871890
  S    -10.131500   10.518560   -6.388380
  C    -11.172770    8.703630   -8.142970
  C    -11.773680    8.112340   -9.271450
  C    -11.843220    6.750820   -9.211220
  C    -11.308800    6.181240   -8.031150
  S    -10.702470    7.465210   -7.001080
  C    -11.267020    4.834850   -7.753030
  C    -10.800070    4.145990   -6.630080
  S    -10.878870    2.382720   -6.698870
  C    -10.227560    2.148920   -5.106150
  C     -9.957110    3.391220   -4.541150
  C    -10.272270    4.499020   -5.383090
  N     -9.971650    5.603050   -4.658230
  N     -9.498810    5.281840   -3.442970
  C     -9.475690    3.977010   -3.343080
  C    -10.032760    0.872310   -4.507690
  C    -10.325460   -0.303120   -5.070470
  H    -11.891540    1.263180   -0.077710
  H    -10.674840   -3.266370   -1.843260
  H    -14.439720    0.151560    0.291420
  H     -6.274430    0.122760   -2.603170
  H     -6.372810    2.557660   -3.660860
  H     -5.825100    4.911090   -3.250570
  H     -5.592990    5.756250   -0.934980
  H     -6.011440   -0.170130    0.419760
  H     -7.662020    0.171270    1.008250
  H     -6.297950    0.207280    2.143660
  H     -4.926190    4.465720    1.697070
  H     -6.968620    4.934020    3.059820
  H    -10.390710    4.253990   -0.025830
  H     -9.941670    5.558250   -1.150630
  H    -10.877440    5.933720    0.325020
  H     -9.061230    7.878380   -0.775220
  H     -5.420430    9.323470    0.975580
  H     -5.128940    7.209520    2.192880
  H     -8.121330    9.944350   -1.544260
  H     -6.185330   11.276740    0.427140
  H     -5.355490   16.517360   -0.192190
  H     -8.397970   14.951990   -4.370040
  H     -8.992680   11.936010   -4.481270
  H     -9.704790   14.222320   -6.418930
  H    -10.951120   13.312480   -8.556300
  H    -11.711500   11.086300   -9.611320
  H    -12.135230    8.700960  -10.095100
  H    -12.267670    6.132690   -9.982590
  H    -11.661120    4.197440   -8.535730
  H    -10.052250    6.571490   -4.917790
  H     -9.140990    3.502150   -2.443720
  H     -9.613970    0.918460   -3.511040
  H    -10.743250   -0.359520   -6.061710
  H    -10.157710   -1.234170   -4.559070

 Total Charge           Charge          ....    0
 Multiplicity           Mult            ....    1
 Number of Electrons    NEL             ....  590
 Basis Dimension        Dim             .... 1296

ORBITAL ENERGIES
----------------

  NO   OCC          E(Eh)            E(eV)
   0   2.0000    -482.891466    -13140.1448
   1   2.0000     -88.983115     -2421.3537
   2   2.0000     -88.969884     -2420.9936
   3   2.0000     -88.959581     -2420.7133
   4   2.0000     -88.949773     -2420.4464
   5   2.0000     -62.569183     -1702.5940
   6   2.0000     -56.403142     -1534.8075
   7   2.0000     -56.400407     -1534.7331
   8   2.0000     -56.400379     -1534.7323
   9   2.0000     -19.299108      -525.1554
  10   2.0000     -19.229675      -523.2661
  11   2.0000     -19.198672      -522.4224
  12   2.0000     -19.197585      -522.3928
  13   2.0000     -19.189392      -522.1699
  14   2.0000     -19.183701      -522.0150
  15   2.0000     -14.484017      -394.1301
  16   2.0000     -14.453380      -393.2965
  17   2.0000     -14.445192      -393.0737
  18   2.0000     -14.443015      -393.0144
  19   2.0000     -14.442195      -392.9921
  20   2.0000     -14.425519      -392.5383
  21   2.0000     -14.424355      -392.5067
  22   2.0000     -10.388085      -282.6742
  23   2.0000     -10.387105      -282.6475
  24   2.0000     -10.378832      -282.4224
  25   2.0000     -10.371479      -282.2223
  26   2.0000     -10.366300      -282.0814
  27   2.0000     -10.366181      -282.0781
  28   2.0000     -10.353642      -281.7369
  29   2.0000     -10.351415      -281.6763
  30   2.0000     -10.350487      -281.6511
  31   2.0000     -10.350447      -281.6500
  32   2.0000     -10.334264      -281.2096
  33   2.0000     -10.327635      -281.0292
  34   2.0000     -10.326583      -281.0006
  35   2.0000     -10.325998      -280.9847
  36   2.0000     -10.324961      -280.9565
  37   2.0000     -10.324902      -280.9549
  38   2.0000     -10.322386      -280.8864
  39   2.0000     -10.320226      -280.8276
  40   2.0000     -10.318650      -280.7847
  41   2.0000     -10.318234      -280.7734
  42   2.0000     -10.316561      -280.7279
  43   2.0000     -10.315993      -280.7124
  44   2.0000     -10.315019      -280.6859
  45   2.0000     -10.313899      -280.6554
  46   2.0000     -10.313748      -280.6513
  47   2.0000     -10.312263      -280.6109
  48   2.0000     -10.309611      -280.5388
  49   2.0000     -10.307883      -280.4917
  50   2.0000     -10.304296      -280.3941
  51   2.0000     -10.303404      -280.3699
  52   2.0000     -10.302495      -280.3451
  53   2.0000     -10.301812      -280.3266
  54   2.0000     -10.295526      -280.1555
  55   2.0000     -10.295525      -280.1555
  56   2.0000     -10.295419      -280.1526
  57   2.0000     -10.294613      -280.1307
  58   2.0000     -10.294514      -280.1280
  59   2.0000     -10.293280      -280.0944
  60   2.0000     -10.292339      -280.0688
  61   2.0000     -10.291619      -280.0492
  62   2.0000     -10.287498      -279.9370
  63   2.0000     -10.287440      -279.9355
  64   2.0000     -10.285563      -279.8844
  65   2.0000     -10.285259      -279.8761
  66   2.0000     -10.284569      -279.8573
  67   2.0000     -10.284314      -279.8504
  68   2.0000     -10.283566      -279.8300
  69   2.0000     -10.281876      -279.7841
  70   2.0000     -10.281611      -279.7769
  71   2.0000     -10.281113      -279.7633
  72   2.0000     -10.279451      -279.7181
  73   2.0000     -10.279248      -279.7126
  74   2.0000     -10.278824      -279.7010
  75   2.0000     -10.278212      -279.6844
  76   2.0000     -10.277914      -279.6763
  77   2.0000     -10.276336      -279.6333
  78   2.0000     -10.275881      -279.6209
  79   2.0000     -10.273857      -279.5659
  80   2.0000     -10.269653      -279.4515
  81   2.0000     -10.269384      -279.4442
  82   2.0000      -8.798623      -239.4227
  83   2.0000      -8.079090      -219.8432
  84   2.0000      -8.064802      -219.4544
  85   2.0000      -8.056041      -219.2160
  86   2.0000      -8.046172      -218.9475
  87   2.0000      -6.634953      -180.5463
  88   2.0000      -6.620348      -180.1488
  89   2.0000      -6.620127      -180.1428
  90   2.0000      -6.048761      -164.5952
  91   2.0000      -6.044496      -164.4791
  92   2.0000      -6.040337      -164.3659
  93   2.0000      -6.034186      -164.1986
  94   2.0000      -6.030005      -164.0848
  95   2.0000      -6.026896      -164.0002
  96   2.0000      -6.025773      -163.9696
  97   2.0000      -6.021867      -163.8633
  98   2.0000      -6.016889      -163.7279
  99   2.0000      -6.015876      -163.7003
 100   2.0000      -6.011945      -163.5933
 101   2.0000      -6.007054      -163.4602
 102   2.0000      -2.750854       -74.8546
 103   2.0000      -2.746724       -74.7422
 104   2.0000      -2.746532       -74.7369
 105   2.0000      -2.734939       -74.4215
 106   2.0000      -2.734935       -74.4214
 107   2.0000      -1.213357       -33.0171
 108   2.0000      -1.147935       -31.2369
 109   2.0000      -1.145756       -31.1776
 110   2.0000      -1.142290       -31.0833
 111   2.0000      -1.135131       -30.8885
 112   2.0000      -1.125618       -30.6296
 113   2.0000      -1.121520       -30.5181
 114   2.0000      -1.059161       -28.8212
 115   2.0000      -1.052708       -28.6456
 116   2.0000      -1.031971       -28.0814
 117   2.0000      -1.029797       -28.0222
 118   2.0000      -1.022005       -27.8102
 119   2.0000      -1.004643       -27.3377
 120   2.0000      -1.003509       -27.3069
 121   2.0000      -0.999021       -27.1848
 122   2.0000      -0.992097       -26.9963
 123   2.0000      -0.979959       -26.6660
 124   2.0000      -0.959893       -26.1200
 125   2.0000      -0.954743       -25.9799
 126   2.0000      -0.949399       -25.8345
 127   2.0000      -0.931800       -25.3556
 128   2.0000      -0.928433       -25.2639
 129   2.0000      -0.923271       -25.1235
 130   2.0000      -0.917238       -24.9593
 131   2.0000      -0.911689       -24.8083
 132   2.0000      -0.907934       -24.7061
 133   2.0000      -0.902530       -24.5591
 134   2.0000      -0.896752       -24.4019
 135   2.0000      -0.894537       -24.3416
 136   2.0000      -0.884869       -24.0785
 137   2.0000      -0.879116       -23.9220
 138   2.0000      -0.869650       -23.6644
 139   2.0000      -0.863020       -23.4840
 140   2.0000      -0.854679       -23.2570
 141   2.0000      -0.850837       -23.1525
 142   2.0000      -0.840264       -22.8647
 143   2.0000      -0.838402       -22.8141
 144   2.0000      -0.834203       -22.6998
 145   2.0000      -0.830196       -22.5908
 146   2.0000      -0.829756       -22.5788
 147   2.0000      -0.816012       -22.2048
 148   2.0000      -0.807744       -21.9798
 149   2.0000      -0.797393       -21.6982
 150   2.0000      -0.792953       -21.5773
 151   2.0000      -0.776498       -21.1296
 152   2.0000      -0.775063       -21.0905
 153   2.0000      -0.766648       -20.8616
 154   2.0000      -0.760704       -20.6998
 155   2.0000      -0.754795       -20.5390
 156   2.0000      -0.750313       -20.4171
 157   2.0000      -0.739211       -20.1149
 158   2.0000      -0.721321       -19.6281
 159   2.0000      -0.718970       -19.5642
 160   2.0000      -0.711317       -19.3559
 161   2.0000      -0.707214       -19.2443
 162   2.0000      -0.701335       -19.0843
 163   2.0000      -0.699922       -19.0458
 164   2.0000      -0.696372       -18.9492
 165   2.0000      -0.691028       -18.8038
 166   2.0000      -0.690921       -18.8009
 167   2.0000      -0.689642       -18.7661
 168   2.0000      -0.684350       -18.6221
 169   2.0000      -0.676892       -18.4192
 170   2.0000      -0.670680       -18.2501
 171   2.0000      -0.668192       -18.1824
 172   2.0000      -0.662307       -18.0223
 173   2.0000      -0.659543       -17.9471
 174   2.0000      -0.651426       -17.7262
 175   2.0000      -0.637400       -17.3445
 176   2.0000      -0.634146       -17.2560
 177   2.0000      -0.629716       -17.1354
 178   2.0000      -0.626419       -17.0457
 179   2.0000      -0.620613       -16.8877
 180   2.0000      -0.614313       -16.7163
 181   2.0000      -0.614100       -16.7105
 182   2.0000      -0.609710       -16.5911
 183   2.0000      -0.601976       -16.3806
 184   2.0000      -0.596867       -16.2416
 185   2.0000      -0.595120       -16.1940
 186   2.0000      -0.591560       -16.0972
 187   2.0000      -0.589277       -16.0350
 188   2.0000      -0.584442       -15.9035
 189   2.0000      -0.581468       -15.8225
 190   2.0000      -0.577672       -15.7192
 191   2.0000      -0.576304       -15.6820
 192   2.0000      -0.572298       -15.5730
 193   2.0000      -0.568577       -15.4718
 194   2.0000      -0.563790       -15.3415
 195   2.0000      -0.559693       -15.2300
 196   2.0000      -0.558088       -15.1864
 197   2.0000      -0.555753       -15.1228
 198   2.0000      -0.552864       -15.0442
 199   2.0000      -0.551210       -14.9992
 200   2.0000      -0.549671       -14.9573
 201   2.0000      -0.547507       -14.8984
 202   2.0000      -0.543450       -14.7880
 203   2.0000      -0.540775       -14.7152
 204   2.0000      -0.537177       -14.6173
 205   2.0000      -0.534224       -14.5370
 206   2.0000      -0.532723       -14.4961
 207   2.0000      -0.531260       -14.4563
 208   2.0000      -0.530386       -14.4325
 209   2.0000      -0.529166       -14.3993
 210   2.0000      -0.524773       -14.2798
 211   2.0000      -0.523525       -14.2458
 212   2.0000      -0.522519       -14.2185
 213   2.0000      -0.521191       -14.1823
 214   2.0000      -0.515893       -14.0382
 215   2.0000      -0.514364       -13.9966
 216   2.0000      -0.513248       -13.9662
 217   2.0000      -0.511273       -13.9124
 218   2.0000      -0.506284       -13.7767
 219   2.0000      -0.505361       -13.7516
 220   2.0000      -0.504223       -13.7206
 221   2.0000      -0.502634       -13.6774
 222   2.0000      -0.502158       -13.6644
 223   2.0000      -0.501658       -13.6508
 224   2.0000      -0.494803       -13.4643
 225   2.0000      -0.491212       -13.3666
 226   2.0000      -0.487330       -13.2609
 227   2.0000      -0.486887       -13.2489
 228   2.0000      -0.484080       -13.1725
 229   2.0000      -0.482449       -13.1281
 230   2.0000      -0.478162       -13.0115
 231   2.0000      -0.477810       -13.0019
 232   2.0000      -0.474930       -12.9235
 233   2.0000      -0.471000       -12.8166
 234   2.0000      -0.469774       -12.7832
 235   2.0000      -0.467781       -12.7290
 236   2.0000      -0.467333       -12.7168
 237   2.0000      -0.465883       -12.6773
 238   2.0000      -0.464933       -12.6515
 239   2.0000      -0.461837       -12.5672
 240   2.0000      -0.460741       -12.5374
 241   2.0000      -0.459232       -12.4963
 242   2.0000      -0.457474       -12.4485
 243   2.0000      -0.456537       -12.4230
 244   2.0000      -0.455485       -12.3944
 245   2.0000      -0.454083       -12.3562
 246   2.0000      -0.452824       -12.3220
 247   2.0000      -0.452028       -12.3003
 248   2.0000      -0.450400       -12.2560
 249   2.0000      -0.447045       -12.1647
 250   2.0000      -0.446556       -12.1514
 251   2.0000      -0.441984       -12.0270
 252   2.0000      -0.440871       -11.9967
 253   2.0000      -0.437831       -11.9140
 254   2.0000      -0.436469       -11.8769
 255   2.0000      -0.434596       -11.8260
 256   2.0000      -0.433310       -11.7910
 257   2.0000      -0.432002       -11.7554
 258   2.0000      -0.429705       -11.6929
 259   2.0000      -0.423999       -11.5376
 260   2.0000      -0.421281       -11.4636
 261   2.0000      -0.417924       -11.3723
 262   2.0000      -0.416339       -11.3292
 263   2.0000      -0.415122       -11.2961
 264   2.0000      -0.405881       -11.0446
 265   2.0000      -0.399649       -10.8750
 266   2.0000      -0.395865       -10.7720
 267   2.0000      -0.383957       -10.4480
 268   2.0000      -0.380842       -10.3632
 269   2.0000      -0.380337       -10.3495
 270   2.0000      -0.376475       -10.2444
 271   2.0000      -0.371567       -10.1109
 272   2.0000      -0.367863       -10.0101
 273   2.0000      -0.359841        -9.7918
 274   2.0000      -0.357367        -9.7245
 275   2.0000      -0.355553        -9.6751
 276   2.0000      -0.352187        -9.5835
 277   2.0000      -0.349536        -9.5114
 278   2.0000      -0.345961        -9.4141
 279   2.0000      -0.345464        -9.4006
 280   2.0000      -0.341947        -9.3048
 281   2.0000      -0.334562        -9.1039
 282   2.0000      -0.333319        -9.0701
 283   2.0000      -0.329799        -8.9743
 284   2.0000      -0.326682        -8.8895
 285   2.0000      -0.323148        -8.7933
 286   2.0000      -0.322884        -8.7861
 287   2.0000      -0.315288        -8.5794
 288   2.0000      -0.310833        -8.4582
 289   2.0000      -0.301174        -8.1953
 290   2.0000      -0.288042        -7.8380
 291   2.0000      -0.276738        -7.5304
 292   2.0000      -0.271694        -7.3932
 293   2.0000      -0.250975        -6.8294
 294   2.0000      -0.205883        -5.6024
 295   0.0000      -0.095063        -2.5868
 296   0.0000      -0.094186        -2.5629
 297   0.0000      -0.066412        -1.8072
 298   0.0000      -0.051408        -1.3989
 299   0.0000      -0.040969        -1.1148

MULLIKEN ATOMIC CHARGES
-----------------------
   0 C :    0.299003
   1 C :   -0.340198
   2 C :   -0.188118
   3 N :    0.159370
   4 C :   -0.208960
   5 N :    0.176187
   6 C :    0.018574
   7 C :   -0.010767
   8 C :   -0.058333
   9 C :    0.115910
  10 C :   -0.087644
  11 C :   -0.024617
  12 S :    0.191096
  13 C :   -0.123641
  14 C :    0.042598
  15 Br:    0.030924
  16 C :    0.149320
  17 O :   -0.129312
  18 C :   -0.115148
  19 C :   -0.068931
  20 C :   -0.029417
  21 C :   -0.011892
  22 C :    0.040315
  23 C :   -0.019768
  24 C :   -0.067693
  25 C :    0.212300
  26 N :   -0.227975
  27 C :    0.145580
  28 C :    0.137948
  29 O :   -0.183450
  30 C :    0.028118
  31 C :    0.044838
  32 C :    0.112189
  33 O :   -0.198807
  34 N :   -0.226173
  35 C :    0.113951
  36 C :    0.230276
  37 C :   -0.149886
  38 C :    0.119507
  39 C :   -0.025093
  40 C :   -0.037103
  41 C :   -0.026792
  42 C :    0.006865
  43 C :   -0.015084
  44 C :    0.084017
  45 O :   -0.226718
  46 C :   -0.036059
  47 C :    0.161745
  48 O :   -0.150994
  49 N :   -0.170025
  50 C :    0.158511
  51 O :   -0.151738
  52 C :   -0.034442
  53 C :    0.106700
  54 C :   -0.051116
  55 C :    0.031259
  56 C :   -0.019664
  57 C :   -0.005063
  58 C :    0.028193
  59 C :    0.032933
  60 C :   -0.051116
  61 S :    0.057641
  62 C :   -0.021586
  63 C :    0.021535
  64 C :    0.036596
  65 C :   -0.038503
  66 S :    0.017080
  67 C :    0.050468
  68 C :   -0.233084
  69 S :    0.131259
  70 C :   -0.104138
  71 C :   -0.010100
  72 C :    0.187472
  73 N :   -0.043762
  74 N :   -0.085072
  75 C :    0.023250
  76 C :    0.024170
  77 C :   -0.013574
  78 H :   -0.005097
  79 H :   -0.005775
  80 H :    0.000054
  81 H :    0.049683
  82 H :   -0.020663
  83 H :   -0.014896
  84 H :   -0.012532
  85 H :    0.035591
  86 H :    0.033735
  87 H :    0.055467
  88 H :    0.040272
  89 H :    0.050726
  90 H :    0.050556
  91 H :    0.045302
  92 H :    0.019574
  93 H :   -0.038158
  94 H :   -0.019633
  95 H :   -0.026090
  96 H :   -0.002653
  97 H :    0.012692
  98 H :    0.134259
  99 H :    0.007927
 100 H :    0.010522
 101 H :   -0.012127
 102 H :   -0.010831
 103 H :   -0.011831
 104 H :   -0.012022
 105 H :   -0.008983
 106 H :   -0.016404
 107 H :    0.138782
 108 H :    0.008154
 109 H :   -0.037421
 110 H :    0.025294
 111 H :    0.030385
Sum of atomic charges:   -0.0000000

LOEWDIN ATOMIC CHARGES
----------------------
   0 C :    0.071442
   1 C :   -0.134218
   2 C :   -0.019600
   3 N :   -0.046563
   4 C :   -0.024346
   5 N :   -0.043869
   6 C :   -0.023793
   7 C :   -0.053364
   8 C :    0.029323
   9 C :   -0.029318
  10 C :   -0.141770
  11 C :   -0.009599
  12 S :    0.436319
  13 C :   -0.269025
  14 C :   -0.068595
  15 Br:    0.142171
  16 C :    0.080352
  17 O :   -0.114865
  18 C :   -0.097049
  19 C :    0.082919
  20 C :   -0.070201
  21 C :    0.000063
  22 C :   -0.033613
  23 C :    0.001596
  24 C :   -0.044421
  25 C :    0.060503
  26 N :    0.000831
  27 C :    0.035470
  28 C :    0.086474
  29 O :   -0.177327
  30 C :   -0.020612
  31 C :   -0.019856
  32 C :    0.077045
  33 O :   -0.190120
  34 N :   -0.001591
  35 C :    0.025583
  36 C :    0.039107
  37 C :   -0.046913
  38 C :   -0.019082
  39 C :   -0.030518
  40 C :   -0.016978
  41 C :   -0.041978
  42 C :    0.005825
  43 C :   -0.039855
  44 C :    0.068665
  45 O :    0.004691
  46 C :   -0.100020
  47 C :    0.082809
  48 O :   -0.168214
  49 N :   -0.008994
  50 C :    0.083422
  51 O :   -0.168724
  52 C :   -0.106140
  53 C :    0.072786
  54 C :   -0.050896
  55 C :   -0.007913
  56 C :   -0.066903
  57 C :   -0.132041
  58 C :   -0.041032
  59 C :   -0.024872
  60 C :   -0.189630
  61 S :    0.364575
  62 C :   -0.167181
  63 C :   -0.045156
  64 C :   -0.024330
  65 C :   -0.166490
  66 S :    0.374193
  67 C :   -0.060826
  68 C :   -0.207614
  69 S :    0.453494
  70 C :   -0.162591
  71 C :   -0.091865
  72 C :   -0.016826
  73 N :    0.086571
  74 N :   -0.057564
  75 C :   -0.026465
  76 C :   -0.043470
  77 C :   -0.035475
  78 H :    0.044465
  79 H :    0.041077
  80 H :    0.040400
  81 H :    0.047553
  82 H :    0.030374
  83 H :    0.030709
  84 H :    0.036270
  85 H :    0.027495
  86 H :    0.026021
  87 H :    0.040372
  88 H :    0.050118
  89 H :    0.053494
  90 H :    0.033930
  91 H :    0.025264
  92 H :    0.021481
  93 H :    0.029877
  94 H :    0.027798
  95 H :    0.030488
  96 H :    0.031384
  97 H :    0.043358
  98 H :    0.092099
  99 H :    0.044186
 100 H :    0.023806
 101 H :    0.034154
 102 H :    0.034294
 103 H :    0.032916
 104 H :    0.033357
 105 H :    0.034919
 106 H :    0.036990
 107 H :    0.053795
 108 H :    0.019958
 109 H :    0.034270
 110 H :    0.021441
 111 H :    0.025931

  Mayer bond orders larger than 0.100000
B(  0-C ,  1-C ) :   1.6707 B(  0-C ,  6-C ) :   1.0181 B(  0-C , 18-C ) :   1.0275
B(  1-C ,  2-C ) :   1.1340 B(  1-C ,  4-C ) :   1.1515 B(  2-C ,  3-N ) :   2.9730
B(  4-C ,  5-N ) :   2.9866 B(  6-C ,  7-C ) :   1.2691 B(  6-C , 11-C ) :   1.3987
B(  7-C ,  8-C ) :   1.4239 B(  7-C , 16-C ) :   0.9455 B(  8-C ,  9-C ) :   1.2448
B(  8-C , 78-H ) :   1.0202 B(  9-C , 10-C ) :   1.2989 B(  9-C , 14-C ) :   1.1660
B( 10-C , 11-C ) :   1.3343 B( 10-C , 12-S ) :   1.0888 B( 11-C , 79-H ) :   0.9809
B( 12-S , 13-C ) :   1.0865 B( 13-C , 14-C ) :   1.6159 B( 13-C , 15-Br) :   1.0234
B( 14-C , 80-H ) :   0.9994 B( 16-C , 17-O ) :   2.1239 B( 16-C , 18-C ) :   0.9292
B( 18-C , 19-C ) :   1.6940 B( 19-C , 20-C ) :   1.0319 B( 19-C , 81-H ) :   0.9450
B( 20-C , 21-C ) :   1.3154 B( 20-C , 25-C ) :   1.3643 B( 21-C , 22-C ) :   1.4178
B( 21-C , 82-H ) :   0.9946 B( 22-C , 23-C ) :   1.2933 B( 22-C , 83-H ) :   0.9924
B( 23-C , 24-C ) :   1.4703 B( 23-C , 84-H ) :   1.0030 B( 24-C , 25-C ) :   1.3321
B( 24-C , 30-C ) :   0.9403 B( 25-C , 26-N ) :   1.1002 B( 26-N , 27-C ) :   0.9734
B( 26-N , 28-C ) :   1.0893 B( 27-C , 85-H ) :   0.9605 B( 27-C , 86-H ) :   0.9594
B( 27-C , 87-H ) :   0.9482 B( 28-C , 29-O ) :   2.1817 B( 28-C , 30-C ) :   0.9275
B( 30-C , 31-C ) :   1.0417 B( 30-C , 88-H ) :   0.8834 B( 31-C , 32-C ) :   0.9029
B( 31-C , 41-C ) :   0.9837 B( 31-C , 89-H ) :   0.8798 B( 32-C , 33-O ) :   2.1247
B( 32-C , 34-N ) :   1.1408 B( 34-N , 35-C ) :   0.9532 B( 34-N , 36-C ) :   1.0539
B( 35-C , 90-H ) :   0.9531 B( 35-C , 91-H ) :   0.9504 B( 35-C , 92-H ) :   0.9675
B( 36-C , 37-C ) :   1.3521 B( 36-C , 41-C ) :   1.3501 B( 37-C , 38-C ) :   1.2647
B( 37-C , 93-H ) :   1.0173 B( 38-C , 39-C ) :   1.3766 B( 38-C , 42-C ) :   1.0376
B( 39-C , 40-C ) :   1.3494 B( 39-C , 94-H ) :   0.9873 B( 40-C , 41-C ) :   1.4143
B( 40-C , 95-H ) :   1.0065 B( 42-C , 43-C ) :   1.6675 B( 42-C , 96-H ) :   0.9891
B( 43-C , 44-C ) :   1.1701 B( 43-C , 97-H ) :   0.9525 B( 44-C , 45-O ) :   1.1456
B( 44-C , 46-C ) :   1.4102 B( 45-O , 53-C ) :   1.1322 B( 46-C , 47-C ) :   0.8800
B( 46-C , 52-C ) :   1.2625 B( 47-C , 48-O ) :   2.2593 B( 47-C , 49-N ) :   1.0825
B( 49-N , 50-C ) :   1.0690 B( 49-N , 98-H ) :   0.9151 B( 50-C , 51-O ) :   2.2615
B( 50-C , 52-C ) :   0.8914 B( 52-C , 53-C ) :   1.3757 B( 53-C , 54-C ) :   1.1975
B( 54-C , 55-C ) :   1.5632 B( 54-C , 99-H ) :   0.9705 B( 55-C , 56-C ) :   1.1664
B( 55-C ,100-H ) :   0.9770 B( 56-C , 57-C ) :   1.5260 B( 56-C ,101-H ) :   0.9877
B( 57-C , 58-C ) :   1.1618 B( 57-C , 61-S ) :   1.0437 B( 58-C , 59-C ) :   1.5639
B( 58-C ,102-H ) :   1.0001 B( 59-C , 60-C ) :   1.2125 B( 59-C ,103-H ) :   0.9935
B( 60-C , 61-S ) :   1.0375 B( 60-C , 62-C ) :   1.4784 B( 62-C , 63-C ) :   1.2105
B( 62-C , 66-S ) :   1.0560 B( 63-C , 64-C ) :   1.5652 B( 63-C ,104-H ) :   0.9916
B( 64-C , 65-C ) :   1.1699 B( 64-C ,105-H ) :   0.9982 B( 65-C , 66-S ) :   1.0093
B( 65-C , 67-C ) :   1.5776 B( 67-C , 68-C ) :   1.2253 B( 67-C ,106-H ) :   0.9309
B( 68-C , 69-S ) :   1.0950 B( 68-C , 70-C ) :   0.1073 B( 68-C , 72-C ) :   1.3233
B( 69-S , 70-C ) :   1.1374 B( 70-C , 71-C ) :   1.3425 B( 70-C , 76-C ) :   1.1716
B( 71-C , 72-C ) :   1.2528 B( 71-C , 75-C ) :   1.1619 B( 72-C , 73-N ) :   1.1579
B( 73-N , 74-N ) :   1.1229 B( 73-N ,107-H ) :   0.9332 B( 74-N , 75-C ) :   1.6751
B( 75-C ,108-H ) :   0.9751 B( 76-C , 77-C ) :   1.8838 B( 76-C ,109-H ) :   0.9576
B( 77-C ,110-H ) :   0.9544 B( 77-C ,111-H ) :   0.9492

-----------------------------------------------------------------------------
         ABSORPTION SPECTRUM VIA TRANSITION ELECTRIC DIPOLE MOMENTS
-----------------------------------------------------------------------------
State   Energy  Wavelength   fosc         T2         TX        TY        TZ
        (cm-1)    (nm)                  (au**2)     (au)      (au)      (au)
-----------------------------------------------------------------------------
   0   11573.4    864.1   0.949003571  26.99501  -1.20921  -4.87136  -1.34265
   1   13102.0    763.2   0.002596195   0.06523   0.14486   0.13380   0.16231
   2   18484.5    541.0   0.011845027   0.21096   0.17278  -0.18633   0.38261
   3   18875.0    529.8   0.025436899   0.44366   0.10403  -0.56772   0.33246
   4   20624.7    484.9   0.226247686   3.61137   0.92697   1.51281   0.68082
   5   21868.1    457.3   1.291735204  19.44639   1.20283  -2.84245   3.14961
   6   22840.5    437.8   0.204792777   2.95178  -0.91448  -0.45970  -1.37992
   7   23129.3    432.4   0.019041377   0.27103   0.30852   0.33222   0.25588
   8   25078.7    398.7   0.007857634   0.10315  -0.25736  -0.15176  -0.11782
   9   25791.0    387.7   0.207225967   2.64516   0.89305   0.42546   1.29097
  10   25967.4    385.1   0.050287088   0.63753  -0.20248  -0.11032  -0.76444
  11   26743.7    373.9   0.015940996   0.19623  -0.12360  -0.03184  -0.42419
  12   27951.9    357.8   0.039840139   0.46923   0.14787  -0.66043  -0.10583
  13   28084.4    356.1   0.005350372   0.06272   0.21402  -0.03214  -0.12602
  14   28338.1    352.9   0.143248768   1.66416  -0.29511  -1.23581   0.22324
  15   28477.5    351.2   0.414013405   4.78618  -2.14194  -0.10596   0.43250
  16   29492.0    339.1   0.039731331   0.44351   0.02257  -0.63995   0.18293
  17   29867.0    334.8   0.307232966   3.38650  -0.08458  -1.80145   0.36621
  18   30191.4    331.2   0.000992478   0.01082  -0.04729   0.09145  -0.01495
  19   30356.6    329.4   0.018077710   0.19605   0.41881  -0.11301  -0.08877
  20   30698.0    325.8   0.000341047   0.00366  -0.04118  -0.02251   0.03815
  21   30932.3    323.3   0.000141365   0.00150   0.00703  -0.03800   0.00339
  22   31099.1    321.6   0.000461950   0.00489  -0.03603   0.02396  -0.05493
  23   31562.1    316.8   0.207279444   2.16205  -0.08278  -1.45638  -0.18478
  24   31595.1    316.5   0.058398510   0.60850   0.29232   0.64985  -0.31740
  25   32690.6    305.9   0.018333011   0.18462   0.16679   0.09653   0.38404
  26   33189.7    301.3   0.051979613   0.51559   0.66118  -0.06627   0.27210
  27   33341.9    299.9   0.235547003   2.32575  -1.29877   0.63092   0.49080
  28   33411.4    299.3   0.019652168   0.19364   0.02950   0.43900   0.00670
  29   33565.6    297.9   0.300610002   2.94839   1.65287   0.26591  -0.38173
  30   34030.7    293.9   0.029746880   0.28777  -0.50138   0.13807   0.13164
  31   34173.0    292.6   0.054004696   0.52026  -0.00176   0.66234   0.28560
  32   34361.3    291.0   0.101550326   0.97294   0.39375  -0.86845  -0.25239
  33   34672.2    288.4   0.006665796   0.06329  -0.14902   0.16257   0.12106
  34   34923.6    286.3   0.052346012   0.49345  -0.68759  -0.14319   0.01271
  35   35134.3    284.6   0.040453194   0.37905   0.54161   0.25004  -0.15226
  36   35341.0    283.0   0.038853454   0.36193  -0.25117   0.29473   0.46042
  37   35380.0    282.6   0.010288781   0.09574  -0.26638  -0.13411   0.08242
  38   35509.2    281.6   0.191371748   1.77424  -0.74989  -1.01133  -0.43489
  39   35677.9    280.3   0.036882427   0.34033  -0.16394   0.52992   0.18065
  40   35789.0    279.4   0.002346060   0.02158   0.02577  -0.09281   0.11092
  41   35954.7    278.1   0.076759266   0.70283   0.21527   0.78424   0.20362
  42   36088.7    277.1   0.122585541   1.11826   0.49438   0.90924   0.21711
  43   36612.3    273.1   0.060921930   0.54780  -0.48643  -0.55621  -0.04273
  44   37173.6    269.0   0.160353562   1.42010   0.15636   1.16503  -0.19588
  45   37357.4    267.7   0.008108265   0.07145  -0.04054   0.26313  -0.02389
  46   37397.2    267.4   0.013237994   0.11654  -0.01625   0.33359   0.07063
  47   37569.4    266.2   0.015066085   0.13202   0.02428   0.34435   0.11339
  48   37717.7    265.1   0.022531944   0.19667  -0.01175  -0.36083   0.25755
  49   38325.7    260.9   0.043589271   0.37443  -0.27046  -0.54759  -0.03767
  50   38434.3    260.2   0.018334172   0.15704  -0.18182  -0.33938  -0.09386
  51   38671.5    258.6   0.049870991   0.42455   0.25431   0.59767   0.05166
  52   38687.8    258.5   0.021407268   0.18216   0.03082  -0.41163   0.10849
  53   38851.1    257.4   0.036415540   0.30857   0.24651   0.48475   0.11326
  54   39196.4    255.1   0.002132370   0.01791  -0.03851   0.12640  -0.02118
  55   39386.8    253.9   0.096868986   0.80967   0.22378   0.82864   0.27009
  56   39465.8    253.4   0.018694441   0.15594   0.11249   0.37410   0.05775
  57   39549.0    252.9   0.024858150   0.20692  -0.29443   0.05484   0.34239
  58   39851.2    250.9   0.066519710   0.54952  -0.19321  -0.71374   0.05256
  59   39951.1    250.3   0.000235419   0.00194   0.01042  -0.04276  -0.00178
  60   40158.6    249.0   0.172872789   1.41718   0.49652   1.08190  -0.01226

FINAL SINGLE POINT ENERGY     -7303.736870659287

DIPOLE MOMENT
-------------
                                X             Y             Z
Electronic contribution:    -87.30438     -94.22045      25.76204
Nuclear contribution   :     84.43402      94.24330     -28.35649
                        -----------------------------------------
Total Dipole Moment    :     -2.87036       0.02285      -2.59445
                        -----------------------------------------
Magnitude (a.u.)       :      3.86919
Magnitude (Debye)      :      9.83471

Rotational constants in cm-1:     0.000935     0.000371     0.000314
Rotational constants in MHz :    28.023574    11.116281     9.413208

                             ****ORCA TERMINATED NORMALLY****
TOTAL RUN TIME: 0 days 0 hours 14 minutes 45 seconds 397 msec
