                         Program Version 4.2.0 -  RELEASE  -
|  1> # ORCA input file
|  2> # SCF done       -190.531448408393          0.000655316014
|  3> ! CAM-B3LYP def2-SVP def2/J RIJCOSX Grid4 TightSCF
|  4> %maxcore 5000
|  5> %tddft
|  6>     Mode sTDDFT
|  7>     Ethresh 5.0
|  8>     maxcore 5000
|  9> end
| 10>
| 11> %pal
| 12>   nprocs 6
| 13>   end
| 14> * xyz 0 1
| 15>    C       -1.28222        -4.06531        -2.40527
| 16>    C       -2.26780        -4.96551        -2.09185
| 17>    C       -2.03362        -6.18415        -1.42276
| 18>    N       -1.89506        -7.19067        -0.88816
| 19>    C       -3.64479        -4.76361        -2.32606
| 20>    N       -4.78116        -4.64603        -2.43702
| 21>    C        0.11996        -4.16925        -2.02738
| 22>    C        0.76106        -2.94378        -2.33082
| 23>    C        2.09359        -2.72320        -2.08153
| 24>    C        2.83160        -3.76524        -1.51081
| 25>    C        2.18399        -4.98915        -1.21687
| 26>    C        0.83491        -5.21022        -1.46392
| 27>    S        3.28395        -6.14395        -0.52771
| 28>    C        4.58004        -4.98268        -0.64068
| 29>    C        4.21066        -3.79099        -1.16690
| 30>   Br        6.29834        -5.45408        -0.05631
| 31>    C       -0.20608        -2.01084        -2.94666
| 32>    O        0.03024        -0.88275        -3.31168
| 33>    C       -1.47077        -2.78929        -3.07213
| 34>    C       -2.54453        -2.46942        -3.85070
| 35>    C       -2.81911        -1.23644        -4.48687
| 36>    O       -2.23841        -0.06300        -4.12891
| 37>    C       -3.69783        -0.97535        -5.52805
| 38>    C       -4.63907        -1.59081        -6.47185
| 39>    O       -4.99192        -2.73059        -6.61329
| 40>    N       -5.06838        -0.51343        -7.24856
| 41>    C       -4.50041         0.71495        -6.92673
| 42>    O       -4.72945         1.75531        -7.49366
| 43>    C       -3.61177         0.40604        -5.80682
| 44>    C       -2.69556         0.93714        -4.90773
| 45>    C       -2.20073         2.25437        -4.71029
| 46>    C       -2.58864         3.28994        -5.48554
| 47>    C       -2.11492         4.63856        -5.30440
| 48>    C       -1.81466         5.08399        -4.04479
| 49>    S       -1.28850         6.70759        -3.95943
| 50>    C       -1.41168         6.83249        -5.68829
| 51>    C       -1.88359         5.66290        -6.30464
| 52>    C       -1.97117         5.63477        -7.71975
| 53>    C       -2.45368         4.38378        -8.40712
| 54>    C       -1.36983         3.30433        -8.43338
| 55>    C       -1.57581         6.73884        -8.46746
| 56>    C       -1.57712         6.69493        -9.97348
| 57>    C       -2.92835         7.12753       -10.54909
| 58>    C       -1.14874         7.92927        -7.83184
| 59>    C       -0.67387         9.18324        -8.37823
| 60>    C       -0.25360        10.03208        -7.39176
| 61>    S       -0.42351         9.42935        -5.79564
| 62>    C       -1.06094         7.94528        -6.43192
| 63>    C       -0.61892         9.61147        -9.75678
| 64>    C        0.38671        10.38116       -10.24013
| 65>    C        0.45918        10.85967       -11.56464
| 66>    C        1.50293        11.60587       -12.04362
| 67>    C        1.67787        12.11610       -13.35391
| 68>    C        2.83007        12.81941       -13.53547
| 69>    C        3.63401        12.91148       -12.37849
| 70>    S        2.87468        12.07180       -11.04403
| 71>    C        4.85141        13.54688       -12.22807
| 72>    C        5.61270        14.24884       -13.18400
| 73>    C        6.78102        14.75636       -12.69733
| 74>    C        7.01847        14.49275       -11.32685
| 75>    S        5.67883        13.55844       -10.68439
| 76>    C        8.12547        14.91948       -10.63137
| 77>    C        8.49860        14.75541        -9.29416
| 78>    S       10.01206        15.51103        -8.79873
| 79>    C        9.90940        14.98853        -7.14504
| 80>    C        8.74140        14.24761        -6.97827
| 81>    C        7.96301        14.11956        -8.16892
| 82>    N        6.88439        13.37635        -7.82614
| 83>    N        6.91563        13.03003        -6.53250
| 84>    C        8.00147        13.53015        -6.00294
| 85>    C       10.94017        15.34732        -6.22821
| 86>    C       10.97438        15.01011        -4.93552
| 87>    H        2.55292        -1.77716        -2.32157
| 88>    H        0.38753        -6.16135        -1.22850
| 89>    H        4.88167        -2.96370        -1.30909
| 90>    H       -3.27970        -3.23305        -4.07184
| 91>    H       -5.73742        -0.62186        -7.99749
| 92>    H       -1.46030         2.36041        -3.93153
| 93>    H       -3.30510         3.09451        -6.26708
| 94>    H       -1.93151         4.53256        -3.13242
| 95>    H       -2.75513         4.59838        -9.42887
| 96>    H       -3.34367         4.00711        -7.90761
| 97>    H       -1.02320         3.07187        -7.42964
| 98>    H       -0.51557         3.63902        -9.01856
| 99>    H       -1.76349         2.39470        -8.88016
|100>    H       -1.33524         5.69296       -10.32635
|101>    H       -0.78932         7.35367       -10.34069
|102>    H       -3.70872         6.42175       -10.27471
|103>    H       -2.87894         7.18095       -11.63482
|104>    H       -3.21957         8.10169       -10.16219
|105>    H        0.11301        11.03108        -7.52578
|106>    H       -1.43426         9.34863       -10.41263
|107>    H        1.21924        10.62944        -9.59373
|108>    H       -0.34639        10.62290       -12.24708
|109>    H        0.94402        11.94283       -14.12131
|110>    H        3.12247        13.27377       -14.46525
|111>    H        5.28254        14.35963       -14.20110
|112>    H        7.48657        15.31811       -13.28381
|113>    H        8.83293        15.49089       -11.22102
|114>    H        6.11379        13.07725        -8.39955
|115>    H        8.21739        13.36665        -4.96741
|116>    H       11.74080        15.94080        -6.65089
|117>    H       10.19867        14.42263        -4.47931
|118>    H       11.78696        15.31850        -4.30261
|119> *
|120>
|121>                          ****END OF INPUT****

CARTESIAN COORDINATES (ANGSTROEM)
---------------------------------
  C     -1.282220   -4.065310   -2.405270
  C     -2.267800   -4.965510   -2.091850
  C     -2.033620   -6.184150   -1.422760
  N     -1.895060   -7.190670   -0.888160
  C     -3.644790   -4.763610   -2.326060
  N     -4.781160   -4.646030   -2.437020
  C      0.119960   -4.169250   -2.027380
  C      0.761060   -2.943780   -2.330820
  C      2.093590   -2.723200   -2.081530
  C      2.831600   -3.765240   -1.510810
  C      2.183990   -4.989150   -1.216870
  C      0.834910   -5.210220   -1.463920
  S      3.283950   -6.143950   -0.527710
  C      4.580040   -4.982680   -0.640680
  C      4.210660   -3.790990   -1.166900
  Br     6.298340   -5.454080   -0.056310
  C     -0.206080   -2.010840   -2.946660
  O      0.030240   -0.882750   -3.311680
  C     -1.470770   -2.789290   -3.072130
  C     -2.544530   -2.469420   -3.850700
  C     -2.819110   -1.236440   -4.486870
  O     -2.238410   -0.063000   -4.128910
  C     -3.697830   -0.975350   -5.528050
  C     -4.639070   -1.590810   -6.471850
  O     -4.991920   -2.730590   -6.613290
  N     -5.068380   -0.513430   -7.248560
  C     -4.500410    0.714950   -6.926730
  O     -4.729450    1.755310   -7.493660
  C     -3.611770    0.406040   -5.806820
  C     -2.695560    0.937140   -4.907730
  C     -2.200730    2.254370   -4.710290
  C     -2.588640    3.289940   -5.485540
  C     -2.114920    4.638560   -5.304400
  C     -1.814660    5.083990   -4.044790
  S     -1.288500    6.707590   -3.959430
  C     -1.411680    6.832490   -5.688290
  C     -1.883590    5.662900   -6.304640
  C     -1.971170    5.634770   -7.719750
  C     -2.453680    4.383780   -8.407120
  C     -1.369830    3.304330   -8.433380
  C     -1.575810    6.738840   -8.467460
  C     -1.577120    6.694930   -9.973480
  C     -2.928350    7.127530  -10.549090
  C     -1.148740    7.929270   -7.831840
  C     -0.673870    9.183240   -8.378230
  C     -0.253600   10.032080   -7.391760
  S     -0.423510    9.429350   -5.795640
  C     -1.060940    7.945280   -6.431920
  C     -0.618920    9.611470   -9.756780
  C      0.386710   10.381160  -10.240130
  C      0.459180   10.859670  -11.564640
  C      1.502930   11.605870  -12.043620
  C      1.677870   12.116100  -13.353910
  C      2.830070   12.819410  -13.535470
  C      3.634010   12.911480  -12.378490
  S      2.874680   12.071800  -11.044030
  C      4.851410   13.546880  -12.228070
  C      5.612700   14.248840  -13.184000
  C      6.781020   14.756360  -12.697330
  C      7.018470   14.492750  -11.326850
  S      5.678830   13.558440  -10.684390
  C      8.125470   14.919480  -10.631370
  C      8.498600   14.755410   -9.294160
  S     10.012060   15.511030   -8.798730
  C      9.909400   14.988530   -7.145040
  C      8.741400   14.247610   -6.978270
  C      7.963010   14.119560   -8.168920
  N      6.884390   13.376350   -7.826140
  N      6.915630   13.030030   -6.532500
  C      8.001470   13.530150   -6.002940
  C     10.940170   15.347320   -6.228210
  C     10.974380   15.010110   -4.935520
  H      2.552920   -1.777160   -2.321570
  H      0.387530   -6.161350   -1.228500
  H      4.881670   -2.963700   -1.309090
  H     -3.279700   -3.233050   -4.071840
  H     -5.737420   -0.621860   -7.997490
  H     -1.460300    2.360410   -3.931530
  H     -3.305100    3.094510   -6.267080
  H     -1.931510    4.532560   -3.132420
  H     -2.755130    4.598380   -9.428870
  H     -3.343670    4.007110   -7.907610
  H     -1.023200    3.071870   -7.429640
  H     -0.515570    3.639020   -9.018560
  H     -1.763490    2.394700   -8.880160
  H     -1.335240    5.692960  -10.326350
  H     -0.789320    7.353670  -10.340690
  H     -3.708720    6.421750  -10.274710
  H     -2.878940    7.180950  -11.634820
  H     -3.219570    8.101690  -10.162190
  H      0.113010   11.031080   -7.525780
  H     -1.434260    9.348630  -10.412630
  H      1.219240   10.629440   -9.593730
  H     -0.346390   10.622900  -12.247080
  H      0.944020   11.942830  -14.121310
  H      3.122470   13.273770  -14.465250
  H      5.282540   14.359630  -14.201100
  H      7.486570   15.318110  -13.283810
  H      8.832930   15.490890  -11.221020
  H      6.113790   13.077250   -8.399550
  H      8.217390   13.366650   -4.967410
  H     11.740800   15.940800   -6.650890
  H     10.198670   14.422630   -4.479310
  H     11.786960   15.318500   -4.302610

 Total Charge           Charge          ....    0
 Multiplicity           Mult            ....    1
 Number of Electrons    NEL             ....  566
 Basis Dimension        Dim             .... 1210

ORBITAL ENERGIES
----------------

  NO   OCC          E(Eh)            E(eV)
   0   2.0000    -482.887097    -13140.0259
   1   2.0000     -88.977169     -2421.1919
   2   2.0000     -88.960296     -2420.7327
   3   2.0000     -88.957219     -2420.6490
   4   2.0000     -88.948974     -2420.4246
   5   2.0000     -88.947844     -2420.3939
   6   2.0000     -88.938672     -2420.1443
   7   2.0000     -62.564785     -1702.4744
   8   2.0000     -56.398738     -1534.6877
   9   2.0000     -56.396018     -1534.6137
  10   2.0000     -56.395988     -1534.6128
  11   2.0000     -19.314373      -525.5708
  12   2.0000     -19.221617      -523.0468
  13   2.0000     -19.220350      -523.0123
  14   2.0000     -19.216903      -522.9185
  15   2.0000     -14.473773      -393.8514
  16   2.0000     -14.461939      -393.5294
  17   2.0000     -14.431119      -392.6907
  18   2.0000     -14.417379      -392.3168
  19   2.0000     -14.415284      -392.2598
  20   2.0000     -10.409154      -283.2475
  21   2.0000     -10.408751      -283.2365
  22   2.0000     -10.374103      -282.2937
  23   2.0000     -10.370774      -282.2031
  24   2.0000     -10.366467      -282.0859
  25   2.0000     -10.360777      -281.9311
  26   2.0000     -10.345772      -281.5228
  27   2.0000     -10.343522      -281.4616
  28   2.0000     -10.327684      -281.0306
  29   2.0000     -10.327524      -281.0262
  30   2.0000     -10.319701      -280.8133
  31   2.0000     -10.317308      -280.7482
  32   2.0000     -10.314600      -280.6745
  33   2.0000     -10.310376      -280.5596
  34   2.0000     -10.309630      -280.5393
  35   2.0000     -10.309357      -280.5319
  36   2.0000     -10.308343      -280.5043
  37   2.0000     -10.308294      -280.5029
  38   2.0000     -10.307672      -280.4860
  39   2.0000     -10.307419      -280.4791
  40   2.0000     -10.307236      -280.4741
  41   2.0000     -10.305719      -280.4329
  42   2.0000     -10.304520      -280.4002
  43   2.0000     -10.302677      -280.3501
  44   2.0000     -10.302418      -280.3431
  45   2.0000     -10.301511      -280.3184
  46   2.0000     -10.299822      -280.2724
  47   2.0000     -10.299106      -280.2529
  48   2.0000     -10.298169      -280.2274
  49   2.0000     -10.295930      -280.1665
  50   2.0000     -10.295347      -280.1506
  51   2.0000     -10.294209      -280.1197
  52   2.0000     -10.291567      -280.0478
  53   2.0000     -10.290404      -280.0161
  54   2.0000     -10.289676      -279.9963
  55   2.0000     -10.289285      -279.9857
  56   2.0000     -10.288952      -279.9766
  57   2.0000     -10.284257      -279.8489
  58   2.0000     -10.283669      -279.8329
  59   2.0000     -10.283617      -279.8314
  60   2.0000     -10.282790      -279.8089
  61   2.0000     -10.281550      -279.7752
  62   2.0000     -10.279742      -279.7260
  63   2.0000     -10.278507      -279.6924
  64   2.0000     -10.276503      -279.6379
  65   2.0000     -10.274980      -279.5964
  66   2.0000     -10.273495      -279.5560
  67   2.0000     -10.273348      -279.5520
  68   2.0000     -10.272552      -279.5303
  69   2.0000     -10.272375      -279.5255
  70   2.0000     -10.270155      -279.4651
  71   2.0000     -10.268996      -279.4336
  72   2.0000     -10.261687      -279.2347
  73   2.0000     -10.258554      -279.1494
  74   2.0000     -10.256377      -279.0902
  75   2.0000     -10.251538      -278.9585
  76   2.0000      -8.794209      -239.3026
  77   2.0000      -8.073141      -219.6813
  78   2.0000      -8.055325      -219.1965
  79   2.0000      -8.053517      -219.1473
  80   2.0000      -8.045214      -218.9214
  81   2.0000      -8.044187      -218.8935
  82   2.0000      -8.035050      -218.6448
  83   2.0000      -6.630494      -180.4249
  84   2.0000      -6.615955      -180.0293
  85   2.0000      -6.615740      -180.0234
  86   2.0000      -6.042835      -164.4339
  87   2.0000      -6.038559      -164.3176
  88   2.0000      -6.034362      -164.2033
  89   2.0000      -6.024581      -163.9372
  90   2.0000      -6.022896      -163.8913
  91   2.0000      -6.020516      -163.8266
  92   2.0000      -6.018717      -163.7776
  93   2.0000      -6.017569      -163.7464
  94   2.0000      -6.015345      -163.6859
  95   2.0000      -6.014709      -163.6685
  96   2.0000      -6.013955      -163.6480
  97   2.0000      -6.010481      -163.5535
  98   2.0000      -6.010068      -163.5423
  99   2.0000      -6.006903      -163.4561
 100   2.0000      -6.004985      -163.4039
 101   2.0000      -6.004785      -163.3985
 102   2.0000      -6.000888      -163.2925
 103   2.0000      -5.995843      -163.1552
 104   2.0000      -2.746399       -74.7333
 105   2.0000      -2.742266       -74.6209
 106   2.0000      -2.742125       -74.6170
 107   2.0000      -2.730555       -74.3022
 108   2.0000      -2.730542       -74.3018
 109   2.0000      -1.236422       -33.6447
 110   2.0000      -1.164331       -31.6831
 111   2.0000      -1.144138       -31.1336
 112   2.0000      -1.138144       -30.9705
 113   2.0000      -1.133334       -30.8396
 114   2.0000      -1.051205       -28.6047
 115   2.0000      -1.025029       -27.8924
 116   2.0000      -1.014676       -27.6107
 117   2.0000      -1.002744       -27.2861
 118   2.0000      -0.994773       -27.0692
 119   2.0000      -0.993065       -27.0227
 120   2.0000      -0.991956       -26.9925
 121   2.0000      -0.981166       -26.6989
 122   2.0000      -0.973101       -26.4794
 123   2.0000      -0.968729       -26.3605
 124   2.0000      -0.948763       -25.8172
 125   2.0000      -0.934276       -25.4229
 126   2.0000      -0.932130       -25.3646
 127   2.0000      -0.924112       -25.1464
 128   2.0000      -0.917504       -24.9666
 129   2.0000      -0.910182       -24.7673
 130   2.0000      -0.908047       -24.7092
 131   2.0000      -0.902562       -24.5600
 132   2.0000      -0.889282       -24.1986
 133   2.0000      -0.887773       -24.1575
 134   2.0000      -0.879937       -23.9443
 135   2.0000      -0.874186       -23.7878
 136   2.0000      -0.865354       -23.5475
 137   2.0000      -0.860888       -23.4259
 138   2.0000      -0.851624       -23.1739
 139   2.0000      -0.845813       -23.0157
 140   2.0000      -0.842066       -22.9138
 141   2.0000      -0.841277       -22.8923
 142   2.0000      -0.831061       -22.6143
 143   2.0000      -0.821073       -22.3425
 144   2.0000      -0.819617       -22.3029
 145   2.0000      -0.816323       -22.2133
 146   2.0000      -0.802846       -21.8465
 147   2.0000      -0.790650       -21.5147
 148   2.0000      -0.782201       -21.2848
 149   2.0000      -0.779503       -21.2114
 150   2.0000      -0.770023       -20.9534
 151   2.0000      -0.766219       -20.8499
 152   2.0000      -0.760540       -20.6953
 153   2.0000      -0.756298       -20.5799
 154   2.0000      -0.728633       -19.8271
 155   2.0000      -0.724354       -19.7107
 156   2.0000      -0.719459       -19.5775
 157   2.0000      -0.707418       -19.2498
 158   2.0000      -0.704641       -19.1742
 159   2.0000      -0.700127       -19.0514
 160   2.0000      -0.698571       -19.0091
 161   2.0000      -0.695184       -18.9169
 162   2.0000      -0.693353       -18.8671
 163   2.0000      -0.690417       -18.7872
 164   2.0000      -0.686824       -18.6894
 165   2.0000      -0.679785       -18.4979
 166   2.0000      -0.677629       -18.4392
 167   2.0000      -0.661883       -18.0107
 168   2.0000      -0.660441       -17.9715
 169   2.0000      -0.650055       -17.6889
 170   2.0000      -0.645697       -17.5703
 171   2.0000      -0.633966       -17.2511
 172   2.0000      -0.628660       -17.1067
 173   2.0000      -0.623428       -16.9643
 174   2.0000      -0.621608       -16.9148
 175   2.0000      -0.617349       -16.7989
 176   2.0000      -0.614148       -16.7118
 177   2.0000      -0.609970       -16.5981
 178   2.0000      -0.605455       -16.4753
 179   2.0000      -0.604643       -16.4532
 180   2.0000      -0.602062       -16.3829
 181   2.0000      -0.596768       -16.2389
 182   2.0000      -0.593087       -16.1387
 183   2.0000      -0.587458       -15.9856
 184   2.0000      -0.582842       -15.8599
 185   2.0000      -0.580815       -15.8048
 186   2.0000      -0.577772       -15.7220
 187   2.0000      -0.568441       -15.4681
 188   2.0000      -0.557709       -15.1760
 189   2.0000      -0.553870       -15.0716
 190   2.0000      -0.551708       -15.0127
 191   2.0000      -0.550088       -14.9686
 192   2.0000      -0.545890       -14.8544
 193   2.0000      -0.543935       -14.8012
 194   2.0000      -0.541355       -14.7310
 195   2.0000      -0.539681       -14.6855
 196   2.0000      -0.538812       -14.6618
 197   2.0000      -0.534700       -14.5499
 198   2.0000      -0.532260       -14.4835
 199   2.0000      -0.528940       -14.3932
 200   2.0000      -0.528022       -14.3682
 201   2.0000      -0.526311       -14.3217
 202   2.0000      -0.524648       -14.2764
 203   2.0000      -0.522890       -14.2286
 204   2.0000      -0.519165       -14.1272
 205   2.0000      -0.514983       -14.0134
 206   2.0000      -0.511265       -13.9122
 207   2.0000      -0.509886       -13.8747
 208   2.0000      -0.508733       -13.8433
 209   2.0000      -0.505078       -13.7439
 210   2.0000      -0.503997       -13.7145
 211   2.0000      -0.498374       -13.5614
 212   2.0000      -0.494979       -13.4691
 213   2.0000      -0.494507       -13.4562
 214   2.0000      -0.494035       -13.4434
 215   2.0000      -0.492392       -13.3987
 216   2.0000      -0.491625       -13.3778
 217   2.0000      -0.490315       -13.3422
 218   2.0000      -0.482996       -13.1430
 219   2.0000      -0.480976       -13.0880
 220   2.0000      -0.477949       -13.0057
 221   2.0000      -0.475499       -12.9390
 222   2.0000      -0.474355       -12.9079
 223   2.0000      -0.468336       -12.7441
 224   2.0000      -0.465729       -12.6731
 225   2.0000      -0.464581       -12.6419
 226   2.0000      -0.460065       -12.5190
 227   2.0000      -0.458981       -12.4895
 228   2.0000      -0.458339       -12.4720
 229   2.0000      -0.455572       -12.3968
 230   2.0000      -0.453953       -12.3527
 231   2.0000      -0.450380       -12.2555
 232   2.0000      -0.449463       -12.2305
 233   2.0000      -0.449265       -12.2251
 234   2.0000      -0.448883       -12.2147
 235   2.0000      -0.444186       -12.0869
 236   2.0000      -0.443790       -12.0761
 237   2.0000      -0.441219       -12.0062
 238   2.0000      -0.440370       -11.9831
 239   2.0000      -0.437320       -11.9001
 240   2.0000      -0.433870       -11.8062
 241   2.0000      -0.432957       -11.7813
 242   2.0000      -0.431260       -11.7352
 243   2.0000      -0.428093       -11.6490
 244   2.0000      -0.427327       -11.6281
 245   2.0000      -0.425323       -11.5736
 246   2.0000      -0.424899       -11.5621
 247   2.0000      -0.422929       -11.5085
 248   2.0000      -0.421300       -11.4641
 249   2.0000      -0.416525       -11.3342
 250   2.0000      -0.413634       -11.2556
 251   2.0000      -0.410450       -11.1689
 252   2.0000      -0.405979       -11.0473
 253   2.0000      -0.403545       -10.9810
 254   2.0000      -0.395219       -10.7545
 255   2.0000      -0.392808       -10.6889
 256   2.0000      -0.391978       -10.6663
 257   2.0000      -0.388216       -10.5639
 258   2.0000      -0.386124       -10.5070
 259   2.0000      -0.378225       -10.2920
 260   2.0000      -0.377465       -10.2714
 261   2.0000      -0.376249       -10.2383
 262   2.0000      -0.374128       -10.1805
 263   2.0000      -0.368340       -10.0230
 264   2.0000      -0.362509        -9.8644
 265   2.0000      -0.358142        -9.7455
 266   2.0000      -0.355096        -9.6627
 267   2.0000      -0.353226        -9.6118
 268   2.0000      -0.342235        -9.3127
 269   2.0000      -0.339589        -9.2407
 270   2.0000      -0.335896        -9.1402
 271   2.0000      -0.334536        -9.1032
 272   2.0000      -0.325601        -8.8600
 273   2.0000      -0.320974        -8.7341
 274   2.0000      -0.316998        -8.6259
 275   2.0000      -0.311952        -8.4886
 276   2.0000      -0.307114        -8.3570
 277   2.0000      -0.296270        -8.0619
 278   2.0000      -0.288078        -7.8390
 279   2.0000      -0.273597        -7.4449
 280   2.0000      -0.259217        -7.0537
 281   2.0000      -0.250574        -6.8185
 282   2.0000      -0.197685        -5.3793
 283   0.0000      -0.100531        -2.7356
 284   0.0000      -0.077085        -2.0976
 285   0.0000      -0.063268        -1.7216
 286   0.0000      -0.052072        -1.4170
 287   0.0000      -0.030132        -0.8199

MULLIKEN ATOMIC CHARGES
-----------------------
   0 C :    0.287815
   1 C :   -0.328779
   2 C :   -0.182331
   3 N :    0.151677
   4 C :   -0.207049
   5 N :    0.170451
   6 C :    0.025326
   7 C :   -0.019249
   8 C :   -0.074258
   9 C :    0.119705
  10 C :   -0.087615
  11 C :   -0.023799
  12 S :    0.187766
  13 C :   -0.123728
  14 C :    0.038608
  15 Br:    0.026069
  16 C :    0.134729
  17 O :   -0.128261
  18 C :   -0.067215
  19 C :   -0.051091
  20 C :    0.074971
  21 O :   -0.158231
  22 C :   -0.012508
  23 C :    0.173446
  24 O :   -0.125751
  25 N :   -0.163598
  26 C :    0.195557
  27 O :   -0.157196
  28 C :   -0.102251
  29 C :    0.148089
  30 C :   -0.016807
  31 C :   -0.022827
  32 C :    0.065600
  33 C :   -0.110615
  34 S :    0.144128
  35 C :   -0.154223
  36 C :    0.126477
  37 C :   -0.113925
  38 C :    0.025278
  39 C :    0.033907
  40 C :   -0.124913
  41 C :    0.008854
  42 C :    0.039751
  43 C :    0.120337
  44 C :    0.071961
  45 C :   -0.117913
  46 S :    0.127715
  47 C :   -0.144179
  48 C :   -0.029838
  49 C :   -0.006008
  50 C :   -0.019464
  51 C :   -0.012321
  52 C :    0.033386
  53 C :    0.027173
  54 C :   -0.049586
  55 S :    0.050329
  56 C :   -0.026124
  57 C :    0.021565
  58 C :    0.029044
  59 C :   -0.032169
  60 S :    0.015801
  61 C :    0.039026
  62 C :   -0.221340
  63 S :    0.134930
  64 C :   -0.124446
  65 C :    0.002313
  66 C :    0.164509
  67 N :   -0.046858
  68 N :   -0.057876
  69 C :   -0.018445
  70 C :    0.043428
  71 C :   -0.020606
  72 H :   -0.010477
  73 H :   -0.004419
  74 H :   -0.002299
  75 H :    0.045788
  76 H :    0.141738
  77 H :   -0.000417
  78 H :    0.035573
  79 H :    0.024848
  80 H :   -0.005440
  81 H :    0.021161
  82 H :    0.017689
  83 H :    0.004915
  84 H :    0.013529
  85 H :    0.003760
  86 H :    0.013033
  87 H :    0.011466
  88 H :    0.016089
  89 H :    0.016237
  90 H :    0.022770
  91 H :   -0.007409
  92 H :    0.001651
  93 H :   -0.020591
  94 H :   -0.015447
  95 H :   -0.016631
  96 H :   -0.015391
  97 H :   -0.013214
  98 H :   -0.020810
  99 H :    0.140279
 100 H :   -0.001217
 101 H :   -0.014762
 102 H :    0.012712
 103 H :    0.028959
Sum of atomic charges:   -0.0000000

LOEWDIN ATOMIC CHARGES
----------------------
   0 C :    0.071971
   1 C :   -0.133029
   2 C :   -0.017583
   3 N :   -0.049161
   4 C :   -0.028077
   5 N :   -0.040647
   6 C :   -0.021405
   7 C :   -0.050807
   8 C :    0.022119
   9 C :   -0.031608
  10 C :   -0.143128
  11 C :   -0.009612
  12 S :    0.433622
  13 C :   -0.270561
  14 C :   -0.070529
  15 Br:    0.138629
  16 C :    0.076381
  17 O :   -0.132615
  18 C :   -0.077084
  19 C :    0.048276
  20 C :    0.038748
  21 O :    0.051715
  22 C :   -0.058077
  23 C :    0.087308
  24 O :   -0.141255
  25 N :   -0.002902
  26 C :    0.091520
  27 O :   -0.162370
  28 C :   -0.116115
  29 C :    0.096258
  30 C :   -0.057118
  31 C :    0.043468
  32 C :   -0.069230
  33 C :   -0.155704
  34 S :    0.430732
  35 C :   -0.177236
  36 C :   -0.038930
  37 C :   -0.018534
  38 C :   -0.031658
  39 C :   -0.049667
  40 C :   -0.017609
  41 C :   -0.032798
  42 C :   -0.051734
  43 C :   -0.040129
  44 C :   -0.061512
  45 C :   -0.166580
  46 S :    0.414389
  47 C :   -0.179128
  48 C :   -0.022159
  49 C :   -0.033062
  50 C :   -0.061476
  51 C :   -0.143009
  52 C :   -0.038788
  53 C :   -0.031738
  54 C :   -0.186219
  55 S :    0.355147
  56 C :   -0.175173
  57 C :   -0.044826
  58 C :   -0.030562
  59 C :   -0.164654
  60 S :    0.366801
  61 C :   -0.069451
  62 C :   -0.210314
  63 S :    0.455754
  64 C :   -0.168279
  65 C :   -0.090986
  66 C :   -0.017892
  67 N :    0.090143
  68 N :   -0.050289
  69 C :   -0.044234
  70 C :   -0.043607
  71 C :   -0.038033
  72 H :    0.040909
  73 H :    0.041276
  74 H :    0.039227
  75 H :    0.060315
  76 H :    0.096785
  77 H :    0.040483
  78 H :    0.035482
  79 H :    0.024879
  80 H :    0.026303
  81 H :    0.028801
  82 H :    0.022532
  83 H :    0.023097
  84 H :    0.024356
  85 H :    0.026370
  86 H :    0.030310
  87 H :    0.024879
  88 H :    0.024347
  89 H :    0.022102
  90 H :    0.023835
  91 H :    0.028392
  92 H :    0.020885
  93 H :    0.030674
  94 H :    0.032301
  95 H :    0.030942
  96 H :    0.031773
  97 H :    0.032903
  98 H :    0.035032
  99 H :    0.056146
 100 H :    0.020290
 101 H :    0.029590
 102 H :    0.022804
 103 H :    0.027879

  Mayer bond orders larger than 0.100000
B(  0-C ,  1-C ) :   1.6516 B(  0-C ,  6-C ) :   1.0104 B(  0-C , 18-C ) :   1.0483
B(  1-C ,  2-C ) :   1.1394 B(  1-C ,  4-C ) :   1.1354 B(  2-C ,  3-N ) :   2.9733
B(  4-C ,  5-N ) :   3.0031 B(  6-C ,  7-C ) :   1.2714 B(  6-C , 11-C ) :   1.4073
B(  7-C ,  8-C ) :   1.4252 B(  7-C , 16-C ) :   0.9404 B(  8-C ,  9-C ) :   1.2493
B(  8-C , 72-H ) :   1.0163 B(  9-C , 10-C ) :   1.3030 B(  9-C , 14-C ) :   1.1622
B( 10-C , 11-C ) :   1.3324 B( 10-C , 12-S ) :   1.0855 B( 11-C , 73-H ) :   0.9806
B( 12-S , 13-C ) :   1.0869 B( 13-C , 14-C ) :   1.6184 B( 13-C , 15-Br) :   1.0210
B( 14-C , 74-H ) :   1.0007 B( 16-C , 17-O ) :   2.2684 B( 16-C , 18-C ) :   0.9222
B( 18-C , 19-C ) :   1.5816 B( 19-C , 20-C ) :   1.2050 B( 19-C , 75-H ) :   0.9377
B( 20-C , 21-O ) :   1.1451 B( 20-C , 22-C ) :   1.3788 B( 21-O , 29-C ) :   1.1927
B( 22-C , 23-C ) :   0.8688 B( 22-C , 28-C ) :   1.3184 B( 23-C , 24-O ) :   2.2687
B( 23-C , 25-N ) :   1.0771 B( 25-N , 26-C ) :   1.0998 B( 25-N , 76-H ) :   0.9148
B( 26-C , 27-O ) :   2.1644 B( 26-C , 28-C ) :   0.8919 B( 28-C , 29-C ) :   1.3654
B( 29-C , 30-C ) :   1.1539 B( 30-C , 31-C ) :   1.6667 B( 30-C , 77-H ) :   0.9712
B( 31-C , 32-C ) :   1.0449 B( 31-C , 78-H ) :   0.9476 B( 32-C , 33-C ) :   1.5809
B( 32-C , 36-C ) :   1.1399 B( 33-C , 34-S ) :   1.1400 B( 33-C , 79-H ) :   0.9630
B( 34-S , 35-C ) :   1.0741 B( 35-C , 36-C ) :   1.3754 B( 35-C , 47-C ) :   1.3802
B( 36-C , 37-C ) :   1.2568 B( 37-C , 38-C ) :   1.0584 B( 37-C , 40-C ) :   1.5183
B( 38-C , 39-C ) :   1.1079 B( 38-C , 80-H ) :   0.9063 B( 38-C , 81-H ) :   0.9278
B( 39-C , 82-H ) :   0.9643 B( 39-C , 83-H ) :   0.9569 B( 39-C , 84-H ) :   0.9650
B( 40-C , 41-C ) :   1.0581 B( 40-C , 43-C ) :   1.2632 B( 41-C , 42-C ) :   1.1104
B( 41-C , 85-H ) :   0.9138 B( 41-C , 86-H ) :   0.9202 B( 42-C , 87-H ) :   0.9582
B( 42-C , 88-H ) :   0.9666 B( 42-C , 89-H ) :   0.9575 B( 43-C , 44-C ) :   1.1418
B( 43-C , 47-C ) :   1.3712 B( 44-C , 45-C ) :   1.6079 B( 44-C , 48-C ) :   1.0145
B( 45-C , 46-S ) :   1.1141 B( 45-C , 90-H ) :   0.9617 B( 46-S , 47-C ) :   1.0799
B( 48-C , 49-C ) :   1.7066 B( 48-C , 91-H ) :   0.9631 B( 49-C , 50-C ) :   1.1279
B( 49-C , 92-H ) :   0.9722 B( 50-C , 51-C ) :   1.5850 B( 50-C , 93-H ) :   0.9824
B( 51-C , 52-C ) :   1.1386 B( 51-C , 55-S ) :   1.0268 B( 52-C , 53-C ) :   1.5892
B( 52-C , 94-H ) :   0.9987 B( 53-C , 54-C ) :   1.1935 B( 53-C , 95-H ) :   0.9937
B( 54-C , 55-S ) :   1.0372 B( 54-C , 56-C ) :   1.5012 B( 56-C , 57-C ) :   1.1986
B( 56-C , 60-S ) :   1.0474 B( 57-C , 58-C ) :   1.5742 B( 57-C , 96-H ) :   0.9924
B( 58-C , 59-C ) :   1.1625 B( 58-C , 97-H ) :   0.9989 B( 59-C , 60-S ) :   1.0086
B( 59-C , 61-C ) :   1.5909 B( 61-C , 62-C ) :   1.2111 B( 61-C , 98-H ) :   0.9296
B( 62-C , 63-S ) :   1.1028 B( 62-C , 64-C ) :   0.1096 B( 62-C , 66-C ) :   1.3252
B( 63-S , 64-C ) :   1.1519 B( 64-C , 65-C ) :   1.3373 B( 64-C , 70-C ) :   1.1379
B( 65-C , 66-C ) :   1.2663 B( 65-C , 69-C ) :   1.1552 B( 66-C , 67-N ) :   1.1601
B( 67-N , 68-N ) :   1.1394 B( 67-N , 99-H ) :   0.9324 B( 68-N , 69-C ) :   1.7378
B( 69-C ,100-H ) :   0.9977 B( 70-C , 71-C ) :   1.9055 B( 70-C ,101-H ) :   0.9507
B( 71-C ,102-H ) :   0.9550 B( 71-C ,103-H ) :   0.9481

-----------------------------------------------------------------------------
         ABSORPTION SPECTRUM VIA TRANSITION ELECTRIC DIPOLE MOMENTS
-----------------------------------------------------------------------------
State   Energy  Wavelength   fosc         T2         TX        TY        TZ
        (cm-1)    (nm)                  (au**2)     (au)      (au)      (au)
-----------------------------------------------------------------------------
   0   13446.0    743.7   1.261496439  30.88647   4.72744   2.56633   1.39703
   1   14960.8    668.4   0.000119283   0.00262  -0.02973  -0.02494  -0.03346
   2   19954.5    501.1   0.926383893  15.28362   0.97360  -3.30113   1.85426
   3   21049.9    475.1   0.009498930   0.14856   0.25052   0.12268  -0.26598
   4   23160.9    431.8   0.001407990   0.02001   0.06195   0.10955  -0.06461
   5   23739.8    421.2   0.002240256   0.03107  -0.07369  -0.14101   0.07585
   6   24826.6    402.8   0.018647670   0.24728  -0.13850  -0.25961   0.40087
   7   25087.1    398.6   0.960985350  12.61076  -0.48911  -1.30796   3.26508
   8   25802.5    387.6   0.060196101   0.76804   0.76568   0.17316  -0.38961
   9   26655.9    375.2   0.183534252   2.26673   1.22341  -0.30987   0.82096
  10   27361.5    365.5   0.045572247   0.54832  -0.09737  -0.40882  -0.60968
  11   27860.4    358.9   0.373508130   4.41356  -0.78882  -1.94710   0.01107
  12   27922.6    358.1   0.113024986   1.33258   0.21055   0.47466   1.03099
  13   28489.7    351.0   0.304875952   3.52299  -1.35251   1.07399  -0.73501
  14   29067.0    344.0   0.029216123   0.33090   0.56892   0.05569   0.06423
  15   29590.3    337.9   0.022572968   0.25114   0.32270  -0.08892   0.37296
  16   29631.4    337.5   0.007202828   0.08003   0.24395  -0.01667   0.14225
  17   30441.9    328.5   0.015059445   0.16286  -0.24437  -0.15891  -0.27909
  18   30818.6    324.5   0.056200032   0.60034   0.43908   0.59580  -0.22929
  19   30985.2    322.7   0.000804447   0.00855   0.05685   0.06567   0.03167
  20   31527.9    317.2   0.002042663   0.02133   0.06375  -0.09770  -0.08787
  21   32627.9    306.5   0.341783270   3.44855  -1.82396  -0.25674  -0.23623
  22   32753.2    305.3   0.002134146   0.02145   0.09927   0.08187   0.06996
  23   33034.6    302.7   0.339107779   3.37944  -1.79672  -0.26573  -0.28396
  24   33669.3    297.0   0.003072252   0.03004   0.16031  -0.02356   0.06152
  25   33786.3    296.0   0.000606426   0.00591  -0.03856  -0.06602  -0.00798
  26   33839.8    295.5   0.005664173   0.05510   0.17337   0.15796  -0.00975
  27   34207.4    292.3   0.030566076   0.29417  -0.14172  -0.16322   0.49743
  28   34410.3    290.6   0.098943964   0.94662  -0.41453  -0.87558  -0.09024
  29   34603.8    289.0   0.000712229   0.00678  -0.00013   0.07766   0.02729
  30   34991.0    285.8   0.065290567   0.61428   0.63323   0.42056  -0.19087
  31   35240.1    283.8   0.004387802   0.04099  -0.19067   0.04621   0.04999
  32   35915.3    278.4   0.168055355   1.54045  -1.06646  -0.22664  -0.59309
  33   36156.3    276.6   0.078888938   0.71830   0.24216   0.57957  -0.56900
  34   36906.0    271.0   0.196096430   1.74924   0.68061   0.60713  -0.95781
  35   37034.8    270.0   0.001669862   0.01484   0.05067  -0.10296  -0.04093
  36   37265.0    268.3   0.055145214   0.48717  -0.17100  -0.05707  -0.67430
  37   37654.8    265.6   0.035738290   0.31246   0.33498   0.43270   0.11409
  38   38056.3    262.8   0.080679369   0.69793   0.59123   0.15614   0.56920
  39   38127.3    262.3   0.019356790   0.16714  -0.03410   0.30528   0.26978
  40   38331.5    260.9   0.065366440   0.56140   0.53366   0.15004   0.50408
  41   38474.0    259.9   0.004293126   0.03674   0.00273  -0.17372   0.08092
  42   38644.2    258.8   0.260184358   2.21652  -0.01978   1.24282  -0.81947
  43   39084.8    255.9   0.044554251   0.37528   0.25709   0.51757  -0.20325
  44   39205.2    255.1   0.045233153   0.37983   0.13265   0.47829  -0.36534
  45   40032.3    249.8   0.329719689   2.71150   0.33605   1.52037  -0.53578
  46   40313.4    248.1   0.027609643   0.22547  -0.39237  -0.25640  -0.07597

FINAL SINGLE POINT ENERGY     -7686.717503552905

DIPOLE MOMENT
-------------
                                X             Y             Z
Electronic contribution:     53.36421    -169.76850     117.25239
Nuclear contribution   :    -51.00464     172.30945    -119.00142
                        -----------------------------------------
Total Dipole Moment    :      2.35957       2.54095      -1.74902
                        -----------------------------------------
Magnitude (a.u.)       :      3.88369
Magnitude (Debye)      :      9.87155

Rotational constants in cm-1:     0.000785     0.000201     0.000168
Rotational constants in MHz :    23.521001     6.017606     5.029281

                             ****ORCA TERMINATED NORMALLY****
TOTAL RUN TIME: 0 days 0 hours 10 minutes 22 seconds 833 msec
