                         Program Version 4.2.0 -  RELEASE  -
|  1> # ORCA input file
|  2> # SCF done       -201.269501029977          0.000925643259
|  3> ! CAM-B3LYP def2-SVP def2/J RIJCOSX Grid4 TightSCF
|  4> %maxcore 5000
|  5> %tddft
|  6>     Mode sTDDFT
|  7>     Ethresh 5.0
|  8>     maxcore 5000
|  9> end
| 10>
| 11> %pal
| 12>   nprocs 6
| 13>   end
| 14> * xyz 0 1
| 15>    C        4.64961       -17.99419         1.43269
| 16>    C        5.05632       -16.74752         1.71298
| 17>    C        5.72385       -16.28442         2.89440
| 18>    C        6.01847       -14.96405         2.88386
| 19>    C        5.61003       -14.28521         1.70302
| 20>    S        4.82777       -15.38656         0.60182
| 21>    C        5.79225       -12.94549         1.40850
| 22>    C        6.42492       -11.96557         2.20525
| 23>    C        6.47119       -10.72708         1.63455
| 24>    C        5.87935       -10.65638         0.35675
| 25>    S        5.24800       -12.23555        -0.08950
| 26>    C        5.73766        -9.64151        -0.57238
| 27>    C        6.13557        -8.30002        -0.60374
| 28>    C        5.88018        -7.57957        -1.82272
| 29>    C        6.32540        -6.22764        -2.05904
| 30>    N        6.09491        -5.66298        -3.25219
| 31>    C        5.43060        -6.32499        -4.17716
| 32>    C        4.94384        -7.63661        -3.92131
| 33>    N        5.19609        -8.22179        -2.77048
| 34>    C        4.18696        -8.32792        -4.89847
| 35>    N        3.57532        -8.85601        -5.71045
| 36>    C        5.20985        -5.70302        -5.43106
| 37>    N        5.03315        -5.21155        -6.45078
| 38>    C        7.00115        -5.47897        -1.05663
| 39>    C        7.16637        -6.16159         0.17765
| 40>    C        6.76707        -7.52647         0.40962
| 41>    N        7.05202        -7.90192         1.65220
| 42>    S        7.74404        -6.68837         2.45171
| 43>    N        7.72282        -5.61607         1.25278
| 44>    C        7.49480        -4.16352        -1.18768
| 45>    S        8.23353        -3.37689         0.19065
| 46>    C        8.60504        -1.90394        -0.67538
| 47>    C        8.17485        -2.02325        -2.00426
| 48>    C        7.54982        -3.27396        -2.27389
| 49>    N        7.18867        -3.23532        -3.57326
| 50>    N        7.52786        -2.07941        -4.14311
| 51>    C        8.11809        -1.33371        -3.23886
| 52>    C        9.22116        -0.84984         0.00824
| 53>    C        9.63027         0.30704        -0.59297
| 54>    C       10.24166         1.40438         0.06332
| 55>    C       11.10693         2.30040        -0.62704
| 56>    C       11.34632         2.23829        -2.07893
| 57>    O       10.87383         1.49521        -2.89006
| 58>    S       12.51737         3.51811        -2.54773
| 59>    C       12.72049         4.08017        -0.86246
| 60>    O       13.48539         4.94715        -0.56051
| 61>    C       11.82236         3.30418         0.01967
| 62>    C       11.72447         3.54820         1.40562
| 63>    C       10.74202         2.77365         2.05163
| 64>    C       10.03975         1.75411         1.42282
| 65>    C        8.98702         1.30746         2.36549
| 66>    O        8.12182         0.49400         2.25219
| 67>    O        9.10805         2.06974         3.50413
| 68>    C       10.12078         2.98496         3.38594
| 69>    O       10.33730         3.80071         4.22693
| 70>    C       12.51645         4.53438         2.08672
| 71>    C       12.95565         4.38895         3.35775
| 72>    C       13.66524         5.42087         4.02596
| 73>    C       14.09589         5.33747         5.31503
| 74>    C       14.71045         6.39736         6.09910
| 75>    C       15.18918         7.59198         5.63169
| 76>    C       15.79524         8.57332         6.44526
| 77>    N       16.29730         9.40777         7.05291
| 78>    C       15.17828         8.00960         4.28292
| 79>    N       15.21724         8.42483         3.21363
| 80>    C       14.75812         5.94896         7.48529
| 81>    C       14.28612         4.61475         7.55319
| 82>    C       13.91238         4.15463         6.20201
| 83>    O       13.55673         3.03880         5.89370
| 84>    C       14.20630         3.91660         8.73403
| 85>    C       14.60206         4.56834         9.90629
| 86>    C       15.06823         5.90334         9.82965
| 87>    C       15.15559         6.60676         8.63543
| 88>    S       15.49729         6.52169        11.39544
| 89>    C       15.05050         5.00093        12.12225
| 90>    C       14.60401         4.07558        11.23977
| 91>   Br       15.21480         4.77920        13.97667
| 92>    H        4.80913       -18.79456         2.13361
| 93>    H        4.15632       -18.23373         0.50845
| 94>    H        5.95445       -16.96116         3.69751
| 95>    H        6.51765       -14.44832         3.68438
| 96>    H        6.83219       -12.19301         3.17384
| 97>    H        6.90815        -9.85832         2.08964
| 98>    H        5.23916        -9.94258        -1.48735
| 99>    H        6.70041        -3.96056        -4.08007
|100>    H        8.47756        -0.35942        -3.49906
|101>    H        9.39452        -1.01177         1.06138
|102>    H        9.56048         0.36906        -1.66692
|103>    H       12.80911         5.40686         1.51761
|104>    H       12.77304         3.47746         3.90574
|105>    H       13.80873         6.34238         3.47631
|106>    H       13.84315         2.90106         8.75295
|107>    H       15.51307         7.62278         8.63038
|108>    H       14.28698         3.08672        11.51651
|109> *
|110>
|111>                          ****END OF INPUT****

CARTESIAN COORDINATES (ANGSTROEM)
---------------------------------
  C      4.649610  -17.994190    1.432690
  C      5.056320  -16.747520    1.712980
  C      5.723850  -16.284420    2.894400
  C      6.018470  -14.964050    2.883860
  C      5.610030  -14.285210    1.703020
  S      4.827770  -15.386560    0.601820
  C      5.792250  -12.945490    1.408500
  C      6.424920  -11.965570    2.205250
  C      6.471190  -10.727080    1.634550
  C      5.879350  -10.656380    0.356750
  S      5.248000  -12.235550   -0.089500
  C      5.737660   -9.641510   -0.572380
  C      6.135570   -8.300020   -0.603740
  C      5.880180   -7.579570   -1.822720
  C      6.325400   -6.227640   -2.059040
  N      6.094910   -5.662980   -3.252190
  C      5.430600   -6.324990   -4.177160
  C      4.943840   -7.636610   -3.921310
  N      5.196090   -8.221790   -2.770480
  C      4.186960   -8.327920   -4.898470
  N      3.575320   -8.856010   -5.710450
  C      5.209850   -5.703020   -5.431060
  N      5.033150   -5.211550   -6.450780
  C      7.001150   -5.478970   -1.056630
  C      7.166370   -6.161590    0.177650
  C      6.767070   -7.526470    0.409620
  N      7.052020   -7.901920    1.652200
  S      7.744040   -6.688370    2.451710
  N      7.722820   -5.616070    1.252780
  C      7.494800   -4.163520   -1.187680
  S      8.233530   -3.376890    0.190650
  C      8.605040   -1.903940   -0.675380
  C      8.174850   -2.023250   -2.004260
  C      7.549820   -3.273960   -2.273890
  N      7.188670   -3.235320   -3.573260
  N      7.527860   -2.079410   -4.143110
  C      8.118090   -1.333710   -3.238860
  C      9.221160   -0.849840    0.008240
  C      9.630270    0.307040   -0.592970
  C     10.241660    1.404380    0.063320
  C     11.106930    2.300400   -0.627040
  C     11.346320    2.238290   -2.078930
  O     10.873830    1.495210   -2.890060
  S     12.517370    3.518110   -2.547730
  C     12.720490    4.080170   -0.862460
  O     13.485390    4.947150   -0.560510
  C     11.822360    3.304180    0.019670
  C     11.724470    3.548200    1.405620
  C     10.742020    2.773650    2.051630
  C     10.039750    1.754110    1.422820
  C      8.987020    1.307460    2.365490
  O      8.121820    0.494000    2.252190
  O      9.108050    2.069740    3.504130
  C     10.120780    2.984960    3.385940
  O     10.337300    3.800710    4.226930
  C     12.516450    4.534380    2.086720
  C     12.955650    4.388950    3.357750
  C     13.665240    5.420870    4.025960
  C     14.095890    5.337470    5.315030
  C     14.710450    6.397360    6.099100
  C     15.189180    7.591980    5.631690
  C     15.795240    8.573320    6.445260
  N     16.297300    9.407770    7.052910
  C     15.178280    8.009600    4.282920
  N     15.217240    8.424830    3.213630
  C     14.758120    5.948960    7.485290
  C     14.286120    4.614750    7.553190
  C     13.912380    4.154630    6.202010
  O     13.556730    3.038800    5.893700
  C     14.206300    3.916600    8.734030
  C     14.602060    4.568340    9.906290
  C     15.068230    5.903340    9.829650
  C     15.155590    6.606760    8.635430
  S     15.497290    6.521690   11.395440
  C     15.050500    5.000930   12.122250
  C     14.604010    4.075580   11.239770
  Br    15.214800    4.779200   13.976670
  H      4.809130  -18.794560    2.133610
  H      4.156320  -18.233730    0.508450
  H      5.954450  -16.961160    3.697510
  H      6.517650  -14.448320    3.684380
  H      6.832190  -12.193010    3.173840
  H      6.908150   -9.858320    2.089640
  H      5.239160   -9.942580   -1.487350
  H      6.700410   -3.960560   -4.080070
  H      8.477560   -0.359420   -3.499060
  H      9.394520   -1.011770    1.061380
  H      9.560480    0.369060   -1.666920
  H     12.809110    5.406860    1.517610
  H     12.773040    3.477460    3.905740
  H     13.808730    6.342380    3.476310
  H     13.843150    2.901060    8.752950
  H     15.513070    7.622780    8.630380
  H     14.286980    3.086720   11.516510

 Total Charge           Charge          ....    0
 Multiplicity           Mult            ....    1
 Number of Electrons    NEL             ....  590
 Basis Dimension        Dim             .... 1205

ORBITAL ENERGIES
----------------

  NO   OCC          E(Eh)            E(eV)
   0   2.0000    -482.887027    -13140.0240
   1   2.0000     -89.048211     -2423.1250
   2   2.0000     -88.977121     -2421.1905
   3   2.0000     -88.967461     -2420.9277
   4   2.0000     -88.966800     -2420.9097
   5   2.0000     -88.964974     -2420.8600
   6   2.0000     -88.953383     -2420.5446
   7   2.0000     -62.564727     -1702.4728
   8   2.0000     -56.398680     -1534.6861
   9   2.0000     -56.395961     -1534.6121
  10   2.0000     -56.395929     -1534.6112
  11   2.0000     -19.292795      -524.9836
  12   2.0000     -19.247117      -523.7407
  13   2.0000     -19.246232      -523.7166
  14   2.0000     -19.239708      -523.5391
  15   2.0000     -19.239219      -523.5258
  16   2.0000     -19.220258      -523.0098
  17   2.0000     -14.475919      -393.9098
  18   2.0000     -14.468778      -393.7155
  19   2.0000     -14.463519      -393.5724
  20   2.0000     -14.462898      -393.5555
  21   2.0000     -14.457703      -393.4141
  22   2.0000     -14.436846      -392.8465
  23   2.0000     -14.432313      -392.7232
  24   2.0000     -14.427855      -392.6019
  25   2.0000     -14.416572      -392.2949
  26   2.0000     -14.416419      -392.2907
  27   2.0000     -10.434743      -283.9438
  28   2.0000     -10.434361      -283.9334
  29   2.0000     -10.409062      -283.2450
  30   2.0000     -10.408713      -283.2355
  31   2.0000     -10.385373      -282.6004
  32   2.0000     -10.378848      -282.4228
  33   2.0000     -10.370727      -282.2018
  34   2.0000     -10.360651      -281.9276
  35   2.0000     -10.356615      -281.8178
  36   2.0000     -10.352507      -281.7060
  37   2.0000     -10.351261      -281.6721
  38   2.0000     -10.347403      -281.5671
  39   2.0000     -10.344950      -281.5004
  40   2.0000     -10.342847      -281.4432
  41   2.0000     -10.342062      -281.4218
  42   2.0000     -10.338137      -281.3150
  43   2.0000     -10.333551      -281.1902
  44   2.0000     -10.332635      -281.1653
  45   2.0000     -10.332175      -281.1528
  46   2.0000     -10.331875      -281.1446
  47   2.0000     -10.331641      -281.1383
  48   2.0000     -10.329149      -281.0704
  49   2.0000     -10.329002      -281.0664
  50   2.0000     -10.328328      -281.0481
  51   2.0000     -10.327938      -281.0375
  52   2.0000     -10.327506      -281.0257
  53   2.0000     -10.327485      -281.0252
  54   2.0000     -10.322489      -280.8892
  55   2.0000     -10.322081      -280.8781
  56   2.0000     -10.320115      -280.8246
  57   2.0000     -10.319125      -280.7977
  58   2.0000     -10.318764      -280.7878
  59   2.0000     -10.318574      -280.7827
  60   2.0000     -10.314559      -280.6734
  61   2.0000     -10.313203      -280.6365
  62   2.0000     -10.312140      -280.6076
  63   2.0000     -10.310571      -280.5649
  64   2.0000     -10.310204      -280.5549
  65   2.0000     -10.309568      -280.5376
  66   2.0000     -10.307534      -280.4823
  67   2.0000     -10.307046      -280.4690
  68   2.0000     -10.302975      -280.3582
  69   2.0000     -10.302742      -280.3519
  70   2.0000     -10.302357      -280.3414
  71   2.0000     -10.302125      -280.3351
  72   2.0000     -10.300091      -280.2797
  73   2.0000     -10.298294      -280.2308
  74   2.0000     -10.296187      -280.1735
  75   2.0000     -10.294184      -280.1190
  76   2.0000     -10.291077      -280.0344
  77   2.0000     -10.290829      -280.0277
  78   2.0000     -10.289158      -279.9822
  79   2.0000     -10.283982      -279.8414
  80   2.0000     -10.281441      -279.7722
  81   2.0000      -8.794149      -239.3010
  82   2.0000      -8.139376      -221.4837
  83   2.0000      -8.073045      -219.6787
  84   2.0000      -8.063508      -219.4192
  85   2.0000      -8.061305      -219.3593
  86   2.0000      -8.060727      -219.3435
  87   2.0000      -8.052679      -219.1245
  88   2.0000      -6.630458      -180.4239
  89   2.0000      -6.615880      -180.0273
  90   2.0000      -6.615677      -180.0217
  91   2.0000      -6.110647      -166.2792
  92   2.0000      -6.102941      -166.0695
  93   2.0000      -6.101711      -166.0360
  94   2.0000      -6.042728      -164.4310
  95   2.0000      -6.038466      -164.3150
  96   2.0000      -6.034297      -164.2016
  97   2.0000      -6.033215      -164.1721
  98   2.0000      -6.030875      -164.1084
  99   2.0000      -6.030252      -164.0915
 100   2.0000      -6.029266      -164.0647
 101   2.0000      -6.026871      -163.9995
 102   2.0000      -6.025601      -163.9650
 103   2.0000      -6.024257      -163.9284
 104   2.0000      -6.022969      -163.8933
 105   2.0000      -6.022499      -163.8805
 106   2.0000      -6.021590      -163.8558
 107   2.0000      -6.018262      -163.7652
 108   2.0000      -6.013680      -163.6405
 109   2.0000      -2.746329       -74.7314
 110   2.0000      -2.742250       -74.6204
 111   2.0000      -2.742074       -74.6156
 112   2.0000      -2.730501       -74.3007
 113   2.0000      -2.730484       -74.3002
 114   2.0000      -1.243708       -33.8430
 115   2.0000      -1.172206       -31.8973
 116   2.0000      -1.168226       -31.7890
 117   2.0000      -1.167754       -31.7762
 118   2.0000      -1.148677       -31.2571
 119   2.0000      -1.143232       -31.1089
 120   2.0000      -1.135171       -30.8896
 121   2.0000      -1.129526       -30.7360
 122   2.0000      -1.124237       -30.5920
 123   2.0000      -1.050746       -28.5923
 124   2.0000      -1.024447       -27.8766
 125   2.0000      -1.018424       -27.7127
 126   2.0000      -1.017956       -27.7000
 127   2.0000      -1.016453       -27.6591
 128   2.0000      -1.014635       -27.6096
 129   2.0000      -1.009292       -27.4642
 130   2.0000      -1.005384       -27.3579
 131   2.0000      -0.994956       -27.0741
 132   2.0000      -0.993887       -27.0450
 133   2.0000      -0.991138       -26.9702
 134   2.0000      -0.987694       -26.8765
 135   2.0000      -0.973410       -26.4878
 136   2.0000      -0.956007       -26.0143
 137   2.0000      -0.947655       -25.7870
 138   2.0000      -0.940275       -25.5862
 139   2.0000      -0.923185       -25.1211
 140   2.0000      -0.915061       -24.9001
 141   2.0000      -0.911593       -24.8057
 142   2.0000      -0.910431       -24.7741
 143   2.0000      -0.909960       -24.7613
 144   2.0000      -0.896251       -24.3882
 145   2.0000      -0.891605       -24.2618
 146   2.0000      -0.887486       -24.1497
 147   2.0000      -0.877916       -23.8893
 148   2.0000      -0.872704       -23.7475
 149   2.0000      -0.867951       -23.6181
 150   2.0000      -0.862767       -23.4771
 151   2.0000      -0.851118       -23.1601
 152   2.0000      -0.843418       -22.9506
 153   2.0000      -0.836589       -22.7648
 154   2.0000      -0.836012       -22.7490
 155   2.0000      -0.830303       -22.5937
 156   2.0000      -0.813762       -22.1436
 157   2.0000      -0.809095       -22.0166
 158   2.0000      -0.800684       -21.7877
 159   2.0000      -0.792001       -21.5515
 160   2.0000      -0.777854       -21.1665
 161   2.0000      -0.768613       -20.9150
 162   2.0000      -0.762112       -20.7381
 163   2.0000      -0.757920       -20.6241
 164   2.0000      -0.752902       -20.4875
 165   2.0000      -0.740237       -20.1429
 166   2.0000      -0.732208       -19.9244
 167   2.0000      -0.720786       -19.6136
 168   2.0000      -0.713674       -19.4201
 169   2.0000      -0.711254       -19.3542
 170   2.0000      -0.705196       -19.1894
 171   2.0000      -0.700696       -19.0669
 172   2.0000      -0.697334       -18.9754
 173   2.0000      -0.692739       -18.8504
 174   2.0000      -0.691271       -18.8104
 175   2.0000      -0.685328       -18.6487
 176   2.0000      -0.678787       -18.4707
 177   2.0000      -0.667145       -18.1539
 178   2.0000      -0.659511       -17.9462
 179   2.0000      -0.658541       -17.9198
 180   2.0000      -0.654679       -17.8147
 181   2.0000      -0.645074       -17.5534
 182   2.0000      -0.641863       -17.4660
 183   2.0000      -0.641046       -17.4437
 184   2.0000      -0.637715       -17.3531
 185   2.0000      -0.632883       -17.2216
 186   2.0000      -0.629932       -17.1413
 187   2.0000      -0.625217       -17.0130
 188   2.0000      -0.623579       -16.9684
 189   2.0000      -0.620482       -16.8842
 190   2.0000      -0.610157       -16.6032
 191   2.0000      -0.606667       -16.5082
 192   2.0000      -0.604957       -16.4617
 193   2.0000      -0.601211       -16.3598
 194   2.0000      -0.596988       -16.2449
 195   2.0000      -0.592421       -16.1206
 196   2.0000      -0.584247       -15.8982
 197   2.0000      -0.576744       -15.6940
 198   2.0000      -0.575321       -15.6553
 199   2.0000      -0.570597       -15.5267
 200   2.0000      -0.563655       -15.3378
 201   2.0000      -0.563252       -15.3269
 202   2.0000      -0.561693       -15.2844
 203   2.0000      -0.559309       -15.2196
 204   2.0000      -0.554726       -15.0949
 205   2.0000      -0.553937       -15.0734
 206   2.0000      -0.547735       -14.9046
 207   2.0000      -0.545024       -14.8309
 208   2.0000      -0.544524       -14.8172
 209   2.0000      -0.541798       -14.7431
 210   2.0000      -0.541125       -14.7248
 211   2.0000      -0.537875       -14.6363
 212   2.0000      -0.537001       -14.6125
 213   2.0000      -0.536305       -14.5936
 214   2.0000      -0.530681       -14.4406
 215   2.0000      -0.527292       -14.3483
 216   2.0000      -0.524092       -14.2613
 217   2.0000      -0.522615       -14.2211
 218   2.0000      -0.519637       -14.1400
 219   2.0000      -0.517563       -14.0836
 220   2.0000      -0.513804       -13.9813
 221   2.0000      -0.511603       -13.9214
 222   2.0000      -0.510136       -13.8815
 223   2.0000      -0.509765       -13.8714
 224   2.0000      -0.507140       -13.8000
 225   2.0000      -0.502931       -13.6854
 226   2.0000      -0.500850       -13.6288
 227   2.0000      -0.497422       -13.5355
 228   2.0000      -0.495596       -13.4859
 229   2.0000      -0.494414       -13.4537
 230   2.0000      -0.492871       -13.4117
 231   2.0000      -0.491936       -13.3862
 232   2.0000      -0.487600       -13.2683
 233   2.0000      -0.486639       -13.2421
 234   2.0000      -0.483871       -13.1668
 235   2.0000      -0.479982       -13.0610
 236   2.0000      -0.475380       -12.9357
 237   2.0000      -0.474807       -12.9202
 238   2.0000      -0.472615       -12.8605
 239   2.0000      -0.470159       -12.7937
 240   2.0000      -0.466028       -12.6813
 241   2.0000      -0.464358       -12.6358
 242   2.0000      -0.462589       -12.5877
 243   2.0000      -0.459948       -12.5158
 244   2.0000      -0.458820       -12.4851
 245   2.0000      -0.453573       -12.3424
 246   2.0000      -0.452639       -12.3169
 247   2.0000      -0.451799       -12.2941
 248   2.0000      -0.450317       -12.2538
 249   2.0000      -0.449045       -12.2191
 250   2.0000      -0.448762       -12.2114
 251   2.0000      -0.445882       -12.1331
 252   2.0000      -0.444812       -12.1039
 253   2.0000      -0.444264       -12.0891
 254   2.0000      -0.440207       -11.9786
 255   2.0000      -0.438259       -11.9256
 256   2.0000      -0.436947       -11.8899
 257   2.0000      -0.429274       -11.6811
 258   2.0000      -0.426942       -11.6177
 259   2.0000      -0.424788       -11.5591
 260   2.0000      -0.423596       -11.5266
 261   2.0000      -0.420600       -11.4451
 262   2.0000      -0.414924       -11.2907
 263   2.0000      -0.414474       -11.2784
 264   2.0000      -0.412661       -11.2291
 265   2.0000      -0.409966       -11.1557
 266   2.0000      -0.408945       -11.1280
 267   2.0000      -0.405373       -11.0308
 268   2.0000      -0.402004       -10.9391
 269   2.0000      -0.392553       -10.6819
 270   2.0000      -0.387684       -10.5494
 271   2.0000      -0.380098       -10.3430
 272   2.0000      -0.377975       -10.2852
 273   2.0000      -0.376394       -10.2422
 274   2.0000      -0.376364       -10.2414
 275   2.0000      -0.373405       -10.1609
 276   2.0000      -0.371470       -10.1082
 277   2.0000      -0.367229        -9.9928
 278   2.0000      -0.360947        -9.8219
 279   2.0000      -0.358978        -9.7683
 280   2.0000      -0.357169        -9.7191
 281   2.0000      -0.354917        -9.6578
 282   2.0000      -0.351565        -9.5666
 283   2.0000      -0.349727        -9.5166
 284   2.0000      -0.345517        -9.4020
 285   2.0000      -0.341172        -9.2838
 286   2.0000      -0.338104        -9.2003
 287   2.0000      -0.332001        -9.0342
 288   2.0000      -0.317690        -8.6448
 289   2.0000      -0.317009        -8.6263
 290   2.0000      -0.312996        -8.5170
 291   2.0000      -0.298456        -8.1214
 292   2.0000      -0.292136        -7.9494
 293   2.0000      -0.266261        -7.2453
 294   2.0000      -0.215991        -5.8774
 295   0.0000      -0.138126        -3.7586
 296   0.0000      -0.102715        -2.7950
 297   0.0000      -0.096535        -2.6268
 298   0.0000      -0.077116        -2.0984
 299   0.0000      -0.073952        -2.0123

MULLIKEN ATOMIC CHARGES
-----------------------
   0 C :   -0.007084
   1 C :   -0.077145
   2 C :    0.065296
   3 C :    0.030638
   4 C :   -0.051718
   5 S :    0.115399
   6 C :   -0.045681
   7 C :    0.017759
   8 C :    0.043349
   9 C :   -0.054564
  10 S :    0.117434
  11 C :   -0.044473
  12 C :    0.089558
  13 C :   -0.055948
  14 C :   -0.078541
  15 N :   -0.026127
  16 C :   -0.074518
  17 C :   -0.137354
  18 N :    0.055416
  19 C :   -0.225134
  20 N :    0.240196
  21 C :   -0.272173
  22 N :    0.259025
  23 C :    0.212249
  24 C :   -0.033596
  25 C :    0.048191
  26 N :   -0.299896
  27 S :    0.541089
  28 N :   -0.329431
  29 C :   -0.289451
  30 S :    0.194061
  31 C :   -0.121202
  32 C :    0.013421
  33 C :    0.158972
  34 N :   -0.013008
  35 N :   -0.038105
  36 C :   -0.026711
  37 C :    0.128171
  38 C :   -0.089353
  39 C :    0.081495
  40 C :    0.030088
  41 C :    0.035348
  42 O :   -0.132484
  43 S :    0.029885
  44 C :    0.040267
  45 O :   -0.124832
  46 C :    0.036493
  47 C :    0.032283
  48 C :   -0.075639
  49 C :   -0.099210
  50 C :    0.223373
  51 O :   -0.102257
  52 O :   -0.224304
  53 C :    0.223910
  54 O :   -0.095542
  55 C :   -0.025926
  56 C :    0.060563
  57 C :   -0.059097
  58 C :   -0.046843
  59 C :    0.316895
  60 C :   -0.344055
  61 C :   -0.186445
  62 N :    0.155526
  63 C :   -0.197245
  64 N :    0.160199
  65 C :    0.014566
  66 C :   -0.014968
  67 C :    0.149588
  68 O :   -0.147430
  69 C :   -0.063216
  70 C :    0.117393
  71 C :   -0.094390
  72 C :   -0.015552
  73 S :    0.189364
  74 C :   -0.123385
  75 C :    0.040948
  76 Br:    0.025162
  77 H :    0.033920
  78 H :    0.035898
  79 H :    0.000467
  80 H :   -0.002398
  81 H :   -0.012427
  82 H :   -0.012556
  83 H :    0.006600
  84 H :    0.138802
  85 H :    0.017373
  86 H :   -0.017463
  87 H :    0.011038
  88 H :    0.039066
  89 H :    0.030476
  90 H :    0.020874
  91 H :   -0.010011
  92 H :   -0.006097
  93 H :   -0.003102
Sum of atomic charges:   -0.0000000

LOEWDIN ATOMIC CHARGES
----------------------
   0 C :   -0.042786
   1 C :   -0.143114
   2 C :   -0.012897
   3 C :   -0.027284
   4 C :   -0.153429
   5 S :    0.383463
   6 C :   -0.190912
   7 C :   -0.017258
   8 C :   -0.040315
   9 C :   -0.117652
  10 S :    0.405908
  11 C :   -0.051101
  12 C :   -0.030585
  13 C :   -0.002504
  14 C :   -0.000918
  15 N :   -0.017512
  16 C :   -0.026710
  17 C :   -0.040470
  18 N :    0.005833
  19 C :   -0.038787
  20 N :   -0.010488
  21 C :   -0.047324
  22 N :    0.003198
  23 C :   -0.070027
  24 C :   -0.041333
  25 C :   -0.037383
  26 N :   -0.261502
  27 S :    0.654452
  28 N :   -0.300390
  29 C :   -0.174677
  30 S :    0.508029
  31 C :   -0.171035
  32 C :   -0.083333
  33 C :   -0.016251
  34 N :    0.112962
  35 N :   -0.044712
  36 C :   -0.040199
  37 C :    0.016996
  38 C :   -0.052787
  39 C :    0.033828
  40 C :   -0.061325
  41 C :   -0.039831
  42 O :   -0.116204
  43 S :    0.313299
  44 C :   -0.044572
  45 O :   -0.107308
  46 C :   -0.043468
  47 C :    0.005872
  48 C :   -0.036038
  49 C :   -0.056276
  50 C :    0.105797
  51 O :   -0.099090
  52 O :   -0.053433
  53 C :    0.105118
  54 O :   -0.092570
  55 C :    0.012239
  56 C :    0.006604
  57 C :    0.069932
  58 C :   -0.077480
  59 C :    0.074046
  60 C :   -0.133087
  61 C :   -0.017719
  62 N :   -0.049744
  63 C :   -0.022763
  64 N :   -0.043291
  65 C :   -0.019805
  66 C :   -0.050214
  67 C :    0.088555
  68 O :   -0.137668
  69 C :    0.023808
  70 C :   -0.031405
  71 C :   -0.142720
  72 C :   -0.008875
  73 S :    0.434245
  74 C :   -0.270693
  75 C :   -0.070017
  76 Br:    0.138262
  77 H :    0.034899
  78 H :    0.032707
  79 H :    0.038540
  80 H :    0.035996
  81 H :    0.032707
  82 H :    0.023089
  83 H :    0.034704
  84 H :    0.069338
  85 H :    0.025613
  86 H :    0.028145
  87 H :    0.034574
  88 H :    0.040806
  89 H :    0.031088
  90 H :    0.044934
  91 H :    0.041366
  92 H :    0.041309
  93 H :    0.039012

  Mayer bond orders larger than 0.100000
B(  0-C ,  1-C ) :   1.8531 B(  0-C , 77-H ) :   0.9516 B(  0-C , 78-H ) :   0.9416
B(  1-C ,  2-C ) :   1.0859 B(  1-C ,  5-S ) :   1.0054 B(  2-C ,  3-C ) :   1.6443
B(  2-C , 79-H ) :   0.9929 B(  3-C ,  4-C ) :   1.1696 B(  3-C , 80-H ) :   0.9923
B(  4-C ,  5-S ) :   1.0828 B(  4-C ,  6-C ) :   1.4712 B(  6-C ,  7-C ) :   1.2121
B(  6-C , 10-S ) :   1.0547 B(  7-C ,  8-C ) :   1.5364 B(  7-C , 81-H ) :   0.9939
B(  8-C ,  9-C ) :   1.2162 B(  8-C , 82-H ) :   0.9666 B(  9-C , 10-S ) :   1.0907
B(  9-C , 11-C ) :   1.3901 B( 11-C , 12-C ) :   1.3883 B( 11-C , 83-H ) :   0.9099
B( 12-C , 13-C ) :   1.1770 B( 12-C , 25-C ) :   1.1221 B( 13-C , 14-C ) :   1.1023
B( 13-C , 18-N ) :   1.5017 B( 14-C , 15-N ) :   1.4565 B( 14-C , 23-C ) :   1.1985
B( 15-N , 16-C ) :   1.6476 B( 16-C , 17-C ) :   1.2504 B( 16-C , 21-C ) :   1.1500
B( 17-C , 18-N ) :   1.6861 B( 17-C , 19-C ) :   1.1647 B( 19-C , 20-N ) :   3.0451
B( 21-C , 22-N ) :   3.0387 B( 23-C , 24-C ) :   1.1625 B( 23-C , 29-C ) :   1.2563
B( 24-C , 25-C ) :   1.1165 B( 24-C , 28-N ) :   1.4999 B( 25-C , 26-N ) :   1.5175
B( 26-N , 27-S ) :   1.2555 B( 26-N , 28-N ) :   0.1374 B( 26-N , 82-H ) :   0.1010
B( 27-S , 28-N ) :   1.2421 B( 29-C , 30-S ) :   1.1546 B( 29-C , 31-C ) :   0.1011
B( 29-C , 33-C ) :   1.2927 B( 30-S , 31-C ) :   1.0785 B( 31-C , 32-C ) :   1.2487
B( 31-C , 37-C ) :   1.2603 B( 32-C , 33-C ) :   1.2751 B( 32-C , 36-C ) :   1.1861
B( 33-C , 34-N ) :   1.1995 B( 34-N , 35-N ) :   1.1502 B( 34-N , 84-H ) :   0.9167
B( 35-N , 36-C ) :   1.7034 B( 36-C , 85-H ) :   0.9915 B( 37-C , 38-C ) :   1.5425
B( 37-C , 86-H ) :   0.9418 B( 38-C , 39-C ) :   1.2128 B( 38-C , 87-H ) :   0.9483
B( 39-C , 40-C ) :   1.3047 B( 39-C , 49-C ) :   1.2443 B( 40-C , 41-C ) :   0.8637
B( 40-C , 46-C ) :   1.3318 B( 41-C , 42-O ) :   2.1373 B( 41-C , 43-S ) :   1.0313
B( 42-O , 43-S ) :   0.1009 B( 43-S , 44-C ) :   1.0384 B( 43-S , 45-O ) :   0.1063
B( 44-C , 45-O ) :   2.1588 B( 44-C , 46-C ) :   0.8470 B( 46-C , 47-C ) :   1.3613
B( 47-C , 48-C ) :   1.3139 B( 47-C , 55-C ) :   1.0682 B( 48-C , 49-C ) :   1.3956
B( 48-C , 53-C ) :   0.9009 B( 49-C , 50-C ) :   0.9180 B( 50-C , 51-O ) :   2.2451
B( 50-C , 52-O ) :   1.0492 B( 52-O , 53-C ) :   1.0603 B( 53-C , 54-O ) :   2.2580
B( 55-C , 56-C ) :   1.6298 B( 55-C , 88-H ) :   0.9545 B( 56-C , 57-C ) :   1.1454
B( 56-C , 89-H ) :   0.9663 B( 57-C , 58-C ) :   1.5863 B( 57-C , 90-H ) :   0.9663
B( 58-C , 59-C ) :   1.0489 B( 58-C , 67-C ) :   0.9328 B( 59-C , 60-C ) :   1.6424
B( 59-C , 65-C ) :   1.0083 B( 60-C , 61-C ) :   1.1403 B( 60-C , 63-C ) :   1.1441
B( 61-C , 62-N ) :   2.9728 B( 63-C , 64-N ) :   2.9765 B( 65-C , 66-C ) :   1.2721
B( 65-C , 72-C ) :   1.4072 B( 66-C , 67-C ) :   0.9430 B( 66-C , 69-C ) :   1.4238
B( 67-C , 68-O ) :   2.2007 B( 69-C , 70-C ) :   1.2509 B( 69-C , 91-H ) :   1.0144
B( 70-C , 71-C ) :   1.3008 B( 70-C , 75-C ) :   1.1638 B( 71-C , 72-C ) :   1.3369
B( 71-C , 73-S ) :   1.0873 B( 72-C , 92-H ) :   0.9781 B( 73-S , 74-C ) :   1.0859
B( 74-C , 75-C ) :   1.6194 B( 74-C , 76-Br) :   1.0193 B( 75-C , 93-H ) :   0.9992

-----------------------------------------------------------------------------
         ABSORPTION SPECTRUM VIA TRANSITION ELECTRIC DIPOLE MOMENTS
-----------------------------------------------------------------------------
State   Energy  Wavelength   fosc         T2         TX        TY        TZ
        (cm-1)    (nm)                  (au**2)     (au)      (au)      (au)
-----------------------------------------------------------------------------
   0    3517.2   2843.2   0.300465928  28.12384   1.52945   5.06236  -0.39637
   1   13068.8    765.2   0.018249887   0.45973  -0.36079  -0.20827   0.53496
   2   13850.6    722.0   0.798162217  18.97140  -1.89629  -3.63439  -1.47196
   3   14500.9    689.6   0.283128576   6.42783  -1.44064  -1.44782  -1.50207
   4   17036.9    587.0   0.544552134  10.52261  -0.23017   2.62926  -1.88590
   5   18957.7    527.5   0.053858973   0.93529   0.51545   0.75307   0.32014
   6   20858.6    479.4   0.068502345   1.08117  -0.01719  -0.88353   0.54795
   7   22188.6    450.7   0.122938536   1.82404  -0.50443  -1.14196  -0.51528
   8   22302.3    448.4   0.030644291   0.45235  -0.37187  -0.49038  -0.27129
   9   23101.4    432.9   0.488057068   6.95517  -1.13678  -2.11495  -1.09082
  10   23464.9    426.2   0.036939066   0.51826   0.40646   0.14523  -0.57616
  11   24380.3    410.2   0.190816120   2.57663   0.58392  -0.33810   1.45649
  12   25130.6    397.9   0.000653045   0.00855  -0.03827   0.04808  -0.06913
  13   25138.0    397.8   0.048201065   0.63125   0.24368   0.33878   0.67609
  14   25828.5    387.2   0.182729524   2.32909  -0.09500   0.42525  -1.46261
  15   27116.9    368.8   0.001729336   0.02099  -0.09631  -0.04220  -0.09970
  16   27476.5    363.9   0.041536272   0.49767  -0.25764  -0.19327  -0.62765
  17   27668.2    361.4   0.047976608   0.57085  -0.41684  -0.32489  -0.53995
  18   27745.7    360.4   0.090403859   1.07267   0.45012   0.55452   0.75005
  19   28037.9    356.7   0.002642341   0.03103   0.15479  -0.03423  -0.07677
  20   28067.1    356.3   0.000622239   0.00730  -0.00186  -0.07750   0.03591
  21   28143.1    355.3   0.039474343   0.46176  -0.14246  -0.20453  -0.63217
  22   28649.5    349.0   0.062851683   0.72223  -0.13930  -0.36216   0.75609
  23   28740.7    347.9   0.009227992   0.10570   0.15124  -0.13938   0.25180
  24   29110.9    343.5   0.037679815   0.42612   0.11077   0.40585  -0.49913
  25   29478.6    339.2   0.012701525   0.14185   0.08202   0.21662  -0.29698
  26   29820.0    335.3   0.014383250   0.15879  -0.15199  -0.36140  -0.07126
  27   30223.4    330.9   0.088315505   0.96199  -0.34589  -0.23766  -0.88649
  28   30621.5    326.6   0.053792836   0.57833   0.30957   0.27599   0.63744
  29   31260.7    319.9   0.157949130   1.66339  -0.51951  -0.11508  -1.17484
  30   31401.3    318.5   0.060551984   0.63483   0.15663  -0.25046   0.73998
  31   31747.5    315.0   0.396060010   4.10702   0.20833  -0.59164   1.92707
  32   32091.5    311.6   0.015251758   0.15646   0.08301   0.19715  -0.33272
  33   32152.6    311.0   0.064206327   0.65741  -0.14464   0.25428  -0.75620
  34   32513.3    307.6   0.071273618   0.72168  -0.20856  -0.47431   0.67321
  35   32600.2    306.7   0.097614941   0.98576  -0.45212  -0.23506  -0.85211
  36   32703.5    305.8   0.003671343   0.03696   0.06814   0.09829  -0.15051
  37   32764.9    305.2   0.017867190   0.17952   0.25403   0.32440   0.09877
  38   32844.4    304.5   0.048383009   0.48496  -0.21651  -0.07895  -0.65715
  39   32989.1    303.1   0.032799293   0.32732  -0.06398   0.27947  -0.49510
  40   33049.6    302.6   0.032298493   0.32173   0.14070  -0.22069   0.50322
  41   33321.8    300.1   0.001821691   0.01800  -0.09212  -0.06636  -0.07148
  42   33439.6    299.0   0.013584188   0.13374  -0.24341  -0.27217  -0.02039
  43   33635.7    297.3   0.013092007   0.12814  -0.16194  -0.10755  -0.30058
  44   33724.9    296.5   0.283496012   2.76740  -0.23308  -1.03177   1.28395
  45   34087.9    293.4   0.028681169   0.27700  -0.14876  -0.16087   0.47852
  46   34313.6    291.4   0.000125434   0.00120   0.00633   0.01310  -0.03149
  47   34731.9    287.9   0.044173287   0.41870   0.32832  -0.19871   0.52098
  48   34901.5    286.5   0.076382925   0.72049   0.11294  -0.57948   0.60987
  49   35418.5    282.3   0.276649332   2.57143   0.36106   0.01534   1.56232
  50   35633.7    280.6   0.039020798   0.36050  -0.39856  -0.10854   0.43575
  51   35692.8    280.2   0.000762867   0.00704   0.03011   0.06964   0.03577
  52   35940.5    278.2   0.000059789   0.00055   0.00466  -0.02288   0.00162
  53   36338.1    275.2   0.017616519   0.15960  -0.30340  -0.25977  -0.00828
  54   36435.3    274.5   0.014422481   0.13031   0.03422   0.05569   0.35502
  55   36604.8    273.2   0.149859485   1.34779   0.55668   0.46217   0.90791
  56   36712.1    272.4   0.058236727   0.52223  -0.20907   0.03974  -0.69061
  57   37030.1    270.1   0.002147703   0.01909   0.03381   0.10894  -0.07799
  58   37220.0    268.7   0.014901458   0.13180  -0.08036  -0.35404  -0.00072
  59   37621.8    265.8   0.116064687   1.01563  -0.40031  -0.41174  -0.82816
  60   38099.7    262.5   0.000200290   0.00173  -0.00225  -0.03600   0.02073
  61   38127.7    262.3   0.069729095   0.60207  -0.33785  -0.48309  -0.50454
  62   38194.6    261.8   0.052568076   0.45310  -0.14033  -0.62730   0.19977
  63   38318.2    261.0   0.000403821   0.00347   0.01270   0.05454  -0.01827
  64   38491.7    259.8   0.007452222   0.06374  -0.00476  -0.19258   0.16318
  65   38593.8    259.1   0.000204882   0.00175   0.00657   0.02282  -0.03440
  66   38713.5    258.3   0.029917193   0.25441   0.24121   0.39852   0.19340
  67   38774.3    257.9   0.009114209   0.07738   0.00109  -0.25586   0.10917
  68   39116.5    255.6   0.076130165   0.64073  -0.25183  -0.75872   0.04067
  69   39254.9    254.7   0.064564732   0.54147   0.06252   0.15797  -0.71597
  70   39331.9    254.2   0.010774214   0.09018   0.24819   0.00448   0.16901
  71   39434.3    253.6   0.000197749   0.00165   0.00156  -0.03171  -0.02535
  72   39472.4    253.3   0.011546499   0.09630   0.21441  -0.10253  -0.19955
  73   39774.3    251.4   0.034879970   0.28870  -0.13160   0.13793  -0.50235
  74   39847.5    251.0   0.035160780   0.29049   0.02436   0.16951   0.51104
  75   40047.2    249.7   0.137730664   1.13223   0.35495   0.83421   0.55708
  76   40131.1    249.2   0.035357847   0.29006   0.25013   0.40895   0.24547

FINAL SINGLE POINT ENERGY     -8025.283951408240

DIPOLE MOMENT
-------------
                                X             Y             Z
Electronic contribution:     58.96559      97.66849     109.89830
Nuclear contribution   :    -59.42167    -104.52793    -105.48188
                        -----------------------------------------
Total Dipole Moment    :     -0.45607      -6.85944       4.41642
                        -----------------------------------------
Magnitude (a.u.)       :      8.17097
Magnitude (Debye)      :     20.76895

Rotational constants in cm-1:     0.000838     0.000186     0.000154
Rotational constants in MHz :    25.125366     5.574433     4.631460

                             ****ORCA TERMINATED NORMALLY****
TOTAL RUN TIME: 0 days 0 hours 10 minutes 44 seconds 525 msec
