                         Program Version 4.2.0 -  RELEASE  -
|  1> # ORCA input file
|  2> # SCF done       -171.399664493311          0.000604429282
|  3> ! CAM-B3LYP def2-SVP def2/J RIJCOSX Grid4 TightSCF
|  4> %maxcore 5000
|  5> %tddft
|  6>     Mode sTDDFT
|  7>     Ethresh 5.0
|  8>     maxcore 5000
|  9> end
| 10>
| 11> %pal
| 12>   nprocs 6
| 13>   end
| 14> * xyz 0 1
| 15>    C        3.74212         4.90353        -6.60358
| 16>    C        4.97158         5.31265        -6.96947
| 17>    S        5.02879         6.96269        -7.48928
| 18>    C        3.31761         7.12946        -7.20399
| 19>    C        2.74849         5.92734        -6.72296
| 20>    C        1.38309         5.84834        -6.43331
| 21>    C        0.81502         4.55961        -5.91331
| 22>    C        1.04312         4.42118        -4.40673
| 23>    C        0.61486         6.99954        -6.62850
| 24>    C        1.22821         8.17785        -7.12470
| 25>    C        2.57872         8.28156        -7.41804
| 26>    C        3.18269         9.53154        -7.97885
| 27>    C        3.10171         9.52990        -9.50624
| 28>    S        0.08517         9.47974        -7.32761
| 29>    C       -1.18540         8.47349        -6.74862
| 30>    C       -0.79314         7.22253        -6.40997
| 31>    C       -1.77287         6.25959        -5.87724
| 32>    C       -2.04495         6.15048        -4.55522
| 33>    O       -2.99837         5.27014        -4.05345
| 34>    C       -3.64019         4.53402        -5.00423
| 35>    C       -3.36314         4.67339        -6.39730
| 36>    C       -4.11055         3.84767        -7.16984
| 37>    S       -5.17153         2.88430        -6.21182
| 38>    C       -4.59358         3.60445        -4.75344
| 39>    O       -2.43016         5.55303        -6.86470
| 40>    C       -1.35162         6.91551        -3.56569
| 41>    C       -1.59496         6.82345        -2.23740
| 42>    C       -0.90310         7.55442        -1.24672
| 43>    S        0.40406         8.66520        -1.60980
| 44>    C        0.69035         9.08423         0.06376
| 45>    C       -0.20773         8.38568         0.86546
| 46>    C       -1.08477         7.54012         0.12777
| 47>    N       -1.88392         6.93419         1.04262
| 48>    N       -1.57968         7.33166         2.29115
| 49>    C       -0.59421         8.18788         2.21672
| 50>    C        1.70063         9.98344         0.47864
| 51>    C        2.56880        10.59495        -0.35924
| 52>    C        3.64709        11.47358        -0.00588
| 53>    C        3.78149        12.26552         1.07031
| 54>    C        2.74032        12.48295         2.12253
| 55>    C        5.05320        13.06578         1.25177
| 56>    N        4.86614        14.47319         0.97219
| 57>    C        4.91775        15.00294        -0.25067
| 58>    C        4.67471        16.31837        -0.52819
| 59>    C        4.79345        16.82377        -1.82722
| 60>    C        4.63772        18.14410        -2.18172
| 61>    C        4.75712        18.69906        -3.50862
| 62>    C        4.94263        18.01470        -4.68640
| 63>    C        5.04693        18.62699        -5.95076
| 64>    N        5.14069        19.06087        -7.01036
| 65>    C        5.04188        16.61557        -4.81296
| 66>    N        5.12744        15.48520        -5.00376
| 67>    C        4.62352        20.15018        -3.39576
| 68>    C        4.38979        20.47936        -2.03920
| 69>    C        4.37368        19.23875        -1.23304
| 70>    O        4.18739        19.17101        -0.03208
| 71>    C        4.22645        21.77209        -1.60763
| 72>    C        4.29995        22.79341        -2.56131
| 73>    C        4.53386        22.45545        -3.91381
| 74>    C        4.69668        21.14625        -4.35080
| 75>    S        4.59270        23.86907        -4.92499
| 76>    C        4.30677        24.87935        -3.53335
| 77>    C        4.17315        24.19740        -2.37181
| 78>   Br        4.21322        26.74168        -3.74494
| 79>    H        3.53860         3.90694        -6.25640
| 80>    H        5.88151         4.74441        -6.97336
| 81>    H        1.29169         3.72342        -6.42889
| 82>    H       -0.25006         4.50616        -6.12745
| 83>    H        2.10587         4.45488        -4.17829
| 84>    H        0.63965         3.47603        -4.04983
| 85>    H        0.55345         5.23130        -3.87101
| 86>    H        4.22874         9.59684        -7.67207
| 87>    H        2.64807        10.40041        -7.58893
| 88>    H        3.63947         8.67607        -9.91222
| 89>    H        3.54143        10.43973        -9.90584
| 90>    H        2.06481         9.47381        -9.82961
| 91>    H       -2.17703         8.87742        -6.67902
| 92>    H       -4.09901         3.75429        -8.23540
| 93>    H       -4.98864         3.30372        -3.80598
| 94>    H       -0.59762         7.59634        -3.93205
| 95>    H       -2.36067         6.14547        -1.88589
| 96>    H       -2.62556         6.27118         0.89724
| 97>    H       -0.19350         8.63221         3.10511
| 98>    H        1.77266        10.11532         1.54784
| 99>    H        2.49515        10.35705        -1.41400
|100>    H        4.44989        11.48739        -0.73468
|101>    H        2.87451        11.78318         2.94877
|102>    H        1.74209        12.34570         1.71426
|103>    H        2.81431        13.48979         2.53020
|104>    H        5.83115        12.68509         0.58548
|105>    H        5.40165        12.97107         2.28437
|106>    H        4.54065        15.06718         1.72110
|107>    H        5.20351        14.32365        -1.04408
|108>    H        4.40191        16.99558         0.26666
|109>    H        5.04300        16.11095        -2.60226
|110>    H        4.05045        21.99062        -0.56595
|111>    H        4.87526        20.94228        -5.39314
|112>    H        3.99369        24.66244        -1.41966
|113> *
|114>
|115>                          ****END OF INPUT****

CARTESIAN COORDINATES (ANGSTROEM)
---------------------------------
  C      3.742120    4.903530   -6.603580
  C      4.971580    5.312650   -6.969470
  S      5.028790    6.962690   -7.489280
  C      3.317610    7.129460   -7.203990
  C      2.748490    5.927340   -6.722960
  C      1.383090    5.848340   -6.433310
  C      0.815020    4.559610   -5.913310
  C      1.043120    4.421180   -4.406730
  C      0.614860    6.999540   -6.628500
  C      1.228210    8.177850   -7.124700
  C      2.578720    8.281560   -7.418040
  C      3.182690    9.531540   -7.978850
  C      3.101710    9.529900   -9.506240
  S      0.085170    9.479740   -7.327610
  C     -1.185400    8.473490   -6.748620
  C     -0.793140    7.222530   -6.409970
  C     -1.772870    6.259590   -5.877240
  C     -2.044950    6.150480   -4.555220
  O     -2.998370    5.270140   -4.053450
  C     -3.640190    4.534020   -5.004230
  C     -3.363140    4.673390   -6.397300
  C     -4.110550    3.847670   -7.169840
  S     -5.171530    2.884300   -6.211820
  C     -4.593580    3.604450   -4.753440
  O     -2.430160    5.553030   -6.864700
  C     -1.351620    6.915510   -3.565690
  C     -1.594960    6.823450   -2.237400
  C     -0.903100    7.554420   -1.246720
  S      0.404060    8.665200   -1.609800
  C      0.690350    9.084230    0.063760
  C     -0.207730    8.385680    0.865460
  C     -1.084770    7.540120    0.127770
  N     -1.883920    6.934190    1.042620
  N     -1.579680    7.331660    2.291150
  C     -0.594210    8.187880    2.216720
  C      1.700630    9.983440    0.478640
  C      2.568800   10.594950   -0.359240
  C      3.647090   11.473580   -0.005880
  C      3.781490   12.265520    1.070310
  C      2.740320   12.482950    2.122530
  C      5.053200   13.065780    1.251770
  N      4.866140   14.473190    0.972190
  C      4.917750   15.002940   -0.250670
  C      4.674710   16.318370   -0.528190
  C      4.793450   16.823770   -1.827220
  C      4.637720   18.144100   -2.181720
  C      4.757120   18.699060   -3.508620
  C      4.942630   18.014700   -4.686400
  C      5.046930   18.626990   -5.950760
  N      5.140690   19.060870   -7.010360
  C      5.041880   16.615570   -4.812960
  N      5.127440   15.485200   -5.003760
  C      4.623520   20.150180   -3.395760
  C      4.389790   20.479360   -2.039200
  C      4.373680   19.238750   -1.233040
  O      4.187390   19.171010   -0.032080
  C      4.226450   21.772090   -1.607630
  C      4.299950   22.793410   -2.561310
  C      4.533860   22.455450   -3.913810
  C      4.696680   21.146250   -4.350800
  S      4.592700   23.869070   -4.924990
  C      4.306770   24.879350   -3.533350
  C      4.173150   24.197400   -2.371810
  Br     4.213220   26.741680   -3.744940
  H      3.538600    3.906940   -6.256400
  H      5.881510    4.744410   -6.973360
  H      1.291690    3.723420   -6.428890
  H     -0.250060    4.506160   -6.127450
  H      2.105870    4.454880   -4.178290
  H      0.639650    3.476030   -4.049830
  H      0.553450    5.231300   -3.871010
  H      4.228740    9.596840   -7.672070
  H      2.648070   10.400410   -7.588930
  H      3.639470    8.676070   -9.912220
  H      3.541430   10.439730   -9.905840
  H      2.064810    9.473810   -9.829610
  H     -2.177030    8.877420   -6.679020
  H     -4.099010    3.754290   -8.235400
  H     -4.988640    3.303720   -3.805980
  H     -0.597620    7.596340   -3.932050
  H     -2.360670    6.145470   -1.885890
  H     -2.625560    6.271180    0.897240
  H     -0.193500    8.632210    3.105110
  H      1.772660   10.115320    1.547840
  H      2.495150   10.357050   -1.414000
  H      4.449890   11.487390   -0.734680
  H      2.874510   11.783180    2.948770
  H      1.742090   12.345700    1.714260
  H      2.814310   13.489790    2.530200
  H      5.831150   12.685090    0.585480
  H      5.401650   12.971070    2.284370
  H      4.540650   15.067180    1.721100
  H      5.203510   14.323650   -1.044080
  H      4.401910   16.995580    0.266660
  H      5.043000   16.110950   -2.602260
  H      4.050450   21.990620   -0.565950
  H      4.875260   20.942280   -5.393140
  H      3.993690   24.662440   -1.419660

 Total Charge           Charge          ....    0
 Multiplicity           Mult            ....    1
 Number of Electrons    NEL             ....  508
 Basis Dimension        Dim             .... 1104

ORBITAL ENERGIES
----------------

  NO   OCC          E(Eh)            E(eV)
   0   2.0000    -482.876660    -13139.7419
   1   2.0000     -88.964070     -2420.8354
   2   2.0000     -88.958736     -2420.6903
   3   2.0000     -88.954651     -2420.5791
   4   2.0000     -88.944887     -2420.3134
   5   2.0000     -88.939628     -2420.1703
   6   2.0000     -62.554386     -1702.1914
   7   2.0000     -56.388322     -1534.4042
   8   2.0000     -56.385632     -1534.3311
   9   2.0000     -56.385592     -1534.3300
  10   2.0000     -19.270585      -524.3793
  11   2.0000     -19.268051      -524.3103
  12   2.0000     -19.197290      -522.3848
  13   2.0000     -14.477741      -393.9594
  14   2.0000     -14.467982      -393.6938
  15   2.0000     -14.436896      -392.8479
  16   2.0000     -14.400420      -391.8554
  17   2.0000     -14.396786      -391.7565
  18   2.0000     -10.347937      -281.5817
  19   2.0000     -10.347889      -281.5804
  20   2.0000     -10.346077      -281.5311
  21   2.0000     -10.338697      -281.3302
  22   2.0000     -10.337293      -281.2920
  23   2.0000     -10.335897      -281.2541
  24   2.0000     -10.335289      -281.2375
  25   2.0000     -10.330550      -281.1086
  26   2.0000     -10.323292      -280.9110
  27   2.0000     -10.319394      -280.8050
  28   2.0000     -10.312111      -280.6068
  29   2.0000     -10.311598      -280.5928
  30   2.0000     -10.307963      -280.4939
  31   2.0000     -10.304956      -280.4121
  32   2.0000     -10.303102      -280.3617
  33   2.0000     -10.301501      -280.3181
  34   2.0000     -10.301421      -280.3159
  35   2.0000     -10.295247      -280.1479
  36   2.0000     -10.294267      -280.1213
  37   2.0000     -10.294244      -280.1206
  38   2.0000     -10.292175      -280.0643
  39   2.0000     -10.291010      -280.0326
  40   2.0000     -10.290853      -280.0284
  41   2.0000     -10.290457      -280.0176
  42   2.0000     -10.290039      -280.0062
  43   2.0000     -10.289886      -280.0020
  44   2.0000     -10.288143      -279.9546
  45   2.0000     -10.287976      -279.9500
  46   2.0000     -10.287478      -279.9365
  47   2.0000     -10.286772      -279.9173
  48   2.0000     -10.286180      -279.9012
  49   2.0000     -10.282643      -279.8049
  50   2.0000     -10.281447      -279.7724
  51   2.0000     -10.279973      -279.7323
  52   2.0000     -10.279525      -279.7201
  53   2.0000     -10.279381      -279.7162
  54   2.0000     -10.276987      -279.6510
  55   2.0000     -10.276639      -279.6416
  56   2.0000     -10.276284      -279.6319
  57   2.0000     -10.274455      -279.5821
  58   2.0000     -10.273706      -279.5618
  59   2.0000     -10.271900      -279.5126
  60   2.0000     -10.269088      -279.4361
  61   2.0000     -10.267228      -279.3855
  62   2.0000     -10.265237      -279.3313
  63   2.0000     -10.265083      -279.3271
  64   2.0000     -10.264086      -279.3000
  65   2.0000     -10.259165      -279.1661
  66   2.0000     -10.248912      -278.8871
  67   2.0000     -10.247627      -278.8521
  68   2.0000      -8.783817      -239.0198
  69   2.0000      -8.060053      -219.3252
  70   2.0000      -8.053151      -219.1374
  71   2.0000      -8.050326      -219.0605
  72   2.0000      -8.040870      -218.8032
  73   2.0000      -8.035543      -218.6582
  74   2.0000      -6.620058      -180.1409
  75   2.0000      -6.605567      -179.7466
  76   2.0000      -6.605410      -179.7424
  77   2.0000      -6.029736      -164.0775
  78   2.0000      -6.025493      -163.9620
  79   2.0000      -6.022466      -163.8796
  80   2.0000      -6.021271      -163.8471
  81   2.0000      -6.019871      -163.8090
  82   2.0000      -6.018392      -163.7688
  83   2.0000      -6.015662      -163.6945
  84   2.0000      -6.015392      -163.6871
  85   2.0000      -6.012029      -163.5956
  86   2.0000      -6.010372      -163.5505
  87   2.0000      -6.006173      -163.4363
  88   2.0000      -6.005143      -163.4082
  89   2.0000      -6.002529      -163.3371
  90   2.0000      -6.000907      -163.2930
  91   2.0000      -5.997089      -163.1891
  92   2.0000      -2.735933       -74.4485
  93   2.0000      -2.731878       -74.3382
  94   2.0000      -2.731742       -74.3345
  95   2.0000      -2.720232       -74.0213
  96   2.0000      -2.720212       -74.0207
  97   2.0000      -1.193772       -32.4842
  98   2.0000      -1.156963       -31.4826
  99   2.0000      -1.139659       -31.0117
 100   2.0000      -1.110598       -30.2209
 101   2.0000      -1.065813       -29.0022
 102   2.0000      -1.008470       -27.4419
 103   2.0000      -0.998281       -27.1646
 104   2.0000      -0.993942       -27.0465
 105   2.0000      -0.982711       -26.7409
 106   2.0000      -0.980776       -26.6883
 107   2.0000      -0.978193       -26.6180
 108   2.0000      -0.973004       -26.4768
 109   2.0000      -0.965308       -26.2674
 110   2.0000      -0.932892       -25.3853
 111   2.0000      -0.928648       -25.2698
 112   2.0000      -0.920728       -25.0543
 113   2.0000      -0.912964       -24.8430
 114   2.0000      -0.902302       -24.5529
 115   2.0000      -0.900834       -24.5129
 116   2.0000      -0.898221       -24.4418
 117   2.0000      -0.893922       -24.3248
 118   2.0000      -0.882846       -24.0235
 119   2.0000      -0.872251       -23.7352
 120   2.0000      -0.868398       -23.6303
 121   2.0000      -0.861304       -23.4373
 122   2.0000      -0.843699       -22.9582
 123   2.0000      -0.840352       -22.8671
 124   2.0000      -0.835939       -22.7471
 125   2.0000      -0.823092       -22.3975
 126   2.0000      -0.818296       -22.2670
 127   2.0000      -0.815658       -22.1952
 128   2.0000      -0.815016       -22.1777
 129   2.0000      -0.811261       -22.0755
 130   2.0000      -0.802557       -21.8387
 131   2.0000      -0.794407       -21.6169
 132   2.0000      -0.789950       -21.4956
 133   2.0000      -0.773050       -21.0358
 134   2.0000      -0.763550       -20.7772
 135   2.0000      -0.750331       -20.4176
 136   2.0000      -0.741569       -20.1791
 137   2.0000      -0.732371       -19.9288
 138   2.0000      -0.721571       -19.6349
 139   2.0000      -0.715020       -19.4567
 140   2.0000      -0.710899       -19.3446
 141   2.0000      -0.697429       -18.9780
 142   2.0000      -0.688351       -18.7310
 143   2.0000      -0.687401       -18.7051
 144   2.0000      -0.683947       -18.6112
 145   2.0000      -0.682102       -18.5609
 146   2.0000      -0.677926       -18.4473
 147   2.0000      -0.674639       -18.3579
 148   2.0000      -0.674577       -18.3562
 149   2.0000      -0.655462       -17.8360
 150   2.0000      -0.654393       -17.8069
 151   2.0000      -0.651401       -17.7255
 152   2.0000      -0.644553       -17.5392
 153   2.0000      -0.643514       -17.5109
 154   2.0000      -0.625829       -17.0297
 155   2.0000      -0.622199       -16.9309
 156   2.0000      -0.618830       -16.8392
 157   2.0000      -0.615164       -16.7395
 158   2.0000      -0.607132       -16.5209
 159   2.0000      -0.603954       -16.4344
 160   2.0000      -0.601774       -16.3751
 161   2.0000      -0.593154       -16.1405
 162   2.0000      -0.581505       -15.8235
 163   2.0000      -0.580968       -15.8089
 164   2.0000      -0.572943       -15.5906
 165   2.0000      -0.571075       -15.5397
 166   2.0000      -0.563956       -15.3460
 167   2.0000      -0.561144       -15.2695
 168   2.0000      -0.556407       -15.1406
 169   2.0000      -0.552058       -15.0223
 170   2.0000      -0.543135       -14.7795
 171   2.0000      -0.541842       -14.7443
 172   2.0000      -0.540606       -14.7106
 173   2.0000      -0.533885       -14.5278
 174   2.0000      -0.533726       -14.5234
 175   2.0000      -0.529654       -14.4126
 176   2.0000      -0.523993       -14.2586
 177   2.0000      -0.523531       -14.2460
 178   2.0000      -0.521332       -14.1862
 179   2.0000      -0.520161       -14.1543
 180   2.0000      -0.516655       -14.0589
 181   2.0000      -0.512038       -13.9333
 182   2.0000      -0.509791       -13.8721
 183   2.0000      -0.507163       -13.8006
 184   2.0000      -0.504476       -13.7275
 185   2.0000      -0.503951       -13.7132
 186   2.0000      -0.502558       -13.6753
 187   2.0000      -0.496063       -13.4986
 188   2.0000      -0.495708       -13.4889
 189   2.0000      -0.493837       -13.4380
 190   2.0000      -0.493025       -13.4159
 191   2.0000      -0.492763       -13.4088
 192   2.0000      -0.488809       -13.3012
 193   2.0000      -0.483423       -13.1546
 194   2.0000      -0.479453       -13.0466
 195   2.0000      -0.478187       -13.0121
 196   2.0000      -0.476391       -12.9633
 197   2.0000      -0.475136       -12.9291
 198   2.0000      -0.474184       -12.9032
 199   2.0000      -0.472818       -12.8660
 200   2.0000      -0.466096       -12.6831
 201   2.0000      -0.465775       -12.6744
 202   2.0000      -0.461386       -12.5549
 203   2.0000      -0.458949       -12.4886
 204   2.0000      -0.458412       -12.4740
 205   2.0000      -0.453808       -12.3487
 206   2.0000      -0.451751       -12.2928
 207   2.0000      -0.447690       -12.1823
 208   2.0000      -0.444947       -12.1076
 209   2.0000      -0.444439       -12.0938
 210   2.0000      -0.442467       -12.0401
 211   2.0000      -0.441253       -12.0071
 212   2.0000      -0.438532       -11.9331
 213   2.0000      -0.435167       -11.8415
 214   2.0000      -0.434941       -11.8353
 215   2.0000      -0.431061       -11.7298
 216   2.0000      -0.428426       -11.6581
 217   2.0000      -0.428007       -11.6467
 218   2.0000      -0.426631       -11.6092
 219   2.0000      -0.426141       -11.5959
 220   2.0000      -0.424374       -11.5478
 221   2.0000      -0.418967       -11.4007
 222   2.0000      -0.418741       -11.3945
 223   2.0000      -0.417816       -11.3693
 224   2.0000      -0.412093       -11.2136
 225   2.0000      -0.411780       -11.2051
 226   2.0000      -0.408318       -11.1109
 227   2.0000      -0.408285       -11.1100
 228   2.0000      -0.400270       -10.8919
 229   2.0000      -0.394819       -10.7436
 230   2.0000      -0.392231       -10.6731
 231   2.0000      -0.385885       -10.5005
 232   2.0000      -0.380704       -10.3595
 233   2.0000      -0.377710       -10.2780
 234   2.0000      -0.368881       -10.0378
 235   2.0000      -0.367889       -10.0108
 236   2.0000      -0.366277        -9.9669
 237   2.0000      -0.363072        -9.8797
 238   2.0000      -0.361550        -9.8383
 239   2.0000      -0.348643        -9.4870
 240   2.0000      -0.337071        -9.1722
 241   2.0000      -0.328003        -8.9254
 242   2.0000      -0.318545        -8.6681
 243   2.0000      -0.314726        -8.5641
 244   2.0000      -0.313145        -8.5211
 245   2.0000      -0.310763        -8.4563
 246   2.0000      -0.302620        -8.2347
 247   2.0000      -0.301022        -8.1912
 248   2.0000      -0.285032        -7.7561
 249   2.0000      -0.282424        -7.6851
 250   2.0000      -0.266989        -7.2651
 251   2.0000      -0.258856        -7.0438
 252   2.0000      -0.248273        -6.7559
 253   2.0000      -0.223610        -6.0847
 254   0.0000      -0.067582        -1.8390
 255   0.0000      -0.060628        -1.6498
 256   0.0000      -0.039215        -1.0671
 257   0.0000       0.000550         0.0150
 258   0.0000       0.005612         0.1527

MULLIKEN ATOMIC CHARGES
-----------------------
   0 C :   -0.000429
   1 C :   -0.049632
   2 S :    0.089200
   3 C :   -0.151918
   4 C :    0.090891
   5 C :   -0.150256
   6 C :    0.051156
   7 C :    0.052908
   8 C :    0.193281
   9 C :   -0.177553
  10 C :   -0.080000
  11 C :    0.026969
  12 C :    0.036731
  13 S :    0.103815
  14 C :   -0.064470
  15 C :   -0.055889
  16 C :    0.037331
  17 C :    0.192442
  18 O :   -0.270695
  19 C :    0.224494
  20 C :    0.221273
  21 C :   -0.174593
  22 S :    0.104896
  23 C :   -0.179847
  24 O :   -0.243395
  25 C :   -0.064311
  26 C :   -0.001777
  27 C :   -0.148934
  28 S :    0.116176
  29 C :   -0.105340
  30 C :    0.021380
  31 C :    0.166562
  32 N :   -0.047744
  33 N :   -0.057923
  34 C :   -0.007252
  35 C :    0.009220
  36 C :   -0.005717
  37 C :    0.011737
  38 C :   -0.181281
  39 C :    0.090664
  40 C :    0.181141
  41 N :   -0.120501
  42 C :    0.094799
  43 C :   -0.030910
  44 C :   -0.027652
  45 C :   -0.098930
  46 C :    0.335158
  47 C :   -0.367020
  48 C :   -0.190183
  49 N :    0.136042
  50 C :   -0.194051
  51 N :    0.126599
  52 C :    0.007456
  53 C :   -0.011237
  54 C :    0.138222
  55 O :   -0.175106
  56 C :   -0.077065
  57 C :    0.117000
  58 C :   -0.092650
  59 C :   -0.021671
  60 S :    0.178419
  61 C :   -0.124051
  62 C :    0.037401
  63 Br:    0.013744
  64 H :   -0.016597
  65 H :    0.022316
  66 H :    0.000589
  67 H :    0.016244
  68 H :    0.005232
  69 H :    0.011022
  70 H :    0.002819
  71 H :    0.013384
  72 H :    0.014742
  73 H :    0.012363
  74 H :    0.019946
  75 H :    0.012244
  76 H :    0.020515
  77 H :    0.026613
  78 H :    0.018978
  79 H :    0.028264
  80 H :   -0.012431
  81 H :    0.134542
  82 H :   -0.009479
  83 H :   -0.019172
  84 H :    0.002797
  85 H :   -0.013368
  86 H :    0.037489
  87 H :    0.038863
  88 H :   -0.006312
  89 H :    0.022271
  90 H :    0.023449
  91 H :    0.137123
  92 H :    0.024200
  93 H :    0.010197
  94 H :   -0.001842
  95 H :   -0.016998
  96 H :   -0.009488
  97 H :   -0.007636
Sum of atomic charges:   -0.0000000

LOEWDIN ATOMIC CHARGES
----------------------
   0 C :   -0.063127
   1 C :   -0.164079
   2 S :    0.390077
   3 C :   -0.152591
   4 C :   -0.050542
   5 C :   -0.011091
   6 C :   -0.028863
   7 C :   -0.050135
   8 C :   -0.046713
   9 C :   -0.152928
  10 C :   -0.058603
  11 C :   -0.035578
  12 C :   -0.047881
  13 S :    0.407432
  14 C :   -0.148412
  15 C :   -0.076254
  16 C :    0.014487
  17 C :    0.016902
  18 O :   -0.067389
  19 C :   -0.005851
  20 C :   -0.010446
  21 C :   -0.209368
  22 S :    0.431740
  23 C :   -0.214565
  24 O :   -0.050396
  25 C :   -0.046916
  26 C :   -0.042101
  27 C :   -0.202319
  28 S :    0.449190
  29 C :   -0.169187
  30 C :   -0.090624
  31 C :   -0.020661
  32 N :    0.081342
  33 N :   -0.051064
  34 C :   -0.042733
  35 C :   -0.031531
  36 C :   -0.039625
  37 C :   -0.044812
  38 C :   -0.043511
  39 C :   -0.052505
  40 C :    0.046414
  41 N :    0.036942
  42 C :    0.098489
  43 C :   -0.113931
  44 C :    0.075776
  45 C :   -0.134699
  46 C :    0.080808
  47 C :   -0.162892
  48 C :   -0.019471
  49 N :   -0.070829
  50 C :   -0.018481
  51 N :   -0.074982
  52 C :   -0.019911
  53 C :   -0.047910
  54 C :    0.082707
  55 O :   -0.167564
  56 C :    0.015930
  57 C :   -0.035993
  58 C :   -0.146631
  59 C :   -0.012350
  60 S :    0.426390
  61 C :   -0.274911
  62 C :   -0.071318
  63 Br:    0.128865
  64 H :    0.028310
  65 H :    0.023431
  66 H :    0.026679
  67 H :    0.028319
  68 H :    0.021758
  69 H :    0.023532
  70 H :    0.025294
  71 H :    0.025326
  72 H :    0.024885
  73 H :    0.023002
  74 H :    0.025739
  75 H :    0.022077
  76 H :    0.027344
  77 H :    0.029875
  78 H :    0.026720
  79 H :    0.032924
  80 H :    0.031263
  81 H :    0.085348
  82 H :    0.019884
  83 H :    0.033530
  84 H :    0.025327
  85 H :    0.027570
  86 H :    0.037726
  87 H :    0.038849
  88 H :    0.022174
  89 H :    0.033233
  90 H :    0.032761
  91 H :    0.087152
  92 H :    0.037374
  93 H :    0.029499
  94 H :    0.038707
  95 H :    0.038050
  96 H :    0.040054
  97 H :    0.037064

  Mayer bond orders larger than 0.100000
B(  0-C ,  1-C ) :   1.6607 B(  0-C ,  4-C ) :   1.1567 B(  0-C , 64-H ) :   0.9853
B(  1-C ,  2-S ) :   1.1003 B(  1-C , 65-H ) :   0.9670 B(  2-S ,  3-C ) :   1.0588
B(  3-C ,  4-C ) :   1.2902 B(  3-C , 10-C ) :   1.4450 B(  4-C ,  5-C ) :   1.3449
B(  5-C ,  6-C ) :   1.0828 B(  5-C ,  8-C ) :   1.3705 B(  6-C ,  7-C ) :   1.1139
B(  6-C , 66-H ) :   0.9088 B(  6-C , 67-H ) :   0.9135 B(  7-C , 68-H ) :   0.9616
B(  7-C , 69-H ) :   0.9634 B(  7-C , 70-H ) :   0.9577 B(  8-C ,  9-C ) :   1.2613
B(  8-C , 15-C ) :   1.1770 B(  9-C , 10-C ) :   1.4435 B(  9-C , 13-S ) :   1.0632
B( 10-C , 11-C ) :   1.0646 B( 11-C , 12-C ) :   1.1044 B( 11-C , 71-H ) :   0.9212
B( 11-C , 72-H ) :   0.9211 B( 12-C , 73-H ) :   0.9676 B( 12-C , 74-H ) :   0.9687
B( 12-C , 75-H ) :   0.9676 B( 13-S , 14-C ) :   1.1059 B( 14-C , 15-C ) :   1.6685
B( 14-C , 76-H ) :   0.9688 B( 15-C , 16-C ) :   0.9373 B( 16-C , 17-C ) :   1.6189
B( 16-C , 24-O ) :   1.0458 B( 17-C , 18-O ) :   1.0482 B( 17-C , 25-C ) :   1.1635
B( 18-O , 19-C ) :   1.0588 B( 19-C , 20-C ) :   1.1972 B( 19-C , 23-C ) :   1.5723
B( 20-C , 21-C ) :   1.5775 B( 20-C , 24-O ) :   1.0457 B( 21-C , 22-S ) :   1.1407
B( 21-C , 77-H ) :   0.9699 B( 22-S , 23-C ) :   1.1381 B( 23-C , 78-H ) :   0.9719
B( 25-C , 26-C ) :   1.6260 B( 25-C , 79-H ) :   0.9484 B( 26-C , 27-C ) :   1.1563
B( 26-C , 80-H ) :   0.9848 B( 27-C , 28-S ) :   1.0895 B( 27-C , 29-C ) :   0.1157
B( 27-C , 31-C ) :   1.3808 B( 28-S , 29-C ) :   1.1244 B( 29-C , 30-C ) :   1.3370
B( 29-C , 35-C ) :   1.1952 B( 30-C , 31-C ) :   1.2397 B( 30-C , 34-C ) :   1.1456
B( 31-C , 32-N ) :   1.1432 B( 32-N , 33-N ) :   1.1312 B( 32-N , 81-H ) :   0.9506
B( 33-N , 34-C ) :   1.7491 B( 34-C , 82-H ) :   0.9994 B( 35-C , 36-C ) :   1.6771
B( 35-C , 83-H ) :   0.9675 B( 36-C , 37-C ) :   1.1161 B( 36-C , 84-H ) :   0.9570
B( 37-C , 38-C ) :   1.8211 B( 37-C , 85-H ) :   0.9508 B( 38-C , 39-C ) :   1.0762
B( 38-C , 40-C ) :   1.0370 B( 39-C , 86-H ) :   0.9406 B( 39-C , 87-H ) :   0.9479
B( 39-C , 88-H ) :   0.9473 B( 40-C , 41-N ) :   0.9862 B( 40-C , 89-H ) :   0.9406
B( 40-C , 90-H ) :   0.9397 B( 41-N , 42-C ) :   1.3209 B( 41-N , 91-H ) :   0.9310
B( 42-C , 43-C ) :   1.4434 B( 42-C , 92-H ) :   0.9657 B( 43-C , 44-C ) :   1.2874
B( 43-C , 93-H ) :   0.9645 B( 44-C , 45-C ) :   1.4554 B( 44-C , 94-H ) :   0.9533
B( 45-C , 46-C ) :   1.1072 B( 45-C , 54-C ) :   0.9781 B( 46-C , 47-C ) :   1.5880
B( 46-C , 52-C ) :   0.9931 B( 47-C , 48-C ) :   1.1462 B( 47-C , 50-C ) :   1.1557
B( 48-C , 49-N ) :   2.9642 B( 50-C , 51-N ) :   2.9564 B( 52-C , 53-C ) :   1.2803
B( 52-C , 59-C ) :   1.4170 B( 53-C , 54-C ) :   0.9368 B( 53-C , 56-C ) :   1.4316
B( 54-C , 55-O ) :   2.1778 B( 56-C , 57-C ) :   1.2390 B( 56-C , 95-H ) :   1.0163
B( 57-C , 58-C ) :   1.3166 B( 57-C , 62-C ) :   1.1603 B( 58-C , 59-C ) :   1.3230
B( 58-C , 60-S ) :   1.0814 B( 59-C , 96-H ) :   0.9793 B( 60-S , 61-C ) :   1.0862
B( 61-C , 62-C ) :   1.6205 B( 61-C , 63-Br) :   1.0125 B( 62-C , 97-H ) :   1.0005

-----------------------------------------------------------------------------
         ABSORPTION SPECTRUM VIA TRANSITION ELECTRIC DIPOLE MOMENTS
-----------------------------------------------------------------------------
State   Energy  Wavelength   fosc         T2         TX        TY        TZ
        (cm-1)    (nm)                  (au**2)     (au)      (au)      (au)
-----------------------------------------------------------------------------
   0   20321.7    492.1   1.006136383  16.29943   2.06237   2.79917   2.05200
   1   23966.6    417.2   0.177489869   2.43805   0.07097  -0.70360   1.39211
   2   24721.9    404.5   0.481924160   6.41759  -0.08675   1.19337  -2.23292
   3   26175.8    382.0   0.009519394   0.11972   0.14149   0.27310   0.15850
   4   28486.2    351.0   0.235351917   2.71994   0.09517   1.28204  -1.03308
   5   29328.3    341.0   0.108134747   1.21382   0.71068   0.78033   0.31598
   6   30467.5    328.2   0.705098907   7.61883  -0.30304   2.72547  -0.31433
   7   30615.8    326.6   0.007170124   0.07710  -0.03511   0.27491  -0.01710
   8   30875.3    323.9   0.039445883   0.42060   0.02036  -0.60704   0.22733
   9   31069.2    321.9   0.056423523   0.59787  -0.06136   0.76414  -0.10097
  10   31182.0    320.7   0.029071497   0.30693  -0.05276   0.50926  -0.21165
  11   31347.9    319.0   0.002858496   0.03002   0.08509   0.01163  -0.15048
  12   32000.5    312.5   0.003001946   0.03088   0.00763  -0.16804   0.05087
  13   32130.5    311.2   0.351196818   3.59839   0.21125  -1.88184  -0.11148
  14   33837.3    295.5   0.085794684   0.83472   0.10458  -0.06384  -0.90538
  15   34153.0    292.8   0.053624478   0.51690   0.30516   0.05094  -0.64899
  16   35167.2    284.4   0.354746646   3.32091  -0.23399   1.42167   1.11580
  17   35289.0    283.4   0.001508521   0.01407   0.03113  -0.10659  -0.04174
  18   37409.2    267.3   0.011195872   0.09853  -0.29902  -0.02564  -0.09197
  19   37502.6    266.6   0.000851038   0.00747  -0.03816  -0.07500   0.01975
  20   37702.9    265.2   0.063245703   0.55225   0.33495   0.50927  -0.42508
  21   38093.5    262.5   0.093589850   0.80882  -0.04905   0.49709   0.74787
  22   38271.9    261.3   0.085267579   0.73347   0.20724  -0.71714   0.41979
  23   38654.5    258.7   0.040160064   0.34203   0.50317   0.29265  -0.05669
  24   38767.6    257.9   0.003167296   0.02690   0.11929   0.10023  -0.05120
  25   39490.0    253.2   0.687415794   5.73071   1.27901   1.02011  -1.74763
  26   39652.4    252.2   0.216555508   1.79794  -0.60852  -1.15642   0.30054
  27   40156.1    249.0   0.024372054   0.19981  -0.08011  -0.36025   0.25221

FINAL SINGLE POINT ENERGY     -6986.352578526993

DIPOLE MOMENT
-------------
                                X             Y             Z
Electronic contribution:     14.49937     204.96983     -19.97024
Nuclear contribution   :    -14.79820    -206.75160      22.92478
                        -----------------------------------------
Total Dipole Moment    :     -0.29883      -1.78177       2.95454
                        -----------------------------------------
Magnitude (a.u.)       :      3.46314
Magnitude (Debye)      :      8.80260

Rotational constants in cm-1:     0.001316     0.000262     0.000246
Rotational constants in MHz :    39.462672     7.862830     7.361494

                             ****ORCA TERMINATED NORMALLY****
TOTAL RUN TIME: 0 days 0 hours 7 minutes 54 seconds 269 msec
