                         Program Version 4.2.0 -  RELEASE  -
|  1> # ORCA input file
|  2> # SCF done       -160.344804745870          0.000571852237
|  3> ! CAM-B3LYP def2-SVP def2/J RIJCOSX Grid4 TightSCF
|  4> %maxcore 5000
|  5> %tddft
|  6>     Mode sTDDFT
|  7>     Ethresh 5.0
|  8>     maxcore 5000
|  9> end
| 10>
| 11> %pal
| 12>   nprocs 6
| 13>   end
| 14> * xyz 0 1
| 15>    C        1.16078         1.83576        -4.27581
| 16>    S        2.20868         1.90514        -5.65045
| 17>    C        0.87396         1.86647        -6.75577
| 18>    C       -0.30031         1.80387        -6.08918
| 19>    C       -0.14288         1.78574        -4.66100
| 20>    C       -1.44357         1.71887        -4.06383
| 21>    C       -2.40377         1.69522        -5.04232
| 22>    C       -1.74485         1.74780        -6.39706
| 23>    O       -2.27410         1.74547        -7.48043
| 24>    C       -3.81106         1.63326        -4.84861
| 25>    C       -4.48357         1.55896        -3.64623
| 26>    C       -5.87909         1.48991        -3.89608
| 27>    C       -6.04023         1.55930        -5.36388
| 28>    C       -4.80484         1.64577        -5.91817
| 29>    C       -7.24585         1.63557        -6.07256
| 30>    N       -8.20897         1.74862        -6.68814
| 31>    C       -6.89430         1.37477        -2.96958
| 32>    C       -8.27396         1.17348        -3.22409
| 33>    C       -8.96869         1.18012        -2.02403
| 34>    C       -8.00085         1.37463        -0.95789
| 35>    C       -6.75880         1.46470        -1.50737
| 36>    C       -5.57654         1.63799        -0.78103
| 37>    N       -4.62298         1.77836        -0.15510
| 38>    C      -10.37334         1.00840        -1.94790
| 39>    N      -11.21163         1.37643        -0.92617
| 40>    C      -10.87299         2.01006         0.32610
| 41>    C      -10.63697         0.97986         1.42838
| 42>    C      -12.56011         1.10859        -1.22994
| 43>    O      -13.47698         1.37997        -0.48043
| 44>    C      -12.52255         0.50293        -2.54254
| 45>    C      -11.17859         0.45997        -2.95727
| 46>    C      -11.12527        -0.21304        -4.24343
| 47>    O      -10.20447        -0.52914        -4.96147
| 48>    N      -12.47266        -0.50474        -4.53237
| 49>    C      -12.84397        -1.11943        -5.78529
| 50>    C      -13.33157        -0.08740        -6.79837
| 51>    C      -13.32112        -0.08152        -3.54151
| 52>    C      -14.71887        -0.23723        -3.58167
| 53>    C      -15.54298         0.21166        -2.58709
| 54>    C      -16.94818         0.08546        -2.60602
| 55>    C      -17.76462        -0.49075        -3.56595
| 56>    C      -19.11782        -0.37623        -3.16150
| 57>    C      -19.10086         0.32255        -1.86071
| 58>    C      -17.80747         0.58834        -1.54363
| 59>    C      -20.21280         0.65940        -1.08194
| 60>    N      -21.11410         0.94487        -0.42843
| 61>    C      -20.23775        -0.82059        -3.83494
| 62>    C      -21.59227        -0.69938        -3.42847
| 63>    C      -22.40594        -1.27221        -4.38229
| 64>    C      -21.55597        -1.78466        -5.44535
| 65>    C      -20.25965        -1.52169        -5.13284
| 66>    C      -19.15322        -1.86362        -5.91593
| 67>    N      -18.25596        -2.15259        -6.57376
| 68>    C      -23.82004        -1.36859        -4.37455
| 69>    S      -24.66115        -2.15999        -5.71203
| 70>    C      -26.20686        -1.88016        -5.00011
| 71>    C      -26.09229        -1.22634        -3.82027
| 72>    C      -24.74415        -0.92903        -3.45161
| 73>    C      -24.77451        -0.23514        -2.18223
| 74>    C      -26.05317        -0.10250        -1.77527
| 75>    C      -26.98949        -0.70666        -2.75572
| 76>    O      -28.19430        -0.76179        -2.70026
| 77>    H        1.58137         1.83722        -3.29010
| 78>    H        1.05807         1.89274        -7.81145
| 79>    H       -1.62421         1.69435        -3.00417
| 80>    H       -4.03944         1.52453        -2.67153
| 81>    H       -4.56854         1.72234        -6.96231
| 82>    H       -8.70319         1.03200        -4.19565
| 83>    H       -8.20675         1.39305         0.09476
| 84>    H      -11.72997         2.63296         0.60001
| 85>    H      -10.00353         2.65378         0.17954
| 86>    H      -11.55514         0.42887         1.61613
| 87>    H      -10.33870         1.48048         2.34547
| 88>    H       -9.86352         0.26859         1.14582
| 89>    H      -13.60533        -1.88320        -5.60663
| 90>    H      -11.93908        -1.60309        -6.16325
| 91>    H      -14.20212         0.44736        -6.42459
| 92>    H      -13.59997        -0.58476        -7.72585
| 93>    H      -12.54220         0.63125        -7.00433
| 94>    H      -15.14616        -0.72766        -4.44388
| 95>    H      -15.10911         0.70289        -1.72589
| 96>    H      -17.44660        -0.95501        -4.47774
| 97>    H      -17.44973         1.08714        -0.66189
| 98>    H      -21.91037        -0.23292        -2.52017
| 99>    H      -21.91702        -2.28548        -6.32480
|100>    H      -27.09084        -2.21871        -5.50400
|101>    H      -23.90847         0.11747        -1.65143
|102>    H      -26.39356         0.36902        -0.87174
|103> *
|104>
|105>                          ****END OF INPUT****

CARTESIAN COORDINATES (ANGSTROEM)
---------------------------------
  C      1.160780    1.835760   -4.275810
  S      2.208680    1.905140   -5.650450
  C      0.873960    1.866470   -6.755770
  C     -0.300310    1.803870   -6.089180
  C     -0.142880    1.785740   -4.661000
  C     -1.443570    1.718870   -4.063830
  C     -2.403770    1.695220   -5.042320
  C     -1.744850    1.747800   -6.397060
  O     -2.274100    1.745470   -7.480430
  C     -3.811060    1.633260   -4.848610
  C     -4.483570    1.558960   -3.646230
  C     -5.879090    1.489910   -3.896080
  C     -6.040230    1.559300   -5.363880
  C     -4.804840    1.645770   -5.918170
  C     -7.245850    1.635570   -6.072560
  N     -8.208970    1.748620   -6.688140
  C     -6.894300    1.374770   -2.969580
  C     -8.273960    1.173480   -3.224090
  C     -8.968690    1.180120   -2.024030
  C     -8.000850    1.374630   -0.957890
  C     -6.758800    1.464700   -1.507370
  C     -5.576540    1.637990   -0.781030
  N     -4.622980    1.778360   -0.155100
  C    -10.373340    1.008400   -1.947900
  N    -11.211630    1.376430   -0.926170
  C    -10.872990    2.010060    0.326100
  C    -10.636970    0.979860    1.428380
  C    -12.560110    1.108590   -1.229940
  O    -13.476980    1.379970   -0.480430
  C    -12.522550    0.502930   -2.542540
  C    -11.178590    0.459970   -2.957270
  C    -11.125270   -0.213040   -4.243430
  O    -10.204470   -0.529140   -4.961470
  N    -12.472660   -0.504740   -4.532370
  C    -12.843970   -1.119430   -5.785290
  C    -13.331570   -0.087400   -6.798370
  C    -13.321120   -0.081520   -3.541510
  C    -14.718870   -0.237230   -3.581670
  C    -15.542980    0.211660   -2.587090
  C    -16.948180    0.085460   -2.606020
  C    -17.764620   -0.490750   -3.565950
  C    -19.117820   -0.376230   -3.161500
  C    -19.100860    0.322550   -1.860710
  C    -17.807470    0.588340   -1.543630
  C    -20.212800    0.659400   -1.081940
  N    -21.114100    0.944870   -0.428430
  C    -20.237750   -0.820590   -3.834940
  C    -21.592270   -0.699380   -3.428470
  C    -22.405940   -1.272210   -4.382290
  C    -21.555970   -1.784660   -5.445350
  C    -20.259650   -1.521690   -5.132840
  C    -19.153220   -1.863620   -5.915930
  N    -18.255960   -2.152590   -6.573760
  C    -23.820040   -1.368590   -4.374550
  S    -24.661150   -2.159990   -5.712030
  C    -26.206860   -1.880160   -5.000110
  C    -26.092290   -1.226340   -3.820270
  C    -24.744150   -0.929030   -3.451610
  C    -24.774510   -0.235140   -2.182230
  C    -26.053170   -0.102500   -1.775270
  C    -26.989490   -0.706660   -2.755720
  O    -28.194300   -0.761790   -2.700260
  H      1.581370    1.837220   -3.290100
  H      1.058070    1.892740   -7.811450
  H     -1.624210    1.694350   -3.004170
  H     -4.039440    1.524530   -2.671530
  H     -4.568540    1.722340   -6.962310
  H     -8.703190    1.032000   -4.195650
  H     -8.206750    1.393050    0.094760
  H    -11.729970    2.632960    0.600010
  H    -10.003530    2.653780    0.179540
  H    -11.555140    0.428870    1.616130
  H    -10.338700    1.480480    2.345470
  H     -9.863520    0.268590    1.145820
  H    -13.605330   -1.883200   -5.606630
  H    -11.939080   -1.603090   -6.163250
  H    -14.202120    0.447360   -6.424590
  H    -13.599970   -0.584760   -7.725850
  H    -12.542200    0.631250   -7.004330
  H    -15.146160   -0.727660   -4.443880
  H    -15.109110    0.702890   -1.725890
  H    -17.446600   -0.955010   -4.477740
  H    -17.449730    1.087140   -0.661890
  H    -21.910370   -0.232920   -2.520170
  H    -21.917020   -2.285480   -6.324800
  H    -27.090840   -2.218710   -5.504000
  H    -23.908470    0.117470   -1.651430
  H    -26.393560    0.369020   -0.871740

 Total Charge           Charge          ....    0
 Multiplicity           Mult            ....    1
 Number of Electrons    NEL             ....  432
 Basis Dimension        Dim             .... 1006

ORBITAL ENERGIES
----------------

  NO   OCC          E(Eh)            E(eV)
   0   2.0000     -88.977093     -2421.1898
   1   2.0000     -88.973242     -2421.0850
   2   2.0000     -19.228668      -523.2387
   3   2.0000     -19.214648      -522.8572
   4   2.0000     -19.200394      -522.4693
   5   2.0000     -19.194600      -522.3116
   6   2.0000     -14.463208      -393.5639
   7   2.0000     -14.457579      -393.4107
   8   2.0000     -14.415066      -392.2539
   9   2.0000     -14.413544      -392.2125
  10   2.0000     -14.410831      -392.1386
  11   2.0000     -14.398661      -391.8075
  12   2.0000     -10.381757      -282.5020
  13   2.0000     -10.378137      -282.4035
  14   2.0000     -10.378046      -282.4010
  15   2.0000     -10.364071      -282.0207
  16   2.0000     -10.348066      -281.5852
  17   2.0000     -10.347430      -281.5679
  18   2.0000     -10.327000      -281.0120
  19   2.0000     -10.326049      -280.9861
  20   2.0000     -10.325383      -280.9679
  21   2.0000     -10.324692      -280.9491
  22   2.0000     -10.324596      -280.9465
  23   2.0000     -10.322597      -280.8922
  24   2.0000     -10.321813      -280.8708
  25   2.0000     -10.320449      -280.8337
  26   2.0000     -10.317987      -280.7667
  27   2.0000     -10.317908      -280.7646
  28   2.0000     -10.317461      -280.7524
  29   2.0000     -10.317414      -280.7511
  30   2.0000     -10.316247      -280.7194
  31   2.0000     -10.316200      -280.7181
  32   2.0000     -10.315692      -280.7042
  33   2.0000     -10.315344      -280.6948
  34   2.0000     -10.314138      -280.6620
  35   2.0000     -10.313488      -280.6443
  36   2.0000     -10.312035      -280.6047
  37   2.0000     -10.309967      -280.5485
  38   2.0000     -10.309809      -280.5442
  39   2.0000     -10.307296      -280.4758
  40   2.0000     -10.306536      -280.4551
  41   2.0000     -10.306362      -280.4504
  42   2.0000     -10.304395      -280.3968
  43   2.0000     -10.303632      -280.3761
  44   2.0000     -10.301573      -280.3200
  45   2.0000     -10.301513      -280.3184
  46   2.0000     -10.300316      -280.2858
  47   2.0000     -10.300077      -280.2793
  48   2.0000     -10.299369      -280.2601
  49   2.0000     -10.298548      -280.2377
  50   2.0000     -10.298511      -280.2367
  51   2.0000     -10.288138      -279.9545
  52   2.0000     -10.288056      -279.9522
  53   2.0000     -10.286499      -279.9099
  54   2.0000     -10.285352      -279.8787
  55   2.0000     -10.283196      -279.8200
  56   2.0000     -10.283027      -279.8154
  57   2.0000     -10.281786      -279.7816
  58   2.0000     -10.270825      -279.4834
  59   2.0000     -10.270487      -279.4742
  60   2.0000     -10.270062      -279.4626
  61   2.0000     -10.259637      -279.1789
  62   2.0000      -8.072983      -219.6770
  63   2.0000      -8.068803      -219.5633
  64   2.0000      -6.042465      -164.4238
  65   2.0000      -6.038357      -164.3120
  66   2.0000      -6.037742      -164.2953
  67   2.0000      -6.035235      -164.2271
  68   2.0000      -6.033831      -164.1889
  69   2.0000      -6.030751      -164.1051
  70   2.0000      -1.143151       -31.1067
  71   2.0000      -1.141534       -31.0627
  72   2.0000      -1.133698       -30.8495
  73   2.0000      -1.127001       -30.6673
  74   2.0000      -1.071315       -29.1520
  75   2.0000      -1.062363       -28.9084
  76   2.0000      -1.022387       -27.8206
  77   2.0000      -1.015410       -27.6307
  78   2.0000      -1.011842       -27.5336
  79   2.0000      -1.010168       -27.4881
  80   2.0000      -1.003445       -27.3051
  81   2.0000      -0.997450       -27.1420
  82   2.0000      -0.990192       -26.9445
  83   2.0000      -0.984344       -26.7854
  84   2.0000      -0.983765       -26.7696
  85   2.0000      -0.975870       -26.5548
  86   2.0000      -0.945927       -25.7400
  87   2.0000      -0.937788       -25.5185
  88   2.0000      -0.934771       -25.4364
  89   2.0000      -0.918288       -24.9879
  90   2.0000      -0.888770       -24.1847
  91   2.0000      -0.884875       -24.0787
  92   2.0000      -0.875907       -23.8346
  93   2.0000      -0.864388       -23.5212
  94   2.0000      -0.864116       -23.5138
  95   2.0000      -0.850593       -23.1458
  96   2.0000      -0.849018       -23.1030
  97   2.0000      -0.844854       -22.9896
  98   2.0000      -0.832535       -22.6544
  99   2.0000      -0.824801       -22.4440
 100   2.0000      -0.822420       -22.3792
 101   2.0000      -0.813896       -22.1472
 102   2.0000      -0.805680       -21.9237
 103   2.0000      -0.797509       -21.7013
 104   2.0000      -0.776921       -21.1411
 105   2.0000      -0.767826       -20.8936
 106   2.0000      -0.764021       -20.7901
 107   2.0000      -0.753024       -20.4908
 108   2.0000      -0.744962       -20.2714
 109   2.0000      -0.725463       -19.7409
 110   2.0000      -0.721987       -19.6463
 111   2.0000      -0.717755       -19.5311
 112   2.0000      -0.715556       -19.4713
 113   2.0000      -0.711742       -19.3675
 114   2.0000      -0.711110       -19.3503
 115   2.0000      -0.690602       -18.7922
 116   2.0000      -0.683542       -18.6001
 117   2.0000      -0.679136       -18.4802
 118   2.0000      -0.674843       -18.3634
 119   2.0000      -0.666892       -18.1470
 120   2.0000      -0.663295       -18.0492
 121   2.0000      -0.655384       -17.8339
 122   2.0000      -0.645769       -17.5723
 123   2.0000      -0.640026       -17.4160
 124   2.0000      -0.634549       -17.2669
 125   2.0000      -0.633154       -17.2290
 126   2.0000      -0.627367       -17.0715
 127   2.0000      -0.616505       -16.7759
 128   2.0000      -0.608626       -16.5615
 129   2.0000      -0.602857       -16.4046
 130   2.0000      -0.594513       -16.1775
 131   2.0000      -0.583548       -15.8791
 132   2.0000      -0.581805       -15.8317
 133   2.0000      -0.575269       -15.6539
 134   2.0000      -0.572622       -15.5818
 135   2.0000      -0.568674       -15.4744
 136   2.0000      -0.564375       -15.3574
 137   2.0000      -0.557056       -15.1583
 138   2.0000      -0.548052       -14.9133
 139   2.0000      -0.540315       -14.7027
 140   2.0000      -0.539148       -14.6710
 141   2.0000      -0.537755       -14.6330
 142   2.0000      -0.535065       -14.5599
 143   2.0000      -0.533710       -14.5230
 144   2.0000      -0.532977       -14.5030
 145   2.0000      -0.530134       -14.4257
 146   2.0000      -0.529031       -14.3957
 147   2.0000      -0.527316       -14.3490
 148   2.0000      -0.520540       -14.1646
 149   2.0000      -0.519634       -14.1400
 150   2.0000      -0.518893       -14.1198
 151   2.0000      -0.518129       -14.0990
 152   2.0000      -0.517191       -14.0735
 153   2.0000      -0.515543       -14.0286
 154   2.0000      -0.513066       -13.9612
 155   2.0000      -0.508378       -13.8337
 156   2.0000      -0.506713       -13.7884
 157   2.0000      -0.501821       -13.6553
 158   2.0000      -0.499128       -13.5820
 159   2.0000      -0.498603       -13.5677
 160   2.0000      -0.494887       -13.4666
 161   2.0000      -0.494180       -13.4473
 162   2.0000      -0.493881       -13.4392
 163   2.0000      -0.490078       -13.3357
 164   2.0000      -0.485323       -13.2063
 165   2.0000      -0.483683       -13.1617
 166   2.0000      -0.479939       -13.0598
 167   2.0000      -0.479419       -13.0457
 168   2.0000      -0.475723       -12.9451
 169   2.0000      -0.474145       -12.9021
 170   2.0000      -0.471089       -12.8190
 171   2.0000      -0.469014       -12.7625
 172   2.0000      -0.467945       -12.7334
 173   2.0000      -0.467513       -12.7217
 174   2.0000      -0.463788       -12.6203
 175   2.0000      -0.463336       -12.6080
 176   2.0000      -0.462619       -12.5885
 177   2.0000      -0.456895       -12.4327
 178   2.0000      -0.450012       -12.2455
 179   2.0000      -0.447213       -12.1693
 180   2.0000      -0.445953       -12.1350
 181   2.0000      -0.443535       -12.0692
 182   2.0000      -0.442325       -12.0363
 183   2.0000      -0.439754       -11.9663
 184   2.0000      -0.439166       -11.9503
 185   2.0000      -0.436485       -11.8774
 186   2.0000      -0.434474       -11.8226
 187   2.0000      -0.431883       -11.7521
 188   2.0000      -0.430064       -11.7026
 189   2.0000      -0.429569       -11.6892
 190   2.0000      -0.427643       -11.6368
 191   2.0000      -0.422236       -11.4896
 192   2.0000      -0.421593       -11.4721
 193   2.0000      -0.415333       -11.3018
 194   2.0000      -0.412554       -11.2262
 195   2.0000      -0.401803       -10.9336
 196   2.0000      -0.397440       -10.8149
 197   2.0000      -0.395546       -10.7633
 198   2.0000      -0.392813       -10.6890
 199   2.0000      -0.382426       -10.4063
 200   2.0000      -0.354709        -9.6521
 201   2.0000      -0.352427        -9.5900
 202   2.0000      -0.347372        -9.4525
 203   2.0000      -0.343457        -9.3460
 204   2.0000      -0.338184        -9.2024
 205   2.0000      -0.336199        -9.1484
 206   2.0000      -0.331846        -9.0300
 207   2.0000      -0.329271        -8.9599
 208   2.0000      -0.323301        -8.7975
 209   2.0000      -0.320664        -8.7257
 210   2.0000      -0.313938        -8.5427
 211   2.0000      -0.311786        -8.4841
 212   2.0000      -0.303323        -8.2538
 213   2.0000      -0.281063        -7.6481
 214   2.0000      -0.276956        -7.5364
 215   2.0000      -0.236117        -6.4251
 216   0.0000      -0.139381        -3.7927
 217   0.0000      -0.122786        -3.3412
 218   0.0000      -0.066200        -1.8014
 219   0.0000      -0.060474        -1.6456
 220   0.0000      -0.051704        -1.4069

MULLIKEN ATOMIC CHARGES
-----------------------
   0 C :   -0.130515
   1 S :    0.124110
   2 C :   -0.121704
   3 C :    0.012915
   4 C :    0.107557
   5 C :    0.007771
   6 C :   -0.044153
   7 C :    0.166878
   8 O :   -0.125712
   9 C :    0.098738
  10 C :   -0.138731
  11 C :    0.124685
  12 C :   -0.067458
  13 C :   -0.013487
  14 C :   -0.179748
  15 N :    0.141022
  16 C :    0.109777
  17 C :   -0.102533
  18 C :    0.041856
  19 C :   -0.032800
  20 C :   -0.096184
  21 C :   -0.180376
  22 N :    0.130575
  23 C :    0.151193
  24 N :   -0.257444
  25 C :    0.103522
  26 C :    0.000952
  27 C :    0.161682
  28 O :   -0.212032
  29 C :   -0.064532
  30 C :   -0.054948
  31 C :    0.148777
  32 O :   -0.179979
  33 N :   -0.257225
  34 C :    0.094495
  35 C :    0.002158
  36 C :    0.156758
  37 C :   -0.015636
  38 C :    0.006277
  39 C :    0.113210
  40 C :   -0.123437
  41 C :    0.117277
  42 C :   -0.093428
  43 C :    0.000487
  44 C :   -0.171751
  45 N :    0.128523
  46 C :    0.119933
  47 C :   -0.137847
  48 C :    0.126173
  49 C :   -0.023354
  50 C :   -0.095242
  51 C :   -0.165427
  52 N :    0.126038
  53 C :   -0.123615
  54 S :    0.119978
  55 C :   -0.110325
  56 C :   -0.000023
  57 C :    0.080542
  58 C :    0.047102
  59 C :   -0.049033
  60 C :    0.160064
  61 O :   -0.128927
  62 H :    0.030307
  63 H :    0.040917
  64 H :    0.010205
  65 H :   -0.006871
  66 H :    0.018106
  67 H :    0.026779
  68 H :   -0.013869
  69 H :    0.040827
  70 H :    0.026796
  71 H :    0.034176
  72 H :    0.025734
  73 H :    0.020913
  74 H :    0.030483
  75 H :    0.047451
  76 H :    0.013659
  77 H :    0.029447
  78 H :    0.039845
  79 H :   -0.013389
  80 H :    0.004985
  81 H :    0.000170
  82 H :    0.010183
  83 H :   -0.021631
  84 H :    0.008960
  85 H :    0.039874
  86 H :    0.020021
  87 H :    0.002504
Sum of atomic charges:   -0.0000000

LOEWDIN ATOMIC CHARGES
----------------------
   0 C :   -0.162416
   1 S :    0.449465
   2 C :   -0.126008
   3 C :   -0.097909
   4 C :   -0.067714
   5 C :    0.065384
   6 C :   -0.066016
   7 C :    0.092800
   8 O :   -0.118093
   9 C :    0.000644
  10 C :   -0.034625
  11 C :    0.056607
  12 C :   -0.080041
  13 C :    0.061071
  14 C :   -0.032320
  15 N :   -0.054226
  16 C :    0.020363
  17 C :    0.020802
  18 C :   -0.042693
  19 C :    0.039051
  20 C :   -0.082172
  21 C :   -0.029194
  22 N :   -0.071473
  23 C :    0.073746
  24 N :    0.003618
  25 C :    0.037106
  26 C :   -0.062179
  27 C :    0.080580
  28 O :   -0.199994
  29 C :   -0.115168
  30 C :   -0.105517
  31 C :    0.081875
  32 O :   -0.173589
  33 N :    0.002874
  34 C :    0.037043
  35 C :   -0.059398
  36 C :    0.079298
  37 C :   -0.021935
  38 C :    0.027311
  39 C :   -0.020995
  40 C :   -0.019618
  41 C :    0.034351
  42 C :   -0.085172
  43 C :    0.061770
  44 C :   -0.024332
  45 N :   -0.072306
  46 C :    0.039398
  47 C :   -0.034469
  48 C :   -0.022989
  49 C :    0.044221
  50 C :   -0.077769
  51 C :   -0.027217
  52 N :   -0.067088
  53 C :   -0.159405
  54 S :    0.431366
  55 C :   -0.122847
  56 C :   -0.096842
  57 C :   -0.038468
  58 C :    0.031683
  59 C :   -0.033554
  60 C :    0.075347
  61 O :   -0.118360
  62 H :    0.030031
  63 H :    0.035898
  64 H :    0.039529
  65 H :    0.030220
  66 H :    0.040012
  67 H :    0.039302
  68 H :    0.034631
  69 H :    0.037772
  70 H :    0.025074
  71 H :    0.034899
  72 H :    0.031919
  73 H :    0.021116
  74 H :    0.025237
  75 H :    0.039800
  76 H :    0.021520
  77 H :    0.033828
  78 H :    0.035935
  79 H :    0.035279
  80 H :    0.038014
  81 H :    0.031240
  82 H :    0.042304
  83 H :    0.030149
  84 H :    0.033436
  85 H :    0.036257
  86 H :    0.038059
  87 H :    0.034873

  Mayer bond orders larger than 0.100000
B(  0-C ,  1-S ) :   1.1495 B(  0-C ,  4-C ) :   1.5255 B(  0-C , 62-H ) :   0.9677
B(  1-S ,  2-C ) :   1.1611 B(  2-C ,  3-C ) :   1.5948 B(  2-C , 63-H ) :   0.9696
B(  3-C ,  4-C ) :   1.2176 B(  3-C ,  7-C ) :   0.9298 B(  4-C ,  5-C ) :   1.0160
B(  5-C ,  6-C ) :   1.6198 B(  5-C , 64-H ) :   1.0165 B(  6-C ,  7-C ) :   0.9299
B(  6-C ,  9-C ) :   1.0555 B(  7-C ,  8-O ) :   2.2276 B(  9-C , 10-C ) :   1.5489
B(  9-C , 13-C ) :   1.0508 B( 10-C , 11-C ) :   1.1340 B( 10-C , 65-H ) :   1.0021
B( 11-C , 12-C ) :   1.0974 B( 11-C , 16-C ) :   1.3747 B( 12-C , 13-C ) :   1.6410
B( 12-C , 14-C ) :   1.0868 B( 13-C , 66-H ) :   1.0225 B( 14-C , 15-N ) :   2.9805
B( 16-C , 17-C ) :   1.1307 B( 16-C , 20-C ) :   1.1097 B( 17-C , 18-C ) :   1.5274
B( 17-C , 67-H ) :   0.9920 B( 18-C , 19-C ) :   1.0381 B( 18-C , 23-C ) :   1.0476
B( 19-C , 20-C ) :   1.6515 B( 19-C , 68-H ) :   1.0241 B( 20-C , 21-C ) :   1.0853
B( 21-C , 22-N ) :   2.9670 B( 23-C , 24-N ) :   1.1984 B( 23-C , 30-C ) :   1.3518
B( 24-N , 25-C ) :   0.9410 B( 24-N , 27-C ) :   1.0543 B( 25-C , 26-C ) :   1.1191
B( 25-C , 69-H ) :   0.9278 B( 25-C , 70-H ) :   0.9498 B( 26-C , 71-H ) :   0.9603
B( 26-C , 72-H ) :   0.9686 B( 26-C , 73-H ) :   0.9652 B( 27-C , 28-O ) :   2.0133
B( 27-C , 29-C ) :   0.9932 B( 28-O , 80-H ) :   0.1127 B( 29-C , 30-C ) :   1.2702
B( 29-C , 36-C ) :   1.2831 B( 30-C , 31-C ) :   0.9660 B( 31-C , 32-O ) :   2.1015
B( 31-C , 33-N ) :   1.0415 B( 33-N , 34-C ) :   0.9382 B( 33-N , 36-C ) :   1.1751
B( 34-C , 35-C ) :   1.1227 B( 34-C , 74-H ) :   0.9501 B( 34-C , 75-H ) :   0.9265
B( 35-C , 76-H ) :   0.9683 B( 35-C , 77-H ) :   0.9679 B( 35-C , 78-H ) :   0.9636
B( 36-C , 37-C ) :   1.1784 B( 37-C , 38-C ) :   1.5513 B( 37-C , 79-H ) :   0.9660
B( 38-C , 39-C ) :   1.1253 B( 38-C , 80-H ) :   0.9553 B( 39-C , 40-C ) :   1.5003
B( 39-C , 43-C ) :   1.0393 B( 40-C , 41-C ) :   1.1549 B( 40-C , 81-H ) :   0.9947
B( 41-C , 42-C ) :   1.1040 B( 41-C , 46-C ) :   1.3761 B( 42-C , 43-C ) :   1.6531
B( 42-C , 44-C ) :   1.0859 B( 43-C , 82-H ) :   1.0280 B( 44-C , 45-N ) :   2.9887
B( 46-C , 47-C ) :   1.1503 B( 46-C , 50-C ) :   1.1045 B( 47-C , 48-C ) :   1.5409
B( 47-C , 83-H ) :   1.0034 B( 48-C , 49-C ) :   1.0411 B( 48-C , 53-C ) :   1.1227
B( 49-C , 50-C ) :   1.6749 B( 49-C , 84-H ) :   1.0119 B( 50-C , 51-C ) :   1.0867
B( 51-C , 52-N ) :   2.9568 B( 53-C , 54-S ) :   1.0978 B( 53-C , 57-C ) :   1.4951
B( 54-S , 55-C ) :   1.1540 B( 55-C , 56-C ) :   1.5946 B( 55-C , 85-H ) :   0.9706
B( 56-C , 57-C ) :   1.2105 B( 56-C , 60-C ) :   0.8819 B( 57-C , 58-C ) :   1.0285
B( 58-C , 59-C ) :   1.6913 B( 58-C , 86-H ) :   1.0041 B( 59-C , 60-C ) :   1.0055
B( 59-C , 87-H ) :   1.0050 B( 60-C , 61-O ) :   2.2387

-----------------------------------------------------------------------------
         ABSORPTION SPECTRUM VIA TRANSITION ELECTRIC DIPOLE MOMENTS
-----------------------------------------------------------------------------
State   Energy  Wavelength   fosc         T2         TX        TY        TZ
        (cm-1)    (nm)                  (au**2)     (au)      (au)      (au)
-----------------------------------------------------------------------------
   0    7391.3   1352.9   0.790832607  35.22388   5.83270   1.09229   0.10164
   1   10696.4    934.9   0.066018742   2.03191  -0.93866  -0.24313  -1.04485
   2   14519.7    688.7   0.032706388   0.74157  -0.00118  -0.14338  -0.84912
   3   14784.8    676.4   0.162069710   3.60880   1.86644   0.21150  -0.28370
   4   18021.5    554.9   0.005288700   0.09661  -0.29986  -0.04602  -0.06767
   5   20039.5    499.0   0.070369953   1.15605  -0.96874  -0.26896  -0.38113
   6   21805.5    458.6   0.329119220   4.96892   2.08984   0.53469   0.56179
   7   22560.7    443.2   0.020590893   0.30047   0.19465  -0.24313  -0.45107
   8   23387.0    427.6   0.074295230   1.04583  -0.88435   0.04220   0.51184
   9   23544.6    424.7   0.254635159   3.56044   1.70945  -0.01353  -0.79876
  10   23937.1    417.8   0.205172265   2.82178  -1.58254  -0.09127   0.55590
  11   23985.2    416.9   0.245206230   3.36561  -1.83387  -0.03093   0.03942
  12   24854.6    402.3   0.047387892   0.62768   0.61214   0.05194  -0.50027
  13   25052.0    399.2   0.016577399   0.21785   0.35944  -0.09672  -0.28159
  14   25284.2    395.5   0.333870560   4.34715   1.95676   0.40687   0.59387
  15   25946.8    385.4   0.000004165   0.00005   0.00520   0.00359  -0.00359
  16   26667.5    375.0   0.000070598   0.00087  -0.02488  -0.01486  -0.00561
  17   27776.0    360.0   0.018624438   0.22074   0.43882   0.02204  -0.16642
  18   27928.0    358.1   0.007824650   0.09224   0.29868   0.03872   0.03911
  19   28056.1    356.4   0.060541681   0.71040  -0.74493   0.08061   0.38598
  20   28449.1    351.5   0.023237924   0.26891   0.49784   0.00660  -0.14498
  21   28519.3    350.6   0.004292011   0.04954   0.18853   0.07844  -0.08860
  22   28786.9    347.4   0.051356158   0.58732  -0.54659   0.23921   0.48097
  23   29785.5    335.7   0.017401013   0.19233   0.00631  -0.01765   0.43815
  24   30417.8    328.8   0.021942225   0.23748  -0.34489  -0.22252  -0.26271
  25   31466.0    317.8   0.000236687   0.00248  -0.04391  -0.01559   0.01748
  26   31597.5    316.5   0.083461381   0.86958   0.59081   0.01945  -0.72121
  27   31863.0    313.8   0.000006592   0.00007   0.00319  -0.00437   0.00623
  28   31956.7    312.9   0.013225115   0.13624   0.06933  -0.02614  -0.36160
  29   32083.4    311.7   0.025390220   0.26053  -0.48083  -0.05716  -0.16145
  30   32704.3    305.8   0.113552422   1.14306   0.54053   0.07096  -0.91970
  31   33123.9    301.9   0.226987713   2.25599   1.34333  -0.14198  -0.65673
  32   34109.4    293.2   0.044873637   0.43310  -0.58769   0.10088   0.27848
  33   34195.5    292.4   0.029172323   0.28085   0.21427  -0.21044  -0.43664
  34   34446.0    290.3   0.013466659   0.12871  -0.23972   0.11612   0.24033
  35   34769.4    287.6   0.034460257   0.32628  -0.55132   0.01548  -0.14863
  36   35002.4    285.7   0.001590636   0.01496   0.08205  -0.06810   0.05992
  37   35050.9    285.3   0.077147490   0.72460  -0.68864   0.22069   0.44908
  38   35383.5    282.6   0.013392352   0.12460  -0.33419  -0.11069  -0.02589
  39   35607.9    280.8   0.002211168   0.02044   0.13778   0.03703   0.00938
  40   36036.4    277.5   0.163403849   1.49278  -1.20049  -0.03483   0.22447
  41   36089.7    277.1   0.010151053   0.09260   0.19412   0.00600  -0.23426
  42   36235.5    276.0   0.166623241   1.51383   1.21001   0.03152  -0.22069
  43   36849.1    271.4   0.130460801   1.16554  -1.07717  -0.06271   0.03643
  44   37291.6    268.2   0.038511475   0.33998   0.58248   0.02570  -0.00616
  45   37616.9    265.8   0.029950843   0.26212  -0.46560  -0.03169   0.21054
  46   37694.3    265.3   0.034924851   0.30502   0.53543   0.01766  -0.13427
  47   38132.2    262.2   0.073597267   0.63540  -0.70538   0.23785   0.28507
  48   38549.4    259.4   0.117137281   1.00035  -0.15216   0.42668   0.89171
  49   38802.2    257.7   0.061567298   0.52236  -0.69186   0.08771   0.18974
  50   39201.4    255.1   0.000001993   0.00002   0.00207  -0.00304  -0.00180
  51   39416.4    253.7   0.000009435   0.00008   0.00761   0.00101   0.00446
  52   39537.1    252.9   0.022190754   0.18477   0.36850   0.01820  -0.22058
  53   39789.5    251.3   0.010894118   0.09014  -0.05651  -0.14823  -0.25489

FINAL SINGLE POINT ENERGY     -3343.107463082778

DIPOLE MOMENT
-------------
                                X             Y             Z
Electronic contribution:      0.65541      -1.30755     -11.92549
Nuclear contribution   :      1.85745       1.13714      12.25994
                        -----------------------------------------
Total Dipole Moment    :      2.51286      -0.17041       0.33445
                        -----------------------------------------
Magnitude (a.u.)       :      2.54074
Magnitude (Debye)      :      6.45804

Rotational constants in cm-1:     0.004238     0.000267     0.000253
Rotational constants in MHz :   127.052210     8.006376     7.585207

                             ****ORCA TERMINATED NORMALLY****
TOTAL RUN TIME: 0 days 0 hours 8 minutes 14 seconds 777 msec
