                         Program Version 4.2.0 -  RELEASE  -
|  1> # ORCA input file
|  2> # SCF done       -172.831023918426          0.000807602700
|  3> ! CAM-B3LYP def2-SVP def2/J RIJCOSX Grid4 TightSCF
|  4> %maxcore 5000
|  5> %tddft
|  6>     Mode sTDDFT
|  7>     Ethresh 5.0
|  8>     maxcore 5000
|  9> end
| 10>
| 11> %pal
| 12>   nprocs 6
| 13>   end
| 14> * xyz 0 1
| 15>    C        6.94310         0.26129        -3.86430
| 16>    S        5.48254         0.88846        -3.16123
| 17>    C        5.71654         2.34191        -4.07943
| 18>    C        6.88595         2.22871        -4.81823
| 19>    N        7.53780         1.05075        -4.67329
| 20>    C        7.51725         3.30879        -5.60571
| 21>    O        7.25377         4.48413        -5.49362
| 22>    O        8.43981         2.82735        -6.43084
| 23>    C        9.14054         3.78287        -7.21175
| 24>    C        4.75965         3.40580        -4.00927
| 25>    C        4.42807         4.19612        -5.04684
| 26>    C        3.41320         5.20702        -4.96601
| 27>    C        2.34900         5.32027        -5.84137
| 28>    N        2.09905         4.53136        -6.97613
| 29>    O        2.86559         3.61582        -7.23202
| 30>    O        1.12211         4.81453        -7.64923
| 31>    C        1.42064         6.31310        -5.35720
| 32>    C        1.92881         6.84943        -4.22738
| 33>    C        3.23380         6.27165        -3.96987
| 34>    C        4.17971         6.73021        -3.08038
| 35>    C        5.41422         6.09065        -2.72033
| 36>    C        5.82476         6.57848        -1.52158
| 37>    C        4.92530         7.61481        -1.09950
| 38>    N        5.12349         8.35062         0.07462
| 39>    O        4.34662         9.25782         0.34568
| 40>    O        6.06693         8.03367         0.78166
| 41>    C        3.97772         7.83119        -2.10239
| 42>    C        3.13443         8.94874        -2.19709
| 43>    C        2.73330         9.53206        -3.37308
| 44>    C        1.91876        10.66601        -3.43727
| 45>    S        1.15814        11.37410        -2.01978
| 46>    C        0.35632        12.63080        -2.92698
| 47>    C        0.68066        12.50945        -4.28545
| 48>    C        1.54070        11.41159        -4.55650
| 49>    N        1.78199        11.37814        -5.88883
| 50>    C        1.10187        12.42693        -6.47655
| 51>    C        1.15911        12.66767        -7.85694
| 52>    N        1.20694        12.87328        -8.98425
| 53>    C        0.41339        13.14307        -5.51864
| 54>    C       -0.49466        13.57492        -2.33120
| 55>    C       -0.80993        13.58871        -1.00641
| 56>    C       -1.68530        14.50510        -0.39029
| 57>    S       -2.46412        15.80934        -1.22871
| 58>    C       -3.28449        16.31884         0.21699
| 59>    C       -4.20422        17.47036         0.26609
| 60>    O       -4.75962        17.79427         1.27928
| 61>    O       -4.39279        18.14151        -0.88081
| 62>    C       -2.97083        15.52076         1.28938
| 63>    C       -2.07023        14.50012         0.95494
| 64>    O       -1.54582        13.53288         1.75905
| 65>    C       -1.90293        13.41027         3.03326
| 66>    S       -1.13153        12.11674         3.94190
| 67>    C       -2.07293        12.61331         5.32666
| 68>    C       -2.86600        13.68839         4.97788
| 69>    N       -2.74777        14.10972         3.69060
| 70>    C       -3.81206        14.40391         5.85618
| 71>    O       -4.02452        14.13823         7.01539
| 72>    O       -4.40687        15.39290         5.19250
| 73>    C       -5.34830        16.16678         5.92021
| 74>    C       -1.98972        11.96106         6.60122
| 75>    C       -1.19296        10.92755         6.86134
| 76>    H        7.29529        -0.71977        -3.61616
| 77>    H        9.84581         3.21954        -7.81664
| 78>    H        9.66535         4.49045        -6.56635
| 79>    H        8.44610         4.33699        -7.84724
| 80>    H        4.23534         3.50633        -3.06682
| 81>    H        4.83330         3.99451        -6.02836
| 82>    H        0.48055         6.52313        -5.82997
| 83>    H        1.44408         7.56572        -3.59570
| 84>    H        5.90996         5.34119        -3.30248
| 85>    H        6.68781         6.28293        -0.95539
| 86>    H        2.90519         9.46111        -1.27047
| 87>    H        3.09042         9.13742        -4.31599
| 88>    H        2.35225        10.71431        -6.38618
| 89>    H       -0.19649        14.00544        -5.69617
| 90>    H       -0.92701        14.31701        -2.99044
| 91>    H       -0.38359        12.84198        -0.34888
| 92>    H       -3.88994        17.78462        -1.62522
| 93>    H       -3.38176        15.67065         2.27159
| 94>    H       -4.87305        16.62326         6.79087
| 95>    H       -6.17383        15.53827         6.26070
| 96>    H       -5.70378        16.92858         5.23134
| 97>    H       -2.63887        12.38181         7.35634
| 98>    H       -0.54534        10.50905         6.10749
| 99>    H       -1.16539        10.47122         7.83447
|100> *
|101>
|102>                          ****END OF INPUT****

CARTESIAN COORDINATES (ANGSTROEM)
---------------------------------
  C      6.943100    0.261290   -3.864300
  S      5.482540    0.888460   -3.161230
  C      5.716540    2.341910   -4.079430
  C      6.885950    2.228710   -4.818230
  N      7.537800    1.050750   -4.673290
  C      7.517250    3.308790   -5.605710
  O      7.253770    4.484130   -5.493620
  O      8.439810    2.827350   -6.430840
  C      9.140540    3.782870   -7.211750
  C      4.759650    3.405800   -4.009270
  C      4.428070    4.196120   -5.046840
  C      3.413200    5.207020   -4.966010
  C      2.349000    5.320270   -5.841370
  N      2.099050    4.531360   -6.976130
  O      2.865590    3.615820   -7.232020
  O      1.122110    4.814530   -7.649230
  C      1.420640    6.313100   -5.357200
  C      1.928810    6.849430   -4.227380
  C      3.233800    6.271650   -3.969870
  C      4.179710    6.730210   -3.080380
  C      5.414220    6.090650   -2.720330
  C      5.824760    6.578480   -1.521580
  C      4.925300    7.614810   -1.099500
  N      5.123490    8.350620    0.074620
  O      4.346620    9.257820    0.345680
  O      6.066930    8.033670    0.781660
  C      3.977720    7.831190   -2.102390
  C      3.134430    8.948740   -2.197090
  C      2.733300    9.532060   -3.373080
  C      1.918760   10.666010   -3.437270
  S      1.158140   11.374100   -2.019780
  C      0.356320   12.630800   -2.926980
  C      0.680660   12.509450   -4.285450
  C      1.540700   11.411590   -4.556500
  N      1.781990   11.378140   -5.888830
  C      1.101870   12.426930   -6.476550
  C      1.159110   12.667670   -7.856940
  N      1.206940   12.873280   -8.984250
  C      0.413390   13.143070   -5.518640
  C     -0.494660   13.574920   -2.331200
  C     -0.809930   13.588710   -1.006410
  C     -1.685300   14.505100   -0.390290
  S     -2.464120   15.809340   -1.228710
  C     -3.284490   16.318840    0.216990
  C     -4.204220   17.470360    0.266090
  O     -4.759620   17.794270    1.279280
  O     -4.392790   18.141510   -0.880810
  C     -2.970830   15.520760    1.289380
  C     -2.070230   14.500120    0.954940
  O     -1.545820   13.532880    1.759050
  C     -1.902930   13.410270    3.033260
  S     -1.131530   12.116740    3.941900
  C     -2.072930   12.613310    5.326660
  C     -2.866000   13.688390    4.977880
  N     -2.747770   14.109720    3.690600
  C     -3.812060   14.403910    5.856180
  O     -4.024520   14.138230    7.015390
  O     -4.406870   15.392900    5.192500
  C     -5.348300   16.166780    5.920210
  C     -1.989720   11.961060    6.601220
  C     -1.192960   10.927550    6.861340
  H      7.295290   -0.719770   -3.616160
  H      9.845810    3.219540   -7.816640
  H      9.665350    4.490450   -6.566350
  H      8.446100    4.336990   -7.847240
  H      4.235340    3.506330   -3.066820
  H      4.833300    3.994510   -6.028360
  H      0.480550    6.523130   -5.829970
  H      1.444080    7.565720   -3.595700
  H      5.909960    5.341190   -3.302480
  H      6.687810    6.282930   -0.955390
  H      2.905190    9.461110   -1.270470
  H      3.090420    9.137420   -4.315990
  H      2.352250   10.714310   -6.386180
  H     -0.196490   14.005440   -5.696170
  H     -0.927010   14.317010   -2.990440
  H     -0.383590   12.841980   -0.348880
  H     -3.889940   17.784620   -1.625220
  H     -3.381760   15.670650    2.271590
  H     -4.873050   16.623260    6.790870
  H     -6.173830   15.538270    6.260700
  H     -5.703780   16.928580    5.231340
  H     -2.638870   12.381810    7.356340
  H     -0.545340   10.509050    6.107490
  H     -1.165390   10.471220    7.834470

 Total Charge           Charge          ....    0
 Multiplicity           Mult            ....    1
 Number of Electrons    NEL             ....  458
 Basis Dimension        Dim             ....  990

ORBITAL ENERGIES
----------------

  NO   OCC          E(Eh)            E(eV)
   0   2.0000     -88.989916     -2421.5387
   1   2.0000     -88.984497     -2421.3913
   2   2.0000     -88.979769     -2421.2626
   3   2.0000     -88.975013     -2421.1332
   4   2.0000     -19.315685      -525.6065
   5   2.0000     -19.269632      -524.3534
   6   2.0000     -19.260352      -524.1008
   7   2.0000     -19.258127      -524.0403
   8   2.0000     -19.235738      -523.4310
   9   2.0000     -19.235432      -523.4227
  10   2.0000     -19.225411      -523.1500
  11   2.0000     -19.225217      -523.1448
  12   2.0000     -19.206193      -522.6271
  13   2.0000     -19.204704      -522.5866
  14   2.0000     -19.203833      -522.5629
  15   2.0000     -14.643898      -398.4807
  16   2.0000     -14.634993      -398.2384
  17   2.0000     -14.499984      -394.5646
  18   2.0000     -14.429813      -392.6552
  19   2.0000     -14.422734      -392.4625
  20   2.0000     -14.417606      -392.3230
  21   2.0000     -10.414966      -283.4056
  22   2.0000     -10.411100      -283.3004
  23   2.0000     -10.404496      -283.1207
  24   2.0000     -10.403008      -283.0803
  25   2.0000     -10.372548      -282.2514
  26   2.0000     -10.366300      -282.0814
  27   2.0000     -10.347486      -281.5694
  28   2.0000     -10.342127      -281.4236
  29   2.0000     -10.336884      -281.2809
  30   2.0000     -10.334141      -281.2063
  31   2.0000     -10.330010      -281.0939
  32   2.0000     -10.329418      -281.0778
  33   2.0000     -10.328770      -281.0601
  34   2.0000     -10.326786      -281.0061
  35   2.0000     -10.326290      -280.9926
  36   2.0000     -10.325899      -280.9820
  37   2.0000     -10.325184      -280.9625
  38   2.0000     -10.323364      -280.9130
  39   2.0000     -10.322111      -280.8789
  40   2.0000     -10.321808      -280.8707
  41   2.0000     -10.320602      -280.8378
  42   2.0000     -10.318957      -280.7931
  43   2.0000     -10.317662      -280.7579
  44   2.0000     -10.316851      -280.7358
  45   2.0000     -10.316568      -280.7281
  46   2.0000     -10.316486      -280.7259
  47   2.0000     -10.316477      -280.7256
  48   2.0000     -10.313046      -280.6322
  49   2.0000     -10.309941      -280.5477
  50   2.0000     -10.307273      -280.4751
  51   2.0000     -10.298585      -280.2388
  52   2.0000     -10.298239      -280.2293
  53   2.0000     -10.294989      -280.1409
  54   2.0000     -10.294555      -280.1291
  55   2.0000     -10.292759      -280.0802
  56   2.0000     -10.291347      -280.0418
  57   2.0000     -10.284541      -279.8566
  58   2.0000     -10.284154      -279.8461
  59   2.0000     -10.277820      -279.6737
  60   2.0000     -10.273376      -279.5528
  61   2.0000      -8.085480      -220.0171
  62   2.0000      -8.079052      -219.8422
  63   2.0000      -8.076145      -219.7631
  64   2.0000      -8.071788      -219.6445
  65   2.0000      -6.054657      -164.7556
  66   2.0000      -6.050863      -164.6524
  67   2.0000      -6.048382      -164.5849
  68   2.0000      -6.047533      -164.5617
  69   2.0000      -6.045467      -164.5055
  70   2.0000      -6.044366      -164.4755
  71   2.0000      -6.041483      -164.3971
  72   2.0000      -6.041067      -164.3858
  73   2.0000      -6.040759      -164.3774
  74   2.0000      -6.037734      -164.2951
  75   2.0000      -6.036598      -164.2642
  76   2.0000      -6.034289      -164.2014
  77   2.0000      -1.314139       -35.7595
  78   2.0000      -1.303563       -35.4717
  79   2.0000      -1.232515       -33.5384
  80   2.0000      -1.195794       -32.5392
  81   2.0000      -1.193046       -32.4644
  82   2.0000      -1.191990       -32.4357
  83   2.0000      -1.131510       -30.7900
  84   2.0000      -1.122277       -30.5387
  85   2.0000      -1.120424       -30.4883
  86   2.0000      -1.104772       -30.0624
  87   2.0000      -1.099242       -29.9119
  88   2.0000      -1.097648       -29.8685
  89   2.0000      -1.077822       -29.3290
  90   2.0000      -1.073743       -29.2180
  91   2.0000      -1.014920       -27.6174
  92   2.0000      -1.013505       -27.5789
  93   2.0000      -1.011828       -27.5333
  94   2.0000      -1.001907       -27.2633
  95   2.0000      -0.992590       -27.0098
  96   2.0000      -0.941896       -25.6303
  97   2.0000      -0.932023       -25.3616
  98   2.0000      -0.931779       -25.3550
  99   2.0000      -0.920579       -25.0502
 100   2.0000      -0.906448       -24.6657
 101   2.0000      -0.902050       -24.5460
 102   2.0000      -0.898376       -24.4461
 103   2.0000      -0.891035       -24.2463
 104   2.0000      -0.876140       -23.8410
 105   2.0000      -0.872464       -23.7409
 106   2.0000      -0.864605       -23.5271
 107   2.0000      -0.860603       -23.4182
 108   2.0000      -0.856878       -23.3168
 109   2.0000      -0.848429       -23.0869
 110   2.0000      -0.835005       -22.7216
 111   2.0000      -0.823974       -22.4215
 112   2.0000      -0.810667       -22.0594
 113   2.0000      -0.806375       -21.9426
 114   2.0000      -0.794041       -21.6070
 115   2.0000      -0.786379       -21.3985
 116   2.0000      -0.768319       -20.9070
 117   2.0000      -0.765725       -20.8364
 118   2.0000      -0.746478       -20.3127
 119   2.0000      -0.730071       -19.8662
 120   2.0000      -0.726594       -19.7716
 121   2.0000      -0.725454       -19.7406
 122   2.0000      -0.723276       -19.6813
 123   2.0000      -0.713235       -19.4081
 124   2.0000      -0.701055       -19.0767
 125   2.0000      -0.695553       -18.9270
 126   2.0000      -0.686266       -18.6743
 127   2.0000      -0.677632       -18.4393
 128   2.0000      -0.669884       -18.2285
 129   2.0000      -0.667205       -18.1556
 130   2.0000      -0.661206       -17.9923
 131   2.0000      -0.648821       -17.6553
 132   2.0000      -0.644585       -17.5400
 133   2.0000      -0.641794       -17.4641
 134   2.0000      -0.634793       -17.2736
 135   2.0000      -0.629745       -17.1362
 136   2.0000      -0.628015       -17.0892
 137   2.0000      -0.626545       -17.0492
 138   2.0000      -0.625858       -17.0305
 139   2.0000      -0.619053       -16.8453
 140   2.0000      -0.616776       -16.7833
 141   2.0000      -0.614259       -16.7148
 142   2.0000      -0.611861       -16.6496
 143   2.0000      -0.608129       -16.5480
 144   2.0000      -0.599445       -16.3117
 145   2.0000      -0.596021       -16.2186
 146   2.0000      -0.594086       -16.1659
 147   2.0000      -0.591799       -16.1037
 148   2.0000      -0.578871       -15.7519
 149   2.0000      -0.572984       -15.5917
 150   2.0000      -0.572801       -15.5867
 151   2.0000      -0.570357       -15.5202
 152   2.0000      -0.569786       -15.5047
 153   2.0000      -0.566860       -15.4251
 154   2.0000      -0.565906       -15.3991
 155   2.0000      -0.562061       -15.2944
 156   2.0000      -0.557164       -15.1612
 157   2.0000      -0.549806       -14.9610
 158   2.0000      -0.547616       -14.9014
 159   2.0000      -0.546531       -14.8719
 160   2.0000      -0.544074       -14.8050
 161   2.0000      -0.541895       -14.7457
 162   2.0000      -0.534417       -14.5422
 163   2.0000      -0.532281       -14.4841
 164   2.0000      -0.529585       -14.4108
 165   2.0000      -0.527107       -14.3433
 166   2.0000      -0.526145       -14.3171
 167   2.0000      -0.518843       -14.1184
 168   2.0000      -0.516694       -14.0600
 169   2.0000      -0.514058       -13.9882
 170   2.0000      -0.512182       -13.9372
 171   2.0000      -0.506239       -13.7755
 172   2.0000      -0.502871       -13.6838
 173   2.0000      -0.501745       -13.6532
 174   2.0000      -0.495903       -13.4942
 175   2.0000      -0.492794       -13.4096
 176   2.0000      -0.491841       -13.3837
 177   2.0000      -0.489238       -13.3129
 178   2.0000      -0.487009       -13.2522
 179   2.0000      -0.482995       -13.1430
 180   2.0000      -0.480231       -13.0678
 181   2.0000      -0.477834       -13.0025
 182   2.0000      -0.476070       -12.9545
 183   2.0000      -0.473578       -12.8867
 184   2.0000      -0.469684       -12.7808
 185   2.0000      -0.467037       -12.7087
 186   2.0000      -0.465612       -12.6700
 187   2.0000      -0.461992       -12.5714
 188   2.0000      -0.460633       -12.5345
 189   2.0000      -0.457499       -12.4492
 190   2.0000      -0.455101       -12.3839
 191   2.0000      -0.451048       -12.2736
 192   2.0000      -0.449736       -12.2379
 193   2.0000      -0.444032       -12.0827
 194   2.0000      -0.440830       -11.9956
 195   2.0000      -0.436535       -11.8787
 196   2.0000      -0.432812       -11.7774
 197   2.0000      -0.431050       -11.7295
 198   2.0000      -0.429979       -11.7003
 199   2.0000      -0.428656       -11.6643
 200   2.0000      -0.407453       -11.0874
 201   2.0000      -0.404031       -10.9942
 202   2.0000      -0.400130       -10.8881
 203   2.0000      -0.390094       -10.6150
 204   2.0000      -0.382121       -10.3980
 205   2.0000      -0.379184       -10.3181
 206   2.0000      -0.376813       -10.2536
 207   2.0000      -0.376064       -10.2332
 208   2.0000      -0.375049       -10.2056
 209   2.0000      -0.371849       -10.1185
 210   2.0000      -0.370838       -10.0910
 211   2.0000      -0.367240        -9.9931
 212   2.0000      -0.364501        -9.9186
 213   2.0000      -0.360750        -9.8165
 214   2.0000      -0.360436        -9.8080
 215   2.0000      -0.360231        -9.8024
 216   2.0000      -0.355094        -9.6626
 217   2.0000      -0.353006        -9.6058
 218   2.0000      -0.350990        -9.5509
 219   2.0000      -0.343961        -9.3597
 220   2.0000      -0.342714        -9.3257
 221   2.0000      -0.341301        -9.2873
 222   2.0000      -0.332413        -9.0454
 223   2.0000      -0.326775        -8.8920
 224   2.0000      -0.324046        -8.8178
 225   2.0000      -0.302974        -8.2444
 226   2.0000      -0.290249        -7.8981
 227   2.0000      -0.281423        -7.6579
 228   2.0000      -0.242525        -6.5994
 229   0.0000      -0.126839        -3.4515
 230   0.0000      -0.091940        -2.5018
 231   0.0000      -0.052564        -1.4303
 232   0.0000      -0.038358        -1.0438
 233   0.0000      -0.035140        -0.9562

MULLIKEN ATOMIC CHARGES
-----------------------
   0 C :   -0.002962
   1 S :    0.125674
   2 C :   -0.108249
   3 C :   -0.000689
   4 N :   -0.051873
   5 C :    0.156713
   6 O :   -0.216137
   7 O :   -0.261923
   8 C :    0.189241
   9 C :    0.001927
  10 C :    0.033772
  11 C :   -0.011354
  12 C :    0.082359
  13 N :    0.270251
  14 O :   -0.250789
  15 O :   -0.250258
  16 C :    0.004919
  17 C :   -0.027090
  18 C :    0.037613
  19 C :    0.048079
  20 C :   -0.023516
  21 C :    0.028535
  22 C :    0.074172
  23 N :    0.275071
  24 O :   -0.271480
  25 O :   -0.260357
  26 C :    0.022218
  27 C :   -0.078440
  28 C :   -0.012450
  29 C :   -0.151201
  30 S :    0.142803
  31 C :   -0.089124
  32 C :    0.109188
  33 C :    0.133312
  34 N :   -0.022488
  35 C :   -0.093923
  36 C :   -0.149834
  37 N :    0.171298
  38 C :   -0.021438
  39 C :   -0.009266
  40 C :    0.023179
  41 C :   -0.127827
  42 S :    0.101636
  43 C :   -0.141840
  44 C :    0.183526
  45 O :   -0.160927
  46 O :   -0.156807
  47 C :   -0.030574
  48 C :    0.242527
  49 O :   -0.218952
  50 C :    0.108687
  51 S :    0.122224
  52 C :   -0.110201
  53 C :    0.018141
  54 N :   -0.081459
  55 C :    0.161841
  56 O :   -0.206498
  57 O :   -0.275670
  58 C :    0.189417
  59 C :   -0.007639
  60 C :   -0.014282
  61 H :    0.045931
  62 H :    0.039491
  63 H :    0.032398
  64 H :    0.031122
  65 H :    0.016837
  66 H :    0.033456
  67 H :   -0.004344
  68 H :    0.012633
  69 H :    0.017665
  70 H :    0.003481
  71 H :    0.031152
  72 H :    0.010853
  73 H :    0.138116
  74 H :   -0.008758
  75 H :   -0.005054
  76 H :    0.016683
  77 H :    0.179964
  78 H :    0.046148
  79 H :    0.030880
  80 H :    0.029803
  81 H :    0.048632
  82 H :    0.033014
  83 H :    0.023439
  84 H :    0.035651
Sum of atomic charges:   -0.0000000

LOEWDIN ATOMIC CHARGES
----------------------
   0 C :   -0.123849
   1 S :    0.433242
   2 C :   -0.154477
   3 C :   -0.087959
   4 N :   -0.068209
   5 C :    0.078405
   6 O :   -0.185928
   7 O :   -0.063607
   8 C :    0.082580
   9 C :   -0.035261
  10 C :    0.016816
  11 C :    0.012235
  12 C :   -0.042898
  13 N :    0.284561
  14 O :   -0.211592
  15 O :   -0.215406
  16 C :   -0.012930
  17 C :   -0.041979
  18 C :    0.014859
  19 C :    0.053589
  20 C :   -0.049077
  21 C :    0.024626
  22 C :   -0.069048
  23 N :    0.285049
  24 O :   -0.234436
  25 O :   -0.224842
  26 C :    0.019304
  27 C :   -0.044228
  28 C :   -0.002804
  29 C :   -0.207140
  30 S :    0.465416
  31 C :   -0.139590
  32 C :   -0.072203
  33 C :    0.009680
  34 N :    0.081489
  35 C :   -0.025841
  36 C :   -0.047160
  37 N :   -0.029693
  38 C :   -0.024144
  39 C :   -0.047969
  40 C :   -0.017943
  41 C :   -0.185178
  42 S :    0.429856
  43 C :   -0.223410
  44 C :    0.063331
  45 O :   -0.150215
  46 O :   -0.030856
  47 C :   -0.026016
  48 C :    0.033456
  49 O :   -0.029591
  50 C :   -0.072539
  51 S :    0.418877
  52 C :   -0.145287
  53 C :   -0.079886
  54 N :   -0.107970
  55 C :    0.078749
  56 O :   -0.179051
  57 O :   -0.071615
  58 C :    0.083666
  59 C :   -0.038818
  60 C :   -0.029542
  61 H :    0.021115
  62 H :    0.028294
  63 H :    0.023827
  64 H :    0.023108
  65 H :    0.032705
  66 H :    0.038967
  67 H :    0.034680
  68 H :    0.031669
  69 H :    0.033776
  70 H :    0.038025
  71 H :    0.030547
  72 H :    0.035701
  73 H :    0.101321
  74 H :    0.037985
  75 H :    0.030617
  76 H :    0.035684
  77 H :    0.079633
  78 H :    0.050751
  79 H :    0.023247
  80 H :    0.023085
  81 H :    0.031834
  82 H :    0.044283
  83 H :    0.017757
  84 H :    0.031790

  Mayer bond orders larger than 0.100000
B(  0-C ,  1-S ) :   1.1363 B(  0-C ,  4-N ) :   1.7360 B(  0-C , 61-H ) :   0.9650
B(  1-S ,  2-C ) :   1.1612 B(  2-C ,  3-C ) :   1.5257 B(  2-C ,  9-C ) :   1.0870
B(  3-C ,  4-N ) :   1.3617 B(  3-C ,  5-C ) :   0.9340 B(  5-C ,  6-O ) :   2.0551
B(  5-C ,  7-O ) :   1.2949 B(  7-O ,  8-C ) :   0.9249 B(  8-C , 62-H ) :   0.9813
B(  8-C , 63-H ) :   0.9755 B(  8-C , 64-H ) :   0.9759 B(  9-C , 10-C ) :   1.7607
B(  9-C , 65-H ) :   0.9525 B( 10-C , 11-C ) :   1.1135 B( 10-C , 66-H ) :   0.9280
B( 11-C , 12-C ) :   1.5701 B( 11-C , 18-C ) :   1.0551 B( 12-C , 13-N ) :   0.9448
B( 12-C , 16-C ) :   1.1166 B( 13-N , 14-O ) :   1.5012 B( 13-N , 15-O ) :   1.5279
B( 14-O , 15-O ) :   0.2623 B( 16-C , 17-C ) :   1.6082 B( 16-C , 67-H ) :   1.0169
B( 17-C , 18-C ) :   1.0844 B( 17-C , 68-H ) :   0.9910 B( 18-C , 19-C ) :   1.5489
B( 19-C , 20-C ) :   1.1286 B( 19-C , 26-C ) :   0.9815 B( 20-C , 21-C ) :   1.5638
B( 20-C , 69-H ) :   0.9918 B( 21-C , 22-C ) :   1.1245 B( 21-C , 70-H ) :   1.0134
B( 22-C , 23-N ) :   0.9757 B( 22-C , 26-C ) :   1.4777 B( 23-N , 24-O ) :   1.4761
B( 23-N , 25-O ) :   1.5229 B( 24-O , 25-O ) :   0.2465 B( 26-C , 27-C ) :   1.2481
B( 27-C , 28-C ) :   1.4717 B( 27-C , 71-H ) :   0.9483 B( 28-C , 29-C ) :   1.2712
B( 28-C , 72-H ) :   0.9750 B( 29-C , 30-S ) :   1.0738 B( 29-C , 33-C ) :   1.3138
B( 30-S , 31-C ) :   1.1361 B( 31-C , 32-C ) :   1.2830 B( 31-C , 39-C ) :   1.2322
B( 32-C , 33-C ) :   1.2399 B( 32-C , 38-C ) :   1.1793 B( 33-C , 34-N ) :   1.2083
B( 34-N , 35-C ) :   1.1899 B( 34-N , 73-H ) :   0.9329 B( 35-C , 36-C ) :   1.0568
B( 35-C , 38-C ) :   1.5910 B( 36-C , 37-N ) :   3.0547 B( 38-C , 74-H ) :   1.0119
B( 39-C , 40-C ) :   1.5758 B( 39-C , 75-H ) :   0.9710 B( 40-C , 41-C ) :   1.2013
B( 40-C , 76-H ) :   0.9708 B( 41-C , 42-S ) :   1.1225 B( 41-C , 48-C ) :   1.4219
B( 42-S , 43-C ) :   1.0932 B( 43-C , 44-C ) :   0.9297 B( 43-C , 47-C ) :   1.4698
B( 44-C , 45-O ) :   2.2053 B( 44-C , 46-O ) :   1.2367 B( 46-O , 77-H ) :   0.9507
B( 47-C , 48-C ) :   1.2392 B( 47-C , 78-H ) :   1.0052 B( 48-C , 49-O ) :   1.0620
B( 49-O , 50-C ) :   1.1155 B( 50-C , 51-S ) :   1.1073 B( 50-C , 54-N ) :   1.6709
B( 51-S , 52-C ) :   1.0960 B( 52-C , 53-C ) :   1.5541 B( 52-C , 59-C ) :   1.1476
B( 53-C , 54-N ) :   1.3092 B( 53-C , 55-C ) :   0.9387 B( 55-C , 56-O ) :   2.0794
B( 55-C , 57-O ) :   1.2732 B( 57-O , 58-C ) :   0.9189 B( 58-C , 79-H ) :   0.9754
B( 58-C , 80-H ) :   0.9762 B( 58-C , 81-H ) :   0.9808 B( 59-C , 60-C ) :   1.9026
B( 59-C , 82-H ) :   0.9441 B( 60-C , 83-H ) :   0.9575 B( 60-C , 84-H ) :   0.9511

-----------------------------------------------------------------------------
         ABSORPTION SPECTRUM VIA TRANSITION ELECTRIC DIPOLE MOMENTS
-----------------------------------------------------------------------------
State   Energy  Wavelength   fosc         T2         TX        TY        TZ
        (cm-1)    (nm)                  (au**2)     (au)      (au)      (au)
-----------------------------------------------------------------------------
   0    9044.6   1105.6   0.387407254  14.10110   1.93353  -3.16512  -0.58700
   1   16049.9    623.1   0.023613178   0.48435   0.32679  -0.39615  -0.46970
   2   17769.2    562.8   0.574353871  10.64114  -2.32913   2.01845   1.06872
   3   20521.0    487.3   0.080923523   1.29823  -0.80056   0.68886   0.42756
   4   24415.9    409.6   0.119104318   1.60594   0.07866  -0.46248   1.17723
   5   24690.8    405.0   0.077207381   1.02944   0.68052  -0.74233  -0.12356
   6   25847.2    386.9   0.189711241   2.41633   0.32430  -0.39000  -1.46937
   7   26830.3    372.7   0.088448999   1.08528  -0.64744   0.25997   0.77364
   8   27132.5    368.6   0.034725635   0.42134  -0.13814  -0.22003  -0.59485
   9   27324.8    366.0   0.058055140   0.69945  -0.36425   0.54581  -0.51852
  10   28275.9    353.7   0.078802842   0.91749  -0.12306   0.90447  -0.29030
  11   28595.3    349.7   0.007907020   0.09103  -0.22276   0.20302   0.01389
  12   29155.6    343.0   0.179357592   2.02522  -0.01495  -0.35191   1.37882
  13   30161.8    331.5   0.013886631   0.15157   0.28889  -0.17490   0.19371
  14   30825.8    324.4   0.001589658   0.01698   0.07622  -0.09381  -0.04866
  15   31064.8    321.9   0.067315168   0.71338   0.28888  -0.05610  -0.79169
  16   31737.7    315.1   0.289787020   3.00593  -0.28387  -0.73649  -1.54367
  17   31837.3    314.1   0.054308404   0.56157   0.05127   0.24579   0.70607
  18   32480.4    307.9   0.198642659   2.01338  -0.50738  -0.29401  -1.29209
  19   32483.1    307.9   0.078996706   0.80062   0.00250   0.86219   0.23925
  20   33216.3    301.1   0.006908108   0.06847  -0.22116   0.08100  -0.11400
  21   33414.0    299.3   0.575068319   5.66586   1.60202  -0.41130   1.71179
  22   33821.5    295.7   0.140047307   1.36319  -0.58708  -0.25964  -0.97525
  23   34172.6    292.6   0.103984971   1.00177   0.55250  -0.51098   0.65986
  24   34385.1    290.8   0.083583307   0.80025   0.27554   0.53763   0.65976
  25   34605.6    289.0   0.000377861   0.00359  -0.01210  -0.05630  -0.01667
  26   34991.4    285.8   0.072744416   0.68441  -0.01168  -0.39418   0.72725
  27   35680.7    280.3   0.115091510   1.06191   0.06387   0.41404   0.94149
  28   36394.1    274.8   0.097539854   0.88232   0.21992  -0.88432  -0.22791
  29   36624.8    273.0   0.061000863   0.54832   0.16277   0.71235  -0.11994
  30   36664.4    272.7   0.008842947   0.07940  -0.04630   0.19552  -0.19756
  31   36901.6    271.0   0.039411013   0.35160   0.12741  -0.37913   0.43775
  32   37191.3    268.9   0.120918319   1.07035  -0.99923  -0.09646  -0.25015
  33   38207.6    261.7   0.060283065   0.51942  -0.44279   0.14431  -0.55003
  34   38397.1    260.4   0.007098317   0.06086   0.20629  -0.12998   0.03758
  35   38616.9    259.0   0.000182463   0.00156  -0.00306  -0.02218  -0.03247
  36   38863.5    257.3   0.083848117   0.71028   0.51956  -0.64111  -0.17122
  37   39063.5    256.0   0.007246884   0.06107  -0.02643   0.09063   0.22839
  38   39252.0    254.8   0.074239880   0.62266   0.00493  -0.52319  -0.59068
  39   39620.2    252.4   0.015178114   0.12612   0.27959   0.01587   0.21839
  40   39832.5    251.1   0.010336089   0.08543   0.03966   0.23156   0.17387
  41   39876.1    250.8   0.072819990   0.60119   0.02586  -0.63044  -0.45063
  42   40183.3    248.9   0.009156916   0.07502   0.16897  -0.20296  -0.07264

FINAL SINGLE POINT ENERGY     -4283.364045001023

DIPOLE MOMENT
-------------
                                X             Y             Z
Electronic contribution:     -3.37345       2.27165      -9.57727
Nuclear contribution   :      3.62631      -2.56811       9.64966
                        -----------------------------------------
Total Dipole Moment    :      0.25286      -0.29647       0.07238
                        -----------------------------------------
Magnitude (a.u.)       :      0.39632
Magnitude (Debye)      :      1.00736

Rotational constants in cm-1:     0.001750     0.000398     0.000346
Rotational constants in MHz :    52.455384    11.941649    10.361346

                             ****ORCA TERMINATED NORMALLY****
TOTAL RUN TIME: 0 days 0 hours 7 minutes 39 seconds 452 msec
