                         Program Version 4.2.0 -  RELEASE  -
|  1> # ORCA input file
|  2> # SCF done       -207.733911665915          0.000401420456
|  3> ! CAM-B3LYP def2-SVP def2/J RIJCOSX Grid4 TightSCF
|  4> %maxcore 5000
|  5> %tddft
|  6>     Mode sTDDFT
|  7>     Ethresh 5.0
|  8>     maxcore 5000
|  9> end
| 10>
| 11> %pal
| 12>   nprocs 6
| 13>   end
| 14> * xyz 0 1
| 15>    C        5.26112         4.02337        -2.36669
| 16>    C        5.72901         2.83346        -2.84977
| 17>    C        7.05924         2.38851        -2.70032
| 18>    N        8.12884         1.98567        -2.60041
| 19>    C        4.93926         1.94932        -3.61620
| 20>    N        4.34367         1.23181        -4.28499
| 21>    C        6.03420         5.06526        -1.70807
| 22>    C        5.21779         6.22813        -1.57982
| 23>    C        5.68571         7.37245        -0.99834
| 24>    C        7.00872         7.40432        -0.50483
| 25>    C        7.82701         6.24307        -0.62305
| 26>    C        7.31931         5.07413        -1.23446
| 27>    C        9.14190         6.28453        -0.11675
| 28>    C        9.62739         7.41708         0.47851
| 29>    C        8.82162         8.55978         0.59388
| 30>    C        7.54090         8.55405         0.11169
| 31>    C        3.87904         5.95311        -2.11919
| 32>    O        2.93037         6.70991        -2.16619
| 33>    C        3.90433         4.52061        -2.52007
| 34>    C        2.77755         3.80555        -2.74438
| 35>    C        1.49069         4.42002        -2.89158
| 36>    C        0.39131         4.22941        -2.07783
| 37>    N        0.36140         3.36959        -0.96884
| 38>    O       -0.68953         3.24715        -0.36792
| 39>    O        1.40055         2.79578        -0.67427
| 40>    C       -0.66855         5.11588        -2.48024
| 41>    C       -0.21184         5.87693        -3.50508
| 42>    C        1.13724         5.47693        -3.82546
| 43>    C        1.88880         5.86004        -4.92033
| 44>    C        2.81692         5.05508        -5.63550
| 45>    C        3.08623         5.65271        -6.83770
| 46>    C        2.40477         6.90325        -6.90451
| 47>    N        2.50320         7.78374        -7.98193
| 48>    O        3.22969         7.47244        -8.91067
| 49>    O        1.84695         8.82432        -7.95472
| 50>    C        1.70720         7.09907        -5.69978
| 51>    C        1.14377         8.29449        -5.26341
| 52>    C        0.87175         8.63060        -3.95336
| 53>    C        0.27790         9.83426        -3.58582
| 54>    S        0.06320        10.22507        -1.88749
| 55>    C       -0.72784        11.74528        -2.20183
| 56>    C       -0.81756        11.94987        -3.59102
| 57>    C       -0.25539        10.88518        -4.35170
| 58>    N       -0.40031        11.17692        -5.66612
| 59>    C       -1.03234        12.39800        -5.76638
| 60>    C       -1.36354        13.01880        -6.97848
| 61>    N       -1.67314        13.58114        -7.92951
| 62>    C       -1.30492        12.90199        -4.51048
| 63>    C       -1.16125        12.53865        -1.12639
| 64>    C       -1.81597        13.72757        -1.26013
| 65>    C       -2.26014        14.53593        -0.19501
| 66>    S       -2.03745        14.18808         1.48766
| 67>    C       -2.85950        15.64717         1.95144
| 68>    C       -3.06338        16.05710         3.35544
| 69>    O       -3.62523        17.07932         3.63471
| 70>    O       -2.58842        15.23373         4.29995
| 71>    C       -3.28674        16.36691         0.86156
| 72>    C       -2.95279        15.74729        -0.35087
| 73>    O       -3.19536        16.14173        -1.61662
| 74>    C       -3.86961        17.22997        -1.96323
| 75>    C       -4.03106        17.47728        -3.29033
| 76>    C       -4.72148        18.56795        -3.95471
| 77>    C       -5.35700        19.62013        -3.35173
| 78>    C       -6.01382        20.65639        -4.04825
| 79>    N       -6.56297        21.52580        -4.55736
| 80>    C       -5.42999        19.79767        -1.95517
| 81>    N       -5.50741        19.97007        -0.82285
| 82>    C       -4.61113        18.33702        -5.39082
| 83>    C       -3.86421        17.14197        -5.61325
| 84>    C       -3.47575        16.56793        -4.32464
| 85>    O       -2.83312        15.55495        -4.12871
| 86>    C       -3.59891        16.67210        -6.86849
| 87>    C       -4.08111        17.39083        -7.98392
| 88>    C       -4.83024        18.58571        -7.77401
| 89>    C       -5.08678        19.04751        -6.46206
| 90>    C       -5.30655        19.29097        -8.89772
| 91>    C       -5.05543        18.83837       -10.16510
| 92>    C       -4.31752        17.66240       -10.36846
| 93>    C       -3.83923        16.95206        -9.30031
| 94>    H        5.05170         8.24247        -0.91049
| 95>    H        7.95652         4.20641        -1.30319
| 96>    H        9.75860         5.40277        -0.20861
| 97>    H       10.63532         7.43849         0.86447
| 98>    H        9.22052         9.44417         1.06756
| 99>    H        6.91587         9.43082         0.19858
|100>    H        2.80423         2.72222        -2.73689
|101>    H       -1.63499         5.13846        -2.01490
|102>    H       -0.77749         6.59043        -4.07248
|103>    H        3.14159         4.07802        -5.33140
|104>    H        3.70002         5.26624        -7.62991
|105>    H        1.02149         9.04471        -6.03050
|106>    H        1.17428         7.96342        -3.15854
|107>    H       -0.08128        10.63654        -6.45625
|108>    H       -1.79473        13.83396        -4.32382
|109>    H       -0.95582        12.15838        -0.13307
|110>    H       -2.03882        14.12006        -2.24126
|111>    H       -2.15943        14.44158         3.94920
|112>    H       -3.81274        17.29772         0.97714
|113>    H       -4.26658        17.87200        -1.18658
|114>    H       -3.03001        15.76493        -7.01398
|115>    H       -5.65642        19.95493        -6.33792
|116>    H       -5.87407        20.19601        -8.73830
|117>    H       -5.42523        19.38607       -11.01889
|118>    H       -4.12999        17.32217       -11.37566
|119>    H       -3.26997        16.04587        -9.44442
|120> *
|121>
|122>                          ****END OF INPUT****

CARTESIAN COORDINATES (ANGSTROEM)
---------------------------------
  C      5.261120    4.023370   -2.366690
  C      5.729010    2.833460   -2.849770
  C      7.059240    2.388510   -2.700320
  N      8.128840    1.985670   -2.600410
  C      4.939260    1.949320   -3.616200
  N      4.343670    1.231810   -4.284990
  C      6.034200    5.065260   -1.708070
  C      5.217790    6.228130   -1.579820
  C      5.685710    7.372450   -0.998340
  C      7.008720    7.404320   -0.504830
  C      7.827010    6.243070   -0.623050
  C      7.319310    5.074130   -1.234460
  C      9.141900    6.284530   -0.116750
  C      9.627390    7.417080    0.478510
  C      8.821620    8.559780    0.593880
  C      7.540900    8.554050    0.111690
  C      3.879040    5.953110   -2.119190
  O      2.930370    6.709910   -2.166190
  C      3.904330    4.520610   -2.520070
  C      2.777550    3.805550   -2.744380
  C      1.490690    4.420020   -2.891580
  C      0.391310    4.229410   -2.077830
  N      0.361400    3.369590   -0.968840
  O     -0.689530    3.247150   -0.367920
  O      1.400550    2.795780   -0.674270
  C     -0.668550    5.115880   -2.480240
  C     -0.211840    5.876930   -3.505080
  C      1.137240    5.476930   -3.825460
  C      1.888800    5.860040   -4.920330
  C      2.816920    5.055080   -5.635500
  C      3.086230    5.652710   -6.837700
  C      2.404770    6.903250   -6.904510
  N      2.503200    7.783740   -7.981930
  O      3.229690    7.472440   -8.910670
  O      1.846950    8.824320   -7.954720
  C      1.707200    7.099070   -5.699780
  C      1.143770    8.294490   -5.263410
  C      0.871750    8.630600   -3.953360
  C      0.277900    9.834260   -3.585820
  S      0.063200   10.225070   -1.887490
  C     -0.727840   11.745280   -2.201830
  C     -0.817560   11.949870   -3.591020
  C     -0.255390   10.885180   -4.351700
  N     -0.400310   11.176920   -5.666120
  C     -1.032340   12.398000   -5.766380
  C     -1.363540   13.018800   -6.978480
  N     -1.673140   13.581140   -7.929510
  C     -1.304920   12.901990   -4.510480
  C     -1.161250   12.538650   -1.126390
  C     -1.815970   13.727570   -1.260130
  C     -2.260140   14.535930   -0.195010
  S     -2.037450   14.188080    1.487660
  C     -2.859500   15.647170    1.951440
  C     -3.063380   16.057100    3.355440
  O     -3.625230   17.079320    3.634710
  O     -2.588420   15.233730    4.299950
  C     -3.286740   16.366910    0.861560
  C     -2.952790   15.747290   -0.350870
  O     -3.195360   16.141730   -1.616620
  C     -3.869610   17.229970   -1.963230
  C     -4.031060   17.477280   -3.290330
  C     -4.721480   18.567950   -3.954710
  C     -5.357000   19.620130   -3.351730
  C     -6.013820   20.656390   -4.048250
  N     -6.562970   21.525800   -4.557360
  C     -5.429990   19.797670   -1.955170
  N     -5.507410   19.970070   -0.822850
  C     -4.611130   18.337020   -5.390820
  C     -3.864210   17.141970   -5.613250
  C     -3.475750   16.567930   -4.324640
  O     -2.833120   15.554950   -4.128710
  C     -3.598910   16.672100   -6.868490
  C     -4.081110   17.390830   -7.983920
  C     -4.830240   18.585710   -7.774010
  C     -5.086780   19.047510   -6.462060
  C     -5.306550   19.290970   -8.897720
  C     -5.055430   18.838370  -10.165100
  C     -4.317520   17.662400  -10.368460
  C     -3.839230   16.952060   -9.300310
  H      5.051700    8.242470   -0.910490
  H      7.956520    4.206410   -1.303190
  H      9.758600    5.402770   -0.208610
  H     10.635320    7.438490    0.864470
  H      9.220520    9.444170    1.067560
  H      6.915870    9.430820    0.198580
  H      2.804230    2.722220   -2.736890
  H     -1.634990    5.138460   -2.014900
  H     -0.777490    6.590430   -4.072480
  H      3.141590    4.078020   -5.331400
  H      3.700020    5.266240   -7.629910
  H      1.021490    9.044710   -6.030500
  H      1.174280    7.963420   -3.158540
  H     -0.081280   10.636540   -6.456250
  H     -1.794730   13.833960   -4.323820
  H     -0.955820   12.158380   -0.133070
  H     -2.038820   14.120060   -2.241260
  H     -2.159430   14.441580    3.949200
  H     -3.812740   17.297720    0.977140
  H     -4.266580   17.872000   -1.186580
  H     -3.030010   15.764930   -7.013980
  H     -5.656420   19.954930   -6.337920
  H     -5.874070   20.196010   -8.738300
  H     -5.425230   19.386070  -11.018890
  H     -4.129990   17.322170  -11.375660
  H     -3.269970   16.045870   -9.444420

 Total Charge           Charge          ....    0
 Multiplicity           Mult            ....    1
 Number of Electrons    NEL             ....  546
 Basis Dimension        Dim             .... 1244

ORBITAL ENERGIES
----------------

  NO   OCC          E(Eh)            E(eV)
   0   2.0000     -89.004929     -2421.9472
   1   2.0000     -88.992821     -2421.6178
   2   2.0000     -19.331111      -526.0263
   3   2.0000     -19.280819      -524.6578
   4   2.0000     -19.243509      -523.6425
   5   2.0000     -19.242459      -523.6139
   6   2.0000     -19.233754      -523.3771
   7   2.0000     -19.231751      -523.3225
   8   2.0000     -19.225683      -523.1574
   9   2.0000     -19.224951      -523.1375
  10   2.0000     -19.215909      -522.8915
  11   2.0000     -14.650219      -398.6527
  12   2.0000     -14.635645      -398.2562
  13   2.0000     -14.502820      -394.6418
  14   2.0000     -14.433307      -392.7503
  15   2.0000     -14.432850      -392.7378
  16   2.0000     -14.425652      -392.5420
  17   2.0000     -14.422487      -392.4558
  18   2.0000     -14.422403      -392.4535
  19   2.0000     -10.427278      -283.7407
  20   2.0000     -10.403651      -283.0977
  21   2.0000     -10.386931      -282.6428
  22   2.0000     -10.386173      -282.6221
  23   2.0000     -10.381595      -282.4976
  24   2.0000     -10.362610      -281.9809
  25   2.0000     -10.358418      -281.8669
  26   2.0000     -10.355536      -281.7885
  27   2.0000     -10.352244      -281.6989
  28   2.0000     -10.351497      -281.6785
  29   2.0000     -10.351191      -281.6702
  30   2.0000     -10.347810      -281.5782
  31   2.0000     -10.346610      -281.5456
  32   2.0000     -10.344400      -281.4854
  33   2.0000     -10.335755      -281.2502
  34   2.0000     -10.334726      -281.2222
  35   2.0000     -10.333991      -281.2022
  36   2.0000     -10.333385      -281.1857
  37   2.0000     -10.330441      -281.1056
  38   2.0000     -10.328108      -281.0421
  39   2.0000     -10.326348      -280.9942
  40   2.0000     -10.324505      -280.9441
  41   2.0000     -10.324352      -280.9399
  42   2.0000     -10.323730      -280.9230
  43   2.0000     -10.321435      -280.8605
  44   2.0000     -10.321225      -280.8548
  45   2.0000     -10.321012      -280.8490
  46   2.0000     -10.320588      -280.8375
  47   2.0000     -10.319435      -280.8061
  48   2.0000     -10.316350      -280.7221
  49   2.0000     -10.314427      -280.6698
  50   2.0000     -10.313762      -280.6517
  51   2.0000     -10.312177      -280.6086
  52   2.0000     -10.312113      -280.6068
  53   2.0000     -10.309637      -280.5395
  54   2.0000     -10.308821      -280.5173
  55   2.0000     -10.307903      -280.4923
  56   2.0000     -10.306893      -280.4648
  57   2.0000     -10.306715      -280.4600
  58   2.0000     -10.306610      -280.4571
  59   2.0000     -10.305796      -280.4350
  60   2.0000     -10.305085      -280.4156
  61   2.0000     -10.304501      -280.3997
  62   2.0000     -10.303494      -280.3723
  63   2.0000     -10.301278      -280.3120
  64   2.0000     -10.300911      -280.3020
  65   2.0000     -10.300615      -280.2940
  66   2.0000     -10.299537      -280.2647
  67   2.0000     -10.298258      -280.2299
  68   2.0000     -10.295143      -280.1451
  69   2.0000     -10.294545      -280.1288
  70   2.0000     -10.293873      -280.1105
  71   2.0000     -10.293321      -280.0955
  72   2.0000     -10.291755      -280.0529
  73   2.0000     -10.291642      -280.0498
  74   2.0000     -10.291107      -280.0353
  75   2.0000     -10.290634      -280.0224
  76   2.0000     -10.289427      -279.9895
  77   2.0000     -10.289028      -279.9787
  78   2.0000     -10.278424      -279.6901
  79   2.0000      -8.100357      -220.4219
  80   2.0000      -8.087768      -220.0793
  81   2.0000      -6.069536      -165.1605
  82   2.0000      -6.065675      -165.0554
  83   2.0000      -6.062475      -164.9683
  84   2.0000      -6.057032      -164.8202
  85   2.0000      -6.052952      -164.7092
  86   2.0000      -6.049928      -164.6269
  87   2.0000      -1.320978       -35.9456
  88   2.0000      -1.302409       -35.4403
  89   2.0000      -1.246479       -33.9184
  90   2.0000      -1.203926       -32.7605
  91   2.0000      -1.148112       -31.2417
  92   2.0000      -1.145838       -31.1798
  93   2.0000      -1.139199       -30.9992
  94   2.0000      -1.123067       -30.5602
  95   2.0000      -1.119214       -30.4554
  96   2.0000      -1.117172       -30.3998
  97   2.0000      -1.032978       -28.1088
  98   2.0000      -1.028643       -27.9908
  99   2.0000      -1.026252       -27.9257
 100   2.0000      -1.017279       -27.6816
 101   2.0000      -1.015634       -27.6368
 102   2.0000      -1.011387       -27.5212
 103   2.0000      -1.007175       -27.4066
 104   2.0000      -1.006670       -27.3929
 105   2.0000      -1.006118       -27.3779
 106   2.0000      -1.000968       -27.2377
 107   2.0000      -0.995753       -27.0958
 108   2.0000      -0.980621       -26.6841
 109   2.0000      -0.979757       -26.6606
 110   2.0000      -0.947275       -25.7766
 111   2.0000      -0.936591       -25.4859
 112   2.0000      -0.933664       -25.4063
 113   2.0000      -0.927555       -25.2401
 114   2.0000      -0.921589       -25.0777
 115   2.0000      -0.913343       -24.8533
 116   2.0000      -0.908796       -24.7296
 117   2.0000      -0.901708       -24.5367
 118   2.0000      -0.894421       -24.3384
 119   2.0000      -0.890800       -24.2399
 120   2.0000      -0.888383       -24.1741
 121   2.0000      -0.884933       -24.0803
 122   2.0000      -0.879572       -23.9344
 123   2.0000      -0.877377       -23.8746
 124   2.0000      -0.868112       -23.6225
 125   2.0000      -0.856533       -23.3074
 126   2.0000      -0.841343       -22.8941
 127   2.0000      -0.837389       -22.7865
 128   2.0000      -0.835908       -22.7462
 129   2.0000      -0.831929       -22.6380
 130   2.0000      -0.812686       -22.1143
 131   2.0000      -0.807972       -21.9860
 132   2.0000      -0.793923       -21.6038
 133   2.0000      -0.775222       -21.0949
 134   2.0000      -0.774383       -21.0720
 135   2.0000      -0.770469       -20.9655
 136   2.0000      -0.766844       -20.8669
 137   2.0000      -0.762155       -20.7393
 138   2.0000      -0.748055       -20.3556
 139   2.0000      -0.729538       -19.8517
 140   2.0000      -0.727622       -19.7996
 141   2.0000      -0.726674       -19.7738
 142   2.0000      -0.720268       -19.5995
 143   2.0000      -0.720024       -19.5929
 144   2.0000      -0.712690       -19.3933
 145   2.0000      -0.711878       -19.3712
 146   2.0000      -0.707550       -19.2534
 147   2.0000      -0.703770       -19.1506
 148   2.0000      -0.701912       -19.1000
 149   2.0000      -0.696768       -18.9600
 150   2.0000      -0.685258       -18.6468
 151   2.0000      -0.682739       -18.5783
 152   2.0000      -0.672174       -18.2908
 153   2.0000      -0.665972       -18.1220
 154   2.0000      -0.659706       -17.9515
 155   2.0000      -0.653807       -17.7910
 156   2.0000      -0.651638       -17.7320
 157   2.0000      -0.648803       -17.6548
 158   2.0000      -0.640311       -17.4238
 159   2.0000      -0.638597       -17.3771
 160   2.0000      -0.636476       -17.3194
 161   2.0000      -0.632078       -17.1997
 162   2.0000      -0.626540       -17.0490
 163   2.0000      -0.623074       -16.9547
 164   2.0000      -0.619451       -16.8561
 165   2.0000      -0.619162       -16.8482
 166   2.0000      -0.616339       -16.7714
 167   2.0000      -0.615389       -16.7456
 168   2.0000      -0.613556       -16.6957
 169   2.0000      -0.611142       -16.6300
 170   2.0000      -0.597841       -16.2681
 171   2.0000      -0.596678       -16.2364
 172   2.0000      -0.592781       -16.1304
 173   2.0000      -0.589903       -16.0521
 174   2.0000      -0.580757       -15.8032
 175   2.0000      -0.579777       -15.7765
 176   2.0000      -0.574255       -15.6263
 177   2.0000      -0.572244       -15.5716
 178   2.0000      -0.567973       -15.4553
 179   2.0000      -0.567067       -15.4307
 180   2.0000      -0.562752       -15.3133
 181   2.0000      -0.561407       -15.2767
 182   2.0000      -0.559077       -15.2133
 183   2.0000      -0.555772       -15.1233
 184   2.0000      -0.552488       -15.0339
 185   2.0000      -0.550304       -14.9745
 186   2.0000      -0.549382       -14.9494
 187   2.0000      -0.547556       -14.8998
 188   2.0000      -0.546495       -14.8709
 189   2.0000      -0.544359       -14.8128
 190   2.0000      -0.542836       -14.7713
 191   2.0000      -0.538595       -14.6559
 192   2.0000      -0.537485       -14.6257
 193   2.0000      -0.535386       -14.5686
 194   2.0000      -0.529703       -14.4139
 195   2.0000      -0.528926       -14.3928
 196   2.0000      -0.527065       -14.3422
 197   2.0000      -0.523923       -14.2567
 198   2.0000      -0.519981       -14.1494
 199   2.0000      -0.515853       -14.0371
 200   2.0000      -0.515708       -14.0331
 201   2.0000      -0.511677       -13.9234
 202   2.0000      -0.510618       -13.8946
 203   2.0000      -0.507202       -13.8017
 204   2.0000      -0.505325       -13.7506
 205   2.0000      -0.504720       -13.7341
 206   2.0000      -0.500055       -13.6072
 207   2.0000      -0.497819       -13.5463
 208   2.0000      -0.497748       -13.5444
 209   2.0000      -0.495427       -13.4813
 210   2.0000      -0.493905       -13.4398
 211   2.0000      -0.490163       -13.3380
 212   2.0000      -0.489228       -13.3126
 213   2.0000      -0.486439       -13.2367
 214   2.0000      -0.484920       -13.1953
 215   2.0000      -0.478687       -13.0257
 216   2.0000      -0.476887       -12.9768
 217   2.0000      -0.475033       -12.9263
 218   2.0000      -0.471697       -12.8355
 219   2.0000      -0.470552       -12.8044
 220   2.0000      -0.465849       -12.6764
 221   2.0000      -0.464883       -12.6501
 222   2.0000      -0.463552       -12.6139
 223   2.0000      -0.459924       -12.5152
 224   2.0000      -0.455657       -12.3990
 225   2.0000      -0.455296       -12.3892
 226   2.0000      -0.454675       -12.3723
 227   2.0000      -0.452107       -12.3025
 228   2.0000      -0.450586       -12.2611
 229   2.0000      -0.448754       -12.2112
 230   2.0000      -0.448426       -12.2023
 231   2.0000      -0.446625       -12.1533
 232   2.0000      -0.445164       -12.1135
 233   2.0000      -0.442698       -12.0464
 234   2.0000      -0.442027       -12.0282
 235   2.0000      -0.440916       -11.9979
 236   2.0000      -0.439673       -11.9641
 237   2.0000      -0.438195       -11.9239
 238   2.0000      -0.435473       -11.8498
 239   2.0000      -0.433296       -11.7906
 240   2.0000      -0.430547       -11.7158
 241   2.0000      -0.427499       -11.6328
 242   2.0000      -0.418669       -11.3926
 243   2.0000      -0.417805       -11.3691
 244   2.0000      -0.415759       -11.3134
 245   2.0000      -0.411149       -11.1879
 246   2.0000      -0.408496       -11.1157
 247   2.0000      -0.399500       -10.8709
 248   2.0000      -0.391624       -10.6566
 249   2.0000      -0.385190       -10.4816
 250   2.0000      -0.384565       -10.4646
 251   2.0000      -0.381464       -10.3802
 252   2.0000      -0.376555       -10.2466
 253   2.0000      -0.374151       -10.1812
 254   2.0000      -0.372368       -10.1326
 255   2.0000      -0.370910       -10.0930
 256   2.0000      -0.367512       -10.0005
 257   2.0000      -0.365965        -9.9584
 258   2.0000      -0.357364        -9.7244
 259   2.0000      -0.354426        -9.6444
 260   2.0000      -0.354148        -9.6369
 261   2.0000      -0.347208        -9.4480
 262   2.0000      -0.344844        -9.3837
 263   2.0000      -0.333709        -9.0807
 264   2.0000      -0.330831        -9.0024
 265   2.0000      -0.326969        -8.8973
 266   2.0000      -0.325256        -8.8507
 267   2.0000      -0.321027        -8.7356
 268   2.0000      -0.309757        -8.4289
 269   2.0000      -0.302144        -8.2218
 270   2.0000      -0.299910        -8.1610
 271   2.0000      -0.292468        -7.9584
 272   2.0000      -0.246361        -6.7038
 273   0.0000      -0.137043        -3.7291
 274   0.0000      -0.102750        -2.7960
 275   0.0000      -0.093969        -2.5570
 276   0.0000      -0.086073        -2.3422
 277   0.0000      -0.068089        -1.8528

MULLIKEN ATOMIC CHARGES
-----------------------
   0 C :    0.301466
   1 C :   -0.323396
   2 C :   -0.182821
   3 N :    0.157780
   4 C :   -0.192161
   5 N :    0.159919
   6 C :    0.053662
   7 C :   -0.002732
   8 C :   -0.079177
   9 C :    0.100227
  10 C :    0.100008
  11 C :   -0.087182
  12 C :   -0.020157
  13 C :    0.040402
  14 C :    0.039359
  15 C :   -0.018001
  16 C :    0.171279
  17 O :   -0.154941
  18 C :   -0.088726
  19 C :   -0.029485
  20 C :   -0.005487
  21 C :    0.103985
  22 N :    0.273684
  23 O :   -0.239698
  24 O :   -0.253252
  25 C :   -0.000854
  26 C :   -0.002259
  27 C :    0.061885
  28 C :    0.028151
  29 C :   -0.011280
  30 C :    0.030426
  31 C :    0.060538
  32 N :    0.285394
  33 O :   -0.259840
  34 O :   -0.298612
  35 C :    0.049447
  36 C :   -0.076189
  37 C :    0.083944
  38 C :   -0.200893
  39 S :    0.184748
  40 C :   -0.120927
  41 C :    0.105224
  42 C :    0.120306
  43 N :   -0.011000
  44 C :   -0.111001
  45 C :   -0.097475
  46 N :    0.132805
  47 C :   -0.007466
  48 C :    0.053876
  49 C :    0.018696
  50 C :   -0.117927
  51 S :    0.124344
  52 C :   -0.159169
  53 C :    0.188852
  54 O :   -0.155889
  55 O :   -0.151557
  56 C :   -0.048978
  57 C :    0.236625
  58 O :   -0.173371
  59 C :    0.108791
  60 C :   -0.117006
  61 C :    0.342310
  62 C :   -0.341138
  63 C :   -0.180236
  64 N :    0.160280
  65 C :   -0.197589
  66 N :    0.146038
  67 C :    0.041829
  68 C :   -0.004385
  69 C :    0.177419
  70 O :   -0.141881
  71 C :   -0.063249
  72 C :    0.083806
  73 C :    0.092828
  74 C :   -0.076844
  75 C :   -0.019715
  76 C :    0.040071
  77 C :    0.036374
  78 C :   -0.012554
  79 H :   -0.016476
  80 H :   -0.003446
  81 H :   -0.006185
  82 H :   -0.001684
  83 H :   -0.003279
  84 H :   -0.017725
  85 H :    0.057665
  86 H :   -0.007062
  87 H :   -0.000542
  88 H :   -0.009622
  89 H :    0.007563
  90 H :   -0.028468
  91 H :    0.023123
  92 H :    0.156501
  93 H :   -0.034372
  94 H :   -0.015974
  95 H :    0.012743
  96 H :    0.182339
  97 H :    0.040897
  98 H :    0.039601
  99 H :   -0.019549
 100 H :   -0.007106
 101 H :   -0.008789
 102 H :   -0.002032
 103 H :   -0.000503
 104 H :    0.002105
Sum of atomic charges:   -0.0000000

LOEWDIN ATOMIC CHARGES
----------------------
   0 C :    0.076970
   1 C :   -0.128050
   2 C :   -0.017941
   3 N :   -0.044781
   4 C :   -0.021540
   5 N :   -0.045824
   6 C :   -0.023291
   7 C :   -0.056438
   8 C :    0.034846
   9 C :   -0.008187
  10 C :   -0.003919
  11 C :    0.022567
  12 C :   -0.003971
  13 C :   -0.009504
  14 C :   -0.010158
  15 C :   -0.009088
  16 C :    0.096583
  17 O :   -0.147755
  18 C :   -0.080394
  19 C :    0.085184
  20 C :   -0.011913
  21 C :   -0.023844
  22 N :    0.286550
  23 O :   -0.203775
  24 O :   -0.212462
  25 C :   -0.017976
  26 C :   -0.024047
  27 C :    0.020606
  28 C :    0.057049
  29 C :   -0.066090
  30 C :    0.046158
  31 C :   -0.092386
  32 N :    0.289530
  33 O :   -0.224279
  34 O :   -0.262370
  35 C :    0.027740
  36 C :   -0.039752
  37 C :    0.018020
  38 C :   -0.205072
  39 S :    0.476885
  40 C :   -0.133587
  41 C :   -0.073035
  42 C :    0.016079
  43 N :    0.093298
  44 C :   -0.033678
  45 C :   -0.027457
  46 N :   -0.050229
  47 C :   -0.013276
  48 C :   -0.048543
  49 C :   -0.007461
  50 C :   -0.180064
  51 S :    0.445047
  52 C :   -0.215474
  53 C :    0.062552
  54 O :   -0.143856
  55 O :   -0.025643
  56 C :   -0.038650
  57 C :    0.019305
  58 O :    0.029374
  59 C :    0.147670
  60 C :   -0.120916
  61 C :    0.079912
  62 C :   -0.140115
  63 C :   -0.019021
  64 N :   -0.045009
  65 C :   -0.018928
  66 N :   -0.050865
  67 C :   -0.028247
  68 C :   -0.063541
  69 C :    0.099307
  70 O :   -0.153297
  71 C :    0.043042
  72 C :   -0.007005
  73 C :   -0.005151
  74 C :    0.023225
  75 C :   -0.006662
  76 C :   -0.008498
  77 C :   -0.008593
  78 C :   -0.001412
  79 H :    0.037817
  80 H :    0.040434
  81 H :    0.035939
  82 H :    0.034698
  83 H :    0.033724
  84 H :    0.031654
  85 H :    0.053839
  86 H :    0.035761
  87 H :    0.030292
  88 H :    0.028851
  89 H :    0.040780
  90 H :    0.021989
  91 H :    0.040596
  92 H :    0.104873
  93 H :    0.030440
  94 H :    0.025267
  95 H :    0.045546
  96 H :    0.081797
  97 H :    0.052240
  98 H :    0.034294
  99 H :    0.041209
 100 H :    0.039725
 101 H :    0.034818
 102 H :    0.034392
 103 H :    0.034732
 104 H :    0.039815

  Mayer bond orders larger than 0.100000
B(  0-C ,  1-C ) :   1.6788 B(  0-C ,  6-C ) :   1.0030 B(  0-C , 18-C ) :   1.0209
B(  1-C ,  2-C ) :   1.1345 B(  1-C ,  4-C ) :   1.1497 B(  2-C ,  3-N ) :   2.9765
B(  4-C ,  5-N ) :   2.9606 B(  6-C ,  7-C ) :   1.2116 B(  6-C , 11-C ) :   1.4500
B(  7-C ,  8-C ) :   1.4654 B(  7-C , 16-C ) :   0.9588 B(  8-C ,  9-C ) :   1.1836
B(  8-C , 79-H ) :   1.0160 B(  9-C , 10-C ) :   1.2540 B(  9-C , 15-C ) :   1.2429
B( 10-C , 11-C ) :   1.2057 B( 10-C , 12-C ) :   1.2402 B( 11-C , 80-H ) :   0.9919
B( 12-C , 13-C ) :   1.4896 B( 12-C , 81-H ) :   0.9977 B( 13-C , 14-C ) :   1.2596
B( 13-C , 82-H ) :   0.9882 B( 14-C , 15-C ) :   1.4902 B( 14-C , 83-H ) :   0.9885
B( 15-C , 84-H ) :   0.9973 B( 16-C , 17-O ) :   2.1391 B( 16-C , 18-C ) :   0.9499
B( 18-C , 19-C ) :   1.6933 B( 19-C , 20-C ) :   1.0719 B( 19-C , 85-H ) :   0.9242
B( 20-C , 21-C ) :   1.5442 B( 20-C , 27-C ) :   1.0878 B( 21-C , 22-N ) :   0.9388
B( 21-C , 25-C ) :   1.1506 B( 22-N , 23-O ) :   1.5329 B( 22-N , 24-O ) :   1.4922
B( 23-O , 24-O ) :   0.2654 B( 25-C , 26-C ) :   1.5638 B( 25-C , 86-H ) :   1.0165
B( 26-C , 27-C ) :   1.1338 B( 26-C , 87-H ) :   0.9976 B( 27-C , 28-C ) :   1.4198
B( 28-C , 29-C ) :   1.2182 B( 28-C , 35-C ) :   0.9929 B( 29-C , 30-C ) :   1.4841
B( 29-C , 88-H ) :   1.0017 B( 30-C , 31-C ) :   1.1746 B( 30-C , 89-H ) :   1.0111
B( 31-C , 32-N ) :   0.9953 B( 31-C , 35-C ) :   1.3686 B( 32-N , 33-O ) :   1.5278
B( 32-N , 34-O ) :   1.4551 B( 33-O , 34-O ) :   0.2332 B( 35-C , 36-C ) :   1.3568
B( 36-C , 37-C ) :   1.3902 B( 36-C , 90-H ) :   0.9390 B( 37-C , 38-C ) :   1.3032
B( 37-C , 91-H ) :   0.9265 B( 38-C , 39-S ) :   1.0842 B( 38-C , 42-C ) :   1.2608
B( 39-S , 40-C ) :   1.1590 B( 40-C , 41-C ) :   1.2551 B( 40-C , 48-C ) :   1.2036
B( 41-C , 42-C ) :   1.2640 B( 41-C , 47-C ) :   1.1761 B( 42-C , 43-N ) :   1.2343
B( 43-N , 44-C ) :   1.1896 B( 43-N , 92-H ) :   0.9249 B( 44-C , 45-C ) :   1.0612
B( 44-C , 47-C ) :   1.6027 B( 45-C , 46-N ) :   2.9737 B( 47-C , 93-H ) :   0.9813
B( 48-C , 49-C ) :   1.5730 B( 48-C , 94-H ) :   0.9575 B( 49-C , 50-C ) :   1.2196
B( 49-C , 95-H ) :   0.9630 B( 50-C , 51-S ) :   1.1207 B( 50-C , 57-C ) :   1.4147
B( 51-S , 52-C ) :   1.1101 B( 52-C , 53-C ) :   0.9250 B( 52-C , 56-C ) :   1.5223
B( 53-C , 54-O ) :   2.2021 B( 53-C , 55-O ) :   1.2427 B( 55-O , 96-H ) :   0.9493
B( 56-C , 57-C ) :   1.2110 B( 56-C , 97-H ) :   1.0071 B( 57-C , 58-O ) :   1.0870
B( 58-O , 59-C ) :   1.2064 B( 59-C , 60-C ) :   1.5759 B( 59-C , 98-H ) :   0.9386
B( 60-C , 61-C ) :   1.0803 B( 60-C , 69-C ) :   0.9453 B( 61-C , 62-C ) :   1.6446
B( 61-C , 67-C ) :   1.0010 B( 62-C , 63-C ) :   1.1440 B( 62-C , 65-C ) :   1.1427
B( 63-C , 64-N ) :   2.9691 B( 65-C , 66-N ) :   2.9654 B( 67-C , 68-C ) :   1.2058
B( 67-C , 74-C ) :   1.4511 B( 68-C , 69-C ) :   0.9659 B( 68-C , 71-C ) :   1.4459
B( 69-C , 70-O ) :   2.1262 B( 70-O , 93-H ) :   0.1191 B( 71-C , 72-C ) :   1.1938
B( 71-C , 99-H ) :   1.0177 B( 72-C , 73-C ) :   1.2458 B( 72-C , 78-C ) :   1.2487
B( 73-C , 74-C ) :   1.2069 B( 73-C , 75-C ) :   1.2427 B( 74-C ,100-H ) :   0.9894
B( 75-C , 76-C ) :   1.4868 B( 75-C ,101-H ) :   0.9970 B( 76-C , 77-C ) :   1.2598
B( 76-C ,102-H ) :   0.9889 B( 77-C , 78-C ) :   1.4802 B( 77-C ,103-H ) :   0.9903
B( 78-C ,104-H ) :   0.9981

-----------------------------------------------------------------------------
         ABSORPTION SPECTRUM VIA TRANSITION ELECTRIC DIPOLE MOMENTS
-----------------------------------------------------------------------------
State   Energy  Wavelength   fosc         T2         TX        TY        TZ
        (cm-1)    (nm)                  (au**2)     (au)      (au)      (au)
-----------------------------------------------------------------------------
   0    7557.3   1323.2   0.351630616  15.31769  -1.63256   3.52659   0.46435
   1   16627.8    601.4   0.424536998   8.40535  -0.70387   2.17596   1.78189
   2   16883.3    592.3   0.212123647   4.13625   1.02576  -1.24534  -1.23822
   3   19126.5    522.8   0.330070208   5.68130  -1.57767   1.71018   0.51723
   4   20095.7    497.6   0.056720882   0.92921   0.49740  -0.72201  -0.40063
   5   21717.2    460.5   0.117668164   1.78374   0.10604  -0.14741  -1.32316
   6   22345.1    447.5   0.025983423   0.38282   0.14875  -0.22971  -0.55491
   7   23368.4    427.9   0.001216360   0.01714   0.02560   0.03224   0.12426
   8   24485.9    408.4   0.106174163   1.42751   0.12511  -0.21954   1.16776
   9   25008.4    399.9   0.087810083   1.15594  -0.55387   0.78559  -0.48167
  10   25148.4    397.6   0.019001368   0.24874  -0.36712   0.29588  -0.16255
  11   25335.7    394.7   0.057955080   0.75307   0.56969   0.27480  -0.59415
  12   25634.1    390.1   0.101056480   1.29784  -1.05162   0.39838   0.18231
  13   26039.9    384.0   0.053034303   0.67049  -0.36386   0.14141   0.71979
  14   26374.7    379.2   0.016605328   0.20727  -0.14877   0.07988  -0.42280
  15   26857.6    372.3   0.008716062   0.10684  -0.29260  -0.01626   0.14477
  16   27107.3    368.9   0.000960105   0.01166  -0.04988  -0.06675   0.06868
  17   27788.6    359.9   0.154980321   1.83606  -0.00298   0.02625   1.35475
  18   27896.8    358.5   0.018997272   0.22419   0.39307  -0.15085  -0.21662
  19   28153.6    355.2   0.026640563   0.31152   0.21349   0.49572  -0.14215
  20   28762.7    347.7   0.093037434   1.06489   0.56532   0.48903   0.71144
  21   29330.0    340.9   0.377988760   4.24270   1.04446   0.71906  -1.62319
  22   29605.0    337.8   0.007904260   0.08790  -0.28545  -0.01833   0.07796
  23   29652.3    337.2   0.042206266   0.46859   0.39186  -0.18111  -0.53126
  24   29964.5    333.7   0.032412376   0.35611   0.10649   0.55578   0.18942
  25   30286.6    330.2   0.000137613   0.00150   0.00370  -0.01464   0.03561
  26   30544.0    327.4   0.000854265   0.00921  -0.02421   0.03720   0.08507
  27   30594.3    326.9   0.025475658   0.27413   0.47923   0.15895  -0.13859
  28   30892.2    323.7   0.313355545   3.33937  -0.67371   0.70617  -1.54493
  29   31062.8    321.9   0.078031485   0.82700  -0.88430  -0.01764   0.21141
  30   31265.5    319.8   0.008707416   0.09169  -0.05128   0.17025  -0.24509
  31   31492.4    317.5   0.001910714   0.01997   0.13766  -0.02732   0.01667
  32   31974.2    312.8   0.212617244   2.18915   0.16435   0.88408   1.17496
  33   32069.1    311.8   0.051581512   0.52952   0.60075  -0.30167  -0.27860
  34   32111.6    311.4   0.134285727   1.37671  -0.05453   0.34253  -1.12090
  35   32225.0    310.3   0.228372957   2.33307   0.78566   0.43290  -1.23629
  36   32549.9    307.2   0.175185610   1.77184  -1.02115  -0.37949  -0.76490
  37   33255.1    300.7   0.090208126   0.89302  -0.29162   0.74002  -0.51025
  38   33746.9    296.3   0.082918916   0.80890   0.09837  -0.51488  -0.73084
  39   33914.6    294.9   0.579889536   5.62904  -0.39929   1.12963   2.04782
  40   33971.9    294.4   0.003024109   0.02931   0.01142  -0.07463  -0.15364
  41   34073.0    293.5   0.108280379   1.04620  -0.56226  -0.85041  -0.08288
  42   34326.6    291.3   0.134362846   1.28862  -0.01504   0.38594   1.06745
  43   34557.1    289.4   0.006664546   0.06349   0.02041  -0.05953  -0.24399
  44   34763.7    287.7   0.358614108   3.39607   0.53742   1.57833   0.78494
  45   34802.9    287.3   0.315059317   2.98025  -0.26760   0.28303   1.68182
  46   34965.5    286.0   0.139269237   1.31127  -0.12453  -0.40294  -1.06461
  47   35158.3    284.4   0.039289741   0.36790   0.28033  -0.44629  -0.30023
  48   35397.2    282.5   0.011608818   0.10797  -0.13757  -0.29571   0.03996
  49   35501.5    281.7   0.118231917   1.09639  -0.17775  -0.14590  -1.02152
  50   35897.3    278.6   0.067248766   0.61673  -0.52271  -0.09482  -0.57838
  51   36091.4    277.1   0.045640885   0.41632   0.46677   0.33408  -0.29468
  52   36162.9    276.5   0.018588762   0.16922   0.08222  -0.03572   0.40148
  53   36388.6    274.8   0.020830663   0.18846   0.35258   0.10999   0.22814
  54   36633.3    273.0   0.046036282   0.41371   0.23256  -0.35793   0.48116
  55   37243.6    268.5   0.403128963   3.56342  -0.15382  -1.82290  -0.46563
  56   37376.3    267.5   0.068214970   0.60084  -0.65400   0.34480  -0.23289
  57   37502.9    266.6   0.116644640   1.02394   0.79453   0.41169  -0.47241
  58   37705.2    265.2   0.095523599   0.83404   0.69750  -0.12007   0.57717
  59   37936.8    263.6   0.203128577   1.76273  -0.23108   0.99947  -0.84285
  60   38118.9    262.3   0.007486504   0.06466   0.17750  -0.11741  -0.13916
  61   38254.4    261.4   0.131663984   1.13308  -0.49852   0.83144  -0.43963
  62   38589.3    259.1   0.031938528   0.27247   0.28240   0.10071   0.42729
  63   38717.3    258.3   0.081610642   0.69393  -0.29968  -0.00661   0.77723
  64   38952.2    256.7   0.022307469   0.18854  -0.23075   0.22339  -0.29221
  65   38994.2    256.4   0.065087777   0.54951  -0.45402   0.58592  -0.00834
  66   39191.6    255.2   0.136902249   1.14999   0.49839  -0.73172   0.60513
  67   39261.5    254.7   0.095160591   0.79793  -0.02332   0.21732  -0.86612
  68   39464.8    253.4   0.212158265   1.76980   0.67743  -0.76510   0.85178
  69   39544.3    252.9   0.008557885   0.07125  -0.06501  -0.02767  -0.25740
  70   39704.6    251.9   0.180120222   1.49347   0.75481   0.48774  -0.82816
  71   39789.2    251.3   0.097755404   0.80882   0.62723   0.03074  -0.64378
  72   40067.4    249.6   0.014104613   0.11589   0.33539  -0.00024  -0.05832
  73   40201.8    248.7   0.011816335   0.09676   0.13423  -0.04748  -0.27657

FINAL SINGLE POINT ENERGY     -4208.607522567237

DIPOLE MOMENT
-------------
                                X             Y             Z
Electronic contribution:    -10.22693      -6.87398      11.98923
Nuclear contribution   :     10.90511       8.93946     -11.56803
                        -----------------------------------------
Total Dipole Moment    :      0.67818       2.06548       0.42120
                        -----------------------------------------
Magnitude (a.u.)       :      2.21439
Magnitude (Debye)      :      5.62854

Rotational constants in cm-1:     0.001151     0.000315     0.000277
Rotational constants in MHz :    34.499988     9.449239     8.316492

                             ****ORCA TERMINATED NORMALLY****
TOTAL RUN TIME: 0 days 0 hours 16 minutes 55 seconds 417 msec
