                         Program Version 4.2.0 -  RELEASE  -
|  1> # ORCA input file
|  2> # SCF done       -216.020246572612          0.000575831114
|  3> ! CAM-B3LYP def2-SVP def2/J RIJCOSX Grid4 TightSCF
|  4> %maxcore 5000
|  5> %tddft
|  6>     Mode sTDDFT
|  7>     Ethresh 5.0
|  8>     maxcore 5000
|  9> end
| 10>
| 11> %pal
| 12>   nprocs 6
| 13>   end
| 14> * xyz 0 1
| 15>    C        1.90507         0.75818        -1.39436
| 16>    C        3.25886         0.58367        -1.32757
| 17>    F        4.07868         1.63790        -1.41385
| 18>    C        3.80967        -0.70470        -1.16836
| 19>    F        5.13959        -0.84547        -1.10658
| 20>    C        2.99813        -1.80075        -1.07991
| 21>    C        1.59881        -1.65396        -1.14780
| 22>    C        1.04032        -0.35167        -1.30554
| 23>    C       -0.36055        -0.17925        -1.37253
| 24>    C       -1.17975        -1.27496        -1.28226
| 25>    C       -0.61228        -2.57156        -1.12998
| 26>    C        0.73748        -2.76953        -1.06766
| 27>    C       -1.68579        -3.57355        -1.07813
| 28>    O       -1.56536        -4.77656        -1.16378
| 29>    C       -2.96112        -2.79588        -1.10239
| 30>    C       -2.63386        -1.39461        -1.30619
| 31>    C       -3.52072        -0.36111        -1.43867
| 32>    C       -4.92570        -0.49696        -1.43620
| 33>    N       -6.07265        -0.53923        -1.44384
| 34>    C       -3.14456         0.98949        -1.60608
| 35>    N       -2.90239         2.10136        -1.75308
| 36>    C       -4.18729        -3.37120        -1.03210
| 37>    C       -4.37966        -4.69834        -0.54212
| 38>    S       -5.57253        -5.78682        -1.21544
| 39>    C       -5.16336        -7.06736        -0.09206
| 40>    C       -4.22224        -6.61231         0.79598
| 41>    C       -3.76144        -5.30341         0.52423
| 42>    C       -2.73255        -4.95145         1.51953
| 43>    O       -2.09198        -3.94091         1.65996
| 44>    N       -2.63934        -6.08051         2.31797
| 45>    C       -3.48313        -7.13296         1.95815
| 46>    O       -3.54352        -8.19138         2.52185
| 47>    C       -5.79435        -8.35137        -0.19611
| 48>    C       -6.53626        -8.96913         0.77022
| 49>    C       -7.19725       -10.10649         0.19760
| 50>    O       -7.92379       -10.85995         1.01607
| 51>    C       -8.64498       -11.98871         0.56642
| 52>    C       -6.85769       -10.19829        -1.15992
| 53>    C       -5.96080        -9.08929        -1.44311
| 54>    C       -5.34639        -8.72936        -2.61970
| 55>    C       -4.12432        -7.99424        -2.73554
| 56>    C       -3.86078        -7.81644        -4.06309
| 57>    O       -2.82682        -7.24768        -4.67473
| 58>    C       -1.77812        -6.76435        -3.85851
| 59>    C       -4.96854        -8.38374        -4.84342
| 60>    C       -5.82744        -8.96083        -3.99044
| 61>    C       -7.14975       -11.27166        -2.04587
| 62>    C       -6.35123       -11.69550        -3.06194
| 63>    C       -6.70988       -12.72897        -3.95509
| 64>    S       -5.59272       -13.16657        -5.22580
| 65>    C       -6.64066       -14.42020        -5.87187
| 66>    C       -7.80445       -14.44786        -5.12856
| 67>    C       -7.85106       -13.51344        -4.06872
| 68>    C       -9.13961       -13.65791        -3.38930
| 69>    O       -9.60565       -13.09192        -2.42708
| 70>    N       -9.80479       -14.64547        -4.10592
| 71>    C       -9.09134       -15.15988        -5.17434
| 72>    O       -9.50165       -15.99787        -5.94002
| 73>    C       -6.22699       -15.11258        -7.03210
| 74>    C       -6.63486       -16.30099        -7.55533
| 75>    C       -6.35039       -16.56011        -9.00065
| 76>    O       -5.59559       -15.93490        -9.70724
| 77>    C       -7.22449       -17.68907        -9.36904
| 78>    C       -7.46665       -18.22191       -10.60262
| 79>    C       -8.39624       -19.27937       -10.72187
| 80>    C       -9.06039       -19.76225        -9.55658
| 81>    C       -9.99761       -20.80683        -9.68606
| 82>    C      -10.26205       -21.34760       -10.91301
| 83>    C       -9.60351       -20.87055       -12.06410
| 84>    C       -8.68938       -19.85872       -11.97192
| 85>    F       -9.88346       -21.41844       -13.25465
| 86>    F      -11.15375       -22.33997       -11.03392
| 87>    C       -8.78053       -19.19768        -8.29095
| 88>    C       -7.87075       -18.17955        -8.19893
| 89>    C       -7.39619       -17.41817        -7.04716
| 90>    C       -7.48563       -17.82724        -5.74351
| 91>    C       -6.87537       -17.15415        -4.66982
| 92>    N       -6.39302       -16.63360        -3.76683
| 93>    C       -8.15609       -18.99659        -5.32899
| 94>    N       -8.68315       -19.93605        -4.93373
| 95>    H        1.50067         1.75104        -1.51507
| 96>    H        3.43485        -2.77960        -0.95829
| 97>    H       -0.75046         0.81840        -1.49380
| 98>    H        1.13992        -3.76408        -0.95075
| 99>    H       -5.07743        -2.82870        -1.32134
|100>    H       -2.00061        -6.14336         3.09830
|101>    H       -6.65548        -8.65972         1.79031
|102>    H       -9.11056       -12.40507         1.45880
|103>    H       -7.97931       -12.73343         0.12347
|104>    H       -9.42079       -11.71828        -0.15219
|105>    H       -3.48248        -7.74635        -1.91326
|106>    H       -1.06516        -6.28954        -4.52935
|107>    H       -1.29147        -7.58674        -3.32760
|108>    H       -2.13769        -6.03804        -3.12498
|109>    H       -5.03190        -8.31730        -5.91205
|110>    H       -6.77002        -9.41540        -4.22375
|111>    H       -8.07278       -11.80796        -1.89219
|112>    H       -5.37765       -11.25346        -3.21788
|113>    H      -10.73560       -14.95745        -3.86832
|114>    H       -5.50752       -14.58005        -7.64969
|115>    H       -6.96250       -17.83814       -11.47651
|116>    H      -10.50882       -21.18486        -8.81457
|117>    H       -8.19486       -19.50417       -12.86269
|118>    H       -9.30683       -19.56912        -7.42664
|119> *
|120>
|121>                          ****END OF INPUT****

CARTESIAN COORDINATES (ANGSTROEM)
---------------------------------
  C      1.905070    0.758180   -1.394360
  C      3.258860    0.583670   -1.327570
  F      4.078680    1.637900   -1.413850
  C      3.809670   -0.704700   -1.168360
  F      5.139590   -0.845470   -1.106580
  C      2.998130   -1.800750   -1.079910
  C      1.598810   -1.653960   -1.147800
  C      1.040320   -0.351670   -1.305540
  C     -0.360550   -0.179250   -1.372530
  C     -1.179750   -1.274960   -1.282260
  C     -0.612280   -2.571560   -1.129980
  C      0.737480   -2.769530   -1.067660
  C     -1.685790   -3.573550   -1.078130
  O     -1.565360   -4.776560   -1.163780
  C     -2.961120   -2.795880   -1.102390
  C     -2.633860   -1.394610   -1.306190
  C     -3.520720   -0.361110   -1.438670
  C     -4.925700   -0.496960   -1.436200
  N     -6.072650   -0.539230   -1.443840
  C     -3.144560    0.989490   -1.606080
  N     -2.902390    2.101360   -1.753080
  C     -4.187290   -3.371200   -1.032100
  C     -4.379660   -4.698340   -0.542120
  S     -5.572530   -5.786820   -1.215440
  C     -5.163360   -7.067360   -0.092060
  C     -4.222240   -6.612310    0.795980
  C     -3.761440   -5.303410    0.524230
  C     -2.732550   -4.951450    1.519530
  O     -2.091980   -3.940910    1.659960
  N     -2.639340   -6.080510    2.317970
  C     -3.483130   -7.132960    1.958150
  O     -3.543520   -8.191380    2.521850
  C     -5.794350   -8.351370   -0.196110
  C     -6.536260   -8.969130    0.770220
  C     -7.197250  -10.106490    0.197600
  O     -7.923790  -10.859950    1.016070
  C     -8.644980  -11.988710    0.566420
  C     -6.857690  -10.198290   -1.159920
  C     -5.960800   -9.089290   -1.443110
  C     -5.346390   -8.729360   -2.619700
  C     -4.124320   -7.994240   -2.735540
  C     -3.860780   -7.816440   -4.063090
  O     -2.826820   -7.247680   -4.674730
  C     -1.778120   -6.764350   -3.858510
  C     -4.968540   -8.383740   -4.843420
  C     -5.827440   -8.960830   -3.990440
  C     -7.149750  -11.271660   -2.045870
  C     -6.351230  -11.695500   -3.061940
  C     -6.709880  -12.728970   -3.955090
  S     -5.592720  -13.166570   -5.225800
  C     -6.640660  -14.420200   -5.871870
  C     -7.804450  -14.447860   -5.128560
  C     -7.851060  -13.513440   -4.068720
  C     -9.139610  -13.657910   -3.389300
  O     -9.605650  -13.091920   -2.427080
  N     -9.804790  -14.645470   -4.105920
  C     -9.091340  -15.159880   -5.174340
  O     -9.501650  -15.997870   -5.940020
  C     -6.226990  -15.112580   -7.032100
  C     -6.634860  -16.300990   -7.555330
  C     -6.350390  -16.560110   -9.000650
  O     -5.595590  -15.934900   -9.707240
  C     -7.224490  -17.689070   -9.369040
  C     -7.466650  -18.221910  -10.602620
  C     -8.396240  -19.279370  -10.721870
  C     -9.060390  -19.762250   -9.556580
  C     -9.997610  -20.806830   -9.686060
  C    -10.262050  -21.347600  -10.913010
  C     -9.603510  -20.870550  -12.064100
  C     -8.689380  -19.858720  -11.971920
  F     -9.883460  -21.418440  -13.254650
  F    -11.153750  -22.339970  -11.033920
  C     -8.780530  -19.197680   -8.290950
  C     -7.870750  -18.179550   -8.198930
  C     -7.396190  -17.418170   -7.047160
  C     -7.485630  -17.827240   -5.743510
  C     -6.875370  -17.154150   -4.669820
  N     -6.393020  -16.633600   -3.766830
  C     -8.156090  -18.996590   -5.328990
  N     -8.683150  -19.936050   -4.933730
  H      1.500670    1.751040   -1.515070
  H      3.434850   -2.779600   -0.958290
  H     -0.750460    0.818400   -1.493800
  H      1.139920   -3.764080   -0.950750
  H     -5.077430   -2.828700   -1.321340
  H     -2.000610   -6.143360    3.098300
  H     -6.655480   -8.659720    1.790310
  H     -9.110560  -12.405070    1.458800
  H     -7.979310  -12.733430    0.123470
  H     -9.420790  -11.718280   -0.152190
  H     -3.482480   -7.746350   -1.913260
  H     -1.065160   -6.289540   -4.529350
  H     -1.291470   -7.586740   -3.327600
  H     -2.137690   -6.038040   -3.124980
  H     -5.031900   -8.317300   -5.912050
  H     -6.770020   -9.415400   -4.223750
  H     -8.072780  -11.807960   -1.892190
  H     -5.377650  -11.253460   -3.217880
  H    -10.735600  -14.957450   -3.868320
  H     -5.507520  -14.580050   -7.649690
  H     -6.962500  -17.838140  -11.476510
  H    -10.508820  -21.184860   -8.814570
  H     -8.194860  -19.504170  -12.862690
  H     -9.306830  -19.569120   -7.426640

 Total Charge           Charge          ....    0
 Multiplicity           Mult            ....    1
 Number of Electrons    NEL             ....  558
 Basis Dimension        Dim             .... 1248

ORBITAL ENERGIES
----------------

  NO   OCC          E(Eh)            E(eV)
   0   2.0000     -88.987173     -2421.4641
   1   2.0000     -88.978654     -2421.2323
   2   2.0000     -24.805299      -674.9865
   3   2.0000     -24.804118      -674.9544
   4   2.0000     -24.796160      -674.7378
   5   2.0000     -24.795519      -674.7204
   6   2.0000     -19.269304      -524.3444
   7   2.0000     -19.267989      -524.3086
   8   2.0000     -19.230105      -523.2777
   9   2.0000     -19.222761      -523.0779
  10   2.0000     -19.221724      -523.0497
  11   2.0000     -19.220958      -523.0289
  12   2.0000     -19.218374      -522.9586
  13   2.0000     -19.218118      -522.9516
  14   2.0000     -14.463321      -393.5670
  15   2.0000     -14.462512      -393.5450
  16   2.0000     -14.427874      -392.6024
  17   2.0000     -14.426224      -392.5575
  18   2.0000     -14.418404      -392.3447
  19   2.0000     -14.413505      -392.2114
  20   2.0000     -10.407656      -283.2067
  21   2.0000     -10.406370      -283.1717
  22   2.0000     -10.406241      -283.1682
  23   2.0000     -10.405361      -283.1443
  24   2.0000     -10.388982      -282.6986
  25   2.0000     -10.388303      -282.6801
  26   2.0000     -10.383238      -282.5423
  27   2.0000     -10.378933      -282.4251
  28   2.0000     -10.378587      -282.4157
  29   2.0000     -10.368634      -282.1449
  30   2.0000     -10.355916      -281.7988
  31   2.0000     -10.354695      -281.7656
  32   2.0000     -10.353185      -281.7245
  33   2.0000     -10.346318      -281.5376
  34   2.0000     -10.344399      -281.4854
  35   2.0000     -10.340988      -281.3926
  36   2.0000     -10.340862      -281.3892
  37   2.0000     -10.338286      -281.3191
  38   2.0000     -10.338005      -281.3114
  39   2.0000     -10.334559      -281.2176
  40   2.0000     -10.333719      -281.1948
  41   2.0000     -10.329755      -281.0869
  42   2.0000     -10.328377      -281.0494
  43   2.0000     -10.327435      -281.0238
  44   2.0000     -10.325926      -280.9827
  45   2.0000     -10.323704      -280.9223
  46   2.0000     -10.318825      -280.7895
  47   2.0000     -10.318776      -280.7882
  48   2.0000     -10.318575      -280.7827
  49   2.0000     -10.316983      -280.7394
  50   2.0000     -10.316223      -280.7187
  51   2.0000     -10.316164      -280.7171
  52   2.0000     -10.311620      -280.5935
  53   2.0000     -10.310820      -280.5717
  54   2.0000     -10.309154      -280.5263
  55   2.0000     -10.308651      -280.5127
  56   2.0000     -10.308452      -280.5072
  57   2.0000     -10.308173      -280.4996
  58   2.0000     -10.307883      -280.4918
  59   2.0000     -10.307498      -280.4813
  60   2.0000     -10.306719      -280.4601
  61   2.0000     -10.304315      -280.3947
  62   2.0000     -10.304145      -280.3900
  63   2.0000     -10.303534      -280.3734
  64   2.0000     -10.302372      -280.3418
  65   2.0000     -10.302279      -280.3393
  66   2.0000     -10.301957      -280.3305
  67   2.0000     -10.301404      -280.3155
  68   2.0000     -10.299082      -280.2523
  69   2.0000     -10.298441      -280.2348
  70   2.0000     -10.297845      -280.2186
  71   2.0000     -10.294863      -280.1375
  72   2.0000     -10.294599      -280.1303
  73   2.0000     -10.292060      -280.0612
  74   2.0000     -10.289004      -279.9780
  75   2.0000     -10.284074      -279.8439
  76   2.0000     -10.284024      -279.8425
  77   2.0000     -10.282658      -279.8054
  78   2.0000     -10.282163      -279.7919
  79   2.0000     -10.258218      -279.1403
  80   2.0000      -8.081647      -219.9128
  81   2.0000      -8.074254      -219.7116
  82   2.0000      -6.051089      -164.6585
  83   2.0000      -6.046634      -164.5373
  84   2.0000      -6.043803      -164.4602
  85   2.0000      -6.043606      -164.4549
  86   2.0000      -6.039358      -164.3393
  87   2.0000      -6.036240      -164.2544
  88   2.0000      -1.328015       -36.1371
  89   2.0000      -1.318690       -35.8834
  90   2.0000      -1.313094       -35.7311
  91   2.0000      -1.303838       -35.4792
  92   2.0000      -1.173484       -31.9321
  93   2.0000      -1.172452       -31.9040
  94   2.0000      -1.166381       -31.7388
  95   2.0000      -1.165572       -31.7168
  96   2.0000      -1.147693       -31.2303
  97   2.0000      -1.144857       -31.1531
  98   2.0000      -1.142169       -31.0800
  99   2.0000      -1.133865       -30.8540
 100   2.0000      -1.054423       -28.6923
 101   2.0000      -1.054199       -28.6862
 102   2.0000      -1.030567       -28.0432
 103   2.0000      -1.019614       -27.7451
 104   2.0000      -1.014337       -27.6015
 105   2.0000      -1.013192       -27.5704
 106   2.0000      -1.005356       -27.3571
 107   2.0000      -1.004195       -27.3255
 108   2.0000      -1.002678       -27.2843
 109   2.0000      -0.993701       -27.0400
 110   2.0000      -0.992580       -27.0095
 111   2.0000      -0.988222       -26.8909
 112   2.0000      -0.979328       -26.6489
 113   2.0000      -0.966733       -26.3061
 114   2.0000      -0.942415       -25.6444
 115   2.0000      -0.932340       -25.3703
 116   2.0000      -0.922617       -25.1057
 117   2.0000      -0.917352       -24.9624
 118   2.0000      -0.903042       -24.5730
 119   2.0000      -0.900857       -24.5136
 120   2.0000      -0.895033       -24.3551
 121   2.0000      -0.890797       -24.2398
 122   2.0000      -0.883805       -24.0496
 123   2.0000      -0.882123       -24.0038
 124   2.0000      -0.874148       -23.7868
 125   2.0000      -0.862969       -23.4826
 126   2.0000      -0.854898       -23.2629
 127   2.0000      -0.849033       -23.1034
 128   2.0000      -0.838619       -22.8200
 129   2.0000      -0.837895       -22.8003
 130   2.0000      -0.828071       -22.5329
 131   2.0000      -0.816217       -22.2104
 132   2.0000      -0.810557       -22.0564
 133   2.0000      -0.800371       -21.7792
 134   2.0000      -0.792889       -21.5756
 135   2.0000      -0.787459       -21.4279
 136   2.0000      -0.777729       -21.1631
 137   2.0000      -0.765814       -20.8389
 138   2.0000      -0.762802       -20.7569
 139   2.0000      -0.756060       -20.5734
 140   2.0000      -0.749614       -20.3980
 141   2.0000      -0.743324       -20.2269
 142   2.0000      -0.741967       -20.1900
 143   2.0000      -0.734491       -19.9865
 144   2.0000      -0.730994       -19.8914
 145   2.0000      -0.724171       -19.7057
 146   2.0000      -0.717965       -19.5368
 147   2.0000      -0.716130       -19.4869
 148   2.0000      -0.711543       -19.3621
 149   2.0000      -0.704282       -19.1645
 150   2.0000      -0.694397       -18.8955
 151   2.0000      -0.685879       -18.6637
 152   2.0000      -0.681041       -18.5321
 153   2.0000      -0.674132       -18.3441
 154   2.0000      -0.669566       -18.2198
 155   2.0000      -0.665922       -18.1207
 156   2.0000      -0.663227       -18.0473
 157   2.0000      -0.653318       -17.7777
 158   2.0000      -0.651237       -17.7211
 159   2.0000      -0.647565       -17.6211
 160   2.0000      -0.640945       -17.4410
 161   2.0000      -0.639243       -17.3947
 162   2.0000      -0.637553       -17.3487
 163   2.0000      -0.628329       -17.0977
 164   2.0000      -0.625105       -17.0100
 165   2.0000      -0.619957       -16.8699
 166   2.0000      -0.616175       -16.7670
 167   2.0000      -0.612619       -16.6702
 168   2.0000      -0.604711       -16.4550
 169   2.0000      -0.600778       -16.3480
 170   2.0000      -0.598661       -16.2904
 171   2.0000      -0.595080       -16.1929
 172   2.0000      -0.594858       -16.1869
 173   2.0000      -0.592331       -16.1182
 174   2.0000      -0.591080       -16.0841
 175   2.0000      -0.587419       -15.9845
 176   2.0000      -0.583360       -15.8740
 177   2.0000      -0.582683       -15.8556
 178   2.0000      -0.578741       -15.7483
 179   2.0000      -0.574487       -15.6326
 180   2.0000      -0.574054       -15.6208
 181   2.0000      -0.573004       -15.5922
 182   2.0000      -0.570163       -15.5149
 183   2.0000      -0.567510       -15.4427
 184   2.0000      -0.565488       -15.3877
 185   2.0000      -0.561699       -15.2846
 186   2.0000      -0.561305       -15.2739
 187   2.0000      -0.555850       -15.1254
 188   2.0000      -0.553793       -15.0695
 189   2.0000      -0.552433       -15.0325
 190   2.0000      -0.551501       -15.0071
 191   2.0000      -0.548417       -14.9232
 192   2.0000      -0.545227       -14.8364
 193   2.0000      -0.544941       -14.8286
 194   2.0000      -0.543796       -14.7974
 195   2.0000      -0.541269       -14.7287
 196   2.0000      -0.539525       -14.6812
 197   2.0000      -0.539251       -14.6738
 198   2.0000      -0.534077       -14.5330
 199   2.0000      -0.529936       -14.4203
 200   2.0000      -0.528320       -14.3763
 201   2.0000      -0.527373       -14.3505
 202   2.0000      -0.526298       -14.3213
 203   2.0000      -0.525880       -14.3099
 204   2.0000      -0.524243       -14.2654
 205   2.0000      -0.522040       -14.2054
 206   2.0000      -0.519366       -14.1327
 207   2.0000      -0.516599       -14.0574
 208   2.0000      -0.512737       -13.9523
 209   2.0000      -0.511628       -13.9221
 210   2.0000      -0.509704       -13.8698
 211   2.0000      -0.504987       -13.7414
 212   2.0000      -0.504411       -13.7257
 213   2.0000      -0.502832       -13.6827
 214   2.0000      -0.498370       -13.5613
 215   2.0000      -0.495593       -13.4858
 216   2.0000      -0.493403       -13.4262
 217   2.0000      -0.488265       -13.2864
 218   2.0000      -0.487435       -13.2638
 219   2.0000      -0.483997       -13.1702
 220   2.0000      -0.482956       -13.1419
 221   2.0000      -0.480846       -13.0845
 222   2.0000      -0.480176       -13.0663
 223   2.0000      -0.478576       -13.0227
 224   2.0000      -0.477349       -12.9893
 225   2.0000      -0.475291       -12.9333
 226   2.0000      -0.471415       -12.8278
 227   2.0000      -0.469252       -12.7690
 228   2.0000      -0.464887       -12.6502
 229   2.0000      -0.464081       -12.6283
 230   2.0000      -0.461025       -12.5451
 231   2.0000      -0.460144       -12.5212
 232   2.0000      -0.459790       -12.5115
 233   2.0000      -0.455723       -12.4009
 234   2.0000      -0.454676       -12.3724
 235   2.0000      -0.452662       -12.3176
 236   2.0000      -0.451260       -12.2794
 237   2.0000      -0.447520       -12.1776
 238   2.0000      -0.445666       -12.1272
 239   2.0000      -0.443032       -12.0555
 240   2.0000      -0.441964       -12.0264
 241   2.0000      -0.439743       -11.9660
 242   2.0000      -0.437355       -11.9010
 243   2.0000      -0.434521       -11.8239
 244   2.0000      -0.432905       -11.7799
 245   2.0000      -0.428331       -11.6555
 246   2.0000      -0.425499       -11.5784
 247   2.0000      -0.422094       -11.4857
 248   2.0000      -0.421280       -11.4636
 249   2.0000      -0.420039       -11.4298
 250   2.0000      -0.418591       -11.3904
 251   2.0000      -0.412448       -11.2233
 252   2.0000      -0.409339       -11.1387
 253   2.0000      -0.404787       -11.0148
 254   2.0000      -0.395678       -10.7669
 255   2.0000      -0.391990       -10.6666
 256   2.0000      -0.386646       -10.5212
 257   2.0000      -0.381926       -10.3927
 258   2.0000      -0.377164       -10.2632
 259   2.0000      -0.375023       -10.2049
 260   2.0000      -0.372430       -10.1343
 261   2.0000      -0.371763       -10.1162
 262   2.0000      -0.364971        -9.9314
 263   2.0000      -0.357241        -9.7210
 264   2.0000      -0.356424        -9.6988
 265   2.0000      -0.353021        -9.6062
 266   2.0000      -0.349250        -9.5036
 267   2.0000      -0.346363        -9.4250
 268   2.0000      -0.343440        -9.3455
 269   2.0000      -0.337325        -9.1791
 270   2.0000      -0.326566        -8.8863
 271   2.0000      -0.319750        -8.7008
 272   2.0000      -0.313391        -8.5278
 273   2.0000      -0.309054        -8.4098
 274   2.0000      -0.305212        -8.3052
 275   2.0000      -0.298776        -8.1301
 276   2.0000      -0.295074        -8.0294
 277   2.0000      -0.277706        -7.5568
 278   2.0000      -0.248284        -6.7562
 279   0.0000      -0.109493        -2.9795
 280   0.0000      -0.098661        -2.6847
 281   0.0000      -0.089962        -2.4480
 282   0.0000      -0.071882        -1.9560
 283   0.0000      -0.058016        -1.5787

MULLIKEN ATOMIC CHARGES
-----------------------
   0 C :   -0.104393
   1 C :    0.242496
   2 F :   -0.168399
   3 C :    0.240527
   4 F :   -0.169670
   5 C :   -0.101644
   6 C :    0.112677
   7 C :    0.112469
   8 C :   -0.085331
   9 C :    0.063419
  10 C :    0.004358
  11 C :   -0.071398
  12 C :    0.164965
  13 O :   -0.164279
  14 C :   -0.056687
  15 C :    0.307425
  16 C :   -0.336313
  17 C :   -0.193802
  18 N :    0.159959
  19 C :   -0.178782
  20 N :    0.155618
  21 C :    0.000095
  22 C :   -0.167073
  23 S :    0.227967
  24 C :   -0.257158
  25 C :    0.040795
  26 C :    0.030174
  27 C :    0.177529
  28 O :   -0.160008
  29 N :   -0.156821
  30 C :    0.160933
  31 O :   -0.130382
  32 C :    0.080498
  33 C :   -0.017377
  34 C :    0.163922
  35 O :   -0.265841
  36 C :    0.170462
  37 C :   -0.017497
  38 C :    0.090538
  39 C :   -0.073807
  40 C :   -0.158934
  41 C :    0.209974
  42 O :   -0.269662
  43 C :    0.171473
  44 C :    0.013949
  45 C :    0.018001
  46 C :   -0.028265
  47 C :    0.008371
  48 C :   -0.115992
  49 S :    0.174565
  50 C :   -0.165873
  51 C :    0.006929
  52 C :   -0.038968
  53 C :    0.190453
  54 O :   -0.177599
  55 N :   -0.137802
  56 C :    0.173495
  57 O :   -0.150884
  58 C :    0.065502
  59 C :   -0.135076
  60 C :    0.133180
  61 O :   -0.140106
  62 C :    0.018095
  63 C :   -0.081046
  64 C :    0.108476
  65 C :    0.109614
  66 C :   -0.104489
  67 C :    0.240506
  68 C :    0.237289
  69 C :   -0.100811
  70 F :   -0.172868
  71 F :   -0.172368
  72 C :   -0.073884
  73 C :    0.030485
  74 C :    0.340329
  75 C :   -0.322905
  76 C :   -0.223956
  77 N :    0.170153
  78 C :   -0.182863
  79 N :    0.159903
  80 H :    0.009085
  81 H :    0.000128
  82 H :   -0.004032
  83 H :   -0.012002
  84 H :    0.038068
  85 H :    0.139740
  86 H :   -0.009209
  87 H :    0.037855
  88 H :    0.043065
  89 H :    0.058167
  90 H :   -0.008570
  91 H :    0.036518
  92 H :    0.028822
  93 H :    0.038658
  94 H :   -0.010579
  95 H :    0.000844
  96 H :    0.003345
  97 H :   -0.002124
  98 H :    0.139739
  99 H :    0.024822
 100 H :   -0.010919
 101 H :    0.005091
 102 H :   -0.001629
 103 H :   -0.001440
Sum of atomic charges:    0.0000000

LOEWDIN ATOMIC CHARGES
----------------------
   0 C :   -0.028393
   1 C :    0.068540
   2 F :   -0.046133
   3 C :    0.069280
   4 F :   -0.047001
   5 C :   -0.032375
   6 C :   -0.007392
   7 C :   -0.004353
   8 C :    0.019603
   9 C :   -0.019272
  10 C :   -0.047577
  11 C :    0.035106
  12 C :    0.096569
  13 O :   -0.147412
  14 C :   -0.065323
  15 C :    0.075291
  16 C :   -0.127518
  17 C :   -0.019588
  18 N :   -0.042608
  19 C :   -0.017142
  20 N :   -0.044924
  21 C :    0.048583
  22 C :   -0.158113
  23 S :    0.505516
  24 C :   -0.110319
  25 C :   -0.097881
  26 C :   -0.068344
  27 C :    0.089482
  28 O :   -0.161609
  29 N :    0.000730
  30 C :    0.087415
  31 O :   -0.147473
  32 C :   -0.045667
  33 C :    0.008483
  34 C :    0.074560
  35 O :   -0.063165
  36 C :    0.085864
  37 C :   -0.110904
  38 C :    0.007078
  39 C :    0.022575
  40 C :   -0.151915
  41 C :    0.066562
  42 O :   -0.066815
  43 C :    0.081787
  44 C :   -0.017491
  45 C :   -0.016649
  46 C :    0.031419
  47 C :   -0.083629
  48 C :   -0.098442
  49 S :    0.469967
  50 C :   -0.157444
  51 C :   -0.062912
  52 C :   -0.117929
  53 C :    0.096668
  54 O :   -0.174089
  55 N :    0.007876
  56 C :    0.085935
  57 O :   -0.152673
  58 C :    0.033753
  59 C :   -0.072848
  60 C :    0.085685
  61 O :   -0.139313
  62 C :   -0.054999
  63 C :    0.030930
  64 C :   -0.010491
  65 C :   -0.004621
  66 C :   -0.029852
  67 C :    0.066797
  68 C :    0.065671
  69 C :   -0.032938
  70 F :   -0.050514
  71 F :   -0.049513
  72 C :    0.017925
  73 C :   -0.013672
  74 C :    0.075606
  75 C :   -0.127965
  76 C :   -0.017220
  77 N :   -0.048020
  78 C :   -0.016279
  79 N :   -0.052970
  80 H :    0.048463
  81 H :    0.045150
  82 H :    0.040614
  83 H :    0.040088
  84 H :    0.047684
  85 H :    0.096161
  86 H :    0.036348
  87 H :    0.031940
  88 H :    0.025375
  89 H :    0.025918
  90 H :    0.023027
  91 H :    0.028484
  92 H :    0.021937
  93 H :    0.018629
  94 H :    0.031450
  95 H :    0.029862
  96 H :    0.031881
  97 H :    0.031219
  98 H :    0.097241
  99 H :    0.046597
 100 H :    0.039981
 101 H :    0.047186
 102 H :    0.044305
 103 H :    0.040893

  Mayer bond orders larger than 0.100000
B(  0-C ,  1-C ) :   1.4442 B(  0-C ,  5-C ) :   0.1077 B(  0-C ,  7-C ) :   1.1853
B(  0-C , 80-H ) :   1.0072 B(  1-C ,  2-F ) :   1.1379 B(  1-C ,  3-C ) :   1.1863
B(  3-C ,  4-F ) :   1.1354 B(  3-C ,  5-C ) :   1.4448 B(  5-C ,  6-C ) :   1.1913
B(  5-C , 81-H ) :   1.0074 B(  6-C ,  7-C ) :   1.2526 B(  6-C , 11-C ) :   1.1938
B(  7-C ,  8-C ) :   1.2250 B(  8-C ,  9-C ) :   1.4369 B(  8-C , 82-H ) :   0.9894
B(  9-C , 10-C ) :   1.2219 B(  9-C , 15-C ) :   0.9996 B( 10-C , 11-C ) :   1.4676
B( 10-C , 12-C ) :   0.9474 B( 11-C , 83-H ) :   1.0163 B( 12-C , 13-O ) :   2.1589
B( 12-C , 14-C ) :   0.9178 B( 14-C , 15-C ) :   1.0614 B( 14-C , 21-C ) :   1.6928
B( 15-C , 16-C ) :   1.6525 B( 16-C , 17-C ) :   1.1419 B( 16-C , 19-C ) :   1.1402
B( 17-C , 18-N ) :   2.9714 B( 19-C , 20-N ) :   2.9637 B( 21-C , 22-C ) :   1.0720
B( 21-C , 84-H ) :   0.9320 B( 22-C , 23-S ) :   1.1273 B( 22-C , 26-C ) :   1.5410
B( 23-S , 24-C ) :   1.1914 B( 24-C , 25-C ) :   1.5381 B( 24-C , 32-C ) :   1.0070
B( 25-C , 26-C ) :   1.2639 B( 25-C , 30-C ) :   0.8738 B( 26-C , 27-C ) :   0.8784
B( 27-C , 28-O ) :   2.2078 B( 27-C , 29-N ) :   1.1056 B( 29-N , 30-C ) :   1.0648
B( 29-N , 85-H ) :   0.9142 B( 30-C , 31-O ) :   2.2777 B( 32-C , 33-C ) :   1.5616
B( 32-C , 38-C ) :   1.1135 B( 33-C , 34-C ) :   1.1303 B( 33-C , 86-H ) :   1.0267
B( 34-C , 35-O ) :   1.2479 B( 34-C , 37-C ) :   1.3960 B( 35-O , 36-C ) :   0.9204
B( 36-C , 87-H ) :   0.9743 B( 36-C , 88-H ) :   0.9678 B( 36-C , 89-H ) :   0.9658
B( 37-C , 38-C ) :   1.0609 B( 37-C , 46-C ) :   1.1330 B( 38-C , 39-C ) :   1.5032
B( 39-C , 40-C ) :   1.1083 B( 39-C , 45-C ) :   1.0514 B( 40-C , 41-C ) :   1.4939
B( 40-C , 90-H ) :   1.0188 B( 41-C , 42-O ) :   1.2286 B( 41-C , 44-C ) :   1.0637
B( 42-O , 43-C ) :   0.9313 B( 43-C , 91-H ) :   0.9787 B( 43-C , 92-H ) :   0.9707
B( 43-C , 93-H ) :   0.9623 B( 44-C , 45-C ) :   1.6872 B( 44-C , 94-H ) :   1.0154
B( 45-C , 95-H ) :   0.9999 B( 46-C , 47-C ) :   1.6263 B( 46-C , 96-H ) :   0.9294
B( 47-C , 48-C ) :   1.1755 B( 47-C , 97-H ) :   0.9493 B( 48-C , 49-S ) :   1.1544
B( 48-C , 52-C ) :   1.4326 B( 49-S , 50-C ) :   1.1010 B( 50-C , 51-C ) :   1.4974
B( 50-C , 58-C ) :   1.1321 B( 51-C , 52-C ) :   1.2836 B( 51-C , 56-C ) :   0.8854
B( 52-C , 53-C ) :   0.9199 B( 53-C , 54-O ) :   2.1099 B( 53-C , 55-N ) :   1.1003
B( 54-O , 96-H ) :   0.1048 B( 55-N , 56-C ) :   1.1062 B( 55-N , 98-H ) :   0.9151
B( 56-C , 57-O ) :   2.1855 B( 58-C , 59-C ) :   1.6784 B( 58-C , 99-H ) :   0.9214
B( 59-C , 60-C ) :   0.9355 B( 59-C , 74-C ) :   1.0428 B( 60-C , 61-O ) :   2.2675
B( 60-C , 62-C ) :   0.9186 B( 62-C , 63-C ) :   1.4693 B( 62-C , 73-C ) :   1.2191
B( 63-C , 64-C ) :   1.1957 B( 63-C ,100-H ) :   1.0165 B( 64-C , 65-C ) :   1.2569
B( 64-C , 69-C ) :   1.1929 B( 65-C , 66-C ) :   1.1908 B( 65-C , 72-C ) :   1.2125
B( 66-C , 67-C ) :   1.4415 B( 66-C , 69-C ) :   0.1084 B( 66-C ,101-H ) :   1.0071
B( 67-C , 68-C ) :   1.1909 B( 67-C , 71-F ) :   1.1326 B( 68-C , 69-C ) :   1.4440
B( 68-C , 70-F ) :   1.1326 B( 69-C ,102-H ) :   1.0067 B( 72-C , 73-C ) :   1.4644
B( 72-C ,103-H ) :   0.9933 B( 73-C , 74-C ) :   0.9958 B( 74-C , 75-C ) :   1.6376
B( 75-C , 76-C ) :   1.1745 B( 75-C , 78-C ) :   1.1388 B( 76-C , 77-N ) :   2.9965
B( 78-C , 79-N ) :   2.9915

-----------------------------------------------------------------------------
         ABSORPTION SPECTRUM VIA TRANSITION ELECTRIC DIPOLE MOMENTS
-----------------------------------------------------------------------------
State   Energy  Wavelength   fosc         T2         TX        TY        TZ
        (cm-1)    (nm)                  (au**2)     (au)      (au)      (au)
-----------------------------------------------------------------------------
   0   14612.6    684.3   0.219487629   4.94492   0.18871   1.59109   1.54199
   1   16921.5    591.0   0.223566668   4.34955  -0.56153  -1.98364  -0.31530
   2   17911.0    558.3   0.578337328  10.63006  -0.30635  -2.65628  -1.86558
   3   20124.1    496.9   0.111202868   1.81918  -0.82746  -0.72846   0.77707
   4   21668.6    461.5   0.143372597   2.17827   0.52388   1.37979   0.00081
   5   23810.3    420.0   0.101797609   1.40750  -0.23148  -0.99266   0.60708
   6   24254.8    412.3   0.321727468   4.36683  -0.95613  -1.47759  -1.12667
   7   25740.4    388.5   0.104192631   1.33259   0.01973  -1.15380  -0.03079
   8   25887.5    386.3   0.197253147   2.50847   0.74506   1.21521   0.69037
   9   26140.7    382.5   0.014501917   0.18263   0.39483   0.11616  -0.11510
  10   26432.0    378.3   0.035495607   0.44210   0.56122  -0.31753   0.16219
  11   27256.6    366.9   0.015767396   0.19044  -0.34142  -0.10749   0.24965
  12   27555.8    362.9   0.054022737   0.64541   0.15289  -0.09942  -0.78240
  13   27991.9    357.2   0.093356054   1.09796   0.17378   0.36944   0.96502
  14   28201.2    354.6   0.119969146   1.40048   0.51186  -0.20269  -1.04757
  15   28368.8    352.5   0.033564591   0.38951  -0.39927   0.19062  -0.44017
  16   28562.7    350.1   0.007962725   0.09178  -0.08812  -0.25270   0.14197
  17   29126.3    343.3   0.194161972   2.19460  -0.82665  -1.17582   0.35873
  18   29465.9    339.4   0.009459617   0.10569   0.14661   0.11074   0.26820
  19   30282.9    330.2   0.193083299   2.09905  -0.83137  -0.61037   1.01751
  20   30468.3    328.2   0.065441218   0.70710   0.21131  -0.80662   0.10863
  21   30874.9    323.9   0.111118183   1.18483  -1.04035  -0.17908   0.26537
  22   31157.3    321.0   0.106577853   1.12611   0.71735   0.53859  -0.56695
  23   31702.5    315.4   0.008780524   0.09118  -0.07079  -0.09688  -0.27710
  24   32089.6    311.6   0.101252054   1.03876  -0.53544  -0.80942  -0.31128
  25   32306.2    309.5   0.076789312   0.78251   0.88260   0.04869  -0.03401
  26   32538.1    307.3   0.154223243   1.56039  -0.17405  -0.43359  -1.15849
  27   32895.0    304.0   0.059824718   0.59872  -0.34583  -0.69208  -0.01252
  28   33189.7    301.3   0.247295496   2.45295  -1.23446  -0.24211  -0.93297
  29   33337.8    300.0   0.377195394   3.72482   1.63878  -0.13160  -1.01090
  30   33623.9    297.4   0.350749432   3.43419  -1.85154   0.00923  -0.07693
  31   33828.8    295.6   0.094735906   0.92194   0.21503  -0.21421   0.91094
  32   33921.9    294.8   0.735417799   7.13723  -0.64489  -1.08831  -2.35307
  33   34691.5    288.3   0.064551884   0.61258   0.03153   0.03616   0.78120
  34   34718.7    288.0   0.076997550   0.73011   0.73732   0.42747  -0.06119
  35   34788.0    287.5   0.015563099   0.14728  -0.07988  -0.20013  -0.31756
  36   35118.8    284.7   0.002488141   0.02332  -0.01856  -0.00137  -0.15159
  37   35563.6    281.2   0.063888618   0.59142  -0.18367  -0.52053  -0.53548
  38   35647.3    280.5   0.028275620   0.26113   0.38530   0.32293   0.09162
  39   35926.4    278.3   0.024594877   0.22538   0.11283   0.41609   0.19878
  40   35959.2    278.1   0.055931465   0.51206   0.61769   0.01285  -0.36104
  41   36137.1    276.7   0.100974018   0.91988  -0.41022   0.35648   0.79027
  42   36408.4    274.7   0.020274847   0.18333  -0.25797  -0.26249  -0.21882
  43   36593.3    273.3   0.036121830   0.32497  -0.22298  -0.47906  -0.21390
  44   37001.6    270.3   0.111700107   0.99382  -0.33069   0.91739  -0.20703
  45   37228.6    268.6   0.025710348   0.22736  -0.17674  -0.31831   0.30789
  46   37284.3    268.2   0.036172694   0.31940   0.01003   0.49386   0.27460
  47   37459.6    267.0   0.072075632   0.63343   0.01526   0.34080  -0.71906
  48   37582.9    266.1   0.004176657   0.03659  -0.03515   0.17507  -0.06856
  49   37670.0    265.5   0.037551910   0.32818  -0.40402   0.39116  -0.10930
  50   38166.0    262.0   0.000294705   0.00254   0.00827  -0.03428   0.03604
  51   38389.7    260.5   0.019289040   0.16541  -0.03474   0.39796  -0.07640
  52   38506.9    259.7   0.021491517   0.18374  -0.13595   0.32499  -0.24421
  53   38553.6    259.4   0.122424199   1.04539   0.20664   0.99559   0.10721
  54   38647.4    258.7   0.041500591   0.35352   0.46696  -0.01907  -0.36756
  55   38861.0    257.3   0.001495373   0.01267   0.01772   0.10004  -0.04843
  56   39394.0    253.8   0.012776865   0.10677  -0.12434  -0.30150  -0.02035
  57   39569.4    252.7   0.034620289   0.28804  -0.46784  -0.26071   0.03449
  58   39678.1    252.0   0.004915618   0.04079  -0.11159   0.13103   0.10567
  59   39881.1    250.7   0.018723631   0.15456   0.13427   0.36355   0.06607
  60   39945.2    250.3   0.035140334   0.28961   0.35426   0.40142   0.05454
  61   40132.3    249.2   0.007552681   0.06196  -0.20614   0.02805   0.13666
  62   40233.3    248.6   0.108877727   0.89090  -0.64286  -0.64490   0.24847

FINAL SINGLE POINT ENERGY     -4422.109663063839

DIPOLE MOMENT
-------------
                                X             Y             Z
Electronic contribution:      8.23436      -3.50300     -17.66801
Nuclear contribution   :     -7.24346       4.14448      17.38801
                        -----------------------------------------
Total Dipole Moment    :      0.99091       0.64148      -0.28000
                        -----------------------------------------
Magnitude (a.u.)       :      1.21317
Magnitude (Debye)      :      3.08364

Rotational constants in cm-1:     0.001713     0.000213     0.000202
Rotational constants in MHz :    51.363844     6.393246     6.043724

                             ****ORCA TERMINATED NORMALLY****
TOTAL RUN TIME: 0 days 0 hours 11 minutes 45 seconds 162 msec
