                         Program Version 4.2.0 -  RELEASE  -
|  1> # ORCA input file
|  2> # SCF done       -204.718896751449          0.000431652677
|  3> ! CAM-B3LYP def2-SVP def2/J RIJCOSX Grid4 TightSCF
|  4> %maxcore 5000
|  5> %tddft
|  6>     Mode sTDDFT
|  7>     Ethresh 5.0
|  8>     maxcore 5000
|  9> end
| 10>
| 11> %pal
| 12>   nprocs 6
| 13>   end
| 14> * xyz 0 1
| 15>    C        0.51465        -0.33101         6.87696
| 16>    N        0.14119         0.64559         7.74014
| 17>    C        0.22053         0.57756         9.17789
| 18>    C       -0.82830        -0.36960         9.75434
| 19>    C       -0.41701         1.75783         7.05506
| 20>    O       -0.83318         2.74709         7.61781
| 21>    C       -0.33115         1.37788         5.66455
| 22>    C        0.24260         0.07248         5.59693
| 23>    C        0.31915        -0.29876         4.19871
| 24>    O        0.73724        -1.28624         3.64068
| 25>    N       -0.24801         0.80349         3.51178
| 26>    C       -0.13778         0.86642         2.07111
| 27>    C        0.90754         1.88475         1.62696
| 28>    C       -0.62067         1.80469         4.37664
| 29>    C       -1.20991         3.06835         4.06719
| 30>    C       -1.97851         3.37528         3.00387
| 31>    C       -2.48705         4.68668         2.71242
| 32>    C       -1.75488         5.85785         2.62455
| 33>    N       -0.36502         6.03517         2.75483
| 34>    O        0.05611         7.17682         2.68220
| 35>    O        0.34918         5.05582         2.90318
| 36>    C       -2.60326         6.92028         2.13981
| 37>    C       -3.85036         6.42949         1.97193
| 38>    C       -3.87259         5.04397         2.38263
| 39>    C       -4.97961         4.23422         2.53753
| 40>    C       -4.97909         2.81819         2.74807
| 41>    C       -6.20890         2.32097         2.43926
| 42>    C       -7.07493         3.40240         2.09183
| 43>    N       -8.42612         3.20635         1.77387
| 44>    O       -9.12568         4.17779         1.52381
| 45>    O       -8.83156         2.05513         1.75197
| 46>    C       -6.38514         4.61194         2.24948
| 47>    C       -6.97661         5.88320         2.24658
| 48>    C       -6.54371         6.97022         2.96952
| 49>    C       -7.14070         8.23892         2.90540
| 50>    C       -8.13345         8.68277         2.03464
| 51>    C       -8.40395        10.04387         2.29740
| 52>    C       -7.50638        10.41163         3.39111
| 53>    C       -6.74728         9.36470         3.75094
| 54>    F       -7.43417        11.65905         3.89423
| 55>    C       -9.30347        10.87920         1.65379
| 56>    C       -9.66305        12.20498         1.97263
| 57>    C      -10.55905        12.67467         1.02210
| 58>    C      -10.77651        11.61224         0.03873
| 59>    C      -10.05737        10.55213         0.43294
| 60>    F       -9.96949         9.37410        -0.18762
| 61>    C      -11.15252        13.95154         0.91309
| 62>    C      -11.06871        14.92022         1.86480
| 63>    C      -11.59631        16.24822         1.74840
| 64>    C      -12.71867        16.48472         0.93038
| 65>    C      -13.29601        17.72635         0.92572
| 66>    C      -12.79753        18.76095         1.73677
| 67>    C      -13.65641        19.95281         1.53307
| 68>    O      -13.57966        21.04737         2.02998
| 69>    N      -14.61330        19.56114         0.60815
| 70>    C      -14.47576        18.24278         0.19596
| 71>    O      -15.18924        17.68727        -0.60047
| 72>    C      -15.68277        20.42541         0.15621
| 73>    C      -16.89570        20.32486         1.07433
| 74>    C      -11.69993        18.56697         2.53112
| 75>    C      -11.04786        17.31557         2.51729
| 76>    C       -9.83389        17.20782         3.26978
| 77>    C       -8.80421        16.34767         3.06103
| 78>    C       -7.65417        16.28312         3.87689
| 79>    S       -7.37362        17.36180         5.24526
| 80>    C       -6.59166        15.40568         3.79298
| 81>    N       -6.18812        14.38226         2.97394
| 82>    C       -4.96741        13.84046         3.55957
| 83>    O       -4.59408        14.68887         4.63476
| 84>    C       -5.59400        15.60270         4.77393
| 85>    C       -5.83572        16.61984         5.65469
| 86>    C       -5.06381        17.09224         6.76780
| 87>    C       -3.89485        16.56288         7.12474
| 88>    H        0.95612        -1.24503         7.22974
| 89>    H        0.04976         1.59364         9.54343
| 90>    H        1.22496         0.25543         9.46869
| 91>    H       -1.82541        -0.04158         9.47115
| 92>    H       -0.75978        -0.37928        10.83831
| 93>    H       -0.67741        -1.38212         9.38652
| 94>    H       -1.10975         1.07897         1.62087
| 95>    H        0.16648        -0.13853         1.76182
| 96>    H        0.67149         2.88171         1.99090
| 97>    H        0.95697         1.90730         0.54186
| 98>    H        1.88468         1.60320         2.01156
| 99>    H       -1.05819         3.80882         4.84186
|100>    H       -2.25085         2.61457         2.28566
|101>    H       -2.24429         7.90771         1.92276
|102>    H       -4.68531         6.95835         1.55913
|103>    H       -4.13801         2.23850         3.06769
|104>    H       -6.52166         1.29382         2.45527
|105>    H       -7.92089         5.96047         1.72387
|106>    H       -5.71914         6.85082         3.66114
|107>    H       -8.63141         8.09197         1.29204
|108>    H       -5.99074         9.32964         4.51050
|109>    H       -9.30788        12.74707         2.82720
|110>    H      -11.41641        11.68900        -0.81815
|111>    H      -11.65813        14.15937        -0.02035
|112>    H      -10.58313        14.68098         2.80046
|113>    H      -13.15271        15.68608         0.35030
|114>    H      -15.94566        20.11508        -0.85782
|115>    H      -15.29681        21.44746         0.14579
|116>    H      -17.27142        19.30433         1.09014
|117>    H      -17.68310        20.98206         0.71690
|118>    H      -16.62573        20.61947         2.08581
|119>    H      -11.31541        19.36916         3.14242
|120>    H       -9.70633        17.94182         4.05668
|121>    H       -8.80069        15.68100         2.20859
|122>    H       -6.85364        13.73097         2.58917
|123>    H       -4.15717        13.83899         2.81635
|124>    H       -5.10908        12.81729         3.93982
|125>    H       -5.49439        17.92104         7.31275
|126>    H       -3.46718        15.73795         6.58148
|127>    H       -3.34204        16.94103         7.96598
|128> *
|129>
|130>                          ****END OF INPUT****

CARTESIAN COORDINATES (ANGSTROEM)
---------------------------------
  C      0.514650   -0.331010    6.876960
  N      0.141190    0.645590    7.740140
  C      0.220530    0.577560    9.177890
  C     -0.828300   -0.369600    9.754340
  C     -0.417010    1.757830    7.055060
  O     -0.833180    2.747090    7.617810
  C     -0.331150    1.377880    5.664550
  C      0.242600    0.072480    5.596930
  C      0.319150   -0.298760    4.198710
  O      0.737240   -1.286240    3.640680
  N     -0.248010    0.803490    3.511780
  C     -0.137780    0.866420    2.071110
  C      0.907540    1.884750    1.626960
  C     -0.620670    1.804690    4.376640
  C     -1.209910    3.068350    4.067190
  C     -1.978510    3.375280    3.003870
  C     -2.487050    4.686680    2.712420
  C     -1.754880    5.857850    2.624550
  N     -0.365020    6.035170    2.754830
  O      0.056110    7.176820    2.682200
  O      0.349180    5.055820    2.903180
  C     -2.603260    6.920280    2.139810
  C     -3.850360    6.429490    1.971930
  C     -3.872590    5.043970    2.382630
  C     -4.979610    4.234220    2.537530
  C     -4.979090    2.818190    2.748070
  C     -6.208900    2.320970    2.439260
  C     -7.074930    3.402400    2.091830
  N     -8.426120    3.206350    1.773870
  O     -9.125680    4.177790    1.523810
  O     -8.831560    2.055130    1.751970
  C     -6.385140    4.611940    2.249480
  C     -6.976610    5.883200    2.246580
  C     -6.543710    6.970220    2.969520
  C     -7.140700    8.238920    2.905400
  C     -8.133450    8.682770    2.034640
  C     -8.403950   10.043870    2.297400
  C     -7.506380   10.411630    3.391110
  C     -6.747280    9.364700    3.750940
  F     -7.434170   11.659050    3.894230
  C     -9.303470   10.879200    1.653790
  C     -9.663050   12.204980    1.972630
  C    -10.559050   12.674670    1.022100
  C    -10.776510   11.612240    0.038730
  C    -10.057370   10.552130    0.432940
  F     -9.969490    9.374100   -0.187620
  C    -11.152520   13.951540    0.913090
  C    -11.068710   14.920220    1.864800
  C    -11.596310   16.248220    1.748400
  C    -12.718670   16.484720    0.930380
  C    -13.296010   17.726350    0.925720
  C    -12.797530   18.760950    1.736770
  C    -13.656410   19.952810    1.533070
  O    -13.579660   21.047370    2.029980
  N    -14.613300   19.561140    0.608150
  C    -14.475760   18.242780    0.195960
  O    -15.189240   17.687270   -0.600470
  C    -15.682770   20.425410    0.156210
  C    -16.895700   20.324860    1.074330
  C    -11.699930   18.566970    2.531120
  C    -11.047860   17.315570    2.517290
  C     -9.833890   17.207820    3.269780
  C     -8.804210   16.347670    3.061030
  C     -7.654170   16.283120    3.876890
  S     -7.373620   17.361800    5.245260
  C     -6.591660   15.405680    3.792980
  N     -6.188120   14.382260    2.973940
  C     -4.967410   13.840460    3.559570
  O     -4.594080   14.688870    4.634760
  C     -5.594000   15.602700    4.773930
  C     -5.835720   16.619840    5.654690
  C     -5.063810   17.092240    6.767800
  C     -3.894850   16.562880    7.124740
  H      0.956120   -1.245030    7.229740
  H      0.049760    1.593640    9.543430
  H      1.224960    0.255430    9.468690
  H     -1.825410   -0.041580    9.471150
  H     -0.759780   -0.379280   10.838310
  H     -0.677410   -1.382120    9.386520
  H     -1.109750    1.078970    1.620870
  H      0.166480   -0.138530    1.761820
  H      0.671490    2.881710    1.990900
  H      0.956970    1.907300    0.541860
  H      1.884680    1.603200    2.011560
  H     -1.058190    3.808820    4.841860
  H     -2.250850    2.614570    2.285660
  H     -2.244290    7.907710    1.922760
  H     -4.685310    6.958350    1.559130
  H     -4.138010    2.238500    3.067690
  H     -6.521660    1.293820    2.455270
  H     -7.920890    5.960470    1.723870
  H     -5.719140    6.850820    3.661140
  H     -8.631410    8.091970    1.292040
  H     -5.990740    9.329640    4.510500
  H     -9.307880   12.747070    2.827200
  H    -11.416410   11.689000   -0.818150
  H    -11.658130   14.159370   -0.020350
  H    -10.583130   14.680980    2.800460
  H    -13.152710   15.686080    0.350300
  H    -15.945660   20.115080   -0.857820
  H    -15.296810   21.447460    0.145790
  H    -17.271420   19.304330    1.090140
  H    -17.683100   20.982060    0.716900
  H    -16.625730   20.619470    2.085810
  H    -11.315410   19.369160    3.142420
  H     -9.706330   17.941820    4.056680
  H     -8.800690   15.681000    2.208590
  H     -6.853640   13.730970    2.589170
  H     -4.157170   13.838990    2.816350
  H     -5.109080   12.817290    3.939820
  H     -5.494390   17.921040    7.312750
  H     -3.467180   15.737950    6.581480
  H     -3.342040   16.941030    7.965980

 Total Charge           Charge          ....    0
 Multiplicity           Mult            ....    1
 Number of Electrons    NEL             ....  518
 Basis Dimension        Dim             .... 1226

ORBITAL ENERGIES
----------------

  NO   OCC          E(Eh)            E(eV)
   0   2.0000     -88.949398     -2420.4362
   1   2.0000     -24.813439      -675.2080
   2   2.0000     -24.807009      -675.0330
   3   2.0000     -19.266950      -524.2804
   4   2.0000     -19.244398      -523.6667
   5   2.0000     -19.240199      -523.5524
   6   2.0000     -19.232920      -523.3544
   7   2.0000     -19.232847      -523.3524
   8   2.0000     -19.210824      -522.7531
   9   2.0000     -19.210243      -522.7373
  10   2.0000     -19.192412      -522.2521
  11   2.0000     -19.185722      -522.0700
  12   2.0000     -14.651370      -398.6840
  13   2.0000     -14.642732      -398.4490
  14   2.0000     -14.454956      -393.3394
  15   2.0000     -14.452638      -393.2763
  16   2.0000     -14.450491      -393.2179
  17   2.0000     -14.446212      -393.1014
  18   2.0000     -10.391071      -282.7554
  19   2.0000     -10.390449      -282.7385
  20   2.0000     -10.375299      -282.3262
  21   2.0000     -10.375121      -282.3214
  22   2.0000     -10.373682      -282.2822
  23   2.0000     -10.371802      -282.2311
  24   2.0000     -10.369546      -282.1697
  25   2.0000     -10.340761      -281.3864
  26   2.0000     -10.335134      -281.2333
  27   2.0000     -10.334476      -281.2154
  28   2.0000     -10.334196      -281.2078
  29   2.0000     -10.333771      -281.1962
  30   2.0000     -10.329628      -281.0835
  31   2.0000     -10.327151      -281.0161
  32   2.0000     -10.327068      -281.0138
  33   2.0000     -10.326176      -280.9895
  34   2.0000     -10.326124      -280.9881
  35   2.0000     -10.322314      -280.8845
  36   2.0000     -10.316297      -280.7207
  37   2.0000     -10.314620      -280.6751
  38   2.0000     -10.311034      -280.5775
  39   2.0000     -10.310556      -280.5645
  40   2.0000     -10.310239      -280.5559
  41   2.0000     -10.308967      -280.5213
  42   2.0000     -10.307646      -280.4853
  43   2.0000     -10.304984      -280.4129
  44   2.0000     -10.304826      -280.4086
  45   2.0000     -10.303408      -280.3700
  46   2.0000     -10.302487      -280.3449
  47   2.0000     -10.302315      -280.3402
  48   2.0000     -10.302014      -280.3321
  49   2.0000     -10.301985      -280.3313
  50   2.0000     -10.301893      -280.3288
  51   2.0000     -10.301553      -280.3195
  52   2.0000     -10.300916      -280.3022
  53   2.0000     -10.299425      -280.2616
  54   2.0000     -10.297999      -280.2228
  55   2.0000     -10.297903      -280.2202
  56   2.0000     -10.297233      -280.2020
  57   2.0000     -10.295143      -280.1451
  58   2.0000     -10.293846      -280.1098
  59   2.0000     -10.289129      -279.9814
  60   2.0000     -10.288768      -279.9716
  61   2.0000     -10.287075      -279.9255
  62   2.0000     -10.286473      -279.9092
  63   2.0000     -10.286362      -279.9061
  64   2.0000     -10.284429      -279.8535
  65   2.0000     -10.282102      -279.7902
  66   2.0000     -10.277251      -279.6582
  67   2.0000     -10.267001      -279.3793
  68   2.0000     -10.265120      -279.3281
  69   2.0000     -10.263249      -279.2772
  70   2.0000     -10.260138      -279.1925
  71   2.0000     -10.258393      -279.1451
  72   2.0000     -10.251106      -278.9468
  73   2.0000      -8.044477      -218.9013
  74   2.0000      -6.014237      -163.6557
  75   2.0000      -6.010366      -163.5504
  76   2.0000      -6.005454      -163.4167
  77   2.0000      -1.321943       -35.9719
  78   2.0000      -1.321269       -35.9535
  79   2.0000      -1.320541       -35.9337
  80   2.0000      -1.311553       -35.6892
  81   2.0000      -1.190925       -32.4067
  82   2.0000      -1.156743       -31.4766
  83   2.0000      -1.137954       -30.9653
  84   2.0000      -1.133069       -30.8324
  85   2.0000      -1.132451       -30.8156
  86   2.0000      -1.128429       -30.7061
  87   2.0000      -1.125004       -30.6129
  88   2.0000      -1.063486       -28.9389
  89   2.0000      -1.053226       -28.6597
  90   2.0000      -1.047879       -28.5142
  91   2.0000      -1.032680       -28.1006
  92   2.0000      -1.019784       -27.7497
  93   2.0000      -1.006077       -27.3767
  94   2.0000      -0.999541       -27.1989
  95   2.0000      -0.989017       -26.9125
  96   2.0000      -0.985024       -26.8039
  97   2.0000      -0.977669       -26.6037
  98   2.0000      -0.930005       -25.3067
  99   2.0000      -0.926670       -25.2160
 100   2.0000      -0.919624       -25.0242
 101   2.0000      -0.913532       -24.8585
 102   2.0000      -0.912637       -24.8341
 103   2.0000      -0.910304       -24.7706
 104   2.0000      -0.890908       -24.2429
 105   2.0000      -0.882744       -24.0207
 106   2.0000      -0.876632       -23.8544
 107   2.0000      -0.872590       -23.7444
 108   2.0000      -0.867033       -23.5932
 109   2.0000      -0.857397       -23.3310
 110   2.0000      -0.845140       -22.9974
 111   2.0000      -0.842668       -22.9302
 112   2.0000      -0.838332       -22.8122
 113   2.0000      -0.834108       -22.6972
 114   2.0000      -0.817980       -22.2584
 115   2.0000      -0.815249       -22.1841
 116   2.0000      -0.812196       -22.1010
 117   2.0000      -0.802752       -21.8440
 118   2.0000      -0.797440       -21.6994
 119   2.0000      -0.791395       -21.5350
 120   2.0000      -0.774103       -21.0644
 121   2.0000      -0.763504       -20.7760
 122   2.0000      -0.759495       -20.6669
 123   2.0000      -0.757785       -20.6204
 124   2.0000      -0.754247       -20.5241
 125   2.0000      -0.749201       -20.3868
 126   2.0000      -0.733200       -19.9514
 127   2.0000      -0.731671       -19.9098
 128   2.0000      -0.721907       -19.6441
 129   2.0000      -0.713245       -19.4084
 130   2.0000      -0.709020       -19.2934
 131   2.0000      -0.701493       -19.0886
 132   2.0000      -0.698884       -19.0176
 133   2.0000      -0.697169       -18.9709
 134   2.0000      -0.694424       -18.8962
 135   2.0000      -0.684366       -18.6225
 136   2.0000      -0.680732       -18.5237
 137   2.0000      -0.675923       -18.3928
 138   2.0000      -0.673197       -18.3186
 139   2.0000      -0.666504       -18.1365
 140   2.0000      -0.664251       -18.0752
 141   2.0000      -0.651177       -17.7194
 142   2.0000      -0.646541       -17.5933
 143   2.0000      -0.642470       -17.4825
 144   2.0000      -0.640870       -17.4389
 145   2.0000      -0.636968       -17.3328
 146   2.0000      -0.635349       -17.2887
 147   2.0000      -0.632094       -17.2002
 148   2.0000      -0.629320       -17.1247
 149   2.0000      -0.624129       -16.9834
 150   2.0000      -0.620436       -16.8829
 151   2.0000      -0.618376       -16.8269
 152   2.0000      -0.616018       -16.7627
 153   2.0000      -0.609683       -16.5903
 154   2.0000      -0.605657       -16.4808
 155   2.0000      -0.602272       -16.3887
 156   2.0000      -0.596354       -16.2276
 157   2.0000      -0.588523       -16.0145
 158   2.0000      -0.587114       -15.9762
 159   2.0000      -0.584502       -15.9051
 160   2.0000      -0.582282       -15.8447
 161   2.0000      -0.580028       -15.7834
 162   2.0000      -0.579485       -15.7686
 163   2.0000      -0.578101       -15.7309
 164   2.0000      -0.573313       -15.6006
 165   2.0000      -0.572359       -15.5747
 166   2.0000      -0.570589       -15.5265
 167   2.0000      -0.569550       -15.4982
 168   2.0000      -0.567948       -15.4546
 169   2.0000      -0.562795       -15.3144
 170   2.0000      -0.555764       -15.1231
 171   2.0000      -0.555662       -15.1203
 172   2.0000      -0.548288       -14.9197
 173   2.0000      -0.547749       -14.9050
 174   2.0000      -0.546114       -14.8605
 175   2.0000      -0.543740       -14.7959
 176   2.0000      -0.539816       -14.6891
 177   2.0000      -0.537313       -14.6210
 178   2.0000      -0.536955       -14.6113
 179   2.0000      -0.534223       -14.5369
 180   2.0000      -0.530820       -14.4443
 181   2.0000      -0.528304       -14.3759
 182   2.0000      -0.526401       -14.3241
 183   2.0000      -0.524868       -14.2824
 184   2.0000      -0.523843       -14.2545
 185   2.0000      -0.519559       -14.1379
 186   2.0000      -0.517399       -14.0791
 187   2.0000      -0.514400       -13.9975
 188   2.0000      -0.510351       -13.8873
 189   2.0000      -0.508342       -13.8327
 190   2.0000      -0.507015       -13.7966
 191   2.0000      -0.506354       -13.7786
 192   2.0000      -0.501163       -13.6373
 193   2.0000      -0.500646       -13.6233
 194   2.0000      -0.497926       -13.5492
 195   2.0000      -0.496633       -13.5141
 196   2.0000      -0.495333       -13.4787
 197   2.0000      -0.493538       -13.4298
 198   2.0000      -0.492096       -13.3906
 199   2.0000      -0.487520       -13.2661
 200   2.0000      -0.486051       -13.2261
 201   2.0000      -0.484649       -13.1880
 202   2.0000      -0.480062       -13.0632
 203   2.0000      -0.479157       -13.0385
 204   2.0000      -0.476606       -12.9691
 205   2.0000      -0.471378       -12.8269
 206   2.0000      -0.471173       -12.8213
 207   2.0000      -0.468513       -12.7489
 208   2.0000      -0.466136       -12.6842
 209   2.0000      -0.465999       -12.6805
 210   2.0000      -0.463940       -12.6244
 211   2.0000      -0.463665       -12.6170
 212   2.0000      -0.460837       -12.5400
 213   2.0000      -0.457643       -12.4531
 214   2.0000      -0.456684       -12.4270
 215   2.0000      -0.455448       -12.3934
 216   2.0000      -0.454588       -12.3700
 217   2.0000      -0.452261       -12.3067
 218   2.0000      -0.446632       -12.1535
 219   2.0000      -0.445092       -12.1116
 220   2.0000      -0.443356       -12.0643
 221   2.0000      -0.442698       -12.0464
 222   2.0000      -0.433516       -11.7966
 223   2.0000      -0.432720       -11.7749
 224   2.0000      -0.428314       -11.6550
 225   2.0000      -0.427445       -11.6314
 226   2.0000      -0.425653       -11.5826
 227   2.0000      -0.416071       -11.3219
 228   2.0000      -0.412008       -11.2113
 229   2.0000      -0.408702       -11.1213
 230   2.0000      -0.406031       -11.0487
 231   2.0000      -0.402296       -10.9470
 232   2.0000      -0.400563       -10.8999
 233   2.0000      -0.393333       -10.7031
 234   2.0000      -0.388452       -10.5703
 235   2.0000      -0.381310       -10.3760
 236   2.0000      -0.380086       -10.3427
 237   2.0000      -0.373678       -10.1683
 238   2.0000      -0.371333       -10.1045
 239   2.0000      -0.364591        -9.9210
 240   2.0000      -0.362901        -9.8750
 241   2.0000      -0.360004        -9.7962
 242   2.0000      -0.351747        -9.5715
 243   2.0000      -0.350633        -9.5412
 244   2.0000      -0.346327        -9.4240
 245   2.0000      -0.346086        -9.4175
 246   2.0000      -0.342974        -9.3328
 247   2.0000      -0.341142        -9.2830
 248   2.0000      -0.331312        -9.0155
 249   2.0000      -0.329544        -8.9673
 250   2.0000      -0.320922        -8.7327
 251   2.0000      -0.317189        -8.6311
 252   2.0000      -0.314759        -8.5650
 253   2.0000      -0.307588        -8.3699
 254   2.0000      -0.288404        -7.8479
 255   2.0000      -0.267707        -7.2847
 256   2.0000      -0.262840        -7.1522
 257   2.0000      -0.250931        -6.8282
 258   2.0000      -0.246001        -6.6940
 259   0.0000      -0.142717        -3.8835
 260   0.0000      -0.114435        -3.1139
 261   0.0000      -0.069343        -1.8869
 262   0.0000      -0.063046        -1.7156
 263   0.0000      -0.045543        -1.2393

MULLIKEN ATOMIC CHARGES
-----------------------
   0 C :    0.060019
   1 N :   -0.269567
   2 C :    0.114436
   3 C :   -0.006030
   4 C :    0.158829
   5 O :   -0.186374
   6 C :   -0.058332
   7 C :   -0.014898
   8 C :    0.170044
   9 O :   -0.182195
  10 N :   -0.275753
  11 C :    0.101620
  12 C :   -0.009745
  13 C :    0.091971
  14 C :    0.042962
  15 C :   -0.068658
  16 C :    0.029854
  17 C :    0.075239
  18 N :    0.270055
  19 O :   -0.239642
  20 O :   -0.238601
  21 C :    0.008888
  22 C :   -0.019429
  23 C :    0.049110
  24 C :    0.053451
  25 C :   -0.023363
  26 C :    0.026941
  27 C :    0.081820
  28 N :    0.275115
  29 O :   -0.259436
  30 O :   -0.253806
  31 C :    0.034373
  32 C :   -0.048486
  33 C :   -0.001362
  34 C :    0.071095
  35 C :   -0.063054
  36 C :    0.010905
  37 C :    0.244663
  38 C :   -0.074149
  39 F :   -0.191047
  40 C :    0.027181
  41 C :   -0.124910
  42 C :    0.123554
  43 C :   -0.080244
  44 C :    0.271163
  45 F :   -0.164105
  46 C :   -0.017003
  47 C :   -0.029626
  48 C :    0.076949
  49 C :   -0.083566
  50 C :    0.008524
  51 C :    0.027760
  52 C :    0.187720
  53 O :   -0.156100
  54 N :   -0.302339
  55 C :    0.189183
  56 O :   -0.160677
  57 C :    0.134564
  58 C :   -0.009458
  59 C :   -0.099561
  60 C :    0.122908
  61 C :   -0.063407
  62 C :   -0.007355
  63 C :   -0.203014
  64 S :    0.086021
  65 C :    0.137919
  66 N :   -0.193541
  67 C :    0.341716
  68 O :   -0.308449
  69 C :    0.182947
  70 C :   -0.190577
  71 C :    0.043917
  72 C :   -0.016831
  73 H :    0.018800
  74 H :    0.043352
  75 H :    0.019519
  76 H :    0.029851
  77 H :    0.026167
  78 H :    0.015325
  79 H :    0.010653
  80 H :    0.043581
  81 H :    0.038246
  82 H :    0.017054
  83 H :    0.021948
  84 H :    0.021882
  85 H :    0.026121
  86 H :   -0.001386
  87 H :    0.013322
  88 H :   -0.006755
  89 H :    0.010104
  90 H :    0.032782
  91 H :    0.015799
  92 H :    0.002073
  93 H :   -0.011247
  94 H :   -0.022622
  95 H :   -0.006933
  96 H :   -0.006237
  97 H :    0.036887
  98 H :   -0.008857
  99 H :    0.030380
 100 H :    0.031540
 101 H :    0.026455
 102 H :    0.022840
 103 H :    0.027282
 104 H :   -0.005376
 105 H :    0.002259
 106 H :    0.011797
 107 H :    0.130871
 108 H :    0.033593
 109 H :    0.027176
 110 H :   -0.014963
 111 H :    0.033212
 112 H :    0.024778
Sum of atomic charges:   -0.0000000

LOEWDIN ATOMIC CHARGES
----------------------
   0 C :    0.102280
   1 N :   -0.004232
   2 C :    0.038419
   3 C :   -0.060493
   4 C :    0.079544
   5 O :   -0.189014
   6 C :   -0.114130
   7 C :   -0.133622
   8 C :    0.083084
   9 O :   -0.185216
  10 N :   -0.010532
  11 C :    0.034982
  12 C :   -0.065668
  13 C :    0.074548
  14 C :    0.010311
  15 C :   -0.023640
  16 C :    0.008376
  17 C :   -0.039593
  18 N :    0.287222
  19 O :   -0.203570
  20 O :   -0.205594
  21 C :   -0.005795
  22 C :   -0.039619
  23 C :    0.027712
  24 C :    0.046761
  25 C :   -0.054107
  26 C :    0.033118
  27 C :   -0.060591
  28 N :    0.285909
  29 O :   -0.223310
  30 O :   -0.218389
  31 C :    0.021739
  32 C :   -0.010944
  33 C :    0.022337
  34 C :   -0.026169
  35 C :   -0.020254
  36 C :   -0.023035
  37 C :    0.070309
  38 C :   -0.054922
  39 F :   -0.059732
  40 C :    0.023307
  41 C :   -0.097472
  42 C :    0.030103
  43 C :   -0.055761
  44 C :    0.088822
  45 F :   -0.040961
  46 C :   -0.038058
  47 C :    0.035823
  48 C :   -0.024074
  49 C :    0.026987
  50 C :   -0.060976
  51 C :   -0.044528
  52 C :    0.087603
  53 O :   -0.157931
  54 N :   -0.035013
  55 C :    0.087209
  56 O :   -0.162000
  57 C :    0.044563
  58 C :   -0.059549
  59 C :    0.016224
  60 C :    0.009074
  61 C :   -0.055568
  62 C :   -0.011784
  63 C :   -0.222098
  64 S :    0.392911
  65 C :   -0.007141
  66 N :   -0.043127
  67 C :    0.167455
  68 O :   -0.099815
  69 C :    0.005195
  70 C :   -0.190212
  71 C :   -0.041486
  72 C :   -0.032256
  73 H :    0.034265
  74 H :    0.036785
  75 H :    0.024828
  76 H :    0.031407
  77 H :    0.031284
  78 H :    0.022189
  79 H :    0.015155
  80 H :    0.036324
  81 H :    0.023665
  82 H :    0.028955
  83 H :    0.029990
  84 H :    0.047117
  85 H :    0.033264
  86 H :    0.035451
  87 H :    0.033415
  88 H :    0.030350
  89 H :    0.040631
  90 H :    0.039836
  91 H :    0.036483
  92 H :    0.028047
  93 H :    0.032797
  94 H :    0.016217
  95 H :    0.034628
  96 H :    0.031840
  97 H :    0.039255
  98 H :    0.037853
  99 H :    0.032028
 100 H :    0.032228
 101 H :    0.028009
 102 H :    0.030355
 103 H :    0.028223
 104 H :    0.040319
 105 H :    0.026550
 106 H :    0.036720
 107 H :    0.074031
 108 H :    0.017355
 109 H :    0.009957
 110 H :    0.029498
 111 H :    0.026271
 112 H :    0.026476

  Mayer bond orders larger than 0.100000
B(  0-C ,  1-N ) :   1.2017 B(  0-C ,  7-C ) :   1.4550 B(  0-C , 73-H ) :   0.9886
B(  1-N ,  2-C ) :   0.9403 B(  1-N ,  4-C ) :   1.0208 B(  2-C ,  3-C ) :   1.1155
B(  2-C , 74-H ) :   0.9349 B(  2-C , 75-H ) :   0.9547 B(  3-C , 76-H ) :   0.9679
B(  3-C , 77-H ) :   0.9688 B(  3-C , 78-H ) :   0.9697 B(  4-C ,  5-O ) :   2.1436
B(  4-C ,  6-C ) :   0.9818 B(  6-C ,  7-C ) :   1.1936 B(  6-C , 13-C ) :   1.4063
B(  7-C ,  8-C ) :   0.9583 B(  8-C ,  9-O ) :   2.1729 B(  8-C , 10-N ) :   1.0117
B( 10-N , 11-C ) :   0.9427 B( 10-N , 13-C ) :   1.1797 B( 11-C , 12-C ) :   1.1141
B( 11-C , 79-H ) :   0.9502 B( 11-C , 80-H ) :   0.9246 B( 12-C , 81-H ) :   0.9594
B( 12-C , 82-H ) :   0.9642 B( 12-C , 83-H ) :   0.9621 B( 13-C , 14-C ) :   1.1636
B( 14-C , 15-C ) :   1.7010 B( 14-C , 84-H ) :   0.9450 B( 15-C , 16-C ) :   1.0575
B( 15-C , 85-H ) :   0.9358 B( 16-C , 17-C ) :   1.5877 B( 16-C , 23-C ) :   1.0627
B( 17-C , 18-N ) :   0.9391 B( 17-C , 21-C ) :   1.1122 B( 18-N , 19-O ) :   1.5312
B( 18-N , 20-O ) :   1.4983 B( 19-O , 20-O ) :   0.2629 B( 21-C , 22-C ) :   1.6164
B( 21-C , 86-H ) :   1.0129 B( 22-C , 23-C ) :   1.0832 B( 22-C , 87-H ) :   0.9928
B( 23-C , 24-C ) :   1.5367 B( 24-C , 25-C ) :   1.1281 B( 24-C , 31-C ) :   0.9865
B( 25-C , 26-C ) :   1.5464 B( 25-C , 88-H ) :   1.0033 B( 26-C , 27-C ) :   1.1405
B( 26-C , 89-H ) :   1.0120 B( 27-C , 28-N ) :   0.9655 B( 27-C , 31-C ) :   1.4737
B( 28-N , 29-O ) :   1.4848 B( 28-N , 30-O ) :   1.5276 B( 29-O , 30-O ) :   0.2530
B( 31-C , 32-C ) :   1.2317 B( 32-C , 33-C ) :   1.5068 B( 32-C , 90-H ) :   0.9462
B( 33-C , 34-C ) :   1.1753 B( 33-C , 91-H ) :   0.9709 B( 34-C , 35-C ) :   1.4789
B( 34-C , 38-C ) :   1.0241 B( 35-C , 36-C ) :   1.1657 B( 35-C , 92-H ) :   1.0090
B( 36-C , 37-C ) :   1.0399 B( 36-C , 40-C ) :   1.3910 B( 37-C , 38-C ) :   1.6414
B( 37-C , 39-F ) :   1.0732 B( 38-C , 93-H ) :   1.0247 B( 40-C , 41-C ) :   1.1894
B( 40-C , 44-C ) :   1.0006 B( 41-C , 42-C ) :   1.4741 B( 41-C , 94-H ) :   1.0082
B( 42-C , 43-C ) :   1.0060 B( 42-C , 46-C ) :   1.1491 B( 43-C , 44-C ) :   1.6642
B( 43-C , 95-H ) :   1.0238 B( 44-C , 45-F ) :   1.1334 B( 46-C , 47-C ) :   1.6304
B( 46-C , 96-H ) :   0.9720 B( 47-C , 48-C ) :   1.0864 B( 47-C , 97-H ) :   0.9625
B( 48-C , 49-C ) :   1.2840 B( 48-C , 60-C ) :   1.3005 B( 49-C , 50-C ) :   1.4264
B( 49-C , 98-H ) :   1.0033 B( 50-C , 51-C ) :   1.3127 B( 50-C , 55-C ) :   0.8805
B( 51-C , 52-C ) :   0.8726 B( 51-C , 59-C ) :   1.4243 B( 52-C , 53-O ) :   2.2299
B( 52-C , 54-N ) :   1.0666 B( 54-N , 55-C ) :   1.0606 B( 54-N , 57-C ) :   0.9186
B( 55-C , 56-O ) :   2.2246 B( 57-C , 58-C ) :   1.1246 B( 57-C , 99-H ) :   0.9420
B( 57-C ,100-H ) :   0.9427 B( 58-C ,101-H ) :   0.9693 B( 58-C ,102-H ) :   0.9702
B( 58-C ,103-H ) :   0.9697 B( 59-C , 60-C ) :   1.2524 B( 59-C ,104-H ) :   1.0156
B( 60-C , 61-C ) :   1.1235 B( 61-C , 62-C ) :   1.6019 B( 61-C ,105-H ) :   0.9716
B( 62-C , 63-C ) :   1.2090 B( 62-C ,106-H ) :   0.9741 B( 63-C , 64-S ) :   1.0323
B( 63-C , 65-C ) :   1.4602 B( 64-S , 70-C ) :   1.0668 B( 65-C , 66-N ) :   1.1624
B( 65-C , 69-C ) :   1.2250 B( 66-N , 67-C ) :   1.0012 B( 66-N ,107-H ) :   0.9185
B( 67-C , 68-O ) :   0.9725 B( 67-C ,108-H ) :   0.9573 B( 67-C ,109-H ) :   0.9532
B( 68-O , 69-C ) :   1.1008 B( 69-C , 70-C ) :   1.5613 B( 70-C , 71-C ) :   1.1058
B( 71-C , 72-C ) :   1.9341 B( 71-C ,110-H ) :   0.9523 B( 72-C ,111-H ) :   0.9479
B( 72-C ,112-H ) :   0.9479

-----------------------------------------------------------------------------
         ABSORPTION SPECTRUM VIA TRANSITION ELECTRIC DIPOLE MOMENTS
-----------------------------------------------------------------------------
State   Energy  Wavelength   fosc         T2         TX        TY        TZ
        (cm-1)    (nm)                  (au**2)     (au)      (au)      (au)
-----------------------------------------------------------------------------
   0    8062.6   1240.3   0.547323876  22.34844   2.02494  -4.25748   0.34916
   1   10092.4    990.8   0.054865584   1.78971  -0.78213  -0.28952  -1.04602
   2   11514.3    868.5   0.062811236   1.79588  -1.30618   0.18485  -0.23580
   3   14132.6    707.6   0.063074501   1.46929   0.24978  -1.17670   0.14930
   4   14740.2    678.4   0.030472245   0.68057  -0.31170   0.68048  -0.34693
   5   15296.2    653.8   0.024141402   0.51958   0.55931   0.03983   0.45295
   6   17822.2    561.1   0.016735037   0.30913   0.39937  -0.20365   0.32888
   7   18303.7    546.3   0.006774405   0.12185   0.30560   0.15222  -0.07268
   8   18574.9    538.4   0.044701453   0.79227  -0.27034   0.37559  -0.76034
   9   20539.1    486.9   0.085692090   1.37352  -0.57270   0.99240  -0.24633
  10   21730.3    460.2   0.005996180   0.09084   0.19451  -0.08620   0.21349
  11   22520.5    444.0   0.286616519   4.18986   0.19981  -2.01658  -0.28871
  12   23741.9    421.2   0.104452859   1.44837  -0.29482   0.17979  -1.15288
  13   23976.4    417.1   0.116965334   1.60601   0.29101   1.18717   0.33459
  14   24487.5    408.4   0.213481785   2.87007  -1.32402   0.99084   0.36782
  15   24597.7    406.5   0.869635455  11.63909   2.28130  -1.78158   1.80575
  16   25362.6    394.3   0.045555607   0.59132   0.65639  -0.34435   0.20467
  17   26061.8    383.7   0.066636321   0.84175   0.67238   0.05204   0.62205
  18   26223.7    381.3   0.004853043   0.06093  -0.10866  -0.15256  -0.16076
  19   26940.6    371.2   0.049835953   0.60899   0.71420  -0.28245   0.13832
  20   26967.3    370.8   0.106829534   1.30415   1.11821  -0.16964   0.15802
  21   27333.0    365.9   0.146233405   1.76131  -0.65140   1.14630  -0.15163
  22   27824.3    359.4   0.015861734   0.18767  -0.42914  -0.00421   0.05912
  23   28236.8    354.1   0.093575549   1.09099  -0.15240  -0.63466  -0.81546
  24   28946.8    345.5   0.115917483   1.31833  -0.59130  -0.90579   0.38502
  25   29063.1    344.1   0.010525809   0.11923  -0.25320   0.16554  -0.16648
  26   29345.7    340.8   0.005823806   0.06533   0.04320  -0.12031   0.22135
  27   29731.7    336.3   0.107896885   1.19472   0.33382   0.32248   0.98959
  28   30124.3    332.0   0.034295756   0.37480   0.58545  -0.10380   0.14585
  29   30349.2    329.5   0.003340516   0.03624  -0.03509   0.01035  -0.18681
  30   30600.0    326.8   0.014006707   0.15069  -0.24863   0.25591   0.15292
  31   31029.6    322.3   0.196963248   2.08970  -0.72775   1.21565  -0.28683
  32   31261.5    319.9   0.281637436   2.96590  -1.62945   0.35387  -0.43079
  33   31719.0    315.3   0.543954306   5.64572  -2.28498  -0.35983  -0.54322
  34   31838.8    314.1   0.226883583   2.34597  -0.16857   1.50963  -0.19635
  35   32466.7    308.0   0.009050975   0.09178   0.00029   0.30111  -0.03329
  36   32554.5    307.2   0.007193696   0.07275   0.19520   0.18591   0.00912
  37   32680.8    306.0   0.000277617   0.00280  -0.02024   0.04329  -0.02265
  38   32782.4    305.0   0.030805190   0.30936  -0.55150  -0.06660  -0.02764
  39   33030.1    302.8   0.014777077   0.14728   0.29516   0.20776   0.13039
  40   33503.0    298.5   0.012733638   0.12512  -0.29934  -0.13587  -0.13061
  41   33654.9    297.1   0.139149011   1.36115   0.04981   1.12767  -0.29502
  42   33837.3    295.5   0.055803820   0.54293  -0.57672  -0.40901  -0.20745
  43   34288.6    291.6   0.003839432   0.03686  -0.16536   0.05985  -0.07706
  44   34319.0    291.4   0.010702243   0.10266   0.16518   0.11735  -0.24821
  45   34522.6    289.7   0.072458015   0.69097  -0.73158   0.27562  -0.28247
  46   34921.8    286.4   0.009428254   0.08888  -0.25244  -0.12975  -0.09123
  47   34990.7    285.8   0.166810133   1.56944   1.11245   0.01772   0.57584
  48   35433.9    282.2   0.072986016   0.67810  -0.67249  -0.43674  -0.18739
  49   35457.1    282.0   0.007070682   0.06565  -0.24352  -0.07245   0.03318
  50   35629.9    280.7   0.027108625   0.25048   0.07306  -0.48504   0.09939
  51   35804.9    279.3   0.032421112   0.29810  -0.53022   0.10288  -0.07986
  52   35816.7    279.2   0.019015742   0.17478   0.38258  -0.13442  -0.10175
  53   36029.1    277.6   0.162388673   1.48381  -0.87052  -0.80917   0.26693
  54   36232.1    276.0   0.019787586   0.17979  -0.21358  -0.30127   0.20836
  55   36266.7    275.7   0.004351401   0.03950   0.13399   0.14656   0.00821
  56   36543.4    273.6   0.058415191   0.52625  -0.67059  -0.27668  -0.00277
  57   36626.5    273.0   0.067254197   0.60450  -0.12521  -0.65445  -0.40064
  58   37062.6    269.8   0.016967026   0.15071   0.22200   0.21873   0.23148
  59   37132.9    269.3   0.023036223   0.20423  -0.28397  -0.26331  -0.23295
  60   37473.8    266.9   0.031661404   0.27815   0.05070  -0.46378  -0.24595
  61   37541.0    266.4   0.000341194   0.00299   0.00597   0.00114  -0.05436
  62   37694.7    265.3   0.002483574   0.02169  -0.00526  -0.00219  -0.14717
  63   38603.4    259.0   0.022011997   0.18772   0.18731  -0.37190  -0.11968
  64   38701.0    258.4   0.021915614   0.18643  -0.41334  -0.11153  -0.05600
  65   38950.3    256.7   0.016805114   0.14204   0.22606  -0.29617  -0.05673
  66   39033.3    256.2   0.007902004   0.06665   0.11158  -0.22255   0.06832
  67   39286.2    254.5   0.133598248   1.11953   0.91138  -0.51362   0.15844
  68   39561.2    252.8   0.053778129   0.44752  -0.59055  -0.07589  -0.30498
  69   39595.4    252.6   0.015344897   0.12758  -0.00155  -0.34926   0.07482
  70   39719.9    251.8   0.022010586   0.18243   0.31405  -0.28175   0.06650
  71   40015.0    249.9   0.011307759   0.09303   0.02764   0.29925   0.05215
  72   40137.3    249.1   0.008020928   0.06579   0.11136  -0.01561   0.23053

FINAL SINGLE POINT ENERGY     -3718.765613863011

DIPOLE MOMENT
-------------
                                X             Y             Z
Electronic contribution:    -15.60967       8.97704     -16.14848
Nuclear contribution   :     15.65775      -8.27282      16.77580
                        -----------------------------------------
Total Dipole Moment    :      0.04808       0.70422       0.62732
                        -----------------------------------------
Magnitude (a.u.)       :      0.94433
Magnitude (Debye)      :      2.40031

Rotational constants in cm-1:     0.001651     0.000254     0.000232
Rotational constants in MHz :    49.495580     7.626655     6.962190

                             ****ORCA TERMINATED NORMALLY****
TOTAL RUN TIME: 0 days 0 hours 13 minutes 6 seconds 496 msec
