                         Program Version 4.2.0 -  RELEASE  -
|  1> # ORCA input file
|  2> # SCF done       -166.757434437996          0.000723217170
|  3> ! CAM-B3LYP def2-SVP def2/J RIJCOSX Grid4 TightSCF
|  4> %maxcore 5000
|  5> %tddft
|  6>     Mode sTDDFT
|  7>     Ethresh 5.0
|  8>     maxcore 5000
|  9> end
| 10>
| 11> %pal
| 12>   nprocs 6
| 13>   end
| 14> * xyz 0 1
| 15>    C        1.47511        -7.72192        11.34170
| 16>    S        1.44287        -7.78474         9.64630
| 17>    C        2.24264        -9.34171         9.61351
| 18>    C        2.51098        -9.77253        10.93016
| 19>    C        2.06845        -8.83643        11.91452
| 20>    C        2.26424        -9.10439        13.28593
| 21>    C        2.87940       -10.26716        13.66892
| 22>    C        3.11041       -10.59388        15.11010
| 23>    C        3.30851       -11.18769        12.68306
| 24>    C        3.13551       -10.95949        11.34464
| 25>    C        2.56760       -10.00820         8.43311
| 26>    C        2.32218        -9.51582         7.17382
| 27>    C        2.63013       -10.10957         5.94178
| 28>    C        2.94539       -11.42049         5.54931
| 29>    N        3.26403       -12.56620         6.28333
| 30>    O        3.23853       -13.63302         5.68788
| 31>    O        3.57135       -12.47545         7.46791
| 32>    C        2.85758       -11.50480         4.11994
| 33>    C        2.49932       -10.29739         3.60731
| 34>    C        2.40306        -9.36086         4.67874
| 35>    C        2.33083        -7.98554         4.56341
| 36>    C        2.92911        -7.03557         5.45948
| 37>    C        2.91699        -5.80927         4.87576
| 38>    C        2.24534        -5.90757         3.61093
| 39>    N        2.02148        -4.79076         2.79250
| 40>    O        1.44125        -4.94288         1.72682
| 41>    O        2.43328        -3.71346         3.19114
| 42>    C        1.85592        -7.22638         3.39660
| 43>    C        1.04775        -7.69525         2.32746
| 44>    C        0.20783        -8.75631         2.38469
| 45>    C       -0.59659        -9.24052         1.29315
| 46>    C       -1.60466       -10.19303         1.57419
| 47>    C       -2.42153       -10.72440         0.60706
| 48>    C       -2.21810       -10.29981        -0.70462
| 49>    C       -1.19682        -9.35911        -0.99247
| 50>    C       -0.38712        -8.81455        -0.02410
| 51>    O       -1.20700        -9.15240        -2.32989
| 52>    C       -2.22176        -9.94379        -2.78932
| 53>    N       -2.83008       -10.63398        -1.87412
| 54>    C       -2.43710        -9.98035        -4.20041
| 55>    S       -1.12746        -9.54352        -5.23381
| 56>    C       -2.08211        -9.95016        -6.61540
| 57>    N       -1.50888        -9.80022        -7.89556
| 58>    O       -2.19110       -10.09500        -8.85428
| 59>    O       -0.36768        -9.38513        -7.93550
| 60>    C       -3.34334       -10.38274        -6.29966
| 61>    C       -3.56325       -10.39144        -4.91012
| 62>    C       -4.84832       -10.70238        -4.33722
| 63>    O       -5.75304       -11.35557        -5.12789
| 64>    C       -6.86416       -11.45295        -4.36320
| 65>    C       -6.57557       -10.83183        -3.11403
| 66>    N       -5.28534       -10.37565        -3.16757
| 67>    C       -7.51307       -10.75304        -2.09686
| 68>    C       -8.73941       -11.32214        -2.39581
| 69>    C       -9.00287       -11.93616        -3.65504
| 70>    C       -8.08069       -12.02522        -4.67920
| 71>    O      -10.27752       -12.38209        -3.62918
| 72>    C      -10.74159       -12.03742        -2.39026
| 73>    N       -9.88112       -11.42253        -1.64411
| 74>    C      -12.09228       -12.35760        -2.00636
| 75>    C      -12.95387       -12.97860        -2.80544
| 76>    H        1.06069        -6.87339        11.85069
| 77>    H        1.92518        -8.38535        14.01645
| 78>    H        2.74996        -9.79757        15.75584
| 79>    H        4.17325       -10.74279        15.29671
| 80>    H        2.59624       -11.51762        15.37314
| 81>    H        3.78867       -12.09800        13.01012
| 82>    H        3.47172       -11.67810        10.61388
| 83>    H        3.06968       -10.95925         8.53712
| 84>    H        1.83496        -8.55002         7.11167
| 85>    H        3.06846       -12.40543         3.57440
| 86>    H        2.42001       -10.04974         2.56750
| 87>    H        3.43548        -7.28807         6.37055
| 88>    H        3.33447        -4.89658         5.25616
| 89>    H        1.06051        -7.07058         1.44468
| 90>    H        0.08531        -9.27948         3.32452
| 91>    H       -1.73279       -10.50406         2.60068
| 92>    H       -3.19092       -11.44263         0.83555
| 93>    H        0.37800        -8.10169        -0.28122
| 94>    H       -4.07612       -10.66777        -7.03297
| 95>    H       -7.30330       -10.28644        -1.15144
| 96>    H       -8.28967       -12.49017        -5.62686
| 97>    H      -12.34935       -12.04521        -1.00573
| 98>    H      -12.67688       -13.28071        -3.80157
| 99>    H      -13.95697       -13.20104        -2.48710
|100> *
|101>
|102>                          ****END OF INPUT****

CARTESIAN COORDINATES (ANGSTROEM)
---------------------------------
  C      1.475110   -7.721920   11.341700
  S      1.442870   -7.784740    9.646300
  C      2.242640   -9.341710    9.613510
  C      2.510980   -9.772530   10.930160
  C      2.068450   -8.836430   11.914520
  C      2.264240   -9.104390   13.285930
  C      2.879400  -10.267160   13.668920
  C      3.110410  -10.593880   15.110100
  C      3.308510  -11.187690   12.683060
  C      3.135510  -10.959490   11.344640
  C      2.567600  -10.008200    8.433110
  C      2.322180   -9.515820    7.173820
  C      2.630130  -10.109570    5.941780
  C      2.945390  -11.420490    5.549310
  N      3.264030  -12.566200    6.283330
  O      3.238530  -13.633020    5.687880
  O      3.571350  -12.475450    7.467910
  C      2.857580  -11.504800    4.119940
  C      2.499320  -10.297390    3.607310
  C      2.403060   -9.360860    4.678740
  C      2.330830   -7.985540    4.563410
  C      2.929110   -7.035570    5.459480
  C      2.916990   -5.809270    4.875760
  C      2.245340   -5.907570    3.610930
  N      2.021480   -4.790760    2.792500
  O      1.441250   -4.942880    1.726820
  O      2.433280   -3.713460    3.191140
  C      1.855920   -7.226380    3.396600
  C      1.047750   -7.695250    2.327460
  C      0.207830   -8.756310    2.384690
  C     -0.596590   -9.240520    1.293150
  C     -1.604660  -10.193030    1.574190
  C     -2.421530  -10.724400    0.607060
  C     -2.218100  -10.299810   -0.704620
  C     -1.196820   -9.359110   -0.992470
  C     -0.387120   -8.814550   -0.024100
  O     -1.207000   -9.152400   -2.329890
  C     -2.221760   -9.943790   -2.789320
  N     -2.830080  -10.633980   -1.874120
  C     -2.437100   -9.980350   -4.200410
  S     -1.127460   -9.543520   -5.233810
  C     -2.082110   -9.950160   -6.615400
  N     -1.508880   -9.800220   -7.895560
  O     -2.191100  -10.095000   -8.854280
  O     -0.367680   -9.385130   -7.935500
  C     -3.343340  -10.382740   -6.299660
  C     -3.563250  -10.391440   -4.910120
  C     -4.848320  -10.702380   -4.337220
  O     -5.753040  -11.355570   -5.127890
  C     -6.864160  -11.452950   -4.363200
  C     -6.575570  -10.831830   -3.114030
  N     -5.285340  -10.375650   -3.167570
  C     -7.513070  -10.753040   -2.096860
  C     -8.739410  -11.322140   -2.395810
  C     -9.002870  -11.936160   -3.655040
  C     -8.080690  -12.025220   -4.679200
  O    -10.277520  -12.382090   -3.629180
  C    -10.741590  -12.037420   -2.390260
  N     -9.881120  -11.422530   -1.644110
  C    -12.092280  -12.357600   -2.006360
  C    -12.953870  -12.978600   -2.805440
  H      1.060690   -6.873390   11.850690
  H      1.925180   -8.385350   14.016450
  H      2.749960   -9.797570   15.755840
  H      4.173250  -10.742790   15.296710
  H      2.596240  -11.517620   15.373140
  H      3.788670  -12.098000   13.010120
  H      3.471720  -11.678100   10.613880
  H      3.069680  -10.959250    8.537120
  H      1.834960   -8.550020    7.111670
  H      3.068460  -12.405430    3.574400
  H      2.420010  -10.049740    2.567500
  H      3.435480   -7.288070    6.370550
  H      3.334470   -4.896580    5.256160
  H      1.060510   -7.070580    1.444680
  H      0.085310   -9.279480    3.324520
  H     -1.732790  -10.504060    2.600680
  H     -3.190920  -11.442630    0.835550
  H      0.378000   -8.101690   -0.281220
  H     -4.076120  -10.667770   -7.032970
  H     -7.303300  -10.286440   -1.151440
  H     -8.289670  -12.490170   -5.626860
  H    -12.349350  -12.045210   -1.005730
  H    -12.676880  -13.280710   -3.801570
  H    -13.956970  -13.201040   -2.487100

 Total Charge           Charge          ....    0
 Multiplicity           Mult            ....    1
 Number of Electrons    NEL             ....  434
 Basis Dimension        Dim             ....  982

ORBITAL ENERGIES
----------------

  NO   OCC          E(Eh)            E(eV)
   0   2.0000     -88.996911     -2421.7291
   1   2.0000     -88.984625     -2421.3947
   2   2.0000     -19.309632      -525.4418
   3   2.0000     -19.302888      -525.2583
   4   2.0000     -19.297025      -525.0987
   5   2.0000     -19.248305      -523.7730
   6   2.0000     -19.248095      -523.7673
   7   2.0000     -19.226463      -523.1787
   8   2.0000     -19.225935      -523.1643
   9   2.0000     -19.225062      -523.1405
  10   2.0000     -19.221696      -523.0489
  11   2.0000     -14.659723      -398.9113
  12   2.0000     -14.635452      -398.2509
  13   2.0000     -14.633363      -398.1941
  14   2.0000     -14.418279      -392.3413
  15   2.0000     -14.409411      -392.1000
  16   2.0000     -14.405438      -391.9919
  17   2.0000     -10.387529      -282.6590
  18   2.0000     -10.377238      -282.3790
  19   2.0000     -10.367828      -282.1229
  20   2.0000     -10.357427      -281.8399
  21   2.0000     -10.345799      -281.5235
  22   2.0000     -10.344074      -281.4766
  23   2.0000     -10.342975      -281.4467
  24   2.0000     -10.341792      -281.4145
  25   2.0000     -10.323129      -280.9066
  26   2.0000     -10.322272      -280.8833
  27   2.0000     -10.321766      -280.8695
  28   2.0000     -10.318443      -280.7791
  29   2.0000     -10.317966      -280.7661
  30   2.0000     -10.315097      -280.6881
  31   2.0000     -10.315046      -280.6867
  32   2.0000     -10.314366      -280.6682
  33   2.0000     -10.312459      -280.6163
  34   2.0000     -10.312337      -280.6129
  35   2.0000     -10.310625      -280.5664
  36   2.0000     -10.305838      -280.4361
  37   2.0000     -10.304545      -280.4009
  38   2.0000     -10.300868      -280.3009
  39   2.0000     -10.298302      -280.2310
  40   2.0000     -10.296335      -280.1775
  41   2.0000     -10.295613      -280.1579
  42   2.0000     -10.293726      -280.1065
  43   2.0000     -10.293714      -280.1062
  44   2.0000     -10.291970      -280.0587
  45   2.0000     -10.290960      -280.0313
  46   2.0000     -10.289975      -280.0045
  47   2.0000     -10.289147      -279.9819
  48   2.0000     -10.288884      -279.9748
  49   2.0000     -10.287201      -279.9290
  50   2.0000     -10.286270      -279.9036
  51   2.0000     -10.285669      -279.8873
  52   2.0000     -10.285110      -279.8721
  53   2.0000     -10.284817      -279.8641
  54   2.0000     -10.284127      -279.8453
  55   2.0000     -10.283899      -279.8391
  56   2.0000     -10.283819      -279.8369
  57   2.0000     -10.281901      -279.7847
  58   2.0000     -10.276857      -279.6475
  59   2.0000     -10.272932      -279.5407
  60   2.0000     -10.271703      -279.5073
  61   2.0000      -8.092079      -220.1967
  62   2.0000      -8.079772      -219.8618
  63   2.0000      -6.061416      -164.9395
  64   2.0000      -6.056933      -164.8175
  65   2.0000      -6.054237      -164.7442
  66   2.0000      -6.048569      -164.5899
  67   2.0000      -6.044411      -164.4768
  68   2.0000      -6.043013      -164.4387
  69   2.0000      -1.331194       -36.2236
  70   2.0000      -1.304655       -35.5015
  71   2.0000      -1.301252       -35.4089
  72   2.0000      -1.239090       -33.7174
  73   2.0000      -1.231834       -33.5199
  74   2.0000      -1.226372       -33.3713
  75   2.0000      -1.150502       -31.3067
  76   2.0000      -1.121421       -30.5154
  77   2.0000      -1.116968       -30.3943
  78   2.0000      -1.036242       -28.1976
  79   2.0000      -1.027012       -27.9464
  80   2.0000      -1.023046       -27.8385
  81   2.0000      -1.016988       -27.6736
  82   2.0000      -1.010746       -27.5038
  83   2.0000      -1.007011       -27.4021
  84   2.0000      -0.986185       -26.8355
  85   2.0000      -0.967159       -26.3177
  86   2.0000      -0.957358       -26.0510
  87   2.0000      -0.947512       -25.7831
  88   2.0000      -0.923756       -25.1367
  89   2.0000      -0.911487       -24.8028
  90   2.0000      -0.906585       -24.6694
  91   2.0000      -0.901238       -24.5239
  92   2.0000      -0.896315       -24.3900
  93   2.0000      -0.885783       -24.1034
  94   2.0000      -0.876098       -23.8398
  95   2.0000      -0.870916       -23.6988
  96   2.0000      -0.857638       -23.3375
  97   2.0000      -0.856804       -23.3148
  98   2.0000      -0.851955       -23.1829
  99   2.0000      -0.850118       -23.1329
 100   2.0000      -0.832831       -22.6625
 101   2.0000      -0.830424       -22.5970
 102   2.0000      -0.816196       -22.2098
 103   2.0000      -0.804259       -21.8850
 104   2.0000      -0.788721       -21.4622
 105   2.0000      -0.779164       -21.2021
 106   2.0000      -0.767469       -20.8839
 107   2.0000      -0.762399       -20.7459
 108   2.0000      -0.748515       -20.3681
 109   2.0000      -0.723523       -19.6881
 110   2.0000      -0.722587       -19.6626
 111   2.0000      -0.721410       -19.6306
 112   2.0000      -0.717234       -19.5169
 113   2.0000      -0.711509       -19.3612
 114   2.0000      -0.706570       -19.2267
 115   2.0000      -0.701906       -19.0998
 116   2.0000      -0.696567       -18.9546
 117   2.0000      -0.683855       -18.6086
 118   2.0000      -0.667297       -18.1581
 119   2.0000      -0.666009       -18.1230
 120   2.0000      -0.661897       -18.0111
 121   2.0000      -0.657254       -17.8848
 122   2.0000      -0.652907       -17.7665
 123   2.0000      -0.649395       -17.6709
 124   2.0000      -0.645787       -17.5728
 125   2.0000      -0.641020       -17.4430
 126   2.0000      -0.637932       -17.3590
 127   2.0000      -0.630611       -17.1598
 128   2.0000      -0.629165       -17.1204
 129   2.0000      -0.616988       -16.7891
 130   2.0000      -0.615944       -16.7607
 131   2.0000      -0.614541       -16.7225
 132   2.0000      -0.613386       -16.6911
 133   2.0000      -0.609933       -16.5971
 134   2.0000      -0.602152       -16.3854
 135   2.0000      -0.601236       -16.3605
 136   2.0000      -0.596763       -16.2388
 137   2.0000      -0.592258       -16.1162
 138   2.0000      -0.589759       -16.0482
 139   2.0000      -0.589066       -16.0293
 140   2.0000      -0.583927       -15.8895
 141   2.0000      -0.578026       -15.7289
 142   2.0000      -0.575836       -15.6693
 143   2.0000      -0.570634       -15.5277
 144   2.0000      -0.569605       -15.4997
 145   2.0000      -0.566290       -15.4095
 146   2.0000      -0.562461       -15.3053
 147   2.0000      -0.555720       -15.1219
 148   2.0000      -0.554460       -15.0876
 149   2.0000      -0.545570       -14.8457
 150   2.0000      -0.543482       -14.7889
 151   2.0000      -0.542386       -14.7591
 152   2.0000      -0.535809       -14.5801
 153   2.0000      -0.532397       -14.4873
 154   2.0000      -0.529619       -14.4117
 155   2.0000      -0.524048       -14.2601
 156   2.0000      -0.520564       -14.1653
 157   2.0000      -0.519309       -14.1311
 158   2.0000      -0.518465       -14.1081
 159   2.0000      -0.514898       -14.0111
 160   2.0000      -0.513882       -13.9835
 161   2.0000      -0.509828       -13.8731
 162   2.0000      -0.503790       -13.7088
 163   2.0000      -0.500386       -13.6162
 164   2.0000      -0.497248       -13.5308
 165   2.0000      -0.494554       -13.4575
 166   2.0000      -0.492589       -13.4040
 167   2.0000      -0.489542       -13.3211
 168   2.0000      -0.485238       -13.2040
 169   2.0000      -0.482517       -13.1300
 170   2.0000      -0.478040       -13.0081
 171   2.0000      -0.473638       -12.8884
 172   2.0000      -0.470228       -12.7956
 173   2.0000      -0.467507       -12.7215
 174   2.0000      -0.464663       -12.6441
 175   2.0000      -0.460030       -12.5181
 176   2.0000      -0.457904       -12.4602
 177   2.0000      -0.455265       -12.3884
 178   2.0000      -0.452627       -12.3166
 179   2.0000      -0.445048       -12.1104
 180   2.0000      -0.444797       -12.1036
 181   2.0000      -0.443462       -12.0672
 182   2.0000      -0.442678       -12.0459
 183   2.0000      -0.438520       -11.9327
 184   2.0000      -0.432137       -11.7590
 185   2.0000      -0.430642       -11.7184
 186   2.0000      -0.429753       -11.6942
 187   2.0000      -0.424871       -11.5613
 188   2.0000      -0.422458       -11.4957
 189   2.0000      -0.416124       -11.3233
 190   2.0000      -0.404327       -11.0023
 191   2.0000      -0.394786       -10.7427
 192   2.0000      -0.391756       -10.6602
 193   2.0000      -0.387738       -10.5509
 194   2.0000      -0.384479       -10.4622
 195   2.0000      -0.376066       -10.2333
 196   2.0000      -0.375512       -10.2182
 197   2.0000      -0.373344       -10.1592
 198   2.0000      -0.372923       -10.1477
 199   2.0000      -0.367084        -9.9889
 200   2.0000      -0.366714        -9.9788
 201   2.0000      -0.365288        -9.9400
 202   2.0000      -0.358645        -9.7592
 203   2.0000      -0.355920        -9.6851
 204   2.0000      -0.353312        -9.6141
 205   2.0000      -0.350269        -9.5313
 206   2.0000      -0.350186        -9.5290
 207   2.0000      -0.348467        -9.4823
 208   2.0000      -0.329931        -8.9779
 209   2.0000      -0.326945        -8.8966
 210   2.0000      -0.324556        -8.8316
 211   2.0000      -0.314226        -8.5505
 212   2.0000      -0.304744        -8.2925
 213   2.0000      -0.296167        -8.0591
 214   2.0000      -0.282281        -7.6813
 215   2.0000      -0.265077        -7.2131
 216   2.0000      -0.243942        -6.6380
 217   0.0000      -0.126337        -3.4378
 218   0.0000      -0.083577        -2.2743
 219   0.0000      -0.065386        -1.7792
 220   0.0000      -0.042214        -1.1487
 221   0.0000      -0.035283        -0.9601

MULLIKEN ATOMIC CHARGES
-----------------------
   0 C :   -0.097023
   1 S :    0.165654
   2 C :   -0.121302
   3 C :    0.125787
   4 C :    0.099252
   5 C :   -0.043128
   6 C :   -0.046514
   7 C :    0.089948
   8 C :    0.007346
   9 C :   -0.023310
  10 C :    0.031286
  11 C :   -0.112217
  12 C :    0.094308
  13 C :    0.040822
  14 N :    0.285098
  15 O :   -0.264695
  16 O :   -0.278135
  17 C :    0.030047
  18 C :   -0.015885
  19 C :    0.019410
  20 C :    0.020875
  21 C :   -0.014234
  22 C :    0.010780
  23 C :    0.078104
  24 N :    0.273984
  25 O :   -0.260449
  26 O :   -0.254158
  27 C :    0.048396
  28 C :   -0.037913
  29 C :   -0.007648
  30 C :    0.096934
  31 C :   -0.010047
  32 C :   -0.035891
  33 C :    0.023809
  34 C :    0.246776
  35 C :   -0.126175
  36 O :   -0.203857
  37 C :    0.106211
  38 N :    0.000316
  39 C :   -0.166896
  40 S :    0.255361
  41 C :    0.016294
  42 N :    0.273125
  43 O :   -0.235414
  44 O :   -0.248712
  45 C :   -0.007022
  46 C :    0.126757
  47 C :    0.058362
  48 O :   -0.206241
  49 C :    0.219382
  50 C :    0.027046
  51 N :   -0.013665
  52 C :   -0.085799
  53 C :    0.012757
  54 C :    0.215615
  55 C :   -0.158945
  56 O :   -0.208239
  57 C :    0.095347
  58 N :   -0.047942
  59 C :   -0.018276
  60 C :    0.019157
  61 H :    0.031357
  62 H :   -0.035697
  63 H :    0.010749
  64 H :    0.031750
  65 H :    0.032064
  66 H :   -0.018101
  67 H :    0.000434
  68 H :    0.024071
  69 H :    0.000884
  70 H :    0.002346
  71 H :   -0.000814
  72 H :   -0.007391
  73 H :   -0.001753
  74 H :    0.023956
  75 H :    0.004619
  76 H :   -0.014816
  77 H :   -0.013070
  78 H :   -0.007554
  79 H :    0.023530
  80 H :   -0.024169
  81 H :   -0.015399
  82 H :    0.016723
  83 H :    0.037536
  84 H :    0.034130
Sum of atomic charges:    0.0000000

LOEWDIN ATOMIC CHARGES
----------------------
   0 C :   -0.159621
   1 S :    0.495390
   2 C :   -0.188447
   3 C :   -0.024162
   4 C :   -0.052824
   5 C :   -0.020960
   6 C :   -0.022812
   7 C :   -0.043443
   8 C :   -0.005371
   9 C :   -0.008124
  10 C :    0.025959
  11 C :   -0.057936
  12 C :    0.022598
  13 C :   -0.082101
  14 N :    0.288946
  15 O :   -0.227625
  16 O :   -0.238005
  17 C :    0.026070
  18 C :   -0.063134
  19 C :    0.050832
  20 C :    0.017289
  21 C :   -0.053049
  22 C :    0.009385
  23 C :   -0.058476
  24 N :    0.286706
  25 O :   -0.224428
  26 O :   -0.219006
  27 C :    0.014430
  28 C :   -0.027002
  29 C :    0.015952
  30 C :   -0.026002
  31 C :   -0.013081
  32 C :   -0.013724
  33 C :   -0.024847
  34 C :    0.036708
  35 C :   -0.023242
  36 O :   -0.013004
  37 C :    0.042840
  38 N :   -0.064020
  39 C :   -0.158887
  40 S :    0.530351
  41 C :   -0.192873
  42 N :    0.272226
  43 O :   -0.201179
  44 O :   -0.214510
  45 C :    0.000523
  46 C :   -0.059677
  47 C :    0.059345
  48 O :   -0.012294
  49 C :    0.035616
  50 C :   -0.036252
  51 N :   -0.074202
  52 C :   -0.013415
  53 C :   -0.037147
  54 C :    0.037386
  55 C :   -0.063616
  56 O :   -0.012157
  57 C :    0.062639
  58 N :   -0.100793
  59 C :   -0.040851
  60 C :   -0.004554
  61 H :    0.029639
  62 H :    0.027879
  63 H :    0.030076
  64 H :    0.037490
  65 H :    0.037796
  66 H :    0.031373
  67 H :    0.038664
  68 H :    0.034904
  69 H :    0.024517
  70 H :    0.036968
  71 H :    0.030194
  72 H :    0.028152
  73 H :    0.035888
  74 H :    0.034450
  75 H :    0.031692
  76 H :    0.031424
  77 H :    0.039580
  78 H :    0.040156
  79 H :    0.050558
  80 H :    0.043067
  81 H :    0.043243
  82 H :    0.046050
  83 H :    0.030334
  84 H :    0.031569

  Mayer bond orders larger than 0.100000
B(  0-C ,  1-S ) :   1.2394 B(  0-C ,  4-C ) :   1.3780 B(  0-C , 61-H ) :   0.9675
B(  1-S ,  2-C ) :   1.1116 B(  2-C ,  3-C ) :   1.2638 B(  2-C , 10-C ) :   1.2623
B(  3-C ,  4-C ) :   1.2198 B(  3-C ,  9-C ) :   1.2322 B(  4-C ,  5-C ) :   1.1645
B(  5-C ,  6-C ) :   1.5517 B(  5-C , 62-H ) :   1.0010 B(  6-C ,  7-C ) :   1.0504
B(  6-C ,  8-C ) :   1.2179 B(  7-C , 63-H ) :   0.9617 B(  7-C , 64-H ) :   0.9554
B(  7-C , 65-H ) :   0.9552 B(  8-C ,  9-C ) :   1.5337 B(  8-C , 66-H ) :   0.9891
B(  9-C , 67-H ) :   0.9943 B( 10-C , 11-C ) :   1.4920 B( 10-C , 68-H ) :   0.9413
B( 11-C , 12-C ) :   1.2590 B( 11-C , 69-H ) :   0.9566 B( 12-C , 13-C ) :   1.4032
B( 12-C , 19-C ) :   1.0067 B( 13-C , 14-N ) :   0.9929 B( 13-C , 17-C ) :   1.1449
B( 14-N , 15-O ) :   1.5240 B( 14-N , 16-O ) :   1.4398 B( 15-O , 16-O ) :   0.2328
B( 16-O , 68-H ) :   0.1161 B( 17-C , 18-C ) :   1.5501 B( 17-C , 70-H ) :   1.0058
B( 18-C , 19-C ) :   1.1572 B( 18-C , 71-H ) :   1.0016 B( 19-C , 20-C ) :   1.4735
B( 20-C , 21-C ) :   1.1353 B( 20-C , 27-C ) :   1.0376 B( 21-C , 22-C ) :   1.5648
B( 21-C , 72-H ) :   1.0037 B( 22-C , 23-C ) :   1.1411 B( 22-C , 73-H ) :   1.0121
B( 23-C , 24-N ) :   0.9568 B( 23-C , 27-C ) :   1.4934 B( 24-N , 25-O ) :   1.4880
B( 24-N , 26-O ) :   1.5317 B( 25-O , 26-O ) :   0.2543 B( 27-C , 28-C ) :   1.1631
B( 28-C , 29-C ) :   1.6137 B( 28-C , 74-H ) :   0.9407 B( 29-C , 30-C ) :   1.0969
B( 29-C , 75-H ) :   0.9830 B( 30-C , 31-C ) :   1.2897 B( 30-C , 35-C ) :   1.3203
B( 31-C , 32-C ) :   1.4026 B( 31-C , 76-H ) :   0.9964 B( 32-C , 33-C ) :   1.2840
B( 32-C , 35-C ) :   0.1013 B( 32-C , 77-H ) :   1.0190 B( 33-C , 34-C ) :   1.2501
B( 33-C , 38-N ) :   1.3080 B( 34-C , 35-C ) :   1.3363 B( 34-C , 36-O ) :   1.1022
B( 35-C , 78-H ) :   1.0159 B( 36-O , 37-C ) :   1.1730 B( 37-C , 38-N ) :   1.7509
B( 37-C , 39-C ) :   1.0630 B( 39-C , 40-S ) :   1.1804 B( 39-C , 41-C ) :   0.1100
B( 39-C , 46-C ) :   1.4997 B( 40-S , 41-C ) :   1.1231 B( 41-C , 42-N ) :   0.9401
B( 41-C , 45-C ) :   1.4797 B( 42-N , 43-O ) :   1.5522 B( 42-N , 44-O ) :   1.5247
B( 43-O , 44-O ) :   0.2717 B( 45-C , 46-C ) :   1.2268 B( 45-C , 79-H ) :   1.0074
B( 46-C , 47-C ) :   1.0009 B( 47-C , 48-O ) :   1.1665 B( 47-C , 51-N ) :   1.7881
B( 48-O , 49-C ) :   1.1015 B( 49-C , 50-C ) :   1.2485 B( 49-C , 55-C ) :   1.3103
B( 50-C , 51-N ) :   1.2757 B( 50-C , 52-C ) :   1.2788 B( 52-C , 53-C ) :   1.2916
B( 52-C , 55-C ) :   0.1502 B( 52-C , 80-H ) :   1.0517 B( 53-C , 54-C ) :   1.2579
B( 53-C , 58-N ) :   1.2859 B( 54-C , 55-C ) :   1.3197 B( 54-C , 56-O ) :   1.1110
B( 55-C , 81-H ) :   1.0451 B( 56-O , 57-C ) :   1.1261 B( 57-C , 58-N ) :   1.7459
B( 57-C , 59-C ) :   1.0924 B( 59-C , 60-C ) :   1.9227 B( 59-C , 82-H ) :   0.9570
B( 60-C , 83-H ) :   0.9564 B( 60-C , 84-H ) :   0.9471

-----------------------------------------------------------------------------
         ABSORPTION SPECTRUM VIA TRANSITION ELECTRIC DIPOLE MOMENTS
-----------------------------------------------------------------------------
State   Energy  Wavelength   fosc         T2         TX        TY        TZ
        (cm-1)    (nm)                  (au**2)     (au)      (au)      (au)
-----------------------------------------------------------------------------
   0    8562.6   1167.9   0.307872832  11.83699  -0.53716   0.03810  -3.39809
   1   13148.3    760.6   0.069708993   1.74539  -1.14817  -0.29331  -0.58402
   2   21558.3    463.9   0.250176554   3.82038   0.87421  -0.53892  -1.66304
   3   22034.8    453.8   0.299848411   4.47990  -1.25179  -0.40747  -1.65737
   4   22965.1    435.4   0.395714160   5.67268   1.13440   0.82000   1.92703
   5   23791.0    420.3   0.315690778   4.36843  -0.61160  -0.20814  -1.98772
   6   25736.5    388.6   0.106367878   1.36062   0.20017   1.06992   0.41931
   7   26246.9    381.0   0.077198683   0.96830   0.09558  -0.43694  -0.87650
   8   26518.2    377.1   0.055677150   0.69121  -0.68208  -0.34592  -0.32606
   9   27167.2    368.1   0.011642567   0.14108  -0.31164   0.13458  -0.16079
  10   27577.9    362.6   0.035310300   0.42152   0.19757  -0.26859   0.55708
  11   27836.3    359.2   0.009010646   0.10657   0.16340  -0.25790  -0.11556
  12   28468.3    351.3   0.071213745   0.82353  -0.25066   0.73317   0.47239
  13   28619.2    349.4   0.009530515   0.10963   0.27334  -0.18606  -0.01724
  14   29035.4    344.4   0.108118966   1.22589   0.80656  -0.75339  -0.08802
  15   29644.3    337.3   0.330213602   3.66715   0.57761   1.80500  -0.27475
  16   30195.1    331.2   0.082505460   0.89954   0.15863  -0.05562  -0.93343
  17   31543.2    317.0   0.062713972   0.65454   0.75737   0.27702   0.06469
  18   31810.7    314.4   0.176465757   1.82626  -0.09360  -1.27049   0.45094
  19   32363.0    309.0   0.285804939   2.90735  -0.00899  -1.70504   0.01019
  20   32517.9    307.5   0.007066225   0.07154   0.07584  -0.04344   0.25279
  21   32839.8    304.5   0.060347185   0.60497   0.11989  -0.76132   0.10479
  22   33125.0    301.9   0.493835299   4.90797  -2.05572  -0.61209   0.55437
  23   33497.1    298.5   0.038175160   0.37519  -0.00236  -0.34548   0.50579
  24   33656.4    297.1   0.205648561   2.01156   0.51691  -1.31225  -0.14959
  25   34311.0    291.5   0.113606123   1.09004   0.70337   0.77149  -0.01108
  26   34650.0    288.6   0.042785646   0.40651   0.23600  -0.32991   0.49191
  27   34773.7    287.6   0.056723388   0.53702   0.33239  -0.22401  -0.61348
  28   35063.6    285.2   0.134207022   1.26007  -0.47625  -0.16338   1.00327
  29   35795.6    279.4   0.030299284   0.27866   0.32282  -0.39738   0.12863
  30   36048.4    277.4   0.063447090   0.57943  -0.47951  -0.35037   0.47617
  31   36270.8    275.7   0.235676266   2.13912   0.86484   0.39163  -1.11256
  32   37373.0    267.6   0.009668555   0.08517  -0.20845  -0.18836  -0.07899
  33   37526.1    266.5   0.044125567   0.38711   0.06263  -0.42521   0.44987
  34   38127.3    262.3   0.065276411   0.56363   0.53844   0.52276  -0.02088
  35   38225.5    261.6   0.023957821   0.20633  -0.06732  -0.20280  -0.40084
  36   38413.0    260.3   0.004296036   0.03682   0.08265  -0.00215   0.17316
  37   38798.7    257.7   0.027563395   0.23388   0.25218  -0.13525   0.38986
  38   38918.1    257.0   0.039050693   0.33033  -0.23613  -0.27993  -0.44296
  39   39202.4    255.1   0.028309215   0.23773  -0.07468   0.44456  -0.18580
  40   39428.3    253.6   0.043554649   0.36367   0.18847  -0.07908  -0.56735
  41   39864.9    250.8   0.047038743   0.38845   0.11193  -0.47694   0.38529
  42   40080.0    249.5   0.003927671   0.03226   0.05979  -0.09568   0.13975
  43   40264.1    248.4   0.081837595   0.66913  -0.10106  -0.13274   0.80081

FINAL SINGLE POINT ENERGY     -3489.107965993620

DIPOLE MOMENT
-------------
                                X             Y             Z
Electronic contribution:     -5.03932       7.54148     -65.54278
Nuclear contribution   :      3.45711      -8.25495      69.05473
                        -----------------------------------------
Total Dipole Moment    :     -1.58220      -0.71347       3.51195
                        -----------------------------------------
Magnitude (a.u.)       :      3.91742
Magnitude (Debye)      :      9.95729

Rotational constants in cm-1:     0.001613     0.000372     0.000331
Rotational constants in MHz :    48.363815    11.159986     9.925829

                             ****ORCA TERMINATED NORMALLY****
TOTAL RUN TIME: 0 days 0 hours 7 minutes 39 seconds 251 msec
