                         Program Version 4.2.0 -  RELEASE  -
|  1> # ORCA input file
|  2> # SCF done       -193.527938687300          0.000424593660
|  3> ! CAM-B3LYP def2-SVP def2/J RIJCOSX Grid4 TightSCF
|  4> %maxcore 5000
|  5> %tddft
|  6>     Mode sTDDFT
|  7>     Ethresh 5.0
|  8>     maxcore 5000
|  9> end
| 10>
| 11> %pal
| 12>   nprocs 6
| 13>   end
| 14> * xyz 0 1
| 15>    C        8.35345        -5.36306        -7.28810
| 16>    C        8.44579        -5.71057        -8.60712
| 17>    F        8.82058        -6.96077        -8.93798
| 18>    C        8.16197        -4.81072        -9.64280
| 19>    C        7.78170        -3.53612        -9.32538
| 20>    C        7.67118        -3.12345        -7.98196
| 21>    C        7.95772        -4.05639        -6.94316
| 22>    C        7.83261        -3.67228        -5.58729
| 23>    C        7.44106        -2.39688        -5.28707
| 24>    C        7.18186        -1.45861        -6.32865
| 25>    C        7.28405        -1.80626        -7.64423
| 26>    C        6.82161        -0.15588        -5.73205
| 27>    O        6.49070         0.86091        -6.30193
| 28>    C        6.99523        -0.33907        -4.27003
| 29>    C        7.17429        -1.74691        -4.00872
| 30>    C        6.86107        -2.39328        -2.83711
| 31>    C        6.99732        -3.77900        -2.63865
| 32>    N        7.11089        -4.90086        -2.42069
| 33>    C        6.27245        -1.72154        -1.74924
| 34>    N        5.72850        -1.18742        -0.88921
| 35>    C        7.03171         0.74195        -3.43351
| 36>    C        7.60685         0.79237        -2.14474
| 37>    S        8.91374        -0.29890        -1.74878
| 38>    C        9.11119         0.40575        -0.17626
| 39>    C        8.19397         1.45131         0.02409
| 40>    C        7.35206         1.67262        -1.08643
| 41>    O        6.38839         2.62342        -1.03885
| 42>    C        5.19571         2.46297        -1.78596
| 43>    O        8.24167         2.09990         1.20574
| 44>    C        7.21527         3.00872         1.55276
| 45>    C        9.99961        -0.07346         0.78799
| 46>    C       10.89781        -1.10616         0.64845
| 47>    C       11.70423        -1.64717         1.67756
| 48>    C       12.50376        -2.67676         1.27946
| 49>    C       12.39181        -2.98352        -0.09328
| 50>    S       11.20619        -1.94799        -0.85621
| 51>    C       13.12029        -3.91671        -0.81353
| 52>    C       14.06262        -4.84269        -0.31782
| 53>    C       14.67356        -5.58979        -1.28106
| 54>    C       14.25919        -5.28429        -2.59789
| 55>    S       13.00610        -4.04849        -2.55016
| 56>    C       14.64710        -5.77485        -3.82601
| 57>    C       15.67036        -6.67173        -4.17344
| 58>    S       15.63479        -7.27577        -5.80932
| 59>    C       17.03505        -8.27263        -5.55361
| 60>    C       17.49594        -8.14725        -4.23367
| 61>    C       16.77243        -7.20170        -3.48477
| 62>    O       17.17177        -6.77469        -2.24007
| 63>    C       17.76074        -5.48061        -2.25615
| 64>    O       18.55579        -8.88744        -3.87699
| 65>    C       19.07574        -8.79276        -2.56577
| 66>    C       17.61556        -9.09198        -6.53486
| 67>    C       17.56123        -8.93915        -7.89368
| 68>    C       17.80234       -10.09075        -8.79604
| 69>    O       18.23012       -11.18171        -8.48944
| 70>    C       17.36184        -9.63355       -10.13104
| 71>    C       17.28186       -10.33644       -11.29748
| 72>    C       16.81274        -9.68829       -12.46306
| 73>    C       16.42811        -8.31799       -12.39272
| 74>    C       15.95938        -7.67940       -13.55707
| 75>    C       15.88723        -8.38381       -14.72642
| 76>    C       16.26128        -9.73089       -14.81660
| 77>    C       16.71672       -10.36671       -13.69487
| 78>    F       15.44186        -7.77341       -15.84145
| 79>    C       16.52698        -7.61223       -11.17033
| 80>    C       16.99314        -8.25896       -10.05897
| 81>    C       17.24808        -7.78644        -8.70028
| 82>    C       17.44093        -6.47189        -8.34614
| 83>    C       18.00977        -6.06558        -7.12379
| 84>    N       18.52464        -5.68899        -6.16737
| 85>    C       17.19561        -5.38434        -9.20544
| 86>    N       16.99406        -4.46006        -9.85710
| 87>    H        8.57494        -6.08357        -6.51630
| 88>    H        8.24961        -5.14199       -10.66537
| 89>    H        7.55853        -2.82477       -10.10628
| 90>    H        8.05704        -4.39397        -4.81759
| 91>    H        7.07025        -1.08713        -8.42073
| 92>    H        6.67875         1.67077        -3.86561
| 93>    H        5.26065         2.97728        -2.74711
| 94>    H        4.40858         2.92820        -1.19090
| 95>    H        4.96228         1.40808        -1.94053
| 96>    H        7.47363         3.35879         2.55128
| 97>    H        6.24161         2.51494         1.57778
| 98>    H        7.17741         3.85320         0.86271
| 99>    H        9.94465         0.41592         1.75108
|100>    H       11.65977        -1.26301         2.68110
|101>    H       13.17663        -3.20562         1.92980
|102>    H       14.25996        -4.94373         0.73417
|103>    H       15.39978        -6.35476        -1.08017
|104>    H       14.06016        -5.43109        -4.66917
|105>    H       17.02998        -4.71507        -2.52910
|106>    H       18.59511        -5.44162        -2.96208
|107>    H       18.11854        -5.30275        -1.24390
|108>    H       19.80881        -9.59486        -2.49219
|109>    H       18.29634        -8.93074        -1.81392
|110>    H       19.57125        -7.83279        -2.40388
|111>    H       18.13198        -9.97320        -6.16794
|112>    H       17.57577       -11.37477       -11.33389
|113>    H       15.66619        -6.64166       -13.52512
|114>    H       16.18229       -10.23581       -15.76630
|115>    H       17.01106       -11.40455       -13.73937
|116>    H       16.22338        -6.57764       -11.14211
|117> *
|118>
|119>                          ****END OF INPUT****

CARTESIAN COORDINATES (ANGSTROEM)
---------------------------------
  C      8.353450   -5.363060   -7.288100
  C      8.445790   -5.710570   -8.607120
  F      8.820580   -6.960770   -8.937980
  C      8.161970   -4.810720   -9.642800
  C      7.781700   -3.536120   -9.325380
  C      7.671180   -3.123450   -7.981960
  C      7.957720   -4.056390   -6.943160
  C      7.832610   -3.672280   -5.587290
  C      7.441060   -2.396880   -5.287070
  C      7.181860   -1.458610   -6.328650
  C      7.284050   -1.806260   -7.644230
  C      6.821610   -0.155880   -5.732050
  O      6.490700    0.860910   -6.301930
  C      6.995230   -0.339070   -4.270030
  C      7.174290   -1.746910   -4.008720
  C      6.861070   -2.393280   -2.837110
  C      6.997320   -3.779000   -2.638650
  N      7.110890   -4.900860   -2.420690
  C      6.272450   -1.721540   -1.749240
  N      5.728500   -1.187420   -0.889210
  C      7.031710    0.741950   -3.433510
  C      7.606850    0.792370   -2.144740
  S      8.913740   -0.298900   -1.748780
  C      9.111190    0.405750   -0.176260
  C      8.193970    1.451310    0.024090
  C      7.352060    1.672620   -1.086430
  O      6.388390    2.623420   -1.038850
  C      5.195710    2.462970   -1.785960
  O      8.241670    2.099900    1.205740
  C      7.215270    3.008720    1.552760
  C      9.999610   -0.073460    0.787990
  C     10.897810   -1.106160    0.648450
  C     11.704230   -1.647170    1.677560
  C     12.503760   -2.676760    1.279460
  C     12.391810   -2.983520   -0.093280
  S     11.206190   -1.947990   -0.856210
  C     13.120290   -3.916710   -0.813530
  C     14.062620   -4.842690   -0.317820
  C     14.673560   -5.589790   -1.281060
  C     14.259190   -5.284290   -2.597890
  S     13.006100   -4.048490   -2.550160
  C     14.647100   -5.774850   -3.826010
  C     15.670360   -6.671730   -4.173440
  S     15.634790   -7.275770   -5.809320
  C     17.035050   -8.272630   -5.553610
  C     17.495940   -8.147250   -4.233670
  C     16.772430   -7.201700   -3.484770
  O     17.171770   -6.774690   -2.240070
  C     17.760740   -5.480610   -2.256150
  O     18.555790   -8.887440   -3.876990
  C     19.075740   -8.792760   -2.565770
  C     17.615560   -9.091980   -6.534860
  C     17.561230   -8.939150   -7.893680
  C     17.802340  -10.090750   -8.796040
  O     18.230120  -11.181710   -8.489440
  C     17.361840   -9.633550  -10.131040
  C     17.281860  -10.336440  -11.297480
  C     16.812740   -9.688290  -12.463060
  C     16.428110   -8.317990  -12.392720
  C     15.959380   -7.679400  -13.557070
  C     15.887230   -8.383810  -14.726420
  C     16.261280   -9.730890  -14.816600
  C     16.716720  -10.366710  -13.694870
  F     15.441860   -7.773410  -15.841450
  C     16.526980   -7.612230  -11.170330
  C     16.993140   -8.258960  -10.058970
  C     17.248080   -7.786440   -8.700280
  C     17.440930   -6.471890   -8.346140
  C     18.009770   -6.065580   -7.123790
  N     18.524640   -5.688990   -6.167370
  C     17.195610   -5.384340   -9.205440
  N     16.994060   -4.460060   -9.857100
  H      8.574940   -6.083570   -6.516300
  H      8.249610   -5.141990  -10.665370
  H      7.558530   -2.824770  -10.106280
  H      8.057040   -4.393970   -4.817590
  H      7.070250   -1.087130   -8.420730
  H      6.678750    1.670770   -3.865610
  H      5.260650    2.977280   -2.747110
  H      4.408580    2.928200   -1.190900
  H      4.962280    1.408080   -1.940530
  H      7.473630    3.358790    2.551280
  H      6.241610    2.514940    1.577780
  H      7.177410    3.853200    0.862710
  H      9.944650    0.415920    1.751080
  H     11.659770   -1.263010    2.681100
  H     13.176630   -3.205620    1.929800
  H     14.259960   -4.943730    0.734170
  H     15.399780   -6.354760   -1.080170
  H     14.060160   -5.431090   -4.669170
  H     17.029980   -4.715070   -2.529100
  H     18.595110   -5.441620   -2.962080
  H     18.118540   -5.302750   -1.243900
  H     19.808810   -9.594860   -2.492190
  H     18.296340   -8.930740   -1.813920
  H     19.571250   -7.832790   -2.403880
  H     18.131980   -9.973200   -6.167940
  H     17.575770  -11.374770  -11.333890
  H     15.666190   -6.641660  -13.525120
  H     16.182290  -10.235810  -15.766300
  H     17.011060  -11.404550  -13.739370
  H     16.223380   -6.577640  -11.142110

 Total Charge           Charge          ....    0
 Multiplicity           Mult            ....    1
 Number of Electrons    NEL             ....  524
 Basis Dimension        Dim             .... 1174

ORBITAL ENERGIES
----------------

  NO   OCC          E(Eh)            E(eV)
   0   2.0000     -88.963658     -2420.8242
   1   2.0000     -88.961754     -2420.7724
   2   2.0000     -88.959491     -2420.7108
   3   2.0000     -88.955295     -2420.5966
   4   2.0000     -24.780646      -674.3157
   5   2.0000     -24.777240      -674.2230
   6   2.0000     -19.265084      -524.2296
   7   2.0000     -19.264320      -524.2088
   8   2.0000     -19.256346      -523.9918
   9   2.0000     -19.251427      -523.8580
  10   2.0000     -19.206569      -522.6373
  11   2.0000     -19.197484      -522.3901
  12   2.0000     -14.409197      -392.0942
  13   2.0000     -14.407755      -392.0550
  14   2.0000     -14.402433      -391.9101
  15   2.0000     -14.402068      -391.9002
  16   2.0000     -10.364082      -282.0210
  17   2.0000     -10.359962      -281.9089
  18   2.0000     -10.359499      -281.8963
  19   2.0000     -10.358464      -281.8681
  20   2.0000     -10.356336      -281.8102
  21   2.0000     -10.349732      -281.6305
  22   2.0000     -10.346682      -281.5475
  23   2.0000     -10.339423      -281.3500
  24   2.0000     -10.333426      -281.1868
  25   2.0000     -10.332675      -281.1664
  26   2.0000     -10.331854      -281.1440
  27   2.0000     -10.326926      -281.0099
  28   2.0000     -10.326103      -280.9875
  29   2.0000     -10.325966      -280.9838
  30   2.0000     -10.324525      -280.9446
  31   2.0000     -10.324416      -280.9417
  32   2.0000     -10.323788      -280.9246
  33   2.0000     -10.322408      -280.8870
  34   2.0000     -10.322139      -280.8797
  35   2.0000     -10.321818      -280.8709
  36   2.0000     -10.319466      -280.8069
  37   2.0000     -10.316634      -280.7299
  38   2.0000     -10.314699      -280.6772
  39   2.0000     -10.313086      -280.6333
  40   2.0000     -10.312631      -280.6209
  41   2.0000     -10.310856      -280.5727
  42   2.0000     -10.306637      -280.4578
  43   2.0000     -10.306489      -280.4538
  44   2.0000     -10.305753      -280.4338
  45   2.0000     -10.302144      -280.3356
  46   2.0000     -10.300239      -280.2838
  47   2.0000     -10.299994      -280.2771
  48   2.0000     -10.299196      -280.2554
  49   2.0000     -10.297668      -280.2138
  50   2.0000     -10.297279      -280.2032
  51   2.0000     -10.296109      -280.1714
  52   2.0000     -10.295768      -280.1621
  53   2.0000     -10.295338      -280.1504
  54   2.0000     -10.295123      -280.1445
  55   2.0000     -10.293690      -280.1056
  56   2.0000     -10.293488      -280.1001
  57   2.0000     -10.292200      -280.0650
  58   2.0000     -10.291372      -280.0425
  59   2.0000     -10.290316      -280.0137
  60   2.0000     -10.288889      -279.9749
  61   2.0000     -10.288484      -279.9639
  62   2.0000     -10.288416      -279.9620
  63   2.0000     -10.288216      -279.9566
  64   2.0000     -10.287742      -279.9437
  65   2.0000     -10.286160      -279.9006
  66   2.0000     -10.285126      -279.8725
  67   2.0000     -10.283641      -279.8321
  68   2.0000     -10.283584      -279.8306
  69   2.0000     -10.279659      -279.7237
  70   2.0000     -10.278191      -279.6838
  71   2.0000     -10.277241      -279.6580
  72   2.0000      -8.058260      -219.2764
  73   2.0000      -8.056822      -219.2373
  74   2.0000      -8.055620      -219.2046
  75   2.0000      -8.051794      -219.1005
  76   2.0000      -6.027814      -164.0252
  77   2.0000      -6.026275      -163.9833
  78   2.0000      -6.025322      -163.9574
  79   2.0000      -6.023906      -163.9188
  80   2.0000      -6.022394      -163.8777
  81   2.0000      -6.021498      -163.8533
  82   2.0000      -6.021176      -163.8445
  83   2.0000      -6.019584      -163.8012
  84   2.0000      -6.018303      -163.7663
  85   2.0000      -6.017459      -163.7434
  86   2.0000      -6.016658      -163.7216
  87   2.0000      -6.012719      -163.6144
  88   2.0000      -1.295203       -35.2443
  89   2.0000      -1.291687       -35.1486
  90   2.0000      -1.173353       -31.9286
  91   2.0000      -1.172692       -31.9106
  92   2.0000      -1.153040       -31.3758
  93   2.0000      -1.147709       -31.2307
  94   2.0000      -1.121102       -30.5067
  95   2.0000      -1.112330       -30.2680
  96   2.0000      -1.013749       -27.5855
  97   2.0000      -1.008149       -27.4331
  98   2.0000      -1.006807       -27.3966
  99   2.0000      -0.995029       -27.0761
 100   2.0000      -0.993681       -27.0394
 101   2.0000      -0.990351       -26.9488
 102   2.0000      -0.988122       -26.8882
 103   2.0000      -0.986179       -26.8353
 104   2.0000      -0.981374       -26.7045
 105   2.0000      -0.978638       -26.6301
 106   2.0000      -0.969488       -26.3811
 107   2.0000      -0.963994       -26.2316
 108   2.0000      -0.923897       -25.1405
 109   2.0000      -0.917983       -24.9796
 110   2.0000      -0.910716       -24.7818
 111   2.0000      -0.902423       -24.5562
 112   2.0000      -0.892402       -24.2835
 113   2.0000      -0.885088       -24.0845
 114   2.0000      -0.880777       -23.9672
 115   2.0000      -0.876098       -23.8398
 116   2.0000      -0.872843       -23.7513
 117   2.0000      -0.866352       -23.5746
 118   2.0000      -0.859565       -23.3900
 119   2.0000      -0.852172       -23.1888
 120   2.0000      -0.845907       -23.0183
 121   2.0000      -0.840219       -22.8635
 122   2.0000      -0.832563       -22.6552
 123   2.0000      -0.828730       -22.5509
 124   2.0000      -0.826699       -22.4956
 125   2.0000      -0.822290       -22.3757
 126   2.0000      -0.810684       -22.0598
 127   2.0000      -0.805909       -21.9299
 128   2.0000      -0.793641       -21.5961
 129   2.0000      -0.777698       -21.1622
 130   2.0000      -0.769976       -20.9521
 131   2.0000      -0.766630       -20.8611
 132   2.0000      -0.758444       -20.6383
 133   2.0000      -0.751428       -20.4474
 134   2.0000      -0.746204       -20.3052
 135   2.0000      -0.736449       -20.0398
 136   2.0000      -0.719056       -19.5665
 137   2.0000      -0.713806       -19.4236
 138   2.0000      -0.703450       -19.1419
 139   2.0000      -0.701554       -19.0903
 140   2.0000      -0.698430       -19.0052
 141   2.0000      -0.696244       -18.9458
 142   2.0000      -0.687035       -18.6952
 143   2.0000      -0.675324       -18.3765
 144   2.0000      -0.673392       -18.3239
 145   2.0000      -0.668627       -18.1943
 146   2.0000      -0.663715       -18.0606
 147   2.0000      -0.658650       -17.9228
 148   2.0000      -0.652048       -17.7431
 149   2.0000      -0.640651       -17.4330
 150   2.0000      -0.636909       -17.3312
 151   2.0000      -0.632603       -17.2140
 152   2.0000      -0.629085       -17.1183
 153   2.0000      -0.625792       -17.0287
 154   2.0000      -0.622799       -16.9472
 155   2.0000      -0.622111       -16.9285
 156   2.0000      -0.618189       -16.8218
 157   2.0000      -0.616285       -16.7700
 158   2.0000      -0.605062       -16.4646
 159   2.0000      -0.601381       -16.3644
 160   2.0000      -0.600667       -16.3450
 161   2.0000      -0.595251       -16.1976
 162   2.0000      -0.590584       -16.0706
 163   2.0000      -0.580840       -15.8055
 164   2.0000      -0.577343       -15.7103
 165   2.0000      -0.576086       -15.6761
 166   2.0000      -0.570594       -15.5267
 167   2.0000      -0.569610       -15.4999
 168   2.0000      -0.567537       -15.4435
 169   2.0000      -0.561330       -15.2746
 170   2.0000      -0.556783       -15.1508
 171   2.0000      -0.552988       -15.0476
 172   2.0000      -0.552067       -15.0225
 173   2.0000      -0.549648       -14.9567
 174   2.0000      -0.549209       -14.9447
 175   2.0000      -0.546923       -14.8825
 176   2.0000      -0.543781       -14.7970
 177   2.0000      -0.543049       -14.7771
 178   2.0000      -0.541801       -14.7432
 179   2.0000      -0.538652       -14.6575
 180   2.0000      -0.536217       -14.5912
 181   2.0000      -0.531576       -14.4649
 182   2.0000      -0.531027       -14.4500
 183   2.0000      -0.527348       -14.3499
 184   2.0000      -0.521885       -14.2012
 185   2.0000      -0.521105       -14.1800
 186   2.0000      -0.517840       -14.0911
 187   2.0000      -0.516979       -14.0677
 188   2.0000      -0.513749       -13.9798
 189   2.0000      -0.513283       -13.9671
 190   2.0000      -0.511407       -13.9161
 191   2.0000      -0.510143       -13.8817
 192   2.0000      -0.506857       -13.7923
 193   2.0000      -0.505612       -13.7584
 194   2.0000      -0.504259       -13.7216
 195   2.0000      -0.501729       -13.6527
 196   2.0000      -0.499471       -13.5913
 197   2.0000      -0.497169       -13.5287
 198   2.0000      -0.495721       -13.4893
 199   2.0000      -0.490868       -13.3572
 200   2.0000      -0.487110       -13.2549
 201   2.0000      -0.485606       -13.2140
 202   2.0000      -0.480718       -13.0810
 203   2.0000      -0.480332       -13.0705
 204   2.0000      -0.478274       -13.0145
 205   2.0000      -0.476379       -12.9629
 206   2.0000      -0.473647       -12.8886
 207   2.0000      -0.471117       -12.8197
 208   2.0000      -0.468309       -12.7433
 209   2.0000      -0.466567       -12.6959
 210   2.0000      -0.461804       -12.5663
 211   2.0000      -0.455170       -12.3858
 212   2.0000      -0.451431       -12.2841
 213   2.0000      -0.450047       -12.2464
 214   2.0000      -0.446976       -12.1628
 215   2.0000      -0.446177       -12.1411
 216   2.0000      -0.445045       -12.1103
 217   2.0000      -0.441866       -12.0238
 218   2.0000      -0.439243       -11.9524
 219   2.0000      -0.439041       -11.9469
 220   2.0000      -0.437120       -11.8946
 221   2.0000      -0.434673       -11.8280
 222   2.0000      -0.432724       -11.7750
 223   2.0000      -0.431754       -11.7486
 224   2.0000      -0.431416       -11.7394
 225   2.0000      -0.428768       -11.6674
 226   2.0000      -0.427725       -11.6390
 227   2.0000      -0.426716       -11.6115
 228   2.0000      -0.426128       -11.5955
 229   2.0000      -0.424014       -11.5380
 230   2.0000      -0.421215       -11.4619
 231   2.0000      -0.419758       -11.4222
 232   2.0000      -0.416630       -11.3371
 233   2.0000      -0.414100       -11.2682
 234   2.0000      -0.412725       -11.2308
 235   2.0000      -0.410202       -11.1622
 236   2.0000      -0.407313       -11.0836
 237   2.0000      -0.403196       -10.9715
 238   2.0000      -0.400845       -10.9076
 239   2.0000      -0.398456       -10.8425
 240   2.0000      -0.388327       -10.5669
 241   2.0000      -0.385726       -10.4961
 242   2.0000      -0.379655       -10.3309
 243   2.0000      -0.374238       -10.1835
 244   2.0000      -0.370245       -10.0749
 245   2.0000      -0.364156        -9.9092
 246   2.0000      -0.359848        -9.7920
 247   2.0000      -0.350365        -9.5339
 248   2.0000      -0.345247        -9.3947
 249   2.0000      -0.336427        -9.1546
 250   2.0000      -0.330777        -9.0009
 251   2.0000      -0.325720        -8.8633
 252   2.0000      -0.320323        -8.7164
 253   2.0000      -0.308991        -8.4081
 254   2.0000      -0.305406        -8.3105
 255   2.0000      -0.298455        -8.1214
 256   2.0000      -0.295113        -8.0304
 257   2.0000      -0.290786        -7.9127
 258   2.0000      -0.289618        -7.8809
 259   2.0000      -0.284378        -7.7383
 260   2.0000      -0.260680        -7.0935
 261   2.0000      -0.214453        -5.8356
 262   0.0000      -0.111613        -3.0371
 263   0.0000      -0.083398        -2.2694
 264   0.0000      -0.063574        -1.7299
 265   0.0000      -0.047843        -1.3019
 266   0.0000      -0.040666        -1.1066

MULLIKEN ATOMIC CHARGES
-----------------------
   0 C :   -0.097613
   1 C :    0.302640
   2 F :   -0.192332
   3 C :   -0.033057
   4 C :   -0.008337
   5 C :    0.098761
   6 C :    0.099697
   7 C :   -0.084949
   8 C :    0.041788
   9 C :    0.005722
  10 C :   -0.079004
  11 C :    0.143992
  12 O :   -0.151109
  13 C :   -0.146749
  14 C :    0.249759
  15 C :   -0.325700
  16 C :   -0.171360
  17 N :    0.146145
  18 C :   -0.173033
  19 N :    0.135713
  20 C :    0.037561
  21 C :   -0.234157
  22 S :    0.123297
  23 C :   -0.125669
  24 C :    0.176187
  25 C :    0.252942
  26 O :   -0.321585
  27 C :    0.167843
  28 O :   -0.309908
  29 C :    0.195447
  30 C :    0.008839
  31 C :   -0.026704
  32 C :    0.038715
  33 C :    0.028803
  34 C :   -0.025449
  35 S :    0.084055
  36 C :   -0.046439
  37 C :    0.017015
  38 C :    0.024582
  39 C :   -0.084816
  40 S :    0.104261
  41 C :    0.075851
  42 C :   -0.126031
  43 S :    0.158764
  44 C :   -0.227511
  45 C :    0.261309
  46 C :    0.085453
  47 O :   -0.364389
  48 C :    0.185988
  49 O :   -0.285637
  50 C :    0.190731
  51 C :    0.068410
  52 C :   -0.150731
  53 C :    0.139225
  54 O :   -0.149107
  55 C :    0.006083
  56 C :   -0.082667
  57 C :    0.100008
  58 C :    0.100167
  59 C :   -0.095691
  60 C :    0.299970
  61 C :   -0.033888
  62 C :   -0.008669
  63 F :   -0.194606
  64 C :   -0.086062
  65 C :    0.040110
  66 C :    0.270579
  67 C :   -0.344548
  68 C :   -0.188369
  69 N :    0.147819
  70 C :   -0.175789
  71 N :    0.137846
  72 H :   -0.003859
  73 H :    0.002681
  74 H :   -0.009565
  75 H :   -0.005470
  76 H :   -0.013170
  77 H :    0.018597
  78 H :    0.038581
  79 H :    0.036352
  80 H :    0.058400
  81 H :    0.029903
  82 H :    0.025581
  83 H :    0.034464
  84 H :    0.005233
  85 H :   -0.005822
  86 H :   -0.009199
  87 H :   -0.009120
  88 H :    0.012423
  89 H :   -0.006760
  90 H :    0.039206
  91 H :    0.044618
  92 H :    0.028095
  93 H :    0.038846
  94 H :    0.036601
  95 H :    0.023198
  96 H :    0.030962
  97 H :   -0.015455
  98 H :   -0.005731
  99 H :    0.000028
 100 H :   -0.011677
 101 H :   -0.008353
Sum of atomic charges:   -0.0000000

LOEWDIN ATOMIC CHARGES
----------------------
   0 C :   -0.043631
   1 C :    0.092669
   2 F :   -0.066780
   3 C :   -0.038666
   4 C :    0.004531
   5 C :   -0.019685
   6 C :    0.003105
   7 C :    0.008095
   8 C :   -0.014955
   9 C :   -0.058709
  10 C :    0.032565
  11 C :    0.080852
  12 O :   -0.153886
  13 C :   -0.108736
  14 C :    0.057660
  15 C :   -0.150284
  16 C :   -0.020100
  17 N :   -0.058520
  18 C :   -0.021604
  19 N :   -0.069047
  20 C :    0.039499
  21 C :   -0.217910
  22 S :    0.455309
  23 C :   -0.175214
  24 C :    0.010878
  25 C :    0.030006
  26 O :   -0.094074
  27 C :    0.086161
  28 O :   -0.096578
  29 C :    0.082270
  30 C :   -0.053612
  31 C :   -0.147809
  32 C :   -0.023248
  33 C :   -0.034385
  34 C :   -0.168291
  35 S :    0.386287
  36 C :   -0.178753
  37 C :   -0.019477
  38 C :   -0.039114
  39 C :   -0.129420
  40 S :    0.389534
  41 C :   -0.089612
  42 C :   -0.146442
  43 S :    0.470503
  44 C :   -0.222905
  45 C :    0.053297
  46 C :   -0.037184
  47 O :   -0.128596
  48 C :    0.080167
  49 O :   -0.075591
  50 C :    0.084299
  51 C :    0.061137
  52 C :   -0.115539
  53 C :    0.079027
  54 O :   -0.153831
  55 C :   -0.057059
  56 C :    0.029920
  57 C :   -0.019961
  58 C :    0.002143
  59 C :   -0.043463
  60 C :    0.090833
  61 C :   -0.040725
  62 C :    0.003398
  63 F :   -0.068739
  64 C :    0.007021
  65 C :   -0.015214
  66 C :    0.062655
  67 C :   -0.156316
  68 C :   -0.023734
  69 N :   -0.074502
  70 C :   -0.019492
  71 N :   -0.065410
  72 H :    0.042448
  73 H :    0.041475
  74 H :    0.035455
  75 H :    0.038886
  76 H :    0.039047
  77 H :    0.045115
  78 H :    0.019563
  79 H :    0.028043
  80 H :    0.028535
  81 H :    0.024232
  82 H :    0.018571
  83 H :    0.018021
  84 H :    0.045506
  85 H :    0.036762
  86 H :    0.033575
  87 H :    0.033979
  88 H :    0.034602
  89 H :    0.031784
  90 H :    0.019081
  91 H :    0.023176
  92 H :    0.023087
  93 H :    0.027887
  94 H :    0.020651
  95 H :    0.019478
  96 H :    0.051074
  97 H :    0.038144
  98 H :    0.041865
  99 H :    0.040334
 100 H :    0.034669
 101 H :    0.037936

  Mayer bond orders larger than 0.100000
B(  0-C ,  1-C ) :   1.4400 B(  0-C ,  6-C ) :   1.2031 B(  0-C , 72-H ) :   1.0061
B(  1-C ,  2-F ) :   1.0864 B(  1-C ,  3-C ) :   1.2568 B(  3-C ,  4-C ) :   1.4578
B(  3-C , 73-H ) :   0.9936 B(  4-C ,  5-C ) :   1.2366 B(  4-C , 74-H ) :   0.9967
B(  5-C ,  6-C ) :   1.2585 B(  5-C , 10-C ) :   1.1881 B(  6-C ,  7-C ) :   1.1993
B(  7-C ,  8-C ) :   1.4669 B(  7-C , 75-H ) :   0.9949 B(  8-C ,  9-C ) :   1.2175
B(  8-C , 14-C ) :   1.0019 B(  9-C , 10-C ) :   1.4767 B(  9-C , 11-C ) :   0.9181
B( 10-C , 76-H ) :   1.0142 B( 11-C , 12-O ) :   2.2631 B( 11-C , 13-C ) :   0.9507
B( 13-C , 14-C ) :   1.0629 B( 13-C , 20-C ) :   1.5816 B( 14-C , 15-C ) :   1.6225
B( 15-C , 16-C ) :   1.1428 B( 15-C , 18-C ) :   1.1687 B( 16-C , 17-N ) :   2.9822
B( 18-C , 19-N ) :   2.9643 B( 20-C , 21-C ) :   1.1692 B( 20-C , 77-H ) :   0.9482
B( 21-C , 22-S ) :   1.0873 B( 21-C , 23-C ) :   0.1098 B( 21-C , 25-C ) :   1.3209
B( 22-S , 23-C ) :   1.0850 B( 23-C , 24-C ) :   1.4004 B( 23-C , 30-C ) :   1.2445
B( 24-C , 25-C ) :   1.2653 B( 24-C , 28-O ) :   1.2048 B( 25-C , 26-O ) :   1.1932
B( 26-O , 27-C ) :   0.9202 B( 27-C , 78-H ) :   0.9764 B( 27-C , 79-H ) :   0.9752
B( 27-C , 80-H ) :   0.9598 B( 28-O , 29-C ) :   0.9294 B( 29-C , 81-H ) :   0.9787
B( 29-C , 82-H ) :   0.9759 B( 29-C , 83-H ) :   0.9734 B( 30-C , 31-C ) :   1.5006
B( 30-C , 84-H ) :   0.9684 B( 31-C , 32-C ) :   1.1640 B( 31-C , 35-S ) :   1.0445
B( 32-C , 33-C ) :   1.5691 B( 32-C , 85-H ) :   1.0006 B( 33-C , 34-C ) :   1.2017
B( 33-C , 86-H ) :   0.9932 B( 34-C , 35-S ) :   1.0562 B( 34-C , 36-C ) :   1.4701
B( 36-C , 37-C ) :   1.2046 B( 36-C , 40-S ) :   1.0561 B( 37-C , 38-C ) :   1.5649
B( 37-C , 87-H ) :   0.9959 B( 38-C , 39-C ) :   1.1837 B( 38-C , 88-H ) :   0.9795
B( 39-C , 40-S ) :   1.0569 B( 39-C , 41-C ) :   1.5381 B( 41-C , 42-C ) :   1.2326
B( 41-C , 89-H ) :   0.9222 B( 42-C , 43-S ) :   1.1309 B( 42-C , 44-C ) :   0.1045
B( 42-C , 46-C ) :   1.3682 B( 43-S , 44-C ) :   1.0760 B( 44-C , 45-C ) :   1.3616
B( 44-C , 51-C ) :   1.2030 B( 45-C , 46-C ) :   1.2653 B( 45-C , 49-O ) :   1.2584
B( 46-C , 47-O ) :   1.1112 B( 47-O , 48-C ) :   0.9150 B( 48-C , 90-H ) :   0.9702
B( 48-C , 91-H ) :   0.9623 B( 48-C , 92-H ) :   0.9816 B( 49-O , 50-C ) :   0.9262
B( 50-C , 93-H ) :   0.9782 B( 50-C , 94-H ) :   0.9726 B( 50-C , 95-H ) :   0.9759
B( 51-C , 52-C ) :   1.5358 B( 51-C , 96-H ) :   0.9482 B( 52-C , 53-C ) :   0.9559
B( 52-C , 66-C ) :   1.0836 B( 53-C , 54-O ) :   2.2753 B( 53-C , 55-C ) :   0.9139
B( 55-C , 56-C ) :   1.4799 B( 55-C , 65-C ) :   1.2208 B( 56-C , 57-C ) :   1.1860
B( 56-C , 97-H ) :   1.0140 B( 57-C , 58-C ) :   1.2597 B( 57-C , 62-C ) :   1.2375
B( 58-C , 59-C ) :   1.2043 B( 58-C , 64-C ) :   1.1993 B( 59-C , 60-C ) :   1.4403
B( 59-C , 98-H ) :   1.0057 B( 60-C , 61-C ) :   1.2578 B( 60-C , 63-F ) :   1.0840
B( 61-C , 62-C ) :   1.4581 B( 61-C , 99-H ) :   0.9930 B( 62-C ,100-H ) :   0.9960
B( 64-C , 65-C ) :   1.4673 B( 64-C ,101-H ) :   0.9937 B( 65-C , 66-C ) :   0.9955
B( 66-C , 67-C ) :   1.6107 B( 67-C , 68-C ) :   1.1632 B( 67-C , 70-C ) :   1.1438
B( 68-C , 69-N ) :   3.0056 B( 70-C , 71-N ) :   2.9794

-----------------------------------------------------------------------------
         ABSORPTION SPECTRUM VIA TRANSITION ELECTRIC DIPOLE MOMENTS
-----------------------------------------------------------------------------
State   Energy  Wavelength   fosc         T2         TX        TY        TZ
        (cm-1)    (nm)                  (au**2)     (au)      (au)      (au)
-----------------------------------------------------------------------------
   0    8790.0   1137.7   0.790288548  29.59874   4.27947  -2.89959  -1.69624
   1   14750.3    678.0   0.602979107  13.45787   0.51042  -1.53935  -3.29055
   2   18334.2    545.4   0.336786573   6.04741  -0.37575  -0.29803  -2.41193
   3   19578.5    510.8   0.227922833   3.83252  -0.90023   1.73477  -0.11262
   4   22476.9    444.9   0.011106329   0.16267  -0.08731   0.24608   0.30739
   5   23030.4    434.2   0.164854896   2.35655   0.04183  -0.03358   1.53417
   6   23585.1    424.0   0.527463148   7.36258   0.34058  -2.41774  -1.18369
   7   24762.1    403.8   0.067448356   0.89673   0.21024   0.54359   0.74634
   8   25016.8    399.7   0.061232672   0.80580  -0.13136   0.67727   0.57433
   9   25621.1    390.3   0.052852278   0.67911   0.45887  -0.08555   0.67914
  10   25966.0    385.1   0.122650315   1.55503   0.16836   0.09260   1.23212
  11   26798.4    373.2   0.026031199   0.31979   0.02599  -0.34461   0.44761
  12   27073.0    369.4   0.068474000   0.83266   0.09604  -0.33855  -0.84191
  13   27810.4    359.6   0.000483785   0.00573  -0.05800  -0.00107  -0.04860
  14   28200.8    354.6   0.002236972   0.02611   0.01199   0.15990   0.02005
  15   28619.6    349.4   0.019865031   0.22851  -0.14122  -0.02935  -0.45574
  16   29023.8    344.5   0.025951233   0.29436   0.02181   0.23390   0.48906
  17   29132.6    343.3   0.013293372   0.15022   0.12034   0.24236   0.27749
  18   29533.2    338.6   0.084437239   0.94124  -0.17412   0.11360  -0.94764
  19   30266.1    330.4   0.008724313   0.09490  -0.09397   0.16634   0.24166
  20   30418.6    328.7   0.062849220   0.68020   0.25331  -0.58062  -0.52812
  21   31366.9    318.8   0.085760322   0.90010  -0.21720   0.33115   0.86213
  22   31526.7    317.2   0.021628704   0.22585   0.43306  -0.10368   0.16602
  23   31810.4    314.4   0.014684160   0.15197   0.10432   0.15958   0.34003
  24   32022.6    312.3   0.047768644   0.49109   0.01471  -0.09410   0.69428
  25   32255.4    310.0   0.044622901   0.45544   0.46047  -0.28234  -0.40458
  26   32635.9    306.4   0.173408748   1.74924   0.01845  -0.92238  -0.94770
  27   32936.4    303.6   0.070480697   0.70448  -0.15291   0.66380   0.49038
  28   33141.8    301.7   0.140608409   1.39672   0.11369   0.59559   1.01443
  29   33251.4    300.7   0.008722359   0.08636  -0.25279   0.14983  -0.00199
  30   33644.6    297.2   0.053810220   0.52653  -0.34203   0.55087   0.32572
  31   33904.7    294.9   0.184742321   1.79383   0.05715   0.11884  -1.33283
  32   34131.2    293.0   0.033538603   0.32350   0.10374  -0.52907   0.18117
  33   34781.2    287.5   0.052862406   0.50036   0.01310  -0.56150  -0.43000
  34   35107.5    284.8   0.369425537   3.46420   0.11312  -0.94362  -1.60031
  35   35323.1    283.1   0.014409131   0.13429   0.18585  -0.30908  -0.06499
  36   35780.7    279.5   0.127332154   1.17156   0.24766  -0.01873  -1.05351
  37   36112.0    276.9   0.567846470   5.17672   0.24905  -1.08933  -1.98193
  38   36662.4    272.8   0.065122555   0.58477  -0.54611  -0.08417  -0.52863
  39   36817.1    271.6   0.019062980   0.17046  -0.12538   0.16806   0.35566
  40   36952.3    270.6   0.200842240   1.78932  -0.28725  -0.71626  -1.09261
  41   37656.8    265.6   0.016580983   0.14496  -0.10610  -0.11815  -0.34604
  42   37903.8    263.8   0.016502678   0.14333  -0.29236   0.18196  -0.15731
  43   38344.8    260.8   0.057249397   0.49152  -0.08271   0.18480   0.67121
  44   38467.8    260.0   0.041240420   0.35294  -0.00895   0.32467  -0.49744
  45   38506.9    259.7   0.023195916   0.19831  -0.31868  -0.26951  -0.15530
  46   38777.9    257.9   0.029432815   0.24988  -0.04105  -0.36577  -0.33823
  47   38875.6    257.2   0.047627403   0.40332  -0.23496   0.58299   0.09075
  48   38934.7    256.8   0.079206532   0.66973  -0.11625  -0.07157   0.80690
  49   39132.7    255.5   0.027484360   0.23122  -0.18128   0.35351  -0.27090
  50   39519.8    253.0   0.042516695   0.35418   0.47103  -0.00045   0.36374
  51   39619.8    252.4   0.030869026   0.25650  -0.13430   0.34414  -0.34645
  52   40191.3    248.8   0.097410450   0.79790   0.16675  -0.78661   0.38903

FINAL SINGLE POINT ENERGY     -4610.410190092202

DIPOLE MOMENT
-------------
                                X             Y             Z
Electronic contribution:     -3.03052     -16.22247     -35.49373
Nuclear contribution   :      2.74420      17.25552      37.87211
                        -----------------------------------------
Total Dipole Moment    :     -0.28631       1.03305       2.37838
                        -----------------------------------------
Magnitude (a.u.)       :      2.60881
Magnitude (Debye)      :      6.63106

Rotational constants in cm-1:     0.001207     0.000398     0.000320
Rotational constants in MHz :    36.191614    11.925508     9.601661

                             ****ORCA TERMINATED NORMALLY****
TOTAL RUN TIME: 0 days 0 hours 10 minutes 51 seconds 49 msec
