                         Program Version 4.2.0 -  RELEASE  -
|  1> # ORCA input file
|  2> # SCF done       -204.400718133160          0.000593689851
|  3> ! CAM-B3LYP def2-SVP def2/J RIJCOSX Grid4 TightSCF
|  4> %maxcore 5000
|  5> %tddft
|  6>     Mode sTDDFT
|  7>     Ethresh 5.0
|  8>     maxcore 5000
|  9> end
| 10>
| 11> %pal
| 12>   nprocs 6
| 13>   end
| 14> * xyz 0 1
| 15>    C       -2.94402         4.18810         1.75075
| 16>    C       -1.90529         3.46983         1.21048
| 17>    C       -1.13865         2.52702         1.92507
| 18>    N       -0.47593         1.74878         2.44888
| 19>    C       -1.45062         3.55035        -0.12143
| 20>    N       -1.01823         3.54458        -1.18600
| 21>    C       -3.40887         4.07766         3.13133
| 22>    C       -4.51381         4.94430         3.30909
| 23>    C       -5.17477         5.06789         4.50628
| 24>    C       -4.72272         4.29980         5.58454
| 25>    C       -3.61752         3.43717         5.39854
| 26>    C       -2.94995         3.31121         4.18621
| 27>    S       -3.22132         2.58189         6.85920
| 28>    C       -4.52831         3.38524         7.68753
| 29>    C       -5.22677         4.24877         6.91328
| 30>   Br       -4.84801         3.00925         9.49772
| 31>    C       -4.79356         5.64798         2.03952
| 32>    O       -5.68363         6.45453         1.85432
| 33>    C       -3.77661         5.16365         1.08172
| 34>    C       -3.64931         5.59874        -0.21522
| 35>    C       -4.47685         6.55176        -0.82887
| 36>    C       -4.27933         6.95604        -2.11986
| 37>    C       -5.08239         7.90711        -2.77028
| 38>    O       -6.14198         8.48932        -2.14880
| 39>    C       -6.72474         9.35664        -3.00997
| 40>    C       -6.02631         9.33976        -4.21927
| 41>    C       -4.98016         8.41562        -4.07143
| 42>    O       -4.05451         8.07112        -4.98161
| 43>    O       -6.25466        10.04324        -5.36013
| 44>    C       -7.87277        10.08914        -2.63046
| 45>    C       -8.47765         9.95551        -1.41708
| 46>    C       -9.65145        10.64057        -1.04692
| 47>    C      -10.29460        10.42881         0.13589
| 48>    C      -11.51093        11.03306         0.50936
| 49>    S      -12.29926        12.21362        -0.50340
| 50>    C      -13.66526        12.30337         0.57986
| 51>    C      -13.48584        11.45254         1.67653
| 52>    C      -12.27516        10.76391         1.64705
| 53>    C      -11.86603         9.80823         2.72347
| 54>    C      -12.70042        10.02429         3.98346
| 55>    C      -14.19690        10.06830         3.63619
| 56>    N      -15.08338        10.09293         4.78363
| 57>    C      -14.47921        11.30800         2.78167
| 58>    C      -14.78275        13.10331         0.30900
| 59>    C      -14.86513        14.02819        -0.70106
| 60>    C      -16.00333        14.76035        -1.05574
| 61>    C      -17.31838        14.52687        -0.70376
| 62>    C      -18.42337        15.30718        -1.11359
| 63>    C      -19.63931        14.81485        -0.73410
| 64>    C      -19.56017        13.60961        -0.00934
| 65>    S      -17.89473        13.14477         0.21170
| 66>    C      -20.59747        12.82028         0.46768
| 67>    C      -21.98209        13.05178         0.37281
| 68>    C      -22.74315        12.04439         0.89709
| 69>    C      -21.99486        10.97171         1.42478
| 70>    S      -20.28715        11.29383         1.26461
| 71>    C      -22.50004         9.80834         1.98113
| 72>    C      -21.70129         8.76609         2.42800
| 73>    C      -22.09079         7.55451         2.96520
| 74>    C      -23.35119         7.07657         3.45691
| 75>    C      -24.37936         7.82217         3.98999
| 76>    C      -25.58029         7.27137         4.47490
| 77>    N      -26.59050         6.88355         4.86151
| 78>    C      -24.32119         9.20933         4.22330
| 79>    N      -24.31926        10.32849         4.48374
| 80>    C      -23.27999         5.61423         3.49302
| 81>    C      -21.94538         5.22076         3.22658
| 82>    C      -21.13637         6.42671         2.94410
| 83>    O      -19.94817         6.47597         2.70243
| 84>    C      -21.55011         3.90660         3.21960
| 85>    C      -22.52150         2.93115         3.47361
| 86>    C      -23.85303         3.33338         3.72416
| 87>    C      -24.25133         4.66587         3.74270
| 88>    S      -24.89299         1.96744         3.99677
| 89>    C      -23.54024         0.88963         3.77567
| 90>    C      -22.37057         1.51721         3.51137
| 91>   Br      -23.80104        -0.96371         3.91234
| 92>    H       -6.01399         5.73795         4.60883
| 93>    H       -2.11241         2.63998         4.09815
| 94>    H       -6.06259         4.82697         7.26280
| 95>    H       -2.85105         5.19099        -0.82181
| 96>    H       -5.28956         6.97808        -0.26075
| 97>    H       -3.47036         6.54866        -2.71053
| 98>    H       -4.21829         8.56942        -5.79362
| 99>    H       -7.02454        10.61064        -5.24732
|100>    H       -8.28443        10.77029        -3.36390
|101>    H       -8.04748         9.26416        -0.70589
|102>    H      -10.07544        11.34301        -1.75391
|103>    H       -9.87597         9.71651         0.83412
|104>    H      -10.80503         9.93137         2.95246
|105>    H      -12.00797         8.78449         2.36173
|106>    H      -12.41591        10.96757         4.45812
|107>    H      -12.50575         9.21677         4.69316
|108>    H      -14.45047         9.17328         3.05586
|109>    H      -14.84220        10.85789         5.40532
|110>    H      -15.02039         9.22952         5.31001
|111>    H      -14.43908        12.19529         3.42285
|112>    H      -15.49368        11.24310         2.38559
|113>    H      -15.61660        12.98190         0.98450
|114>    H      -13.96412        14.23380        -1.26611
|115>    H      -15.85347        15.58883        -1.73708
|116>    H      -18.28914        16.20835        -1.68588
|117>    H      -20.58003        15.27599        -0.97438
|118>    H      -22.38419        13.94137        -0.07768
|119>    H      -23.81817        12.04095         0.91914
|120>    H      -23.57585         9.72184         2.01366
|121>    H      -20.63245         8.85140         2.25152
|122>    H      -20.52480         3.63628         3.02126
|123>    H      -25.27993         4.92228         3.93472
|124>    H      -21.43884         1.00702         3.34795
|125> *
|126>
|127>                          ****END OF INPUT****

CARTESIAN COORDINATES (ANGSTROEM)
---------------------------------
  C     -2.944020    4.188100    1.750750
  C     -1.905290    3.469830    1.210480
  C     -1.138650    2.527020    1.925070
  N     -0.475930    1.748780    2.448880
  C     -1.450620    3.550350   -0.121430
  N     -1.018230    3.544580   -1.186000
  C     -3.408870    4.077660    3.131330
  C     -4.513810    4.944300    3.309090
  C     -5.174770    5.067890    4.506280
  C     -4.722720    4.299800    5.584540
  C     -3.617520    3.437170    5.398540
  C     -2.949950    3.311210    4.186210
  S     -3.221320    2.581890    6.859200
  C     -4.528310    3.385240    7.687530
  C     -5.226770    4.248770    6.913280
  Br    -4.848010    3.009250    9.497720
  C     -4.793560    5.647980    2.039520
  O     -5.683630    6.454530    1.854320
  C     -3.776610    5.163650    1.081720
  C     -3.649310    5.598740   -0.215220
  C     -4.476850    6.551760   -0.828870
  C     -4.279330    6.956040   -2.119860
  C     -5.082390    7.907110   -2.770280
  O     -6.141980    8.489320   -2.148800
  C     -6.724740    9.356640   -3.009970
  C     -6.026310    9.339760   -4.219270
  C     -4.980160    8.415620   -4.071430
  O     -4.054510    8.071120   -4.981610
  O     -6.254660   10.043240   -5.360130
  C     -7.872770   10.089140   -2.630460
  C     -8.477650    9.955510   -1.417080
  C     -9.651450   10.640570   -1.046920
  C    -10.294600   10.428810    0.135890
  C    -11.510930   11.033060    0.509360
  S    -12.299260   12.213620   -0.503400
  C    -13.665260   12.303370    0.579860
  C    -13.485840   11.452540    1.676530
  C    -12.275160   10.763910    1.647050
  C    -11.866030    9.808230    2.723470
  C    -12.700420   10.024290    3.983460
  C    -14.196900   10.068300    3.636190
  N    -15.083380   10.092930    4.783630
  C    -14.479210   11.308000    2.781670
  C    -14.782750   13.103310    0.309000
  C    -14.865130   14.028190   -0.701060
  C    -16.003330   14.760350   -1.055740
  C    -17.318380   14.526870   -0.703760
  C    -18.423370   15.307180   -1.113590
  C    -19.639310   14.814850   -0.734100
  C    -19.560170   13.609610   -0.009340
  S    -17.894730   13.144770    0.211700
  C    -20.597470   12.820280    0.467680
  C    -21.982090   13.051780    0.372810
  C    -22.743150   12.044390    0.897090
  C    -21.994860   10.971710    1.424780
  S    -20.287150   11.293830    1.264610
  C    -22.500040    9.808340    1.981130
  C    -21.701290    8.766090    2.428000
  C    -22.090790    7.554510    2.965200
  C    -23.351190    7.076570    3.456910
  C    -24.379360    7.822170    3.989990
  C    -25.580290    7.271370    4.474900
  N    -26.590500    6.883550    4.861510
  C    -24.321190    9.209330    4.223300
  N    -24.319260   10.328490    4.483740
  C    -23.279990    5.614230    3.493020
  C    -21.945380    5.220760    3.226580
  C    -21.136370    6.426710    2.944100
  O    -19.948170    6.475970    2.702430
  C    -21.550110    3.906600    3.219600
  C    -22.521500    2.931150    3.473610
  C    -23.853030    3.333380    3.724160
  C    -24.251330    4.665870    3.742700
  S    -24.892990    1.967440    3.996770
  C    -23.540240    0.889630    3.775670
  C    -22.370570    1.517210    3.511370
  Br   -23.801040   -0.963710    3.912340
  H     -6.013990    5.737950    4.608830
  H     -2.112410    2.639980    4.098150
  H     -6.062590    4.826970    7.262800
  H     -2.851050    5.190990   -0.821810
  H     -5.289560    6.978080   -0.260750
  H     -3.470360    6.548660   -2.710530
  H     -4.218290    8.569420   -5.793620
  H     -7.024540   10.610640   -5.247320
  H     -8.284430   10.770290   -3.363900
  H     -8.047480    9.264160   -0.705890
  H    -10.075440   11.343010   -1.753910
  H     -9.875970    9.716510    0.834120
  H    -10.805030    9.931370    2.952460
  H    -12.007970    8.784490    2.361730
  H    -12.415910   10.967570    4.458120
  H    -12.505750    9.216770    4.693160
  H    -14.450470    9.173280    3.055860
  H    -14.842200   10.857890    5.405320
  H    -15.020390    9.229520    5.310010
  H    -14.439080   12.195290    3.422850
  H    -15.493680   11.243100    2.385590
  H    -15.616600   12.981900    0.984500
  H    -13.964120   14.233800   -1.266110
  H    -15.853470   15.588830   -1.737080
  H    -18.289140   16.208350   -1.685880
  H    -20.580030   15.275990   -0.974380
  H    -22.384190   13.941370   -0.077680
  H    -23.818170   12.040950    0.919140
  H    -23.575850    9.721840    2.013660
  H    -20.632450    8.851400    2.251520
  H    -20.524800    3.636280    3.021260
  H    -25.279930    4.922280    3.934720
  H    -21.438840    1.007020    3.347950

 Total Charge           Charge          ....    0
 Multiplicity           Mult            ....    1
 Number of Electrons    NEL             ....  618
 Basis Dimension        Dim             .... 1299

ORBITAL ENERGIES
----------------

  NO   OCC          E(Eh)            E(eV)
   0   2.0000    -482.881765    -13139.8809
   1   2.0000    -482.875771    -13139.7177
   2   2.0000     -88.969751     -2420.9900
   3   2.0000     -88.966445     -2420.9001
   4   2.0000     -88.963236     -2420.8127
   5   2.0000     -88.961703     -2420.7710
   6   2.0000     -88.958977     -2420.6968
   7   2.0000     -62.559464     -1702.3296
   8   2.0000     -62.553501     -1702.1673
   9   2.0000     -56.393407     -1534.5426
  10   2.0000     -56.390708     -1534.4692
  11   2.0000     -56.390669     -1534.4681
  12   2.0000     -56.387435     -1534.3801
  13   2.0000     -56.384749     -1534.3070
  14   2.0000     -56.384708     -1534.3059
  15   2.0000     -19.301204      -525.2124
  16   2.0000     -19.282259      -524.6969
  17   2.0000     -19.276970      -524.5530
  18   2.0000     -19.206495      -522.6353
  19   2.0000     -19.194322      -522.3041
  20   2.0000     -14.406413      -392.0184
  21   2.0000     -14.404582      -391.9686
  22   2.0000     -14.397645      -391.7798
  23   2.0000     -14.395264      -391.7151
  24   2.0000     -14.384511      -391.4225
  25   2.0000     -10.359400      -281.8936
  26   2.0000     -10.357068      -281.8302
  27   2.0000     -10.354436      -281.7585
  28   2.0000     -10.353923      -281.7446
  29   2.0000     -10.353747      -281.7398
  30   2.0000     -10.346644      -281.5465
  31   2.0000     -10.345188      -281.5069
  32   2.0000     -10.341645      -281.4105
  33   2.0000     -10.334371      -281.2125
  34   2.0000     -10.330791      -281.1151
  35   2.0000     -10.329500      -281.0800
  36   2.0000     -10.325712      -280.9769
  37   2.0000     -10.322192      -280.8811
  38   2.0000     -10.321638      -280.8660
  39   2.0000     -10.321087      -280.8511
  40   2.0000     -10.321059      -280.8503
  41   2.0000     -10.318748      -280.7874
  42   2.0000     -10.312369      -280.6138
  43   2.0000     -10.311502      -280.5902
  44   2.0000     -10.310000      -280.5494
  45   2.0000     -10.309822      -280.5445
  46   2.0000     -10.308417      -280.5063
  47   2.0000     -10.305291      -280.4212
  48   2.0000     -10.304604      -280.4025
  49   2.0000     -10.304508      -280.3999
  50   2.0000     -10.303392      -280.3695
  51   2.0000     -10.303232      -280.3652
  52   2.0000     -10.302282      -280.3393
  53   2.0000     -10.301602      -280.3208
  54   2.0000     -10.301027      -280.3052
  55   2.0000     -10.300706      -280.2964
  56   2.0000     -10.300150      -280.2813
  57   2.0000     -10.299736      -280.2701
  58   2.0000     -10.298908      -280.2475
  59   2.0000     -10.298463      -280.2354
  60   2.0000     -10.297750      -280.2160
  61   2.0000     -10.296736      -280.1884
  62   2.0000     -10.295681      -280.1597
  63   2.0000     -10.295006      -280.1414
  64   2.0000     -10.293981      -280.1135
  65   2.0000     -10.292939      -280.0851
  66   2.0000     -10.292274      -280.0670
  67   2.0000     -10.291890      -280.0566
  68   2.0000     -10.291356      -280.0420
  69   2.0000     -10.290669      -280.0233
  70   2.0000     -10.290579      -280.0209
  71   2.0000     -10.290372      -280.0153
  72   2.0000     -10.289922      -280.0030
  73   2.0000     -10.288587      -279.9667
  74   2.0000     -10.286310      -279.9047
  75   2.0000     -10.285206      -279.8747
  76   2.0000     -10.283769      -279.8356
  77   2.0000     -10.282906      -279.8121
  78   2.0000     -10.281480      -279.7733
  79   2.0000     -10.277569      -279.6669
  80   2.0000     -10.276020      -279.6247
  81   2.0000     -10.275697      -279.6159
  82   2.0000     -10.273741      -279.5627
  83   2.0000     -10.272346      -279.5248
  84   2.0000     -10.269696      -279.4526
  85   2.0000      -8.788873      -239.1574
  86   2.0000      -8.782933      -238.9957
  87   2.0000      -8.065819      -219.4821
  88   2.0000      -8.062238      -219.3846
  89   2.0000      -8.059219      -219.3025
  90   2.0000      -8.057130      -219.2457
  91   2.0000      -8.055295      -219.1957
  92   2.0000      -6.625135      -180.2791
  93   2.0000      -6.619170      -180.1168
  94   2.0000      -6.610604      -179.8837
  95   2.0000      -6.610452      -179.8796
  96   2.0000      -6.604684      -179.7226
  97   2.0000      -6.604527      -179.7183
  98   2.0000      -6.035526      -164.2350
  99   2.0000      -6.031897      -164.1363
 100   2.0000      -6.031237      -164.1183
 101   2.0000      -6.028927      -164.0554
 102   2.0000      -6.027748      -164.0234
 103   2.0000      -6.027000      -164.0030
 104   2.0000      -6.026257      -163.9828
 105   2.0000      -6.024860      -163.9448
 106   2.0000      -6.024646      -163.9389
 107   2.0000      -6.023452      -163.9065
 108   2.0000      -6.022538      -163.8816
 109   2.0000      -6.020861      -163.8359
 110   2.0000      -6.020432      -163.8243
 111   2.0000      -6.019182      -163.7903
 112   2.0000      -6.016463      -163.7163
 113   2.0000      -2.741038       -74.5874
 114   2.0000      -2.736940       -74.4759
 115   2.0000      -2.736779       -74.4715
 116   2.0000      -2.735050       -74.4245
 117   2.0000      -2.730982       -74.3138
 118   2.0000      -2.730863       -74.3106
 119   2.0000      -2.725256       -74.1580
 120   2.0000      -2.725253       -74.1579
 121   2.0000      -2.719348       -73.9972
 122   2.0000      -2.719335       -73.9969
 123   2.0000      -1.223708       -33.2988
 124   2.0000      -1.178165       -32.0595
 125   2.0000      -1.162274       -31.6271
 126   2.0000      -1.120150       -30.4808
 127   2.0000      -1.108391       -30.1609
 128   2.0000      -1.015139       -27.6233
 129   2.0000      -1.012172       -27.5426
 130   2.0000      -1.007607       -27.4184
 131   2.0000      -1.004879       -27.3441
 132   2.0000      -1.001835       -27.2613
 133   2.0000      -0.996323       -27.1113
 134   2.0000      -0.988980       -26.9115
 135   2.0000      -0.984541       -26.7907
 136   2.0000      -0.980373       -26.6773
 137   2.0000      -0.975976       -26.5577
 138   2.0000      -0.975420       -26.5425
 139   2.0000      -0.972243       -26.4561
 140   2.0000      -0.940708       -25.5980
 141   2.0000      -0.935850       -25.4658
 142   2.0000      -0.930031       -25.3074
 143   2.0000      -0.927581       -25.2408
 144   2.0000      -0.919527       -25.0216
 145   2.0000      -0.907253       -24.6876
 146   2.0000      -0.906325       -24.6624
 147   2.0000      -0.901973       -24.5439
 148   2.0000      -0.900500       -24.5038
 149   2.0000      -0.895321       -24.3629
 150   2.0000      -0.892629       -24.2897
 151   2.0000      -0.881914       -23.9981
 152   2.0000      -0.878703       -23.9107
 153   2.0000      -0.873557       -23.7707
 154   2.0000      -0.871104       -23.7039
 155   2.0000      -0.863513       -23.4974
 156   2.0000      -0.861264       -23.4362
 157   2.0000      -0.850046       -23.1309
 158   2.0000      -0.843236       -22.9456
 159   2.0000      -0.836915       -22.7736
 160   2.0000      -0.831981       -22.6394
 161   2.0000      -0.822561       -22.3830
 162   2.0000      -0.816432       -22.2162
 163   2.0000      -0.814454       -22.1624
 164   2.0000      -0.810699       -22.0603
 165   2.0000      -0.800242       -21.7757
 166   2.0000      -0.783899       -21.3310
 167   2.0000      -0.771289       -20.9878
 168   2.0000      -0.757638       -20.6164
 169   2.0000      -0.750180       -20.4134
 170   2.0000      -0.746964       -20.3259
 171   2.0000      -0.740910       -20.1612
 172   2.0000      -0.730514       -19.8783
 173   2.0000      -0.722954       -19.6726
 174   2.0000      -0.719377       -19.5752
 175   2.0000      -0.712409       -19.3856
 176   2.0000      -0.705586       -19.2000
 177   2.0000      -0.699011       -19.0211
 178   2.0000      -0.687746       -18.7145
 179   2.0000      -0.685097       -18.6424
 180   2.0000      -0.684172       -18.6173
 181   2.0000      -0.678396       -18.4601
 182   2.0000      -0.673393       -18.3240
 183   2.0000      -0.672113       -18.2891
 184   2.0000      -0.669092       -18.2069
 185   2.0000      -0.656221       -17.8567
 186   2.0000      -0.654700       -17.8153
 187   2.0000      -0.649554       -17.6753
 188   2.0000      -0.647956       -17.6318
 189   2.0000      -0.641594       -17.4587
 190   2.0000      -0.641482       -17.4556
 191   2.0000      -0.636513       -17.3204
 192   2.0000      -0.629118       -17.1192
 193   2.0000      -0.619688       -16.8626
 194   2.0000      -0.617478       -16.8024
 195   2.0000      -0.616881       -16.7862
 196   2.0000      -0.610186       -16.6040
 197   2.0000      -0.607360       -16.5271
 198   2.0000      -0.603933       -16.4339
 199   2.0000      -0.599232       -16.3059
 200   2.0000      -0.595272       -16.1982
 201   2.0000      -0.588350       -16.0098
 202   2.0000      -0.585084       -15.9209
 203   2.0000      -0.583349       -15.8737
 204   2.0000      -0.580175       -15.7874
 205   2.0000      -0.578958       -15.7543
 206   2.0000      -0.573699       -15.6112
 207   2.0000      -0.567153       -15.4330
 208   2.0000      -0.562235       -15.2992
 209   2.0000      -0.552887       -15.0448
 210   2.0000      -0.551449       -15.0057
 211   2.0000      -0.546476       -14.8704
 212   2.0000      -0.542565       -14.7639
 213   2.0000      -0.541205       -14.7269
 214   2.0000      -0.535116       -14.5613
 215   2.0000      -0.531360       -14.4590
 216   2.0000      -0.530848       -14.4451
 217   2.0000      -0.529959       -14.4209
 218   2.0000      -0.527160       -14.3447
 219   2.0000      -0.524676       -14.2771
 220   2.0000      -0.522493       -14.2178
 221   2.0000      -0.521031       -14.1780
 222   2.0000      -0.520584       -14.1658
 223   2.0000      -0.516327       -14.0500
 224   2.0000      -0.515158       -14.0182
 225   2.0000      -0.513232       -13.9658
 226   2.0000      -0.512673       -13.9506
 227   2.0000      -0.508855       -13.8466
 228   2.0000      -0.505450       -13.7540
 229   2.0000      -0.504938       -13.7401
 230   2.0000      -0.501893       -13.6572
 231   2.0000      -0.501588       -13.6489
 232   2.0000      -0.501411       -13.6441
 233   2.0000      -0.499797       -13.6002
 234   2.0000      -0.494299       -13.4505
 235   2.0000      -0.494019       -13.4429
 236   2.0000      -0.492747       -13.4083
 237   2.0000      -0.488016       -13.2796
 238   2.0000      -0.487612       -13.2686
 239   2.0000      -0.485902       -13.2221
 240   2.0000      -0.485640       -13.2149
 241   2.0000      -0.484288       -13.1781
 242   2.0000      -0.484212       -13.1761
 243   2.0000      -0.481399       -13.0995
 244   2.0000      -0.480744       -13.0817
 245   2.0000      -0.477359       -12.9896
 246   2.0000      -0.476502       -12.9663
 247   2.0000      -0.475218       -12.9313
 248   2.0000      -0.469633       -12.7794
 249   2.0000      -0.466004       -12.6806
 250   2.0000      -0.462774       -12.5927
 251   2.0000      -0.459956       -12.5160
 252   2.0000      -0.456450       -12.4206
 253   2.0000      -0.451890       -12.2966
 254   2.0000      -0.450697       -12.2641
 255   2.0000      -0.450097       -12.2478
 256   2.0000      -0.445983       -12.1358
 257   2.0000      -0.445350       -12.1186
 258   2.0000      -0.443546       -12.0695
 259   2.0000      -0.441478       -12.0132
 260   2.0000      -0.440736       -11.9930
 261   2.0000      -0.440008       -11.9732
 262   2.0000      -0.435212       -11.8427
 263   2.0000      -0.434734       -11.8297
 264   2.0000      -0.432345       -11.7647
 265   2.0000      -0.431895       -11.7525
 266   2.0000      -0.431580       -11.7439
 267   2.0000      -0.429654       -11.6915
 268   2.0000      -0.427433       -11.6310
 269   2.0000      -0.426181       -11.5970
 270   2.0000      -0.425470       -11.5776
 271   2.0000      -0.422683       -11.5018
 272   2.0000      -0.420672       -11.4471
 273   2.0000      -0.417360       -11.3569
 274   2.0000      -0.414384       -11.2760
 275   2.0000      -0.413800       -11.2601
 276   2.0000      -0.410239       -11.1632
 277   2.0000      -0.408633       -11.1195
 278   2.0000      -0.404950       -11.0193
 279   2.0000      -0.403801       -10.9880
 280   2.0000      -0.403086       -10.9685
 281   2.0000      -0.399085       -10.8596
 282   2.0000      -0.398107       -10.8330
 283   2.0000      -0.392339       -10.6761
 284   2.0000      -0.388506       -10.5718
 285   2.0000      -0.381167       -10.3721
 286   2.0000      -0.376645       -10.2490
 287   2.0000      -0.371300       -10.1036
 288   2.0000      -0.371215       -10.1013
 289   2.0000      -0.365414        -9.9434
 290   2.0000      -0.362148        -9.8545
 291   2.0000      -0.354475        -9.6457
 292   2.0000      -0.349543        -9.5115
 293   2.0000      -0.340470        -9.2647
 294   2.0000      -0.334489        -9.1019
 295   2.0000      -0.329061        -8.9542
 296   2.0000      -0.326270        -8.8783
 297   2.0000      -0.321471        -8.7477
 298   2.0000      -0.321143        -8.7388
 299   2.0000      -0.314521        -8.5585
 300   2.0000      -0.308950        -8.4069
 301   2.0000      -0.306912        -8.3515
 302   2.0000      -0.301419        -8.2020
 303   2.0000      -0.297178        -8.0866
 304   2.0000      -0.287381        -7.8200
 305   2.0000      -0.280439        -7.6311
 306   2.0000      -0.271171        -7.3789
 307   2.0000      -0.242599        -6.6014
 308   2.0000      -0.216719        -5.8972
 309   0.0000      -0.115791        -3.1508
 310   0.0000      -0.091911        -2.5010
 311   0.0000      -0.066874        -1.8197
 312   0.0000      -0.054723        -1.4891
 313   0.0000      -0.046345        -1.2611

MULLIKEN ATOMIC CHARGES
-----------------------
   0 C :    0.333157
   1 C :   -0.359424
   2 C :   -0.187153
   3 N :    0.141498
   4 C :   -0.193628
   5 N :    0.140071
   6 C :    0.012296
   7 C :   -0.009975
   8 C :   -0.080115
   9 C :    0.121178
  10 C :   -0.089154
  11 C :   -0.026896
  12 S :    0.182497
  13 C :   -0.121921
  14 C :    0.034804
  15 Br:    0.017816
  16 C :    0.141838
  17 O :   -0.164555
  18 C :   -0.073760
  19 C :   -0.032767
  20 C :   -0.006631
  21 C :   -0.000497
  22 C :    0.079965
  23 O :   -0.215730
  24 C :    0.128011
  25 C :    0.074183
  26 C :    0.111254
  27 O :   -0.158535
  28 O :   -0.196503
  29 C :   -0.075192
  30 C :    0.031978
  31 C :    0.012413
  32 C :   -0.020136
  33 C :   -0.074082
  34 S :    0.096526
  35 C :   -0.087251
  36 C :   -0.044612
  37 C :   -0.096901
  38 C :    0.136597
  39 C :    0.062204
  40 C :   -0.076724
  41 N :   -0.162791
  42 C :    0.163824
  43 C :   -0.020810
  44 C :   -0.007140
  45 C :    0.020515
  46 C :   -0.042859
  47 C :    0.050759
  48 C :    0.017691
  49 C :   -0.023357
  50 S :    0.084656
  51 C :   -0.057014
  52 C :    0.037746
  53 C :    0.032321
  54 C :   -0.018292
  55 S :    0.108878
  56 C :   -0.002267
  57 C :    0.021229
  58 C :   -0.131965
  59 C :    0.291473
  60 C :   -0.353768
  61 C :   -0.178174
  62 N :    0.134915
  63 C :   -0.221384
  64 N :    0.155944
  65 C :    0.004608
  66 C :   -0.004587
  67 C :    0.136242
  68 O :   -0.161552
  69 C :   -0.075482
  70 C :    0.112260
  71 C :   -0.090290
  72 C :   -0.023989
  73 S :    0.177174
  74 C :   -0.126159
  75 C :    0.039453
  76 Br:    0.012432
  77 H :   -0.017530
  78 H :   -0.007995
  79 H :   -0.007074
  80 H :    0.006665
  81 H :    0.027435
  82 H :    0.024353
  83 H :    0.200176
  84 H :    0.194389
  85 H :   -0.027898
  86 H :    0.019303
  87 H :   -0.006619
  88 H :    0.000506
  89 H :    0.018897
  90 H :    0.020009
  91 H :   -0.007804
  92 H :   -0.007788
  93 H :    0.003485
  94 H :    0.087438
  95 H :    0.092511
  96 H :    0.009173
  97 H :    0.030318
  98 H :    0.017045
  99 H :   -0.005250
 100 H :   -0.003406
 101 H :   -0.004736
 102 H :   -0.007685
 103 H :   -0.005817
 104 H :    0.002899
 105 H :    0.006645
 106 H :    0.013937
 107 H :   -0.016244
 108 H :   -0.008110
 109 H :   -0.007611
Sum of atomic charges:   -0.0000000

LOEWDIN ATOMIC CHARGES
----------------------
   0 C :    0.075866
   1 C :   -0.150184
   2 C :   -0.018308
   3 N :   -0.063081
   4 C :   -0.020546
   5 N :   -0.061006
   6 C :   -0.019424
   7 C :   -0.049038
   8 C :    0.016946
   9 C :   -0.034809
  10 C :   -0.145025
  11 C :   -0.011664
  12 S :    0.429655
  13 C :   -0.273366
  14 C :   -0.071837
  15 Br:    0.132305
  16 C :    0.083249
  17 O :   -0.157286
  18 C :   -0.109288
  19 C :    0.066760
  20 C :   -0.042707
  21 C :    0.023308
  22 C :   -0.007096
  23 O :    0.009773
  24 C :    0.012374
  25 C :   -0.024633
  26 C :    0.018878
  27 O :   -0.030402
  28 O :   -0.059087
  29 C :   -0.061629
  30 C :    0.001404
  31 C :   -0.029499
  32 C :   -0.029699
  33 C :   -0.160637
  34 S :    0.422750
  35 C :   -0.169917
  36 C :   -0.036242
  37 C :   -0.049620
  38 C :   -0.026372
  39 C :   -0.041614
  40 C :    0.013413
  41 N :   -0.098191
  42 C :   -0.025721
  43 C :   -0.021941
  44 C :   -0.055402
  45 C :   -0.025834
  46 C :   -0.159317
  47 C :   -0.011275
  48 C :   -0.046909
  49 C :   -0.150193
  50 S :    0.407671
  51 C :   -0.193392
  52 C :   -0.008933
  53 C :   -0.039500
  54 C :   -0.101742
  55 S :    0.405038
  56 C :   -0.070638
  57 C :    0.049552
  58 C :   -0.110722
  59 C :    0.068492
  60 C :   -0.157367
  61 C :   -0.020080
  62 N :   -0.068316
  63 C :   -0.024536
  64 N :   -0.065007
  65 C :   -0.015069
  66 C :   -0.050381
  67 C :    0.077657
  68 O :   -0.161491
  69 C :    0.016767
  70 C :   -0.037803
  71 C :   -0.145493
  72 C :   -0.016853
  73 S :    0.425654
  74 C :   -0.276055
  75 C :   -0.070972
  76 Br:    0.128013
  77 H :    0.037922
  78 H :    0.040548
  79 H :    0.037214
  80 H :    0.040709
  81 H :    0.033216
  82 H :    0.048527
  83 H :    0.109353
  84 H :    0.100785
  85 H :    0.026053
  86 H :    0.039439
  87 H :    0.020888
  88 H :    0.037132
  89 H :    0.032781
  90 H :    0.035832
  91 H :    0.018771
  92 H :    0.020857
  93 H :    0.022550
  94 H :    0.050894
  95 H :    0.055312
  96 H :    0.033022
  97 H :    0.037941
  98 H :    0.020586
  99 H :    0.025678
 100 H :    0.039042
 101 H :    0.036862
 102 H :    0.034010
 103 H :    0.035384
 104 H :    0.040035
 105 H :    0.037666
 106 H :    0.033640
 107 H :    0.038433
 108 H :    0.039528
 109 H :    0.037018

  Mayer bond orders larger than 0.100000
B(  0-C ,  1-C ) :   1.6043 B(  0-C ,  6-C ) :   0.9928 B(  0-C , 18-C ) :   1.0916
B(  1-C ,  2-C ) :   1.1457 B(  1-C ,  4-C ) :   1.1498 B(  2-C ,  3-N ) :   2.9640
B(  4-C ,  5-N ) :   2.9598 B(  6-C ,  7-C ) :   1.2783 B(  6-C , 11-C ) :   1.4117
B(  7-C ,  8-C ) :   1.4259 B(  7-C , 16-C ) :   0.9391 B(  8-C ,  9-C ) :   1.2410
B(  8-C , 77-H ) :   1.0170 B(  9-C , 10-C ) :   1.3108 B(  9-C , 14-C ) :   1.1599
B( 10-C , 11-C ) :   1.3255 B( 10-C , 12-S ) :   1.0839 B( 11-C , 78-H ) :   0.9802
B( 12-S , 13-C ) :   1.0863 B( 13-C , 14-C ) :   1.6195 B( 13-C , 15-Br) :   1.0157
B( 14-C , 79-H ) :   1.0011 B( 16-C , 17-O ) :   2.1911 B( 16-C , 18-C ) :   0.9623
B( 18-C , 19-C ) :   1.4733 B( 19-C , 20-C ) :   1.2021 B( 19-C , 80-H ) :   0.9616
B( 20-C , 21-C ) :   1.4590 B( 20-C , 81-H ) :   0.9941 B( 21-C , 22-C ) :   1.2118
B( 21-C , 82-H ) :   0.9788 B( 22-C , 23-O ) :   1.1037 B( 22-C , 24-C ) :   0.1069
B( 22-C , 26-C ) :   1.3239 B( 23-O , 24-C ) :   1.1392 B( 24-C , 25-C ) :   1.2801
B( 24-C , 29-C ) :   1.1506 B( 25-C , 26-C ) :   1.2550 B( 25-C , 28-O ) :   1.2360
B( 26-C , 27-O ) :   1.2983 B( 27-O , 83-H ) :   0.9492 B( 28-O , 84-H ) :   0.9563
B( 29-C , 30-C ) :   1.5968 B( 29-C , 85-H ) :   0.9658 B( 30-C , 31-C ) :   1.1574
B( 30-C , 86-H ) :   0.9982 B( 31-C , 32-C ) :   1.5824 B( 31-C , 87-H ) :   0.9818
B( 32-C , 33-C ) :   1.1819 B( 32-C , 88-H ) :   0.9765 B( 33-C , 34-S ) :   1.1050
B( 33-C , 37-C ) :   1.4292 B( 34-S , 35-C ) :   1.0890 B( 35-C , 36-C ) :   1.4113
B( 35-C , 43-C ) :   1.2657 B( 36-C , 37-C ) :   1.3694 B( 36-C , 42-C ) :   1.0261
B( 37-C , 38-C ) :   1.0490 B( 38-C , 39-C ) :   1.0758 B( 38-C , 89-H ) :   0.9135
B( 38-C , 90-H ) :   0.9042 B( 39-C , 40-C ) :   1.0280 B( 39-C , 91-H ) :   0.9297
B( 39-C , 92-H ) :   0.9296 B( 40-C , 41-N ) :   1.1121 B( 40-C , 42-C ) :   1.0443
B( 40-C , 93-H ) :   0.9285 B( 41-N , 94-H ) :   0.9693 B( 41-N , 95-H ) :   0.9690
B( 42-C , 96-H ) :   0.9021 B( 42-C , 97-H ) :   0.9070 B( 43-C , 44-C ) :   1.5306
B( 43-C , 98-H ) :   0.9391 B( 44-C , 45-C ) :   1.2470 B( 44-C , 99-H ) :   0.9659
B( 45-C , 46-C ) :   1.5205 B( 45-C ,100-H ) :   0.9631 B( 46-C , 47-C ) :   1.1808
B( 46-C , 50-S ) :   1.0323 B( 47-C , 48-C ) :   1.5504 B( 47-C ,101-H ) :   0.9984
B( 48-C , 49-C ) :   1.2162 B( 48-C ,102-H ) :   0.9949 B( 49-C , 50-S ) :   1.0793
B( 49-C , 51-C ) :   1.4411 B( 51-C , 52-C ) :   1.2338 B( 51-C , 55-S ) :   1.0459
B( 52-C , 53-C ) :   1.5265 B( 52-C ,103-H ) :   0.9948 B( 53-C , 54-C ) :   1.1943
B( 53-C ,104-H ) :   1.0018 B( 54-C , 55-S ) :   1.0894 B( 54-C , 56-C ) :   1.4768
B( 56-C , 57-C ) :   1.2416 B( 56-C ,105-H ) :   0.9634 B( 57-C , 58-C ) :   1.5091
B( 57-C ,106-H ) :   0.9394 B( 58-C , 59-C ) :   1.0957 B( 58-C , 67-C ) :   0.9721
B( 59-C , 60-C ) :   1.5904 B( 59-C , 65-C ) :   1.0014 B( 60-C , 61-C ) :   1.1344
B( 60-C , 63-C ) :   1.1706 B( 61-C , 62-N ) :   2.9743 B( 63-C , 64-N ) :   3.0088
B( 65-C , 66-C ) :   1.2767 B( 65-C , 72-C ) :   1.4242 B( 66-C , 67-C ) :   0.9178
B( 66-C , 69-C ) :   1.4380 B( 67-C , 68-O ) :   2.2371 B( 69-C , 70-C ) :   1.2417
B( 69-C ,107-H ) :   1.0157 B( 70-C , 71-C ) :   1.3202 B( 70-C , 75-C ) :   1.1598
B( 71-C , 72-C ) :   1.3180 B( 71-C , 73-S ) :   1.0807 B( 72-C ,108-H ) :   0.9815
B( 73-S , 74-C ) :   1.0860 B( 74-C , 75-C ) :   1.6219 B( 74-C , 76-Br) :   1.0122
B( 75-C ,109-H ) :   1.0001

-----------------------------------------------------------------------------
         ABSORPTION SPECTRUM VIA TRANSITION ELECTRIC DIPOLE MOMENTS
-----------------------------------------------------------------------------
State   Energy  Wavelength   fosc         T2         TX        TY        TZ
        (cm-1)    (nm)                  (au**2)     (au)      (au)      (au)
-----------------------------------------------------------------------------
   0    9095.2   1099.5   1.375886822  49.80173   6.83890   0.99765  -1.42684
   1   15527.3    644.0   1.488392446  31.55708  -2.14547   4.78542  -2.01341
   2   16427.4    608.7   0.076567912   1.53445  -0.13982   1.15291  -0.43093
   3   19864.1    503.4   0.063555109   1.05331   0.32860  -0.88686  -0.39851
   4   21282.6    469.9   0.025731829   0.39804  -0.01025  -0.43500  -0.45684
   5   22418.3    446.1   0.053203406   0.78129   0.22417  -0.02752  -0.85457
   6   23414.6    427.1   0.071625836   1.00707   0.69759  -0.57675   0.43335
   7   24065.8    415.5   0.021271650   0.29099  -0.00225   0.29456   0.45191
   8   24734.0    404.3   0.324031545   4.31289  -0.84230   1.89824   0.01022
   9   25860.6    386.7   0.048524609   0.61773   0.31168  -0.71832   0.06782
  10   26835.9    372.6   0.039642888   0.48632  -0.07566   0.57518  -0.38699
  11   26921.3    371.5   0.024379159   0.29812  -0.40407   0.30274   0.20785
  12   27350.7    365.6   0.257292072   3.09695   0.55314   0.24357  -1.65277
  13   27437.2    364.5   0.024961296   0.29950  -0.14231  -0.04851   0.52621
  14   28115.3    355.7   0.341986050   4.00444  -0.20511  -0.69544   1.86514
  15   28220.5    354.4   0.172749756   2.01524   0.37198   0.16864  -1.35957
  16   28323.7    353.1   0.003997224   0.04646  -0.02643  -0.06507   0.20378
  17   28921.9    345.8   0.099840713   1.13647   0.20046   0.26377  -1.01327
  18   29751.3    336.1   0.115247794   1.27527   0.09886   0.47785  -1.01841
  19   29852.5    335.0   0.009118599   0.10056   0.00510  -0.23263   0.21544
  20   29916.0    334.3   0.011512013   0.12668   0.22943  -0.20071  -0.18374
  21   30104.1    332.2   0.058229080   0.63678   0.32256   0.24727  -0.68672
  22   30632.4    326.5   0.090017335   0.96743  -0.00357   0.93928  -0.29183
  23   31650.8    315.9   0.091089084   0.94745  -0.47772   0.56494   0.63251
  24   31913.9    313.3   0.575586615   5.93753   0.24903   1.82076  -1.60011
  25   32045.5    312.1   0.045840659   0.47093   0.03877  -0.56201  -0.39188
  26   32567.8    307.1   0.066312305   0.67032  -0.16368  -0.22840   0.76900
  27   32743.4    305.4   0.082073521   0.82519   0.51355  -0.38206  -0.64458
  28   32927.8    303.7   0.005082349   0.05081  -0.04801  -0.16298   0.14814
  29   33041.4    302.7   0.256769563   2.55836  -0.40636   1.50479   0.35894
  30   33365.0    299.7   0.350205087   3.45547  -0.90284   0.27630   1.60125
  31   33632.0    297.3   0.100800500   0.98670   0.34037  -0.49143  -0.79331
  32   33997.1    294.1   0.002108429   0.02042  -0.09159  -0.07894  -0.07614
  33   34219.8    292.2   0.079474987   0.76459  -0.47277  -0.07246   0.73201
  34   34624.2    288.8   0.076761555   0.72986  -0.42810   0.08727   0.73415
  35   35035.0    285.4   0.116655398   1.09617   0.35520   0.07296  -0.98218
  36   35180.9    284.2   0.080235788   0.75082  -0.52255  -0.00427   0.69119
  37   35364.2    282.8   0.007340499   0.06833   0.22033  -0.12453  -0.06542
  38   35660.8    280.4   0.142614178   1.31658   0.56392  -0.19882  -0.97931
  39   35956.1    278.1   0.053977981   0.49422   0.49649  -0.49013  -0.08656
  40   36117.9    276.9   0.080704154   0.73561  -0.61485   0.14341   0.58052
  41   36421.7    274.6   0.118504361   1.07115  -0.51801   0.78173   0.43785
  42   36704.4    272.4   0.013201381   0.11841   0.30669  -0.00941  -0.15575
  43   37131.2    269.3   0.023777614   0.21082   0.29686  -0.25911  -0.23569
  44   37328.5    267.9   0.180503731   1.59192  -0.25755   0.98241  -0.74864
  45   37651.5    265.6   0.001387968   0.01214   0.07308  -0.07548  -0.03314
  46   37953.8    263.5   0.139796274   1.21259   0.82309  -0.72907  -0.05985
  47   38129.9    262.3   0.000113447   0.00098  -0.01136   0.02495  -0.01510
  48   38288.1    261.2   0.027236796   0.23419   0.24984  -0.38532   0.15263
  49   38638.4    258.8   0.032195405   0.27432   0.19618  -0.44342   0.19801
  50   38827.1    257.6   0.018163573   0.15401  -0.20036   0.15596  -0.29924
  51   39091.8    255.8   0.086512501   0.72857  -0.61188   0.57812  -0.14123
  52   39464.5    253.4   0.038683718   0.32270  -0.31679   0.23730  -0.40746
  53   39516.1    253.1   0.035272973   0.29386  -0.52749  -0.11924   0.03737
  54   39912.5    250.5   0.018014320   0.14859  -0.16059   0.08109   0.34092
  55   40068.6    249.6   0.143338779   1.17770   0.92140  -0.57272   0.02669
  56   40227.4    248.6   0.005075322   0.04154  -0.19639   0.04634   0.02859

FINAL SINGLE POINT ENERGY    -10090.529494104716

DIPOLE MOMENT
-------------
                                X             Y             Z
Electronic contribution:    -22.82187    -181.59678     111.28172
Nuclear contribution   :     23.51153     186.15371    -114.27769
                        -----------------------------------------
Total Dipole Moment    :      0.68966       4.55693      -2.99596
                        -----------------------------------------
Magnitude (a.u.)       :      5.49700
Magnitude (Debye)      :     13.97227

Rotational constants in cm-1:     0.000463     0.000181     0.000146
Rotational constants in MHz :    13.867224     5.430839     4.378338

                             ****ORCA TERMINATED NORMALLY****
TOTAL RUN TIME: 0 days 0 hours 12 minutes 10 seconds 600 msec
