                         Program Version 4.2.0 -  RELEASE  -
|  1> # ORCA input file
|  2> # SCF done       -162.534499412292          0.000787528993
|  3> ! CAM-B3LYP def2-SVP def2/J RIJCOSX Grid4 TightSCF
|  4> %maxcore 5000
|  5> %tddft
|  6>     Mode sTDDFT
|  7>     Ethresh 5.0
|  8>     maxcore 5000
|  9> end
| 10>
| 11> %pal
| 12>   nprocs 6
| 13>   end
| 14> * xyz 0 1
| 15>    C       -6.33980        -3.05060        -0.74513
| 16>    C       -4.99863        -3.32474        -0.60795
| 17>    C       -4.47951        -4.59126        -0.27499
| 18>    N       -3.99316        -5.59986        -0.01772
| 19>    C       -3.95788        -2.39415        -0.79128
| 20>    N       -3.05482        -1.69567        -0.92271
| 21>    C       -7.42447        -4.00155        -0.53511
| 22>    C       -8.65878        -3.35230        -0.78446
| 23>    C       -9.86952        -3.98833        -0.66771
| 24>    C       -9.86566        -5.33117        -0.27423
| 25>    C       -8.62906        -5.97243        -0.02659
| 26>    C       -7.40313        -5.33034        -0.15199
| 27>    S       -8.85263        -7.63078         0.44269
| 28>    C      -10.58060        -7.44136         0.30220
| 29>    C      -10.97206        -6.20171        -0.07586
| 30>   Br      -11.70361        -8.89847         0.66663
| 31>    C       -8.40635        -1.95554        -1.18260
| 32>    O       -9.21384        -1.17915        -1.64107
| 33>    C       -6.93092        -1.77266        -1.07415
| 34>    C       -6.27865        -0.61271        -1.37879
| 35>    C       -6.91411         0.65187        -1.43987
| 36>    O       -6.35977         1.64261        -2.19612
| 37>    C       -8.01583         1.17377        -0.78608
| 38>    C       -9.03782         0.89802         0.23055
| 39>    O       -9.23788        -0.06614         0.92163
| 40>    N       -9.75661         2.09108         0.29842
| 41>    C       -9.28934         3.11984        -0.51504
| 42>    O       -9.76537         4.22345        -0.58309
| 43>    C       -8.13884         2.52050        -1.19770
| 44>    C       -7.10236         2.77360        -2.07722
| 45>    C       -6.77586         3.94847        -2.80777
| 46>    C       -5.70756         4.04199        -3.62935
| 47>    C       -5.42180         5.20997        -4.40251
| 48>    C       -4.38143         5.34019        -5.24204
| 49>    C       -3.34558         4.27707        -5.44782
| 50>    C       -4.17903         6.57372        -6.09482
| 51>    N       -5.17531         7.60073        -5.96455
| 52>    C       -6.43224         7.45282        -6.44130
| 53>    C       -7.46131         8.30180        -6.17989
| 54>    C       -8.75342         8.12002        -6.70238
| 55>    C       -9.81277         8.96379        -6.48978
| 56>    C      -11.13985         8.80105        -6.95151
| 57>    C      -11.98674         9.80651        -6.59365
| 58>    C      -11.37533        10.82988        -5.83719
| 59>    S       -9.68732        10.46498        -5.57479
| 60>    C      -11.95954        11.98970        -5.35799
| 61>    C      -13.30385        12.39408        -5.47709
| 62>    C      -13.56603        13.60763        -4.91265
| 63>    C      -12.44298        14.23222        -4.32296
| 64>    S      -11.03441        13.20526        -4.49660
| 65>    C      -12.44360        15.46821        -3.71496
| 66>    C      -11.36790        16.14700        -3.14294
| 67>    S       -9.75004        15.49992        -3.08614
| 68>    C       -9.13737        16.88605        -2.29877
| 69>    C      -10.10955        17.83752        -2.06834
| 70>    C      -11.39589        17.42735        -2.54580
| 71>    C      -12.49592        18.28104        -2.39052
| 72>    C      -12.31793        19.49945        -1.78236
| 73>    S      -13.65302        20.63117        -1.55044
| 74>    C      -11.04934        19.90874        -1.31044
| 75>    C       -9.96382        19.10000        -1.44670
| 76>    H      -10.79073        -3.46343        -0.86481
| 77>    H       -6.48903        -5.86475         0.04555
| 78>    H      -11.99783        -5.91063        -0.21006
| 79>    H       -5.21733        -0.61214        -1.58554
| 80>    H      -10.54968         2.20653         0.91336
| 81>    H       -7.45759         4.77574        -2.67205
| 82>    H       -5.05134         3.18952        -3.72446
| 83>    H       -6.13101         6.02035        -4.29825
| 84>    H       -2.91381         3.96817        -4.49824
| 85>    H       -2.54502         4.63584        -6.08927
| 86>    H       -3.78741         3.39689        -5.91368
| 87>    H       -4.15017         6.25169        -7.14423
| 88>    H       -3.20188         7.01050        -5.86310
| 89>    H       -5.04061         8.28954        -5.23966
| 90>    H       -6.57581         6.60748        -7.10061
| 91>    H       -7.29727         9.15532        -5.53538
| 92>    H       -8.93592         7.24270        -7.30944
| 93>    H      -11.42731         7.94178        -7.53174
| 94>    H      -13.02800         9.84293        -6.85873
| 95>    H      -14.04125        11.78589        -5.96926
| 96>    H      -14.53413        14.07711        -4.90617
| 97>    H      -13.39834        15.97703        -3.68853
| 98>    H       -8.09781        16.93698        -2.04389
| 99>    H      -13.47095        17.98153        -2.74602
|100>    H      -14.59139        19.86864        -2.11045
|101>    H      -10.96534        20.87686        -0.84060
|102>    H       -8.99256        19.40519        -1.08919
|103> *
|104>
|105>                          ****END OF INPUT****

CARTESIAN COORDINATES (ANGSTROEM)
---------------------------------
  C     -6.339800   -3.050600   -0.745130
  C     -4.998630   -3.324740   -0.607950
  C     -4.479510   -4.591260   -0.274990
  N     -3.993160   -5.599860   -0.017720
  C     -3.957880   -2.394150   -0.791280
  N     -3.054820   -1.695670   -0.922710
  C     -7.424470   -4.001550   -0.535110
  C     -8.658780   -3.352300   -0.784460
  C     -9.869520   -3.988330   -0.667710
  C     -9.865660   -5.331170   -0.274230
  C     -8.629060   -5.972430   -0.026590
  C     -7.403130   -5.330340   -0.151990
  S     -8.852630   -7.630780    0.442690
  C    -10.580600   -7.441360    0.302200
  C    -10.972060   -6.201710   -0.075860
  Br   -11.703610   -8.898470    0.666630
  C     -8.406350   -1.955540   -1.182600
  O     -9.213840   -1.179150   -1.641070
  C     -6.930920   -1.772660   -1.074150
  C     -6.278650   -0.612710   -1.378790
  C     -6.914110    0.651870   -1.439870
  O     -6.359770    1.642610   -2.196120
  C     -8.015830    1.173770   -0.786080
  C     -9.037820    0.898020    0.230550
  O     -9.237880   -0.066140    0.921630
  N     -9.756610    2.091080    0.298420
  C     -9.289340    3.119840   -0.515040
  O     -9.765370    4.223450   -0.583090
  C     -8.138840    2.520500   -1.197700
  C     -7.102360    2.773600   -2.077220
  C     -6.775860    3.948470   -2.807770
  C     -5.707560    4.041990   -3.629350
  C     -5.421800    5.209970   -4.402510
  C     -4.381430    5.340190   -5.242040
  C     -3.345580    4.277070   -5.447820
  C     -4.179030    6.573720   -6.094820
  N     -5.175310    7.600730   -5.964550
  C     -6.432240    7.452820   -6.441300
  C     -7.461310    8.301800   -6.179890
  C     -8.753420    8.120020   -6.702380
  C     -9.812770    8.963790   -6.489780
  C    -11.139850    8.801050   -6.951510
  C    -11.986740    9.806510   -6.593650
  C    -11.375330   10.829880   -5.837190
  S     -9.687320   10.464980   -5.574790
  C    -11.959540   11.989700   -5.357990
  C    -13.303850   12.394080   -5.477090
  C    -13.566030   13.607630   -4.912650
  C    -12.442980   14.232220   -4.322960
  S    -11.034410   13.205260   -4.496600
  C    -12.443600   15.468210   -3.714960
  C    -11.367900   16.147000   -3.142940
  S     -9.750040   15.499920   -3.086140
  C     -9.137370   16.886050   -2.298770
  C    -10.109550   17.837520   -2.068340
  C    -11.395890   17.427350   -2.545800
  C    -12.495920   18.281040   -2.390520
  C    -12.317930   19.499450   -1.782360
  S    -13.653020   20.631170   -1.550440
  C    -11.049340   19.908740   -1.310440
  C     -9.963820   19.100000   -1.446700
  H    -10.790730   -3.463430   -0.864810
  H     -6.489030   -5.864750    0.045550
  H    -11.997830   -5.910630   -0.210060
  H     -5.217330   -0.612140   -1.585540
  H    -10.549680    2.206530    0.913360
  H     -7.457590    4.775740   -2.672050
  H     -5.051340    3.189520   -3.724460
  H     -6.131010    6.020350   -4.298250
  H     -2.913810    3.968170   -4.498240
  H     -2.545020    4.635840   -6.089270
  H     -3.787410    3.396890   -5.913680
  H     -4.150170    6.251690   -7.144230
  H     -3.201880    7.010500   -5.863100
  H     -5.040610    8.289540   -5.239660
  H     -6.575810    6.607480   -7.100610
  H     -7.297270    9.155320   -5.535380
  H     -8.935920    7.242700   -7.309440
  H    -11.427310    7.941780   -7.531740
  H    -13.028000    9.842930   -6.858730
  H    -14.041250   11.785890   -5.969260
  H    -14.534130   14.077110   -4.906170
  H    -13.398340   15.977030   -3.688530
  H     -8.097810   16.936980   -2.043890
  H    -13.470950   17.981530   -2.746020
  H    -14.591390   19.868640   -2.110450
  H    -10.965340   20.876860   -0.840600
  H     -8.992560   19.405190   -1.089190

 Total Charge           Charge          ....    0
 Multiplicity           Mult            ....    1
 Number of Electrons    NEL             ....  484
 Basis Dimension        Dim             .... 1027

ORBITAL ENERGIES
----------------

  NO   OCC          E(Eh)            E(eV)
   0   2.0000    -482.887498    -13140.0368
   1   2.0000     -88.977728     -2421.2071
   2   2.0000     -88.947096     -2420.3735
   3   2.0000     -88.927536     -2419.8413
   4   2.0000     -88.926871     -2419.8232
   5   2.0000     -88.916188     -2419.5325
   6   2.0000     -62.565221     -1702.4862
   7   2.0000     -56.399177     -1534.6996
   8   2.0000     -56.396450     -1534.6254
   9   2.0000     -56.396421     -1534.6246
  10   2.0000     -19.319624      -525.7137
  11   2.0000     -19.219081      -522.9778
  12   2.0000     -19.216937      -522.9194
  13   2.0000     -19.213204      -522.8179
  14   2.0000     -14.457636      -393.4123
  15   2.0000     -14.442470      -392.9996
  16   2.0000     -14.421734      -392.4353
  17   2.0000     -14.419539      -392.3756
  18   2.0000     -10.404924      -283.1324
  19   2.0000     -10.403116      -283.0832
  20   2.0000     -10.373289      -282.2715
  21   2.0000     -10.371785      -282.2306
  22   2.0000     -10.366761      -282.0939
  23   2.0000     -10.361297      -281.9452
  24   2.0000     -10.347868      -281.5798
  25   2.0000     -10.347171      -281.5608
  26   2.0000     -10.329580      -281.0822
  27   2.0000     -10.328404      -281.0502
  28   2.0000     -10.328394      -281.0499
  29   2.0000     -10.324220      -280.9363
  30   2.0000     -10.322130      -280.8794
  31   2.0000     -10.319296      -280.8023
  32   2.0000     -10.311710      -280.5959
  33   2.0000     -10.310438      -280.5613
  34   2.0000     -10.310302      -280.5576
  35   2.0000     -10.308532      -280.5094
  36   2.0000     -10.305940      -280.4389
  37   2.0000     -10.303045      -280.3601
  38   2.0000     -10.302320      -280.3404
  39   2.0000     -10.300987      -280.3041
  40   2.0000     -10.298664      -280.2409
  41   2.0000     -10.296400      -280.1793
  42   2.0000     -10.296344      -280.1778
  43   2.0000     -10.294881      -280.1380
  44   2.0000     -10.294682      -280.1325
  45   2.0000     -10.289189      -279.9831
  46   2.0000     -10.287460      -279.9360
  47   2.0000     -10.286336      -279.9054
  48   2.0000     -10.284459      -279.8544
  49   2.0000     -10.284440      -279.8538
  50   2.0000     -10.284126      -279.8453
  51   2.0000     -10.280299      -279.7412
  52   2.0000     -10.274385      -279.5802
  53   2.0000     -10.273532      -279.5570
  54   2.0000     -10.270902      -279.4854
  55   2.0000     -10.268063      -279.4082
  56   2.0000     -10.266956      -279.3781
  57   2.0000     -10.264908      -279.3223
  58   2.0000     -10.264764      -279.3184
  59   2.0000     -10.263586      -279.2864
  60   2.0000     -10.263040      -279.2715
  61   2.0000     -10.262816      -279.2654
  62   2.0000     -10.262276      -279.2507
  63   2.0000     -10.261099      -279.2187
  64   2.0000     -10.258670      -279.1526
  65   2.0000      -8.794654      -239.3147
  66   2.0000      -8.073724      -219.6972
  67   2.0000      -8.041971      -218.8331
  68   2.0000      -8.023499      -218.3305
  69   2.0000      -8.023276      -218.3244
  70   2.0000      -8.011923      -218.0155
  71   2.0000      -6.630982      -180.4382
  72   2.0000      -6.616385      -180.0410
  73   2.0000      -6.616160      -180.0349
  74   2.0000      -6.043437      -164.4503
  75   2.0000      -6.039115      -164.3327
  76   2.0000      -6.034940      -164.2191
  77   2.0000      -6.010985      -163.5672
  78   2.0000      -6.006681      -163.4501
  79   2.0000      -6.004959      -163.4033
  80   2.0000      -5.993261      -163.0849
  81   2.0000      -5.992998      -163.0778
  82   2.0000      -5.989159      -162.9733
  83   2.0000      -5.989093      -162.9715
  84   2.0000      -5.984466      -162.8456
  85   2.0000      -5.984104      -162.8357
  86   2.0000      -5.982259      -162.7855
  87   2.0000      -5.978182      -162.6746
  88   2.0000      -5.971923      -162.5043
  89   2.0000      -2.746829       -74.7450
  90   2.0000      -2.742751       -74.6340
  91   2.0000      -2.742609       -74.6302
  92   2.0000      -2.730998       -74.3142
  93   2.0000      -2.730974       -74.3136
  94   2.0000      -1.235172       -33.6107
  95   2.0000      -1.159572       -31.5536
  96   2.0000      -1.139943       -31.0194
  97   2.0000      -1.133353       -30.8401
  98   2.0000      -1.046682       -28.4817
  99   2.0000      -1.046114       -28.4662
 100   2.0000      -1.026635       -27.9362
 101   2.0000      -1.017273       -27.6814
 102   2.0000      -0.998682       -27.1755
 103   2.0000      -0.994078       -27.0502
 104   2.0000      -0.979454       -26.6523
 105   2.0000      -0.973497       -26.4902
 106   2.0000      -0.954187       -25.9647
 107   2.0000      -0.950852       -25.8740
 108   2.0000      -0.941219       -25.6119
 109   2.0000      -0.931222       -25.3398
 110   2.0000      -0.925572       -25.1861
 111   2.0000      -0.924136       -25.1470
 112   2.0000      -0.911741       -24.8097
 113   2.0000      -0.900748       -24.5106
 114   2.0000      -0.888799       -24.1854
 115   2.0000      -0.888529       -24.1781
 116   2.0000      -0.874867       -23.8064
 117   2.0000      -0.870778       -23.6951
 118   2.0000      -0.852704       -23.2032
 119   2.0000      -0.843094       -22.9418
 120   2.0000      -0.837576       -22.7916
 121   2.0000      -0.831881       -22.6366
 122   2.0000      -0.828185       -22.5361
 123   2.0000      -0.823497       -22.4085
 124   2.0000      -0.803838       -21.8735
 125   2.0000      -0.799556       -21.7570
 126   2.0000      -0.796238       -21.6667
 127   2.0000      -0.782980       -21.3060
 128   2.0000      -0.781098       -21.2548
 129   2.0000      -0.770735       -20.9728
 130   2.0000      -0.767195       -20.8764
 131   2.0000      -0.765255       -20.8236
 132   2.0000      -0.756908       -20.5965
 133   2.0000      -0.741020       -20.1642
 134   2.0000      -0.722105       -19.6495
 135   2.0000      -0.713349       -19.4112
 136   2.0000      -0.706506       -19.2250
 137   2.0000      -0.696973       -18.9656
 138   2.0000      -0.693176       -18.8623
 139   2.0000      -0.691400       -18.8139
 140   2.0000      -0.686583       -18.6829
 141   2.0000      -0.676668       -18.4131
 142   2.0000      -0.661836       -18.0095
 143   2.0000      -0.660235       -17.9659
 144   2.0000      -0.654044       -17.7974
 145   2.0000      -0.637031       -17.3345
 146   2.0000      -0.634988       -17.2789
 147   2.0000      -0.629266       -17.1232
 148   2.0000      -0.625184       -17.0121
 149   2.0000      -0.613850       -16.7037
 150   2.0000      -0.611665       -16.6442
 151   2.0000      -0.611210       -16.6319
 152   2.0000      -0.603934       -16.4339
 153   2.0000      -0.600331       -16.3358
 154   2.0000      -0.599198       -16.3050
 155   2.0000      -0.596950       -16.2438
 156   2.0000      -0.591139       -16.0857
 157   2.0000      -0.587926       -15.9983
 158   2.0000      -0.586301       -15.9541
 159   2.0000      -0.573648       -15.6098
 160   2.0000      -0.572080       -15.5671
 161   2.0000      -0.565838       -15.3972
 162   2.0000      -0.561179       -15.2705
 163   2.0000      -0.555000       -15.1023
 164   2.0000      -0.552633       -15.0379
 165   2.0000      -0.549750       -14.9595
 166   2.0000      -0.548313       -14.9204
 167   2.0000      -0.543470       -14.7886
 168   2.0000      -0.539238       -14.6734
 169   2.0000      -0.537110       -14.6155
 170   2.0000      -0.531769       -14.4702
 171   2.0000      -0.530941       -14.4476
 172   2.0000      -0.527944       -14.3661
 173   2.0000      -0.525506       -14.2997
 174   2.0000      -0.520716       -14.1694
 175   2.0000      -0.516153       -14.0452
 176   2.0000      -0.512792       -13.9538
 177   2.0000      -0.511115       -13.9082
 178   2.0000      -0.509477       -13.8636
 179   2.0000      -0.507854       -13.8194
 180   2.0000      -0.505950       -13.7676
 181   2.0000      -0.497484       -13.5372
 182   2.0000      -0.496616       -13.5136
 183   2.0000      -0.494177       -13.4473
 184   2.0000      -0.487000       -13.2519
 185   2.0000      -0.485246       -13.2042
 186   2.0000      -0.484450       -13.1825
 187   2.0000      -0.483332       -13.1521
 188   2.0000      -0.480305       -13.0698
 189   2.0000      -0.480098       -13.0641
 190   2.0000      -0.476513       -12.9666
 191   2.0000      -0.475078       -12.9275
 192   2.0000      -0.475007       -12.9256
 193   2.0000      -0.471463       -12.8292
 194   2.0000      -0.468149       -12.7390
 195   2.0000      -0.461162       -12.5489
 196   2.0000      -0.460858       -12.5406
 197   2.0000      -0.459207       -12.4957
 198   2.0000      -0.453829       -12.3493
 199   2.0000      -0.450152       -12.2493
 200   2.0000      -0.449081       -12.2201
 201   2.0000      -0.448376       -12.2009
 202   2.0000      -0.448127       -12.1941
 203   2.0000      -0.443215       -12.0605
 204   2.0000      -0.442064       -12.0292
 205   2.0000      -0.440626       -11.9900
 206   2.0000      -0.433824       -11.8050
 207   2.0000      -0.431090       -11.7306
 208   2.0000      -0.428645       -11.6640
 209   2.0000      -0.427361       -11.6291
 210   2.0000      -0.423269       -11.5177
 211   2.0000      -0.418727       -11.3941
 212   2.0000      -0.417760       -11.3678
 213   2.0000      -0.412941       -11.2367
 214   2.0000      -0.410974       -11.1832
 215   2.0000      -0.407493       -11.0884
 216   2.0000      -0.399636       -10.8746
 217   2.0000      -0.393502       -10.7077
 218   2.0000      -0.389665       -10.6033
 219   2.0000      -0.387623       -10.5477
 220   2.0000      -0.383293       -10.4299
 221   2.0000      -0.381835       -10.3903
 222   2.0000      -0.376830       -10.2541
 223   2.0000      -0.374590       -10.1931
 224   2.0000      -0.372430       -10.1343
 225   2.0000      -0.363768        -9.8986
 226   2.0000      -0.360697        -9.8151
 227   2.0000      -0.358953        -9.7676
 228   2.0000      -0.349038        -9.4978
 229   2.0000      -0.342134        -9.3100
 230   2.0000      -0.336734        -9.1630
 231   2.0000      -0.324654        -8.8343
 232   2.0000      -0.324160        -8.8209
 233   2.0000      -0.319649        -8.6981
 234   2.0000      -0.317342        -8.6353
 235   2.0000      -0.305649        -8.3171
 236   2.0000      -0.296485        -8.0678
 237   2.0000      -0.283730        -7.7207
 238   2.0000      -0.272219        -7.4075
 239   2.0000      -0.271449        -7.3865
 240   2.0000      -0.237529        -6.4635
 241   2.0000      -0.181562        -4.9405
 242   0.0000      -0.105346        -2.8666
 243   0.0000      -0.066113        -1.7990
 244   0.0000      -0.058597        -1.5945
 245   0.0000      -0.054192        -1.4746
 246   0.0000      -0.018741        -0.5100

MULLIKEN ATOMIC CHARGES
-----------------------
   0 C :    0.305828
   1 C :   -0.346872
   2 C :   -0.184300
   3 N :    0.153289
   4 C :   -0.189798
   5 N :    0.154124
   6 C :    0.024838
   7 C :   -0.013288
   8 C :   -0.062147
   9 C :    0.119965
  10 C :   -0.090093
  11 C :   -0.023665
  12 S :    0.187892
  13 C :   -0.121591
  14 C :    0.036672
  15 Br:    0.026369
  16 C :    0.156557
  17 O :   -0.148790
  18 C :   -0.074173
  19 C :   -0.033710
  20 C :    0.116702
  21 O :   -0.205044
  22 C :   -0.014365
  23 C :    0.187175
  24 O :   -0.143261
  25 N :   -0.165356
  26 C :    0.171452
  27 O :   -0.138773
  28 C :   -0.051070
  29 C :    0.105702
  30 C :   -0.041552
  31 C :    0.043303
  32 C :    0.000193
  33 C :   -0.216816
  34 C :    0.077102
  35 C :    0.192870
  36 N :   -0.150499
  37 C :    0.053993
  38 C :   -0.018374
  39 C :   -0.013298
  40 C :   -0.036362
  41 C :    0.041036
  42 C :    0.011997
  43 C :   -0.041021
  44 S :    0.056472
  45 C :   -0.046759
  46 C :    0.026644
  47 C :    0.017455
  48 C :   -0.034461
  49 S :    0.053667
  50 C :   -0.030211
  51 C :   -0.119656
  52 S :    0.131689
  53 C :   -0.127212
  54 C :    0.088593
  55 C :    0.130928
  56 C :   -0.045393
  57 C :   -0.062418
  58 S :    0.013866
  59 C :    0.029260
  60 C :   -0.002155
  61 H :   -0.008627
  62 H :   -0.006796
  63 H :   -0.001210
  64 H :    0.031453
  65 H :    0.140456
  66 H :    0.018596
  67 H :    0.003606
  68 H :   -0.004301
  69 H :    0.044752
  70 H :    0.015811
  71 H :    0.044235
  72 H :    0.030594
  73 H :    0.033203
  74 H :    0.125430
  75 H :    0.003110
  76 H :   -0.014025
  77 H :   -0.024827
  78 H :   -0.021888
  79 H :   -0.021638
  80 H :   -0.022687
  81 H :   -0.023039
  82 H :   -0.028167
  83 H :    0.007848
  84 H :   -0.047258
  85 H :    0.052518
  86 H :   -0.020673
  87 H :   -0.029629
Sum of atomic charges:   -0.0000000

LOEWDIN ATOMIC CHARGES
----------------------
   0 C :    0.074938
   1 C :   -0.136858
   2 C :   -0.018089
   3 N :   -0.050132
   4 C :   -0.020281
   5 N :   -0.050926
   6 C :   -0.019828
   7 C :   -0.044650
   8 C :    0.026940
   9 C :   -0.030215
  10 C :   -0.142307
  11 C :   -0.009145
  12 S :    0.433407
  13 C :   -0.269891
  14 C :   -0.069794
  15 Br:    0.138872
  16 C :    0.089389
  17 O :   -0.133803
  18 C :   -0.069864
  19 C :    0.046929
  20 C :    0.045832
  21 O :    0.018428
  22 C :   -0.050444
  23 C :    0.090866
  24 O :   -0.148979
  25 N :   -0.000844
  26 C :    0.086153
  27 O :   -0.155428
  28 C :   -0.100489
  29 C :    0.087485
  30 C :   -0.048545
  31 C :    0.020408
  32 C :   -0.062776
  33 C :   -0.018859
  34 C :   -0.050969
  35 C :    0.035844
  36 N :   -0.005341
  37 C :    0.043707
  38 C :   -0.118325
  39 C :   -0.038751
  40 C :   -0.173921
  41 C :   -0.029934
  42 C :   -0.049908
  43 C :   -0.170641
  44 S :    0.354076
  45 C :   -0.196336
  46 C :   -0.040801
  47 C :   -0.046311
  48 C :   -0.157471
  49 S :    0.357342
  50 C :   -0.085033
  51 C :   -0.186403
  52 S :    0.468633
  53 C :   -0.212204
  54 C :   -0.057034
  55 C :   -0.044792
  56 C :   -0.055604
  57 C :   -0.155134
  58 S :    0.215581
  59 C :   -0.047701
  60 C :   -0.005948
  61 H :    0.042379
  62 H :    0.041022
  63 H :    0.039633
  64 H :    0.051148
  65 H :    0.096208
  66 H :    0.047661
  67 H :    0.031019
  68 H :    0.030312
  69 H :    0.042775
  70 H :    0.031270
  71 H :    0.044116
  72 H :    0.036124
  73 H :    0.038717
  74 H :    0.081350
  75 H :    0.028108
  76 H :    0.019053
  77 H :    0.029406
  78 H :    0.029857
  79 H :    0.028496
  80 H :    0.028351
  81 H :    0.028797
  82 H :    0.033896
  83 H :    0.019540
  84 H :    0.019685
  85 H :   -0.028374
  86 H :    0.026280
  87 H :    0.029044

  Mayer bond orders larger than 0.100000
B(  0-C ,  1-C ) :   1.6282 B(  0-C ,  6-C ) :   1.0122 B(  0-C , 18-C ) :   1.0817
B(  1-C ,  2-C ) :   1.1451 B(  1-C ,  4-C ) :   1.1478 B(  2-C ,  3-N ) :   2.9666
B(  4-C ,  5-N ) :   2.9699 B(  6-C ,  7-C ) :   1.2716 B(  6-C , 11-C ) :   1.3995
B(  7-C ,  8-C ) :   1.4286 B(  7-C , 16-C ) :   0.9389 B(  8-C ,  9-C ) :   1.2452
B(  8-C , 61-H ) :   1.0163 B(  9-C , 10-C ) :   1.3033 B(  9-C , 14-C ) :   1.1618
B( 10-C , 11-C ) :   1.3359 B( 10-C , 12-S ) :   1.0867 B( 11-C , 62-H ) :   0.9805
B( 12-S , 13-C ) :   1.0857 B( 13-C , 14-C ) :   1.6179 B( 13-C , 15-Br) :   1.0205
B( 14-C , 63-H ) :   1.0013 B( 16-C , 17-O ) :   2.2210 B( 16-C , 18-C ) :   0.9270
B( 18-C , 19-C ) :   1.6054 B( 19-C , 20-C ) :   1.1621 B( 19-C , 64-H ) :   0.9331
B( 20-C , 21-O ) :   1.1194 B( 20-C , 22-C ) :   1.4359 B( 21-O , 29-C ) :   1.1714
B( 22-C , 23-C ) :   0.8647 B( 22-C , 28-C ) :   1.3142 B( 23-C , 24-O ) :   2.2379
B( 23-C , 25-N ) :   1.0868 B( 25-N , 26-C ) :   1.0758 B( 25-N , 65-H ) :   0.9151
B( 26-C , 27-O ) :   2.2709 B( 26-C , 28-C ) :   0.8774 B( 28-C , 29-C ) :   1.3655
B( 29-C , 30-C ) :   1.1524 B( 30-C , 31-C ) :   1.6435 B( 30-C , 66-H ) :   0.9705
B( 31-C , 32-C ) :   1.0973 B( 31-C , 67-H ) :   0.9812 B( 32-C , 33-C ) :   1.7681
B( 32-C , 68-H ) :   0.9691 B( 33-C , 34-C ) :   1.0774 B( 33-C , 35-C ) :   0.9925
B( 34-C , 69-H ) :   0.9480 B( 34-C , 70-H ) :   0.9567 B( 34-C , 71-H ) :   0.9449
B( 35-C , 36-N ) :   1.0645 B( 35-C , 72-H ) :   0.9293 B( 35-C , 73-H ) :   0.9326
B( 36-N , 37-C ) :   1.1929 B( 36-N , 74-H ) :   0.9391 B( 37-C , 38-C ) :   1.6155
B( 37-C , 75-H ) :   0.9700 B( 38-C , 39-C ) :   1.1660 B( 38-C , 76-H ) :   0.9625
B( 39-C , 40-C ) :   1.5861 B( 39-C , 77-H ) :   0.9786 B( 40-C , 41-C ) :   1.1478
B( 40-C , 44-S ) :   1.0099 B( 41-C , 42-C ) :   1.5841 B( 41-C , 78-H ) :   0.9974
B( 42-C , 43-C ) :   1.1956 B( 42-C , 79-H ) :   0.9931 B( 43-C , 44-S ) :   1.0528
B( 43-C , 45-C ) :   1.4973 B( 45-C , 46-C ) :   1.2003 B( 45-C , 49-S ) :   1.0287
B( 46-C , 47-C ) :   1.5727 B( 46-C , 80-H ) :   0.9925 B( 47-C , 48-C ) :   1.1582
B( 47-C , 81-H ) :   0.9994 B( 48-C , 49-S ) :   1.0369 B( 48-C , 50-C ) :   1.5484
B( 50-C , 51-C ) :   1.2284 B( 50-C , 82-H ) :   0.9586 B( 51-C , 52-S ) :   1.1357
B( 51-C , 55-C ) :   1.2932 B( 52-S , 53-C ) :   1.1840 B( 53-C , 54-C ) :   1.4090
B( 53-C , 83-H ) :   0.9688 B( 54-C , 55-C ) :   1.2127 B( 54-C , 60-C ) :   1.1686
B( 55-C , 56-C ) :   1.2517 B( 56-C , 57-C ) :   1.5213 B( 56-C , 84-H ) :   0.9765
B( 57-C , 58-S ) :   1.0317 B( 57-C , 59-C ) :   1.2080 B( 58-S , 85-H ) :   0.9575
B( 59-C , 60-C ) :   1.5874 B( 59-C , 86-H ) :   0.9821 B( 60-C , 87-H ) :   0.9989

-----------------------------------------------------------------------------
         ABSORPTION SPECTRUM VIA TRANSITION ELECTRIC DIPOLE MOMENTS
-----------------------------------------------------------------------------
State   Energy  Wavelength   fosc         T2         TX        TY        TZ
        (cm-1)    (nm)                  (au**2)     (au)      (au)      (au)
-----------------------------------------------------------------------------
   0    8551.0   1169.5   0.003234953   0.12455  -0.07745   0.34246  -0.03564
   1   14048.0    711.8   1.446160363  33.89039   1.47042  -5.29074  -1.93295
   2   16426.6    608.8   0.005689482   0.11402  -0.08151   0.27503   0.17815
   3   18366.6    544.5   0.000570195   0.01022   0.01164  -0.09884  -0.01779
   4   19522.6    512.2   0.621708638  10.48394   0.19603  -3.04835   1.07382
   5   21087.6    474.2   0.006238388   0.09739   0.03767  -0.30539   0.05207
   6   21845.9    457.8   0.014155139   0.21331   0.29891  -0.32411  -0.13755
   7   25163.2    397.4   0.150250454   1.96574   0.95813   0.95725  -0.36250
   8   25534.2    391.6   0.460843438   5.94164  -2.32208   0.13410  -0.72912
   9   25920.1    385.8   0.042682701   0.54212  -0.28429  -0.63858   0.23133
  10   27839.4    359.2   0.104428810   1.23491  -0.80826  -0.75056   0.13523
  11   27976.3    357.4   0.065366472   0.76920  -0.83223  -0.27526   0.02876
  12   28104.7    355.8   0.000684752   0.00802  -0.08434   0.00152  -0.03010
  13   28665.1    348.9   0.004746710   0.05451  -0.22088  -0.06900  -0.03107
  14   28882.0    346.2   0.080296318   0.91526  -0.75452  -0.18849  -0.55716
  15   29867.9    334.8   0.006215892   0.06851  -0.18905  -0.17201   0.05644
  16   30012.9    333.2   0.000651412   0.00715  -0.00851  -0.08239   0.01689
  17   30834.7    324.3   0.011231431   0.11991  -0.22877  -0.19331   0.17381
  18   31010.0    322.5   0.476810947   5.06197   1.23091   1.33369  -1.32970
  19   31149.4    321.0   0.374531979   3.95836  -1.11919  -1.16292   1.16335
  20   31903.4    313.4   0.005807637   0.05993  -0.20908   0.06376   0.11022
  21   32138.3    311.2   0.490279700   5.02223   1.85396   1.25632   0.08216
  22   32313.5    309.5   0.180663894   1.84062  -1.31461   0.32515   0.08191
  23   33040.2    302.7   0.119408942   1.18979   0.76861  -0.52613  -0.56763
  24   33165.8    301.5   0.063222734   0.62756   0.26309   0.62372   0.41148
  25   33333.7    300.0   0.013634719   0.13466   0.36188   0.05951   0.01278
  26   33379.1    299.6   0.170510494   1.68171   1.25804  -0.08041  -0.30427
  27   34799.0    287.4   0.031826661   0.30109  -0.43559  -0.32201  -0.08752
  28   35530.1    281.5   0.026420785   0.24481  -0.39055  -0.26555  -0.14752
  29   35652.8    280.5   0.000387798   0.00358   0.05170   0.01984   0.02268
  30   35808.8    279.3   0.001049621   0.00965   0.05010   0.08156   0.02210
  31   36575.3    273.4   0.294489130   2.65068   1.04645  -1.24333   0.09872
  32   37076.7    269.7   0.004128975   0.03666  -0.13589   0.13088  -0.03268
  33   37574.3    266.1   0.013499602   0.11828   0.31009   0.13417  -0.06420
  34   37788.0    264.6   0.000419466   0.00365  -0.02305  -0.04023  -0.03879
  35   38100.6    262.5   0.000991114   0.00856   0.03757   0.07798  -0.03275
  36   38149.5    262.1   0.112777556   0.97322   0.19770  -0.87352  -0.41364
  37   38592.8    259.1   0.058431057   0.49844  -0.67626   0.14538  -0.14133
  38   39078.4    255.9   0.052194366   0.43971  -0.46800   0.30974  -0.35319
  39   39133.0    255.5   0.015880076   0.13359   0.20478  -0.23495   0.19093
  40   39281.1    254.6   0.001092143   0.00915   0.00840   0.09082   0.02889
  41   39368.8    254.0   0.002903270   0.02428   0.07520  -0.01631  -0.13549
  42   39517.3    253.1   0.000084869   0.00071   0.01373   0.00695   0.02168
  43   39591.3    252.6   0.020993509   0.17457  -0.03846   0.41600  -0.00540
  44   39945.5    250.3   0.003445761   0.02840  -0.13153   0.10385  -0.01773
  45   40207.4    248.7   0.010751792   0.08803  -0.29395  -0.04032   0.00118

FINAL SINGLE POINT ENERGY     -6888.450678306083

DIPOLE MOMENT
-------------
                                X             Y             Z
Electronic contribution:    -38.60378    -207.91377      65.86143
Nuclear contribution   :     38.72901     206.50036     -67.46365
                        -----------------------------------------
Total Dipole Moment    :      0.12522      -1.41341      -1.60221
                        -----------------------------------------
Magnitude (a.u.)       :      2.14021
Magnitude (Debye)      :      5.43998

Rotational constants in cm-1:     0.001740     0.000200     0.000190
Rotational constants in MHz :    52.151306     5.992105     5.706857

                             ****ORCA TERMINATED NORMALLY****
TOTAL RUN TIME: 0 days 0 hours 7 minutes 57 seconds 831 msec
