                         Program Version 4.2.0 -  RELEASE  -
|  1> # ORCA input file
|  2> # SCF done       -167.137386550111          0.000787499773
|  3> ! CAM-B3LYP def2-SVP def2/J RIJCOSX Grid4 TightSCF
|  4> %maxcore 5000
|  5> %tddft
|  6>     Mode sTDDFT
|  7>     Ethresh 5.0
|  8>     maxcore 5000
|  9> end
| 10>
| 11> %pal
| 12>   nprocs 6
| 13>   end
| 14> * xyz 0 1
| 15>    C       -1.98196        -9.51567         4.38985
| 16>    C       -0.83681        -8.91123         4.73030
| 17>    C       -0.23373        -8.81135         6.03000
| 18>    C        0.92596        -8.12058         6.05303
| 19>    C        1.33390        -7.62514         4.77889
| 20>    S        0.17978        -8.07243         3.54796
| 21>    C        2.46131        -6.89122         4.49086
| 22>    C        3.46667        -6.43911         5.38025
| 23>    C        4.45299        -5.72517         4.77606
| 24>    C        4.28604        -5.57712         3.37393
| 25>    S        2.82313        -6.37617         2.85194
| 26>    C        5.12450        -4.91411         2.51113
| 27>    C        4.89624        -4.82902         1.13158
| 28>    O        3.80178        -5.41965         0.57630
| 29>    C        5.62037        -4.22272         0.10895
| 30>    C        6.81067        -3.43249        -0.18639
| 31>    O        7.68111        -2.99970         0.52487
| 32>    N        6.74904        -3.25484        -1.57321
| 33>    C        5.65652        -3.84111        -2.19873
| 34>    O        5.42163        -3.80204        -3.37863
| 35>    C        4.92378        -4.47356        -1.09345
| 36>    C        3.80154        -5.21794        -0.77375
| 37>    C        2.74902        -5.76197        -1.54506
| 38>    C        2.67789        -5.66214        -2.89726
| 39>    C        1.61433        -6.22025        -3.64880
| 40>    O        0.57232        -6.84793        -3.03290
| 41>    C        1.39652        -6.26248        -5.01715
| 42>    C        1.94249        -5.89075        -6.32730
| 43>    O        2.94780        -5.31775        -6.64415
| 44>    N        0.98650        -6.37824        -7.22808
| 45>    C       -0.10277        -7.02092        -6.65629
| 46>    O       -1.02580        -7.50785        -7.25673
| 47>    C        0.17345        -6.94245        -5.21645
| 48>    C       -0.31029        -7.28903        -3.96937
| 49>    C       -1.50508        -7.97293        -3.63415
| 50>    C       -1.91342        -8.27920        -2.37931
| 51>    C       -3.13907        -8.95355        -2.13200
| 52>    O       -3.94474        -9.30785        -3.16811
| 53>    C       -3.75056        -9.35206        -0.95784
| 54>    C       -3.61541        -9.38744         0.49960
| 55>    O       -2.73770        -8.99767         1.22779
| 56>    N       -4.78082       -10.01556         0.92261
| 57>    C       -5.66123       -10.40175        -0.09368
| 58>    O       -6.70984       -10.95639         0.08484
| 59>    C       -4.97754        -9.96638        -1.31677
| 60>    C       -5.06335        -9.92207        -2.69487
| 61>    C       -6.05945       -10.38686        -3.59650
| 62>    C       -5.92362       -10.26711        -4.93776
| 63>    C       -6.89511       -10.71659        -5.87178
| 64>    O       -6.65103       -10.56500        -7.20151
| 65>    C       -8.13001       -11.31749        -5.72706
| 66>    C       -9.11114       -11.81218        -4.75600
| 67>    O       -9.09064       -11.83196        -3.55356
| 68>    N      -10.14819       -12.29143        -5.55252
| 69>    C       -9.95702       -12.16612        -6.92813
| 70>    O      -10.73706       -12.52015        -7.77134
| 71>    C       -8.63839       -11.53013        -7.03381
| 72>    C       -7.69446       -11.05205        -7.91654
| 73>    C       -7.69345       -11.01858        -9.35227
| 74>    C       -6.69144       -10.52826       -10.07972
| 75>    H       -2.58159       -10.01751         5.12954
| 76>    H       -2.32787        -9.50286         3.37157
| 77>    H       -0.70100        -9.26104         6.88818
| 78>    H        1.51290        -7.94496         6.93708
| 79>    H        3.43255        -6.64954         6.43419
| 80>    H        5.29981        -5.29793         5.28287
| 81>    H        6.01233        -4.43153         2.88788
| 82>    H        7.45028        -2.73658        -2.08264
| 83>    H        1.98145        -6.28653        -0.99299
| 84>    H        3.44290        -5.14921        -3.46322
| 85>    H        1.08946        -6.26943        -8.22703
| 86>    H       -2.11337        -8.25040        -4.48338
| 87>    H       -1.32582        -8.01849        -1.51229
| 88>    H       -4.98569       -10.18450         1.89723
| 89>    H       -6.93307       -10.84433        -3.15376
| 90>    H       -5.03926        -9.81075        -5.36017
| 91>    H      -10.98327       -12.70217        -5.15938
| 92>    H       -8.58327       -11.43167        -9.80530
| 93>    H       -5.80853       -10.12126        -9.61560
| 94>    H       -6.72806       -10.52379       -11.15441
| 95> *
| 96>
| 97>                          ****END OF INPUT****

CARTESIAN COORDINATES (ANGSTROEM)
---------------------------------
  C     -1.981960   -9.515670    4.389850
  C     -0.836810   -8.911230    4.730300
  C     -0.233730   -8.811350    6.030000
  C      0.925960   -8.120580    6.053030
  C      1.333900   -7.625140    4.778890
  S      0.179780   -8.072430    3.547960
  C      2.461310   -6.891220    4.490860
  C      3.466670   -6.439110    5.380250
  C      4.452990   -5.725170    4.776060
  C      4.286040   -5.577120    3.373930
  S      2.823130   -6.376170    2.851940
  C      5.124500   -4.914110    2.511130
  C      4.896240   -4.829020    1.131580
  O      3.801780   -5.419650    0.576300
  C      5.620370   -4.222720    0.108950
  C      6.810670   -3.432490   -0.186390
  O      7.681110   -2.999700    0.524870
  N      6.749040   -3.254840   -1.573210
  C      5.656520   -3.841110   -2.198730
  O      5.421630   -3.802040   -3.378630
  C      4.923780   -4.473560   -1.093450
  C      3.801540   -5.217940   -0.773750
  C      2.749020   -5.761970   -1.545060
  C      2.677890   -5.662140   -2.897260
  C      1.614330   -6.220250   -3.648800
  O      0.572320   -6.847930   -3.032900
  C      1.396520   -6.262480   -5.017150
  C      1.942490   -5.890750   -6.327300
  O      2.947800   -5.317750   -6.644150
  N      0.986500   -6.378240   -7.228080
  C     -0.102770   -7.020920   -6.656290
  O     -1.025800   -7.507850   -7.256730
  C      0.173450   -6.942450   -5.216450
  C     -0.310290   -7.289030   -3.969370
  C     -1.505080   -7.972930   -3.634150
  C     -1.913420   -8.279200   -2.379310
  C     -3.139070   -8.953550   -2.132000
  O     -3.944740   -9.307850   -3.168110
  C     -3.750560   -9.352060   -0.957840
  C     -3.615410   -9.387440    0.499600
  O     -2.737700   -8.997670    1.227790
  N     -4.780820  -10.015560    0.922610
  C     -5.661230  -10.401750   -0.093680
  O     -6.709840  -10.956390    0.084840
  C     -4.977540   -9.966380   -1.316770
  C     -5.063350   -9.922070   -2.694870
  C     -6.059450  -10.386860   -3.596500
  C     -5.923620  -10.267110   -4.937760
  C     -6.895110  -10.716590   -5.871780
  O     -6.651030  -10.565000   -7.201510
  C     -8.130010  -11.317490   -5.727060
  C     -9.111140  -11.812180   -4.756000
  O     -9.090640  -11.831960   -3.553560
  N    -10.148190  -12.291430   -5.552520
  C     -9.957020  -12.166120   -6.928130
  O    -10.737060  -12.520150   -7.771340
  C     -8.638390  -11.530130   -7.033810
  C     -7.694460  -11.052050   -7.916540
  C     -7.693450  -11.018580   -9.352270
  C     -6.691440  -10.528260  -10.079720
  H     -2.581590  -10.017510    5.129540
  H     -2.327870   -9.502860    3.371570
  H     -0.701000   -9.261040    6.888180
  H      1.512900   -7.944960    6.937080
  H      3.432550   -6.649540    6.434190
  H      5.299810   -5.297930    5.282870
  H      6.012330   -4.431530    2.887880
  H      7.450280   -2.736580   -2.082640
  H      1.981450   -6.286530   -0.992990
  H      3.442900   -5.149210   -3.463220
  H      1.089460   -6.269430   -8.227030
  H     -2.113370   -8.250400   -4.483380
  H     -1.325820   -8.018490   -1.512290
  H     -4.985690  -10.184500    1.897230
  H     -6.933070  -10.844330   -3.153760
  H     -5.039260   -9.810750   -5.360170
  H    -10.983270  -12.702170   -5.159380
  H     -8.583270  -11.431670   -9.805300
  H     -5.808530  -10.121260   -9.615600
  H     -6.728060  -10.523790  -11.154410

 Total Charge           Charge          ....    0
 Multiplicity           Mult            ....    1
 Number of Electrons    NEL             ....  428
 Basis Dimension        Dim             ....  948

ORBITAL ENERGIES
----------------

  NO   OCC          E(Eh)            E(eV)
   0   2.0000     -88.947623     -2420.3879
   1   2.0000     -88.944219     -2420.2952
   2   2.0000     -19.317603      -525.6587
   3   2.0000     -19.314620      -525.5775
   4   2.0000     -19.313457      -525.5459
   5   2.0000     -19.305764      -525.3365
   6   2.0000     -19.220822      -523.0251
   7   2.0000     -19.214700      -522.8586
   8   2.0000     -19.214646      -522.8571
   9   2.0000     -19.211155      -522.7621
  10   2.0000     -19.210874      -522.7544
  11   2.0000     -19.207997      -522.6762
  12   2.0000     -19.206994      -522.6489
  13   2.0000     -19.200854      -522.4818
  14   2.0000     -14.460291      -393.4845
  15   2.0000     -14.455825      -393.3630
  16   2.0000     -14.452830      -393.2815
  17   2.0000     -14.446672      -393.1139
  18   2.0000     -10.409089      -283.2457
  19   2.0000     -10.404152      -283.1114
  20   2.0000     -10.402583      -283.0687
  21   2.0000     -10.400917      -283.0233
  22   2.0000     -10.400268      -283.0057
  23   2.0000     -10.397746      -282.9371
  24   2.0000     -10.394452      -282.8474
  25   2.0000     -10.390441      -282.7383
  26   2.0000     -10.370800      -282.2038
  27   2.0000     -10.368738      -282.1477
  28   2.0000     -10.364998      -282.0459
  29   2.0000     -10.364984      -282.0456
  30   2.0000     -10.363754      -282.0121
  31   2.0000     -10.362993      -281.9914
  32   2.0000     -10.357289      -281.8362
  33   2.0000     -10.354206      -281.7523
  34   2.0000     -10.321184      -280.8537
  35   2.0000     -10.319530      -280.8087
  36   2.0000     -10.309898      -280.5466
  37   2.0000     -10.308060      -280.4966
  38   2.0000     -10.307560      -280.4830
  39   2.0000     -10.306207      -280.4462
  40   2.0000     -10.306112      -280.4436
  41   2.0000     -10.303562      -280.3742
  42   2.0000     -10.300402      -280.2882
  43   2.0000     -10.298571      -280.2384
  44   2.0000     -10.298217      -280.2287
  45   2.0000     -10.295500      -280.1548
  46   2.0000     -10.295394      -280.1519
  47   2.0000     -10.294425      -280.1255
  48   2.0000     -10.294318      -280.1226
  49   2.0000     -10.294213      -280.1198
  50   2.0000     -10.293562      -280.1021
  51   2.0000     -10.293248      -280.0935
  52   2.0000     -10.291543      -280.0471
  53   2.0000     -10.291425      -280.0439
  54   2.0000     -10.287444      -279.9356
  55   2.0000     -10.286464      -279.9089
  56   2.0000     -10.285213      -279.8749
  57   2.0000     -10.282612      -279.8041
  58   2.0000     -10.279940      -279.7314
  59   2.0000     -10.274280      -279.5774
  60   2.0000      -8.043487      -218.8744
  61   2.0000      -8.040970      -218.8059
  62   2.0000      -6.013320      -163.6308
  63   2.0000      -6.010736      -163.5604
  64   2.0000      -6.009048      -163.5145
  65   2.0000      -6.006757      -163.4522
  66   2.0000      -6.004365      -163.3871
  67   2.0000      -6.001598      -163.3118
  68   2.0000      -1.234748       -33.5992
  69   2.0000      -1.231355       -33.5069
  70   2.0000      -1.228460       -33.4281
  71   2.0000      -1.221477       -33.2381
  72   2.0000      -1.162697       -31.6386
  73   2.0000      -1.157643       -31.5011
  74   2.0000      -1.154417       -31.4133
  75   2.0000      -1.148438       -31.2506
  76   2.0000      -1.142042       -31.0765
  77   2.0000      -1.137322       -30.9481
  78   2.0000      -1.133997       -30.8576
  79   2.0000      -1.127238       -30.6737
  80   2.0000      -1.048666       -28.5357
  81   2.0000      -1.044299       -28.4168
  82   2.0000      -1.041440       -28.3390
  83   2.0000      -1.035199       -28.1692
  84   2.0000      -0.998513       -27.1709
  85   2.0000      -0.976173       -26.5630
  86   2.0000      -0.950467       -25.8635
  87   2.0000      -0.939118       -25.5547
  88   2.0000      -0.930076       -25.3086
  89   2.0000      -0.927812       -25.2470
  90   2.0000      -0.924829       -25.1659
  91   2.0000      -0.922929       -25.1142
  92   2.0000      -0.916053       -24.9271
  93   2.0000      -0.910306       -24.7707
  94   2.0000      -0.896861       -24.4048
  95   2.0000      -0.880641       -23.9635
  96   2.0000      -0.867567       -23.6077
  97   2.0000      -0.851081       -23.1591
  98   2.0000      -0.848711       -23.0946
  99   2.0000      -0.830537       -22.6001
 100   2.0000      -0.822896       -22.3921
 101   2.0000      -0.809836       -22.0368
 102   2.0000      -0.791751       -21.5446
 103   2.0000      -0.780424       -21.2364
 104   2.0000      -0.775091       -21.0913
 105   2.0000      -0.770901       -20.9773
 106   2.0000      -0.768232       -20.9046
 107   2.0000      -0.767210       -20.8768
 108   2.0000      -0.763136       -20.7660
 109   2.0000      -0.758025       -20.6269
 110   2.0000      -0.757218       -20.6050
 111   2.0000      -0.743257       -20.2251
 112   2.0000      -0.731146       -19.8955
 113   2.0000      -0.718437       -19.5497
 114   2.0000      -0.708796       -19.2873
 115   2.0000      -0.703292       -19.1375
 116   2.0000      -0.699343       -19.0301
 117   2.0000      -0.693904       -18.8821
 118   2.0000      -0.691784       -18.8244
 119   2.0000      -0.682683       -18.5768
 120   2.0000      -0.674680       -18.3590
 121   2.0000      -0.650310       -17.6958
 122   2.0000      -0.630220       -17.1492
 123   2.0000      -0.622451       -16.9377
 124   2.0000      -0.621001       -16.8983
 125   2.0000      -0.616736       -16.7822
 126   2.0000      -0.614161       -16.7122
 127   2.0000      -0.606060       -16.4917
 128   2.0000      -0.602093       -16.3838
 129   2.0000      -0.599849       -16.3227
 130   2.0000      -0.599400       -16.3105
 131   2.0000      -0.596190       -16.2232
 132   2.0000      -0.592658       -16.1270
 133   2.0000      -0.592274       -16.1166
 134   2.0000      -0.589747       -16.0478
 135   2.0000      -0.587503       -15.9868
 136   2.0000      -0.587044       -15.9743
 137   2.0000      -0.585586       -15.9346
 138   2.0000      -0.580769       -15.8035
 139   2.0000      -0.578706       -15.7474
 140   2.0000      -0.575533       -15.6610
 141   2.0000      -0.570068       -15.5123
 142   2.0000      -0.568633       -15.4733
 143   2.0000      -0.560594       -15.2545
 144   2.0000      -0.557157       -15.1610
 145   2.0000      -0.553117       -15.0511
 146   2.0000      -0.550323       -14.9751
 147   2.0000      -0.550136       -14.9700
 148   2.0000      -0.545481       -14.8433
 149   2.0000      -0.543675       -14.7942
 150   2.0000      -0.543192       -14.7810
 151   2.0000      -0.539294       -14.6749
 152   2.0000      -0.537433       -14.6243
 153   2.0000      -0.530438       -14.4340
 154   2.0000      -0.526944       -14.3389
 155   2.0000      -0.523956       -14.2576
 156   2.0000      -0.519131       -14.1263
 157   2.0000      -0.517474       -14.0812
 158   2.0000      -0.514122       -13.9900
 159   2.0000      -0.511327       -13.9139
 160   2.0000      -0.510468       -13.8905
 161   2.0000      -0.509335       -13.8597
 162   2.0000      -0.502630       -13.6772
 163   2.0000      -0.502271       -13.6675
 164   2.0000      -0.500564       -13.6210
 165   2.0000      -0.499571       -13.5940
 166   2.0000      -0.495233       -13.4760
 167   2.0000      -0.491137       -13.3645
 168   2.0000      -0.489669       -13.3246
 169   2.0000      -0.486399       -13.2356
 170   2.0000      -0.484732       -13.1902
 171   2.0000      -0.482949       -13.1417
 172   2.0000      -0.481679       -13.1071
 173   2.0000      -0.477675       -12.9982
 174   2.0000      -0.475866       -12.9490
 175   2.0000      -0.473320       -12.8797
 176   2.0000      -0.466060       -12.6821
 177   2.0000      -0.464989       -12.6530
 178   2.0000      -0.463447       -12.6110
 179   2.0000      -0.461658       -12.5624
 180   2.0000      -0.457445       -12.4477
 181   2.0000      -0.454559       -12.3692
 182   2.0000      -0.442986       -12.0543
 183   2.0000      -0.434990       -11.8367
 184   2.0000      -0.428499       -11.6600
 185   2.0000      -0.421992       -11.4830
 186   2.0000      -0.413863       -11.2618
 187   2.0000      -0.398280       -10.8377
 188   2.0000      -0.397102       -10.8057
 189   2.0000      -0.393312       -10.7026
 190   2.0000      -0.384141       -10.4530
 191   2.0000      -0.379197       -10.3185
 192   2.0000      -0.376424       -10.2430
 193   2.0000      -0.374344       -10.1864
 194   2.0000      -0.371222       -10.1015
 195   2.0000      -0.370786       -10.0896
 196   2.0000      -0.368761       -10.0345
 197   2.0000      -0.367107        -9.9895
 198   2.0000      -0.362970        -9.8769
 199   2.0000      -0.362423        -9.8620
 200   2.0000      -0.360352        -9.8057
 201   2.0000      -0.355687        -9.6787
 202   2.0000      -0.351604        -9.5676
 203   2.0000      -0.351258        -9.5582
 204   2.0000      -0.347631        -9.4595
 205   2.0000      -0.343695        -9.3524
 206   2.0000      -0.342361        -9.3161
 207   2.0000      -0.338677        -9.2159
 208   2.0000      -0.333848        -9.0845
 209   2.0000      -0.323054        -8.7908
 210   2.0000      -0.302940        -8.2434
 211   2.0000      -0.278232        -7.5711
 212   2.0000      -0.256397        -6.9769
 213   2.0000      -0.221307        -6.0221
 214   0.0000      -0.089433        -2.4336
 215   0.0000      -0.077996        -2.1224
 216   0.0000      -0.066506        -1.8097
 217   0.0000      -0.055655        -1.5144
 218   0.0000      -0.038490        -1.0474

MULLIKEN ATOMIC CHARGES
-----------------------
   0 C :   -0.011978
   1 C :   -0.083938
   2 C :    0.065719
   3 C :    0.025365
   4 C :   -0.056909
   5 S :    0.108731
   6 C :   -0.060932
   7 C :    0.042499
   8 C :    0.021010
   9 C :    0.003923
  10 S :    0.104412
  11 C :   -0.067013
  12 C :    0.103133
  13 O :   -0.231991
  14 C :   -0.030682
  15 C :    0.153868
  16 O :   -0.148183
  17 N :   -0.164669
  18 C :    0.180899
  19 O :   -0.145632
  20 C :   -0.067619
  21 C :    0.130230
  22 C :    0.009158
  23 C :   -0.037345
  24 C :    0.093004
  25 O :   -0.217703
  26 C :   -0.027923
  27 C :    0.165737
  28 O :   -0.123728
  29 N :   -0.168988
  30 C :    0.165515
  31 O :   -0.148448
  32 C :   -0.032994
  33 C :    0.102668
  34 C :   -0.014489
  35 C :   -0.016859
  36 C :    0.095875
  37 O :   -0.218890
  38 C :   -0.019959
  39 C :    0.182178
  40 O :   -0.155261
  41 N :   -0.170282
  42 C :    0.167314
  43 O :   -0.122201
  44 C :   -0.026416
  45 C :    0.082231
  46 C :   -0.021427
  47 C :    0.008366
  48 C :    0.122184
  49 O :   -0.197404
  50 C :   -0.070435
  51 C :    0.186747
  52 O :   -0.144584
  53 N :   -0.165697
  54 C :    0.167188
  55 O :   -0.139735
  56 C :   -0.034801
  57 C :    0.061860
  58 C :   -0.023813
  59 C :    0.020180
  60 H :    0.016528
  61 H :    0.027357
  62 H :   -0.007243
  63 H :   -0.008895
  64 H :   -0.010460
  65 H :   -0.007577
  66 H :    0.004708
  67 H :    0.136572
  68 H :    0.008147
  69 H :    0.033605
  70 H :    0.138364
  71 H :    0.026964
  72 H :    0.024656
  73 H :    0.138889
  74 H :    0.034901
  75 H :    0.011171
  76 H :    0.139620
  77 H :    0.017998
  78 H :    0.037835
  79 H :    0.035792
Sum of atomic charges:   -0.0000000

LOEWDIN ATOMIC CHARGES
----------------------
   0 C :   -0.053070
   1 C :   -0.145113
   2 C :   -0.016029
   3 C :   -0.031612
   4 C :   -0.157298
   5 S :    0.376854
   6 C :   -0.199491
   7 C :   -0.015487
   8 C :   -0.044893
   9 C :   -0.118089
  10 S :    0.393319
  11 C :   -0.099818
  12 C :    0.075956
  13 O :    0.003135
  14 C :   -0.111350
  15 C :    0.083769
  16 O :   -0.165791
  17 N :   -0.006579
  18 C :    0.085237
  19 O :   -0.155006
  20 C :   -0.083469
  21 C :    0.050850
  22 C :   -0.011940
  23 C :   -0.024606
  24 C :    0.077683
  25 O :    0.011646
  26 C :   -0.097192
  27 C :    0.085782
  28 O :   -0.143803
  29 N :   -0.007039
  30 C :    0.082024
  31 O :   -0.164814
  32 C :   -0.085233
  33 C :    0.057776
  34 C :   -0.011834
  35 C :   -0.026808
  36 C :    0.073676
  37 O :    0.015423
  38 C :   -0.097005
  39 C :    0.091739
  40 O :   -0.162162
  41 N :   -0.006638
  42 C :    0.085600
  43 O :   -0.142678
  44 C :   -0.091314
  45 C :    0.070741
  46 C :   -0.011152
  47 C :   -0.018472
  48 C :    0.061615
  49 O :    0.023488
  50 C :   -0.094385
  51 C :    0.086772
  52 O :   -0.152853
  53 N :   -0.004380
  54 C :    0.085615
  55 O :   -0.156495
  56 C :   -0.098620
  57 C :    0.071115
  58 C :   -0.040571
  59 C :   -0.004742
  60 H :    0.027504
  61 H :    0.021983
  62 H :    0.035470
  63 H :    0.033094
  64 H :    0.032670
  65 H :    0.035093
  66 H :    0.048223
  67 H :    0.093836
  68 H :    0.042784
  69 H :    0.049773
  70 H :    0.094588
  71 H :    0.048965
  72 H :    0.049079
  73 H :    0.094380
  74 H :    0.050381
  75 H :    0.043218
  76 H :    0.095644
  77 H :    0.047379
  78 H :    0.031081
  79 H :    0.032869

  Mayer bond orders larger than 0.100000
B(  0-C ,  1-C ) :   1.8828 B(  0-C , 60-H ) :   0.9495 B(  0-C , 61-H ) :   0.9081
B(  1-C ,  2-C ) :   1.0750 B(  1-C ,  5-S ) :   1.0063 B(  2-C ,  3-C ) :   1.6627
B(  2-C , 62-H ) :   0.9940 B(  3-C ,  4-C ) :   1.1464 B(  3-C , 63-H ) :   0.9928
B(  4-C ,  5-S ) :   1.0677 B(  4-C ,  6-C ) :   1.5434 B(  6-C ,  7-C ) :   1.1819
B(  6-C , 10-S ) :   1.0106 B(  7-C ,  8-C ) :   1.5919 B(  7-C , 64-H ) :   0.9939
B(  8-C ,  9-C ) :   1.1418 B(  8-C , 65-H ) :   1.0019 B(  9-C , 10-S ) :   1.0772
B(  9-C , 11-C ) :   1.5118 B( 11-C , 12-C ) :   1.2373 B( 11-C , 66-H ) :   0.9653
B( 12-C , 13-O ) :   1.1298 B( 12-C , 14-C ) :   1.3368 B( 13-O , 21-C ) :   1.1030
B( 14-C , 15-C ) :   0.8980 B( 14-C , 20-C ) :   1.3026 B( 15-C , 16-O ) :   2.2638
B( 15-C , 17-N ) :   1.0610 B( 17-N , 18-C ) :   1.1051 B( 17-N , 67-H ) :   0.9152
B( 18-C , 19-O ) :   2.1927 B( 18-C , 20-C ) :   0.8748 B( 20-C , 21-C ) :   1.4231
B( 21-C , 22-C ) :   1.1523 B( 22-C , 23-C ) :   1.5752 B( 22-C , 68-H ) :   0.9742
B( 23-C , 24-C ) :   1.2009 B( 23-C , 69-H ) :   0.9428 B( 24-C , 25-O ) :   1.1474
B( 24-C , 26-C ) :   1.3794 B( 25-O , 33-C ) :   1.1497 B( 26-C , 27-C ) :   0.8765
B( 26-C , 32-C ) :   1.2791 B( 27-C , 28-O ) :   2.2856 B( 27-C , 29-N ) :   1.0597
B( 29-N , 30-C ) :   1.0937 B( 29-N , 70-H ) :   0.9141 B( 30-C , 31-O ) :   2.2588
B( 30-C , 32-C ) :   0.8739 B( 32-C , 33-C ) :   1.4079 B( 33-C , 34-C ) :   1.1551
B( 34-C , 35-C ) :   1.5814 B( 34-C , 71-H ) :   0.9663 B( 35-C , 36-C ) :   1.1631
B( 35-C , 72-H ) :   0.9752 B( 36-C , 37-O ) :   1.1511 B( 36-C , 38-C ) :   1.3818
B( 37-O , 45-C ) :   1.1434 B( 38-C , 39-C ) :   0.9018 B( 38-C , 44-C ) :   1.2740
B( 39-C , 40-O ) :   2.1644 B( 39-C , 41-N ) :   1.0925 B( 41-N , 42-C ) :   1.0594
B( 41-N , 73-H ) :   0.9152 B( 42-C , 43-O ) :   2.2887 B( 42-C , 44-C ) :   0.8750
B( 44-C , 45-C ) :   1.3992 B( 45-C , 46-C ) :   1.1875 B( 46-C , 47-C ) :   1.6039
B( 46-C , 74-H ) :   0.9437 B( 47-C , 48-C ) :   1.1312 B( 47-C , 75-H ) :   0.9742
B( 48-C , 49-O ) :   1.1440 B( 48-C , 50-C ) :   1.4388 B( 49-O , 57-C ) :   1.1567
B( 50-C , 51-C ) :   0.8809 B( 50-C , 56-C ) :   1.2742 B( 51-C , 52-O ) :   2.1969
B( 51-C , 53-N ) :   1.0925 B( 53-N , 54-C ) :   1.0756 B( 53-N , 76-H ) :   0.9147
B( 54-C , 55-O ) :   2.2701 B( 54-C , 56-C ) :   0.8749 B( 56-C , 57-C ) :   1.4337
B( 57-C , 58-C ) :   1.1449 B( 58-C , 59-C ) :   1.9000 B( 58-C , 77-H ) :   0.9512
B( 59-C , 78-H ) :   0.9591 B( 59-C , 79-H ) :   0.9450

-----------------------------------------------------------------------------
         ABSORPTION SPECTRUM VIA TRANSITION ELECTRIC DIPOLE MOMENTS
-----------------------------------------------------------------------------
State   Energy  Wavelength   fosc         T2         TX        TY        TZ
        (cm-1)    (nm)                  (au**2)     (au)      (au)      (au)
-----------------------------------------------------------------------------
   0   14281.9    700.2   0.394097838   9.08434  -0.68370   0.10132  -2.93370
   1   18706.0    534.6   0.914512581  16.09475   3.06836   2.07332  -1.54313
   2   21174.5    472.3   0.378512577   5.88496   2.10954   1.07431   0.52978
   3   22091.6    452.7   1.064225933  15.85924  -3.39461  -1.95689  -0.71166
   4   23042.2    434.0   0.090314082   1.29035  -0.53897  -0.35604   0.93440
   5   25433.4    393.2   0.108617570   1.40595  -0.85965  -0.60326   0.55048
   6   26832.2    372.7   0.485265540   5.95386  -0.12039   0.12219  -2.43402
   7   27418.2    364.7   0.027701241   0.33261  -0.47778  -0.30429   0.10837
   8   28858.8    346.5   0.122790688   1.40076  -0.51267  -0.24230  -1.03885
   9   30102.9    332.2   0.074580504   0.81563   0.17319   0.13500  -0.87602
  10   31067.2    321.9   0.520700315   5.51774   1.16259   0.44511   1.99198
  11   31820.9    314.3   0.079600186   0.82353  -0.08249  -0.09883   0.89831
  12   32240.8    310.2   0.132228478   1.35019  -0.38350  -0.22804   1.07290
  13   32554.8    307.2   0.054329463   0.54941  -0.55365  -0.32409  -0.37128
  14   33566.7    297.9   0.027512824   0.26984   0.31956   0.18772  -0.36397
  15   33910.5    294.9   0.070586178   0.68527   0.24606   0.19554  -0.76582
  16   34118.1    293.1   0.239704034   2.31295  -0.51190  -0.29171   1.40208
  17   35160.8    284.4   0.018939367   0.17733  -0.27790  -0.22560   0.22183
  18   35840.6    279.0   0.031116084   0.28582  -0.47440  -0.23269  -0.08135
  19   36459.8    274.3   0.000571083   0.00516  -0.02923   0.06533   0.00586
  20   36857.5    271.3   0.020943649   0.18707  -0.21963  -0.23220   0.29140
  21   37130.2    269.3   0.000659089   0.00584  -0.02334  -0.01942  -0.07016
  22   37157.9    269.1   0.006853324   0.06072   0.03017  -0.04024   0.24123
  23   37748.9    264.9   0.000582866   0.00508  -0.03794   0.05946   0.01039
  24   38154.0    262.1   0.022324377   0.19263   0.31260   0.23950   0.19377
  25   38503.6    259.7   0.066326795   0.56710   0.62973   0.35982  -0.20267
  26   38846.6    257.4   0.045878573   0.38881  -0.26497  -0.05383  -0.56187
  27   39373.2    254.0   0.133689299   1.11782   0.20079   0.22570  -1.01319
  28   39455.1    253.5   0.000514120   0.00429  -0.04532   0.01854   0.04350
  29   40012.5    249.9   0.045886477   0.37754  -0.30084  -0.16321  -0.51030

FINAL SINGLE POINT ENERGY     -3527.064370981373

DIPOLE MOMENT
-------------
                                X             Y             Z
Electronic contribution:      5.64120       5.81066      -6.67674
Nuclear contribution   :     -6.09110      -6.50863       8.29633
                        -----------------------------------------
Total Dipole Moment    :     -0.44990      -0.69798       1.61959
                        -----------------------------------------
Magnitude (a.u.)       :      1.82007
Magnitude (Debye)      :      4.62625

Rotational constants in cm-1:     0.001654     0.000530     0.000402
Rotational constants in MHz :    49.591068    15.899553    12.056433

                             ****ORCA TERMINATED NORMALLY****
TOTAL RUN TIME: 0 days 0 hours 5 minutes 47 seconds 241 msec
