                         Program Version 4.2.0 -  RELEASE  -
|  1> # ORCA input file
|  2> # SCF done       -166.496847938473          0.000917184631
|  3> ! CAM-B3LYP def2-SVP def2/J RIJCOSX Grid4 TightSCF
|  4> %maxcore 5000
|  5> %tddft
|  6>     Mode sTDDFT
|  7>     Ethresh 5.0
|  8>     maxcore 5000
|  9> end
| 10>
| 11> %pal
| 12>   nprocs 6
| 13>   end
| 14> * xyz 0 1
| 15>    C        3.59976        -2.09953         7.04475
| 16>    C        3.11105        -1.16166         6.19283
| 17>    F        3.44352         0.13269         6.24168
| 18>    C        2.20776        -1.68868         5.23893
| 19>    F        1.62875        -0.90300         4.31988
| 20>    C        2.00082        -3.04167         5.35881
| 21>    S        2.95593        -3.64441         6.68611
| 22>    C        1.16628        -3.93933         4.58753
| 23>    C        1.13245        -5.29912         4.92848
| 24>    C        0.34805        -6.16104         4.20510
| 25>    C       -0.42146        -5.69221         3.12518
| 26>    C       -0.39499        -4.34858         2.78166
| 27>    C        0.39531        -3.48195         3.51135
| 28>    C       -1.14006        -6.80954         2.55535
| 29>    C       -0.81359        -7.97014         3.28295
| 30>    C        0.15958        -7.64699         4.39246
| 31>    C       -0.44019        -7.96504         5.77526
| 32>    C       -1.76595        -7.25591         6.02397
| 33>    C        1.48747        -8.40767         4.21898
| 34>    C        2.15281        -8.13910         2.87461
| 35>    C       -1.36273        -9.18247         2.95680
| 36>    C       -2.26926        -9.26993         1.88282
| 37>    C       -2.58183        -8.09917         1.16739
| 38>    C       -2.02839        -6.87920         1.48962
| 39>    C       -2.89570       -10.49840         1.49751
| 40>    C       -2.69239       -11.72502         2.05468
| 41>    C       -3.36722       -12.88280         1.64013
| 42>    C       -3.17914       -14.12723         2.19447
| 43>    C       -3.83967       -15.32723         1.84792
| 44>    C       -3.45150       -16.41113         2.58090
| 45>    C       -2.45931       -16.12471         3.54033
| 46>    S       -2.03336       -14.43608         3.49228
| 47>    C       -1.85951       -17.00984         4.42887
| 48>    C       -2.12517       -18.38363         4.58332
| 49>    C       -1.37009       -18.99464         5.54579
| 50>    C       -0.46492       -18.13762         6.19894
| 51>    S       -0.61581       -16.51225         5.54341
| 52>    C        0.47432       -18.32307         7.19820
| 53>    C        0.85923       -19.42423         7.97226
| 54>    C        1.91366       -19.19872         8.92374
| 55>    C        2.35454       -20.21510         9.84140
| 56>    N        3.36591       -19.95885        10.68653
| 57>    C        3.94145       -18.78244        10.67776
| 58>    C        3.48631       -17.76554         9.78526
| 59>    N        2.49842       -18.00214         8.94394
| 60>    C        4.09028       -16.48668         9.78531
| 61>    N        4.59183       -15.45603         9.80847
| 62>    C        5.01800       -18.52651        11.56376
| 63>    N        5.89482       -18.28055        12.25852
| 64>    C        1.76378       -21.49187         9.90173
| 65>    C        0.81012       -21.76377         8.89776
| 66>    C        0.36094       -20.75783         7.95457
| 67>    N       -0.51854       -21.26742         7.09921
| 68>    S       -0.74665       -22.83203         7.41838
| 69>    N        0.25451       -22.94797         8.66019
| 70>    C        2.16930       -22.42626        10.90639
| 71>    C        1.54288       -23.56974        11.36202
| 72>    F        0.32906       -23.98694        10.98969
| 73>    C        2.27701       -24.24833        12.35779
| 74>    F        1.84468       -25.37903        12.93328
| 75>    C        3.45320       -23.64036        12.66733
| 76>    S        3.66165       -22.18926        11.77518
| 77>    H        4.29230        -1.96371         7.84940
| 78>    H        1.72660        -5.65222         5.75900
| 79>    H       -0.98222        -3.97798         1.95532
| 80>    H        0.41244        -2.43991         3.24033
| 81>    H        0.27822        -7.66936         6.54223
| 82>    H       -0.58626        -9.04425         5.85295
| 83>    H       -1.64175        -6.17672         5.96832
| 84>    H       -2.14384        -7.50781         7.01194
| 85>    H       -2.50759        -7.55419         5.28600
| 86>    H        1.29325        -9.47729         4.32006
| 87>    H        2.16460        -8.11402         5.02339
| 88>    H        1.50240        -8.43881         2.05562
| 89>    H        3.08097        -8.70044         2.79957
| 90>    H        2.38065        -7.08146         2.76214
| 91>    H       -1.10718       -10.06379         3.52369
| 92>    H       -3.27685        -8.16743         0.34259
| 93>    H       -2.28334        -5.99447         0.92592
| 94>    H       -3.60498       -10.42841         0.68118
| 95>    H       -1.98496       -11.84758         2.86339
| 96>    H       -4.09068       -12.80093         0.83918
| 97>    H       -4.58305       -15.35393         1.07091
| 98>    H       -3.85053       -17.40087         2.45239
| 99>    H       -2.86181       -18.89331         3.98867
|100>    H       -1.42809       -20.03521         5.80422
|101>    H        1.03583       -17.43049         7.45268
|102>    H        4.17708       -23.95521        13.39055
|103> *
|104>
|105>                          ****END OF INPUT****

CARTESIAN COORDINATES (ANGSTROEM)
---------------------------------
  C      3.599760   -2.099530    7.044750
  C      3.111050   -1.161660    6.192830
  F      3.443520    0.132690    6.241680
  C      2.207760   -1.688680    5.238930
  F      1.628750   -0.903000    4.319880
  C      2.000820   -3.041670    5.358810
  S      2.955930   -3.644410    6.686110
  C      1.166280   -3.939330    4.587530
  C      1.132450   -5.299120    4.928480
  C      0.348050   -6.161040    4.205100
  C     -0.421460   -5.692210    3.125180
  C     -0.394990   -4.348580    2.781660
  C      0.395310   -3.481950    3.511350
  C     -1.140060   -6.809540    2.555350
  C     -0.813590   -7.970140    3.282950
  C      0.159580   -7.646990    4.392460
  C     -0.440190   -7.965040    5.775260
  C     -1.765950   -7.255910    6.023970
  C      1.487470   -8.407670    4.218980
  C      2.152810   -8.139100    2.874610
  C     -1.362730   -9.182470    2.956800
  C     -2.269260   -9.269930    1.882820
  C     -2.581830   -8.099170    1.167390
  C     -2.028390   -6.879200    1.489620
  C     -2.895700  -10.498400    1.497510
  C     -2.692390  -11.725020    2.054680
  C     -3.367220  -12.882800    1.640130
  C     -3.179140  -14.127230    2.194470
  C     -3.839670  -15.327230    1.847920
  C     -3.451500  -16.411130    2.580900
  C     -2.459310  -16.124710    3.540330
  S     -2.033360  -14.436080    3.492280
  C     -1.859510  -17.009840    4.428870
  C     -2.125170  -18.383630    4.583320
  C     -1.370090  -18.994640    5.545790
  C     -0.464920  -18.137620    6.198940
  S     -0.615810  -16.512250    5.543410
  C      0.474320  -18.323070    7.198200
  C      0.859230  -19.424230    7.972260
  C      1.913660  -19.198720    8.923740
  C      2.354540  -20.215100    9.841400
  N      3.365910  -19.958850   10.686530
  C      3.941450  -18.782440   10.677760
  C      3.486310  -17.765540    9.785260
  N      2.498420  -18.002140    8.943940
  C      4.090280  -16.486680    9.785310
  N      4.591830  -15.456030    9.808470
  C      5.018000  -18.526510   11.563760
  N      5.894820  -18.280550   12.258520
  C      1.763780  -21.491870    9.901730
  C      0.810120  -21.763770    8.897760
  C      0.360940  -20.757830    7.954570
  N     -0.518540  -21.267420    7.099210
  S     -0.746650  -22.832030    7.418380
  N      0.254510  -22.947970    8.660190
  C      2.169300  -22.426260   10.906390
  C      1.542880  -23.569740   11.362020
  F      0.329060  -23.986940   10.989690
  C      2.277010  -24.248330   12.357790
  F      1.844680  -25.379030   12.933280
  C      3.453200  -23.640360   12.667330
  S      3.661650  -22.189260   11.775180
  H      4.292300   -1.963710    7.849400
  H      1.726600   -5.652220    5.759000
  H     -0.982220   -3.977980    1.955320
  H      0.412440   -2.439910    3.240330
  H      0.278220   -7.669360    6.542230
  H     -0.586260   -9.044250    5.852950
  H     -1.641750   -6.176720    5.968320
  H     -2.143840   -7.507810    7.011940
  H     -2.507590   -7.554190    5.286000
  H      1.293250   -9.477290    4.320060
  H      2.164600   -8.114020    5.023390
  H      1.502400   -8.438810    2.055620
  H      3.080970   -8.700440    2.799570
  H      2.380650   -7.081460    2.762140
  H     -1.107180  -10.063790    3.523690
  H     -3.276850   -8.167430    0.342590
  H     -2.283340   -5.994470    0.925920
  H     -3.604980  -10.428410    0.681180
  H     -1.984960  -11.847580    2.863390
  H     -4.090680  -12.800930    0.839180
  H     -4.583050  -15.353930    1.070910
  H     -3.850530  -17.400870    2.452390
  H     -2.861810  -18.893310    3.988670
  H     -1.428090  -20.035210    5.804220
  H      1.035830  -17.430490    7.452680
  H      4.177080  -23.955210   13.390550

 Total Charge           Charge          ....    0
 Multiplicity           Mult            ....    1
 Number of Electrons    NEL             ....  466
 Basis Dimension        Dim             .... 1018

ORBITAL ENERGIES
----------------

  NO   OCC          E(Eh)            E(eV)
   0   2.0000     -89.028902     -2422.5996
   1   2.0000     -88.969004     -2420.9697
   2   2.0000     -88.964755     -2420.8541
   3   2.0000     -88.956820     -2420.6381
   4   2.0000     -88.947313     -2420.3794
   5   2.0000     -24.796427      -674.7451
   6   2.0000     -24.788583      -674.5316
   7   2.0000     -24.771271      -674.0606
   8   2.0000     -24.769294      -674.0068
   9   2.0000     -14.449526      -393.1916
  10   2.0000     -14.446580      -393.1114
  11   2.0000     -14.443917      -393.0390
  12   2.0000     -14.433959      -392.7680
  13   2.0000     -14.420618      -392.4050
  14   2.0000     -14.413880      -392.2216
  15   2.0000     -10.371396      -282.2200
  16   2.0000     -10.365703      -282.0651
  17   2.0000     -10.364757      -282.0394
  18   2.0000     -10.361686      -281.9558
  19   2.0000     -10.349226      -281.6168
  20   2.0000     -10.342748      -281.4405
  21   2.0000     -10.335520      -281.2438
  22   2.0000     -10.334620      -281.2193
  23   2.0000     -10.334604      -281.2189
  24   2.0000     -10.333267      -281.1825
  25   2.0000     -10.330362      -281.1034
  26   2.0000     -10.322666      -280.8940
  27   2.0000     -10.322040      -280.8770
  28   2.0000     -10.319811      -280.8163
  29   2.0000     -10.314152      -280.6623
  30   2.0000     -10.313983      -280.6577
  31   2.0000     -10.311398      -280.5874
  32   2.0000     -10.309140      -280.5260
  33   2.0000     -10.305588      -280.4293
  34   2.0000     -10.305303      -280.4215
  35   2.0000     -10.303259      -280.3659
  36   2.0000     -10.302239      -280.3382
  37   2.0000     -10.300071      -280.2792
  38   2.0000     -10.297890      -280.2198
  39   2.0000     -10.297597      -280.2119
  40   2.0000     -10.297456      -280.2080
  41   2.0000     -10.296802      -280.1902
  42   2.0000     -10.290554      -280.0202
  43   2.0000     -10.290093      -280.0077
  44   2.0000     -10.284587      -279.8578
  45   2.0000     -10.284143      -279.8457
  46   2.0000     -10.283089      -279.8171
  47   2.0000     -10.282771      -279.8084
  48   2.0000     -10.281478      -279.7732
  49   2.0000     -10.281027      -279.7610
  50   2.0000     -10.278812      -279.7007
  51   2.0000     -10.278713      -279.6980
  52   2.0000     -10.278356      -279.6883
  53   2.0000     -10.277744      -279.6716
  54   2.0000     -10.277576      -279.6671
  55   2.0000     -10.277552      -279.6664
  56   2.0000     -10.276515      -279.6382
  57   2.0000     -10.275460      -279.6095
  58   2.0000     -10.268037      -279.4075
  59   2.0000     -10.267851      -279.4024
  60   2.0000     -10.250669      -278.9349
  61   2.0000     -10.250268      -278.9240
  62   2.0000      -8.120386      -220.9669
  63   2.0000      -8.064326      -219.4415
  64   2.0000      -8.060901      -219.3483
  65   2.0000      -8.053234      -219.1396
  66   2.0000      -8.041027      -218.8075
  67   2.0000      -6.091582      -165.7604
  68   2.0000      -6.083819      -165.5491
  69   2.0000      -6.082917      -165.5246
  70   2.0000      -6.033695      -164.1852
  71   2.0000      -6.030494      -164.0981
  72   2.0000      -6.029736      -164.0775
  73   2.0000      -6.026548      -163.9907
  74   2.0000      -6.026114      -163.9789
  75   2.0000      -6.022786      -163.8883
  76   2.0000      -6.022025      -163.8676
  77   2.0000      -6.018735      -163.7781
  78   2.0000      -6.014494      -163.6627
  79   2.0000      -6.010661      -163.5584
  80   2.0000      -6.006236      -163.4380
  81   2.0000      -6.002750      -163.3431
  82   2.0000      -1.312609       -35.7179
  83   2.0000      -1.299405       -35.3586
  84   2.0000      -1.290774       -35.1237
  85   2.0000      -1.278223       -34.7822
  86   2.0000      -1.128743       -30.7147
  87   2.0000      -1.108074       -30.1522
  88   2.0000      -1.035432       -28.1755
  89   2.0000      -1.010610       -27.5001
  90   2.0000      -1.002993       -27.2928
  91   2.0000      -1.002174       -27.2705
  92   2.0000      -0.994072       -27.0501
  93   2.0000      -0.992147       -26.9977
  94   2.0000      -0.987465       -26.8703
  95   2.0000      -0.983886       -26.7729
  96   2.0000      -0.977131       -26.5891
  97   2.0000      -0.958326       -26.0774
  98   2.0000      -0.955406       -25.9979
  99   2.0000      -0.930921       -25.3316
 100   2.0000      -0.917416       -24.9642
 101   2.0000      -0.901077       -24.5195
 102   2.0000      -0.894334       -24.3361
 103   2.0000      -0.890399       -24.2290
 104   2.0000      -0.875309       -23.8184
 105   2.0000      -0.860465       -23.4144
 106   2.0000      -0.855750       -23.2861
 107   2.0000      -0.843529       -22.9536
 108   2.0000      -0.842153       -22.9162
 109   2.0000      -0.841728       -22.9046
 110   2.0000      -0.836830       -22.7713
 111   2.0000      -0.832628       -22.6570
 112   2.0000      -0.831197       -22.6180
 113   2.0000      -0.821713       -22.3599
 114   2.0000      -0.815152       -22.1814
 115   2.0000      -0.809676       -22.0324
 116   2.0000      -0.803148       -21.8548
 117   2.0000      -0.787971       -21.4418
 118   2.0000      -0.770689       -20.9715
 119   2.0000      -0.767538       -20.8858
 120   2.0000      -0.753033       -20.4911
 121   2.0000      -0.737442       -20.0668
 122   2.0000      -0.724565       -19.7164
 123   2.0000      -0.715704       -19.4753
 124   2.0000      -0.705032       -19.1849
 125   2.0000      -0.701309       -19.0836
 126   2.0000      -0.696275       -18.9466
 127   2.0000      -0.691677       -18.8215
 128   2.0000      -0.685296       -18.6479
 129   2.0000      -0.684274       -18.6200
 130   2.0000      -0.678792       -18.4709
 131   2.0000      -0.671757       -18.2794
 132   2.0000      -0.667563       -18.1653
 133   2.0000      -0.660918       -17.9845
 134   2.0000      -0.655455       -17.8358
 135   2.0000      -0.652723       -17.7615
 136   2.0000      -0.646602       -17.5949
 137   2.0000      -0.645158       -17.5556
 138   2.0000      -0.639484       -17.4012
 139   2.0000      -0.635084       -17.2815
 140   2.0000      -0.628839       -17.1116
 141   2.0000      -0.626986       -17.0611
 142   2.0000      -0.617657       -16.8073
 143   2.0000      -0.612835       -16.6761
 144   2.0000      -0.603453       -16.4208
 145   2.0000      -0.602071       -16.3832
 146   2.0000      -0.588732       -16.0202
 147   2.0000      -0.585763       -15.9394
 148   2.0000      -0.583295       -15.8723
 149   2.0000      -0.577614       -15.7177
 150   2.0000      -0.573294       -15.6001
 151   2.0000      -0.567897       -15.4533
 152   2.0000      -0.562893       -15.3171
 153   2.0000      -0.558250       -15.1907
 154   2.0000      -0.556917       -15.1545
 155   2.0000      -0.555733       -15.1223
 156   2.0000      -0.550230       -14.9725
 157   2.0000      -0.548663       -14.9299
 158   2.0000      -0.544354       -14.8126
 159   2.0000      -0.543072       -14.7777
 160   2.0000      -0.541188       -14.7265
 161   2.0000      -0.536971       -14.6117
 162   2.0000      -0.534298       -14.5390
 163   2.0000      -0.531461       -14.4618
 164   2.0000      -0.528050       -14.3690
 165   2.0000      -0.522356       -14.2140
 166   2.0000      -0.522029       -14.2051
 167   2.0000      -0.519927       -14.1479
 168   2.0000      -0.515068       -14.0157
 169   2.0000      -0.512884       -13.9563
 170   2.0000      -0.511671       -13.9233
 171   2.0000      -0.509259       -13.8576
 172   2.0000      -0.498061       -13.5529
 173   2.0000      -0.496362       -13.5067
 174   2.0000      -0.495425       -13.4812
 175   2.0000      -0.486896       -13.2491
 176   2.0000      -0.483503       -13.1568
 177   2.0000      -0.480805       -13.0834
 178   2.0000      -0.479255       -13.0412
 179   2.0000      -0.479130       -13.0378
 180   2.0000      -0.478011       -13.0073
 181   2.0000      -0.474929       -12.9235
 182   2.0000      -0.474327       -12.9071
 183   2.0000      -0.473381       -12.8814
 184   2.0000      -0.471573       -12.8321
 185   2.0000      -0.471123       -12.8199
 186   2.0000      -0.469458       -12.7746
 187   2.0000      -0.467941       -12.7333
 188   2.0000      -0.465260       -12.6604
 189   2.0000      -0.455310       -12.3896
 190   2.0000      -0.453118       -12.3300
 191   2.0000      -0.447706       -12.1827
 192   2.0000      -0.447154       -12.1677
 193   2.0000      -0.446617       -12.1531
 194   2.0000      -0.444025       -12.0825
 195   2.0000      -0.443878       -12.0785
 196   2.0000      -0.440994       -12.0000
 197   2.0000      -0.436969       -11.8905
 198   2.0000      -0.434016       -11.8102
 199   2.0000      -0.431986       -11.7549
 200   2.0000      -0.430425       -11.7125
 201   2.0000      -0.429283       -11.6814
 202   2.0000      -0.428872       -11.6702
 203   2.0000      -0.426560       -11.6073
 204   2.0000      -0.419893       -11.4259
 205   2.0000      -0.419685       -11.4202
 206   2.0000      -0.415688       -11.3114
 207   2.0000      -0.413799       -11.2600
 208   2.0000      -0.411331       -11.1929
 209   2.0000      -0.405492       -11.0340
 210   2.0000      -0.403382       -10.9766
 211   2.0000      -0.400777       -10.9057
 212   2.0000      -0.398769       -10.8511
 213   2.0000      -0.393562       -10.7094
 214   2.0000      -0.388882       -10.5820
 215   2.0000      -0.388265       -10.5652
 216   2.0000      -0.381879       -10.3915
 217   2.0000      -0.368809       -10.0358
 218   2.0000      -0.361571        -9.8388
 219   2.0000      -0.350595        -9.5402
 220   2.0000      -0.345500        -9.4015
 221   2.0000      -0.338711        -9.2168
 222   2.0000      -0.337424        -9.1818
 223   2.0000      -0.333168        -9.0660
 224   2.0000      -0.330311        -8.9882
 225   2.0000      -0.324265        -8.8237
 226   2.0000      -0.323434        -8.8011
 227   2.0000      -0.316034        -8.5997
 228   2.0000      -0.303706        -8.2643
 229   2.0000      -0.293524        -7.9872
 230   2.0000      -0.276552        -7.5254
 231   2.0000      -0.257238        -6.9998
 232   2.0000      -0.209156        -5.6914
 233   0.0000      -0.123628        -3.3641
 234   0.0000      -0.076642        -2.0855
 235   0.0000      -0.042545        -1.1577
 236   0.0000      -0.035367        -0.9624
 237   0.0000      -0.023490        -0.6392

MULLIKEN ATOMIC CHARGES
-----------------------
   0 C :   -0.138887
   1 C :    0.249429
   2 F :   -0.175301
   3 C :    0.197612
   4 F :   -0.177294
   5 C :   -0.174919
   6 S :    0.120098
   7 C :    0.171618
   8 C :   -0.134168
   9 C :    0.018370
  10 C :    0.108804
  11 C :   -0.044801
  12 C :   -0.045941
  13 C :    0.108786
  14 C :    0.009957
  15 C :   -0.140703
  16 C :    0.066012
  17 C :    0.025408
  18 C :    0.064939
  19 C :    0.025868
  20 C :   -0.077983
  21 C :    0.120774
  22 C :   -0.015608
  23 C :   -0.044194
  24 C :   -0.001455
  25 C :    0.005586
  26 C :    0.013467
  27 C :   -0.033361
  28 C :    0.048156
  29 C :    0.023096
  30 C :   -0.026848
  31 S :    0.091349
  32 C :   -0.048064
  33 C :    0.016197
  34 C :    0.039218
  35 C :   -0.051916
  36 S :    0.111502
  37 C :   -0.051787
  38 C :    0.106789
  39 C :   -0.054136
  40 C :   -0.059000
  41 N :   -0.007452
  42 C :   -0.086850
  43 C :   -0.160092
  44 N :    0.053609
  45 C :   -0.222998
  46 N :    0.223375
  47 C :   -0.234848
  48 N :    0.239026
  49 C :    0.170472
  50 C :   -0.039591
  51 C :    0.040034
  52 N :   -0.305999
  53 S :    0.521063
  54 N :   -0.267069
  55 C :   -0.280742
  56 C :    0.215415
  57 F :   -0.164815
  58 C :    0.235597
  59 F :   -0.184187
  60 C :   -0.132443
  61 S :    0.171056
  62 H :    0.040812
  63 H :   -0.020463
  64 H :   -0.033494
  65 H :   -0.011627
  66 H :    0.001610
  67 H :    0.000122
  68 H :    0.023332
  69 H :    0.011467
  70 H :    0.019871
  71 H :    0.000704
  72 H :    0.001797
  73 H :    0.019075
  74 H :    0.012689
  75 H :    0.022664
  76 H :   -0.042568
  77 H :   -0.024682
  78 H :   -0.031631
  79 H :   -0.017611
  80 H :    0.008240
  81 H :   -0.006321
  82 H :   -0.003771
  83 H :   -0.007434
  84 H :   -0.013603
  85 H :   -0.010793
  86 H :    0.002360
  87 H :    0.030024
Sum of atomic charges:   -0.0000000

LOEWDIN ATOMIC CHARGES
----------------------
   0 C :   -0.216191
   1 C :    0.019719
   2 F :   -0.054067
   3 C :    0.021242
   4 F :   -0.048719
   5 C :   -0.194720
   6 S :    0.458000
   7 C :   -0.030170
   8 C :   -0.030722
   9 C :    0.008770
  10 C :   -0.021681
  11 C :   -0.011831
  12 C :   -0.016208
  13 C :   -0.005706
  14 C :    0.005971
  15 C :   -0.036146
  16 C :   -0.011131
  17 C :   -0.057684
  18 C :   -0.011152
  19 C :   -0.057534
  20 C :   -0.009297
  21 C :   -0.034056
  22 C :   -0.009411
  23 C :   -0.019499
  24 C :    0.014519
  25 C :   -0.043447
  26 C :   -0.017522
  27 C :   -0.158991
  28 C :   -0.014914
  29 C :   -0.039125
  30 C :   -0.151787
  31 S :    0.392609
  32 C :   -0.195042
  33 C :   -0.019361
  34 C :   -0.042872
  35 C :   -0.116135
  36 S :    0.403293
  37 C :   -0.054703
  38 C :   -0.020388
  39 C :   -0.007177
  40 C :   -0.009260
  41 N :   -0.030403
  42 C :   -0.018191
  43 C :   -0.051151
  44 N :    0.003145
  45 C :   -0.039070
  46 N :   -0.024012
  47 C :   -0.034121
  48 N :   -0.008449
  49 C :   -0.068737
  50 C :   -0.039575
  51 C :   -0.040400
  52 N :   -0.271053
  53 S :    0.647734
  54 N :   -0.275345
  55 C :   -0.204183
  56 C :    0.025418
  57 F :   -0.041909
  58 C :    0.010102
  59 F :   -0.062832
  60 C :   -0.222566
  61 S :    0.484334
  62 H :    0.034210
  63 H :    0.016513
  64 H :    0.028364
  65 H :    0.027816
  66 H :    0.021607
  67 H :    0.020659
  68 H :    0.025948
  69 H :    0.025352
  70 H :    0.024679
  71 H :    0.020843
  72 H :    0.021690
  73 H :    0.024605
  74 H :    0.025772
  75 H :    0.025705
  76 H :    0.024734
  77 H :    0.027301
  78 H :    0.028816
  79 H :    0.030321
  80 H :    0.021531
  81 H :    0.037029
  82 H :    0.037134
  83 H :    0.034331
  84 H :    0.032189
  85 H :    0.023196
  86 H :    0.033383
  87 H :    0.030066

  Mayer bond orders larger than 0.100000
B(  0-C ,  1-C ) :   1.5614 B(  0-C ,  5-C ) :   0.1229 B(  0-C ,  6-S ) :   1.1227
B(  0-C , 62-H ) :   0.9695 B(  1-C ,  2-F ) :   1.1409 B(  1-C ,  3-C ) :   1.1922
B(  3-C ,  4-F ) :   1.1169 B(  3-C ,  5-C ) :   1.4704 B(  5-C ,  6-S ) :   1.1369
B(  5-C ,  7-C ) :   1.0786 B(  7-C ,  8-C ) :   1.2784 B(  7-C , 12-C ) :   1.3627
B(  8-C ,  9-C ) :   1.4213 B(  8-C , 63-H ) :   0.9922 B(  9-C , 10-C ) :   1.3617
B(  9-C , 15-C ) :   0.9150 B( 10-C , 11-C ) :   1.3347 B( 10-C , 13-C ) :   0.9972
B( 11-C , 12-C ) :   1.3830 B( 11-C , 64-H ) :   0.9927 B( 12-C , 65-H ) :   0.9862
B( 13-C , 14-C ) :   1.3462 B( 13-C , 23-C ) :   1.3396 B( 14-C , 15-C ) :   0.9132
B( 14-C , 20-C ) :   1.4299 B( 15-C , 16-C ) :   1.0385 B( 15-C , 18-C ) :   1.0360
B( 16-C , 17-C ) :   1.1006 B( 16-C , 66-H ) :   0.9393 B( 16-C , 67-H ) :   0.9393
B( 17-C , 68-H ) :   0.9644 B( 17-C , 69-H ) :   0.9639 B( 17-C , 70-H ) :   0.9639
B( 18-C , 19-C ) :   1.1021 B( 18-C , 71-H ) :   0.9397 B( 18-C , 72-H ) :   0.9394
B( 19-C , 73-H ) :   0.9643 B( 19-C , 74-H ) :   0.9637 B( 19-C , 75-H ) :   0.9641
B( 20-C , 21-C ) :   1.2784 B( 20-C , 76-H ) :   0.9976 B( 21-C , 22-C ) :   1.3188
B( 21-C , 24-C ) :   1.0856 B( 22-C , 23-C ) :   1.3832 B( 22-C , 77-H ) :   0.9937
B( 23-C , 78-H ) :   0.9909 B( 24-C , 25-C ) :   1.6130 B( 24-C , 79-H ) :   0.9901
B( 25-C , 26-C ) :   1.1726 B( 25-C , 80-H ) :   0.9639 B( 26-C , 27-C ) :   1.5272
B( 26-C , 81-H ) :   0.9864 B( 27-C , 28-C ) :   1.1636 B( 27-C , 31-S ) :   1.0265
B( 28-C , 29-C ) :   1.5523 B( 28-C , 82-H ) :   1.0004 B( 29-C , 30-C ) :   1.2232
B( 29-C , 83-H ) :   0.9948 B( 30-C , 31-S ) :   1.0852 B( 30-C , 32-C ) :   1.4125
B( 32-C , 33-C ) :   1.2394 B( 32-C , 36-S ) :   1.0600 B( 33-C , 34-C ) :   1.5055
B( 33-C , 84-H ) :   0.9958 B( 34-C , 35-C ) :   1.2375 B( 34-C , 85-H ) :   0.9639
B( 35-C , 36-S ) :   1.0912 B( 35-C , 37-C ) :   1.3685 B( 37-C , 38-C ) :   1.3972
B( 37-C , 86-H ) :   0.9120 B( 38-C , 39-C ) :   1.1758 B( 38-C , 49-C ) :   0.1034
B( 38-C , 51-C ) :   1.1245 B( 39-C , 40-C ) :   1.1088 B( 39-C , 44-N ) :   1.5095
B( 40-C , 41-N ) :   1.3796 B( 40-C , 49-C ) :   1.2838 B( 41-N , 42-C ) :   1.7002
B( 42-C , 43-C ) :   1.2397 B( 42-C , 47-C ) :   1.1530 B( 43-C , 44-N ) :   1.6736
B( 43-C , 45-C ) :   1.1680 B( 45-C , 46-N ) :   3.0420 B( 47-C , 48-N ) :   3.0448
B( 49-C , 50-C ) :   1.1865 B( 49-C , 55-C ) :   1.1348 B( 50-C , 51-C ) :   1.1003
B( 50-C , 54-N ) :   1.5507 B( 51-C , 52-N ) :   1.5187 B( 52-N , 53-S ) :   1.2454
B( 52-N , 54-N ) :   0.1407 B( 52-N , 85-H ) :   0.1081 B( 53-S , 54-N ) :   1.2691
B( 55-C , 56-C ) :   1.4161 B( 55-C , 60-C ) :   0.1188 B( 55-C , 61-S ) :   1.1386
B( 56-C , 57-F ) :   1.1720 B( 56-C , 58-C ) :   1.2068 B( 58-C , 59-F ) :   1.1290
B( 58-C , 60-C ) :   1.5386 B( 60-C , 61-S ) :   1.1023 B( 60-C , 87-H ) :   0.9724

-----------------------------------------------------------------------------
         ABSORPTION SPECTRUM VIA TRANSITION ELECTRIC DIPOLE MOMENTS
-----------------------------------------------------------------------------
State   Energy  Wavelength   fosc         T2         TX        TY        TZ
        (cm-1)    (nm)                  (au**2)     (au)      (au)      (au)
-----------------------------------------------------------------------------
   0    5539.4   1805.3   0.545291797  32.40737  -1.97915   4.16098  -3.34313
   1   15364.2    650.9   0.534145161  11.44521  -0.57718   3.04344  -1.35999
   2   16322.1    612.7   0.223027534   4.49841   0.18084   2.10768  -0.15298
   3   21206.7    471.5   0.045326088   0.70364   0.31123   0.71735   0.30362
   4   21486.3    465.4   0.040578355   0.62174   0.55464   0.33433   0.44982
   5   21934.3    455.9   0.412430755   6.19016  -1.29737  -2.04046  -0.58610
   6   23155.6    431.9   0.059675151   0.84842  -0.08431  -0.79668   0.45456
   7   25219.3    396.5   0.330696625   4.31690   1.31865   0.75376   1.41770
   8   26238.8    381.1   0.076062291   0.95433  -0.21531  -0.92233   0.23932
   9   26508.9    377.2   0.061218094   0.76026   0.25520   0.82551   0.11690
  10   26817.4    372.9   0.352871650   4.33187   1.31636   1.09169   1.18629
  11   28577.9    349.9   0.054326609   0.62583   0.37980   0.67446   0.16334
  12   30191.8    331.2   0.102470153   1.11734   0.51245   0.85261   0.35748
  13   30474.0    328.1   0.070623272   0.76295   0.38266   0.78473  -0.02676
  14   30583.8    327.0   0.011936474   0.12849   0.05526  -0.25812   0.24250
  15   31109.9    321.4   0.631973827   6.68769   1.54052   1.80262   1.03200
  16   31573.9    316.7   0.011164261   0.11641   0.25928  -0.19400   0.10744
  17   31756.5    314.9   0.018589290   0.19271   0.24079   0.16831   0.32619
  18   32861.4    304.3   0.077935728   0.78078  -0.58372  -0.22513  -0.62399
  19   33206.9    301.1   0.000088309   0.00088   0.02593  -0.01346   0.00465
  20   33567.8    297.9   0.009674249   0.09488  -0.18557  -0.16438  -0.18282
  21   34050.0    293.7   0.004962591   0.04798  -0.01334  -0.19940   0.08968
  22   34528.4    289.6   0.166591403   1.58837  -0.25801   0.95242  -0.78402
  23   34744.8    287.8   0.262730364   2.48941  -0.94259  -1.20080  -0.39876
  24   35132.2    284.6   0.047631074   0.44633  -0.43155  -0.06013  -0.50644
  25   35408.0    282.4   0.057114095   0.53103   0.08940   0.72259  -0.03007
  26   35445.5    282.1   0.079437766   0.73780   0.59986   0.10536   0.60570
  27   35787.6    279.4   0.043162357   0.39705   0.32317   0.11636   0.52828
  28   36022.6    277.6   0.196221602   1.79328   0.82568   0.75275   0.73817
  29   36633.3    273.0   0.012576733   0.11302   0.15749  -0.17723   0.23835
  30   37647.2    265.6   0.162233593   1.41868  -0.21860  -1.14474   0.24590
  31   37938.8    263.6   0.024873509   0.21584  -0.25624  -0.38259   0.06170
  32   38194.6    261.8   0.203432745   1.75345   0.81928   0.80697   0.65653
  33   38830.6    257.5   0.090796494   0.76979   0.53164   0.37071   0.59137
  34   39032.0    256.2   0.002677298   0.02258  -0.09615   0.03126  -0.11117
  35   39355.0    254.1   0.021416479   0.17915  -0.22274  -0.28049  -0.22553
  36   39646.5    252.2   0.003930246   0.03264  -0.13348   0.06873  -0.10047

FINAL SINGLE POINT ENERGY     -4521.629671589534

DIPOLE MOMENT
-------------
                                X             Y             Z
Electronic contribution:     30.21182     -81.95097      59.53683
Nuclear contribution   :    -33.68281      83.24410     -63.52021
                        -----------------------------------------
Total Dipole Moment    :     -3.47100       1.29313      -3.98338
                        -----------------------------------------
Magnitude (a.u.)       :      5.43942
Magnitude (Debye)      :     13.82591

Rotational constants in cm-1:     0.001583     0.000298     0.000254
Rotational constants in MHz :    47.467646     8.934999     7.610704

                             ****ORCA TERMINATED NORMALLY****
TOTAL RUN TIME: 0 days 0 hours 8 minutes 55 seconds 621 msec
