                         Program Version 4.2.0 -  RELEASE  -
|  1> # ORCA input file
|  2> # SCF done       -203.849883599710          0.000409541290
|  3> ! CAM-B3LYP def2-SVP def2/J RIJCOSX Grid4 TightSCF
|  4> %maxcore 5000
|  5> %tddft
|  6>     Mode sTDDFT
|  7>     Ethresh 5.0
|  8>     maxcore 5000
|  9> end
| 10>
| 11> %pal
| 12>   nprocs 6
| 13>   end
| 14> * xyz 0 1
| 15>    C       -3.44499        -1.19190         2.18399
| 16>    C       -2.59737        -1.60818         1.19051
| 17>    C       -1.64317        -2.63550         1.34344
| 18>    N       -0.85242        -3.46567         1.40477
| 19>    C       -2.52984        -1.05338        -0.10540
| 20>    N       -2.38505        -0.64098        -1.16716
| 21>    C       -3.44519        -1.67059         3.56014
| 22>    C       -4.39226        -0.92239         4.30328
| 23>    C       -4.60987        -1.12962         5.64395
| 24>    C       -3.85185        -2.11351         6.28574
| 25>    C       -2.91222        -2.85918         5.53437
| 26>    C       -2.69665        -2.65588         4.17672
| 27>    S       -2.09411        -4.02309         6.52898
| 28>    C       -2.99490        -3.50930         7.91342
| 29>    C       -3.87058        -2.51465         7.65143
| 30>    C       -5.06874         0.04120         3.41597
| 31>    O       -6.02532         0.72872         3.70008
| 32>    C       -4.42693        -0.12790         2.08333
| 33>    C       -4.82259         0.50236         0.94413
| 34>    C       -5.61737         1.68543         0.88994
| 35>    C       -6.47806         1.91871        -0.20569
| 36>    C       -7.31301         3.08702        -0.27962
| 37>    N       -8.22443         3.19424        -1.25901
| 38>    C       -8.25635         2.28868        -2.20553
| 39>    C       -7.33443         1.18829        -2.19704
| 40>    N       -6.51653         1.00516        -1.19360
| 41>    C       -7.33991         0.26254        -3.27123
| 42>    N       -7.38151        -0.46134        -4.15782
| 43>    C       -9.21626         2.41496        -3.23816
| 44>    N       -9.96778         2.51064        -4.09809
| 45>    C       -7.24196         4.11713         0.68484
| 46>    C       -6.31195         3.93163         1.72446
| 47>    C       -5.51267         2.73169         1.82877
| 48>    N       -4.63494         2.80902         2.82943
| 49>    S       -4.82094         4.21496         3.57388
| 50>    N       -5.98614         4.82421         2.66356
| 51>    C       -8.03893         5.30861         0.57748
| 52>    C       -8.60890         5.90373         1.72671
| 53>    C       -9.26865         7.16564         1.64380
| 54>    N       -9.73289         7.74906         2.76662
| 55>    C       -9.60329         7.11683         3.89882
| 56>    C       -9.05876         5.81671         3.95686
| 57>    N       -8.57662         5.23578         2.89735
| 58>    C       -9.43726         7.84305         0.40122
| 59>    C       -8.98423         7.16666        -0.76541
| 60>    C       -8.25503         5.93887        -0.66966
| 61>    N       -7.71086         5.40482        -1.78273
| 62>    C       -7.96199         5.94368        -2.93891
| 63>    C       -8.81985         7.05976        -3.04424
| 64>    N       -9.27607         7.66031        -1.98347
| 65>    C      -10.03490         9.12743         0.42163
| 66>    C      -10.06152        10.01641        -0.61378
| 67>    C      -10.62822        11.31005        -0.55613
| 68>    C      -10.44726        12.19621        -1.65194
| 69>    C      -10.93443        13.55419        -1.64880
| 70>    N      -10.69678        14.34154        -2.69323
| 71>    C      -10.02910        13.88404        -3.73619
| 72>    C       -9.56930        12.53441        -3.74459
| 73>    N       -9.77902        11.74066        -2.72231
| 74>    C       -8.86934        12.02960        -4.87064
| 75>    N       -8.30516        11.64991        -5.79215
| 76>    C       -9.77307        14.73970        -4.83073
| 77>    N       -9.53705        15.40019        -5.73825
| 78>    C      -11.66489        14.09165        -0.54936
| 79>    C      -11.88413        13.18050         0.52664
| 80>    C      -11.37555        11.83298         0.53317
| 81>    N      -11.70722        11.19391         1.65226
| 82>    S      -12.56286        12.17518         2.59652
| 83>    N      -12.55762        13.46754         1.63566
| 84>    C      -12.16160        15.39038        -0.42649
| 85>    C      -12.08220        16.50752        -1.24090
| 86>    C      -12.65937        17.74577        -0.86232
| 87>    C      -12.46744        18.76090        -1.75145
| 88>    C      -11.72613        18.36345        -2.88180
| 89>    S      -11.29327        16.66355        -2.78538
| 90>    C      -11.33916        19.13205        -3.96485
| 91>    C      -11.60320        20.51466        -4.18114
| 92>    C      -11.08795        21.00044        -5.33270
| 93>    C      -10.37744        20.02699        -6.11173
| 94>    S      -10.41472        18.46378        -5.27795
| 95>    C       -9.76064        20.20677        -7.28860
| 96>    H       -5.33988        -0.54469         6.18178
| 97>    H       -1.97391        -3.25413         3.64745
| 98>    H       -2.80955        -3.99246         8.85306
| 99>    H       -4.51473        -2.06997         8.38836
|100>    H       -4.55794         0.08735        -0.02028
|101>    H       -9.97021         7.62065         4.78271
|102>    H       -9.04539         5.24609         4.87547
|103>    H       -7.49399         5.49901        -3.80620
|104>    H       -9.11066         7.46648        -4.00235
|105>    H      -10.44754         9.42177         1.37700
|106>    H       -9.59376         9.75824        -1.55252
|107>    H      -12.70013        15.55053         0.50139
|108>    H      -13.19720        17.84722         0.06415
|109>    H      -12.83607        19.76187        -1.61413
|110>    H      -12.16486        21.09646        -3.47222
|111>    H      -11.17975        22.01754        -5.66982
|112>    H       -9.75557        21.17011        -7.76816
|113>    H       -9.25470        19.39934        -7.78600
|114> *
|115>
|116>                          ****END OF INPUT****

CARTESIAN COORDINATES (ANGSTROEM)
---------------------------------
  C     -3.444990   -1.191900    2.183990
  C     -2.597370   -1.608180    1.190510
  C     -1.643170   -2.635500    1.343440
  N     -0.852420   -3.465670    1.404770
  C     -2.529840   -1.053380   -0.105400
  N     -2.385050   -0.640980   -1.167160
  C     -3.445190   -1.670590    3.560140
  C     -4.392260   -0.922390    4.303280
  C     -4.609870   -1.129620    5.643950
  C     -3.851850   -2.113510    6.285740
  C     -2.912220   -2.859180    5.534370
  C     -2.696650   -2.655880    4.176720
  S     -2.094110   -4.023090    6.528980
  C     -2.994900   -3.509300    7.913420
  C     -3.870580   -2.514650    7.651430
  C     -5.068740    0.041200    3.415970
  O     -6.025320    0.728720    3.700080
  C     -4.426930   -0.127900    2.083330
  C     -4.822590    0.502360    0.944130
  C     -5.617370    1.685430    0.889940
  C     -6.478060    1.918710   -0.205690
  C     -7.313010    3.087020   -0.279620
  N     -8.224430    3.194240   -1.259010
  C     -8.256350    2.288680   -2.205530
  C     -7.334430    1.188290   -2.197040
  N     -6.516530    1.005160   -1.193600
  C     -7.339910    0.262540   -3.271230
  N     -7.381510   -0.461340   -4.157820
  C     -9.216260    2.414960   -3.238160
  N     -9.967780    2.510640   -4.098090
  C     -7.241960    4.117130    0.684840
  C     -6.311950    3.931630    1.724460
  C     -5.512670    2.731690    1.828770
  N     -4.634940    2.809020    2.829430
  S     -4.820940    4.214960    3.573880
  N     -5.986140    4.824210    2.663560
  C     -8.038930    5.308610    0.577480
  C     -8.608900    5.903730    1.726710
  C     -9.268650    7.165640    1.643800
  N     -9.732890    7.749060    2.766620
  C     -9.603290    7.116830    3.898820
  C     -9.058760    5.816710    3.956860
  N     -8.576620    5.235780    2.897350
  C     -9.437260    7.843050    0.401220
  C     -8.984230    7.166660   -0.765410
  C     -8.255030    5.938870   -0.669660
  N     -7.710860    5.404820   -1.782730
  C     -7.961990    5.943680   -2.938910
  C     -8.819850    7.059760   -3.044240
  N     -9.276070    7.660310   -1.983470
  C    -10.034900    9.127430    0.421630
  C    -10.061520   10.016410   -0.613780
  C    -10.628220   11.310050   -0.556130
  C    -10.447260   12.196210   -1.651940
  C    -10.934430   13.554190   -1.648800
  N    -10.696780   14.341540   -2.693230
  C    -10.029100   13.884040   -3.736190
  C     -9.569300   12.534410   -3.744590
  N     -9.779020   11.740660   -2.722310
  C     -8.869340   12.029600   -4.870640
  N     -8.305160   11.649910   -5.792150
  C     -9.773070   14.739700   -4.830730
  N     -9.537050   15.400190   -5.738250
  C    -11.664890   14.091650   -0.549360
  C    -11.884130   13.180500    0.526640
  C    -11.375550   11.832980    0.533170
  N    -11.707220   11.193910    1.652260
  S    -12.562860   12.175180    2.596520
  N    -12.557620   13.467540    1.635660
  C    -12.161600   15.390380   -0.426490
  C    -12.082200   16.507520   -1.240900
  C    -12.659370   17.745770   -0.862320
  C    -12.467440   18.760900   -1.751450
  C    -11.726130   18.363450   -2.881800
  S    -11.293270   16.663550   -2.785380
  C    -11.339160   19.132050   -3.964850
  C    -11.603200   20.514660   -4.181140
  C    -11.087950   21.000440   -5.332700
  C    -10.377440   20.026990   -6.111730
  S    -10.414720   18.463780   -5.277950
  C     -9.760640   20.206770   -7.288600
  H     -5.339880   -0.544690    6.181780
  H     -1.973910   -3.254130    3.647450
  H     -2.809550   -3.992460    8.853060
  H     -4.514730   -2.069970    8.388360
  H     -4.557940    0.087350   -0.020280
  H     -9.970210    7.620650    4.782710
  H     -9.045390    5.246090    4.875470
  H     -7.493990    5.499010   -3.806200
  H     -9.110660    7.466480   -4.002350
  H    -10.447540    9.421770    1.377000
  H     -9.593760    9.758240   -1.552520
  H    -12.700130   15.550530    0.501390
  H    -13.197200   17.847220    0.064150
  H    -12.836070   19.761870   -1.614130
  H    -12.164860   21.096460   -3.472220
  H    -11.179750   22.017540   -5.669820
  H     -9.755570   21.170110   -7.768160
  H     -9.254700   19.399340   -7.786000

 Total Charge           Charge          ....    0
 Multiplicity           Mult            ....    1
 Number of Electrons    NEL             ....  574
 Basis Dimension        Dim             .... 1244

ORBITAL ENERGIES
----------------

  NO   OCC          E(Eh)            E(eV)
   0   2.0000     -89.035411     -2422.7767
   1   2.0000     -89.030846     -2422.6525
   2   2.0000     -88.969267     -2420.9768
   3   2.0000     -88.964236     -2420.8399
   4   2.0000     -88.961635     -2420.7692
   5   2.0000     -19.205984      -522.6214
   6   2.0000     -14.462714      -393.5504
   7   2.0000     -14.452947      -393.2847
   8   2.0000     -14.450722      -393.2241
   9   2.0000     -14.448282      -393.1578
  10   2.0000     -14.448162      -393.1545
  11   2.0000     -14.441916      -392.9845
  12   2.0000     -14.440018      -392.9329
  13   2.0000     -14.437375      -392.8609
  14   2.0000     -14.425007      -392.5244
  15   2.0000     -14.424654      -392.5148
  16   2.0000     -14.424159      -392.5013
  17   2.0000     -14.424090      -392.4994
  18   2.0000     -14.421455      -392.4277
  19   2.0000     -14.420855      -392.4114
  20   2.0000     -14.420661      -392.4061
  21   2.0000     -14.419063      -392.3627
  22   2.0000     -14.407885      -392.0585
  23   2.0000     -14.405863      -392.0035
  24   2.0000     -10.375479      -282.3311
  25   2.0000     -10.374096      -282.2935
  26   2.0000     -10.367945      -282.1261
  27   2.0000     -10.365401      -282.0569
  28   2.0000     -10.357376      -281.8385
  29   2.0000     -10.345840      -281.5246
  30   2.0000     -10.343588      -281.4633
  31   2.0000     -10.341704      -281.4121
  32   2.0000     -10.340830      -281.3883
  33   2.0000     -10.336242      -281.2634
  34   2.0000     -10.334865      -281.2260
  35   2.0000     -10.334568      -281.2179
  36   2.0000     -10.334144      -281.2064
  37   2.0000     -10.332452      -281.1603
  38   2.0000     -10.332143      -281.1519
  39   2.0000     -10.331404      -281.1318
  40   2.0000     -10.330434      -281.1054
  41   2.0000     -10.329938      -281.0919
  42   2.0000     -10.324262      -280.9374
  43   2.0000     -10.322813      -280.8980
  44   2.0000     -10.320851      -280.8446
  45   2.0000     -10.319845      -280.8173
  46   2.0000     -10.319087      -280.7966
  47   2.0000     -10.318582      -280.7829
  48   2.0000     -10.318258      -280.7741
  49   2.0000     -10.318249      -280.7738
  50   2.0000     -10.318118      -280.7703
  51   2.0000     -10.317925      -280.7650
  52   2.0000     -10.316890      -280.7368
  53   2.0000     -10.316033      -280.7135
  54   2.0000     -10.315013      -280.6858
  55   2.0000     -10.314640      -280.6756
  56   2.0000     -10.314532      -280.6727
  57   2.0000     -10.313508      -280.6448
  58   2.0000     -10.313406      -280.6420
  59   2.0000     -10.312566      -280.6192
  60   2.0000     -10.310640      -280.5668
  61   2.0000     -10.309854      -280.5454
  62   2.0000     -10.308327      -280.5038
  63   2.0000     -10.307208      -280.4734
  64   2.0000     -10.306705      -280.4597
  65   2.0000     -10.303672      -280.3772
  66   2.0000     -10.302563      -280.3470
  67   2.0000     -10.299726      -280.2698
  68   2.0000     -10.298132      -280.2264
  69   2.0000     -10.297482      -280.2087
  70   2.0000     -10.296909      -280.1931
  71   2.0000     -10.296777      -280.1895
  72   2.0000     -10.296551      -280.1834
  73   2.0000     -10.292683      -280.0781
  74   2.0000     -10.292378      -280.0698
  75   2.0000     -10.291777      -280.0535
  76   2.0000     -10.290689      -280.0239
  77   2.0000     -10.284875      -279.8657
  78   2.0000     -10.283463      -279.8273
  79   2.0000     -10.269421      -279.4452
  80   2.0000     -10.259345      -279.1710
  81   2.0000      -8.126662      -221.1377
  82   2.0000      -8.122448      -221.0230
  83   2.0000      -8.062089      -219.3806
  84   2.0000      -8.060672      -219.3420
  85   2.0000      -8.057913      -219.2670
  86   2.0000      -6.097573      -165.9234
  87   2.0000      -6.093717      -165.8185
  88   2.0000      -6.089835      -165.7128
  89   2.0000      -6.089780      -165.7113
  90   2.0000      -6.085926      -165.6065
  91   2.0000      -6.084831      -165.5767
  92   2.0000      -6.031974      -164.1384
  93   2.0000      -6.030329      -164.0936
  94   2.0000      -6.027435      -164.0148
  95   2.0000      -6.027320      -164.0117
  96   2.0000      -6.026207      -163.9814
  97   2.0000      -6.023608      -163.9107
  98   2.0000      -6.023128      -163.8976
  99   2.0000      -6.021551      -163.8547
 100   2.0000      -6.019565      -163.8007
 101   2.0000      -1.131657       -30.7939
 102   2.0000      -1.131322       -30.7848
 103   2.0000      -1.120256       -30.4837
 104   2.0000      -1.115060       -30.3423
 105   2.0000      -1.110944       -30.2303
 106   2.0000      -1.085154       -29.5286
 107   2.0000      -1.077758       -29.3273
 108   2.0000      -1.041982       -28.3538
 109   2.0000      -1.037709       -28.2375
 110   2.0000      -1.014671       -27.6106
 111   2.0000      -1.012536       -27.5525
 112   2.0000      -1.009555       -27.4714
 113   2.0000      -1.008734       -27.4491
 114   2.0000      -1.003853       -27.3162
 115   2.0000      -1.001540       -27.2533
 116   2.0000      -1.000464       -27.2240
 117   2.0000      -0.999837       -27.2070
 118   2.0000      -0.993887       -27.0450
 119   2.0000      -0.992233       -27.0000
 120   2.0000      -0.986483       -26.8436
 121   2.0000      -0.985414       -26.8145
 122   2.0000      -0.983510       -26.7627
 123   2.0000      -0.977836       -26.6083
 124   2.0000      -0.970636       -26.4123
 125   2.0000      -0.968781       -26.3619
 126   2.0000      -0.946810       -25.7640
 127   2.0000      -0.924055       -25.1448
 128   2.0000      -0.913530       -24.8584
 129   2.0000      -0.905394       -24.6370
 130   2.0000      -0.900828       -24.5128
 131   2.0000      -0.898047       -24.4371
 132   2.0000      -0.894372       -24.3371
 133   2.0000      -0.884772       -24.0759
 134   2.0000      -0.875422       -23.8214
 135   2.0000      -0.872677       -23.7468
 136   2.0000      -0.868088       -23.6219
 137   2.0000      -0.864669       -23.5288
 138   2.0000      -0.859290       -23.3825
 139   2.0000      -0.843772       -22.9602
 140   2.0000      -0.838907       -22.8278
 141   2.0000      -0.828244       -22.5377
 142   2.0000      -0.822785       -22.3891
 143   2.0000      -0.817217       -22.2376
 144   2.0000      -0.815700       -22.1963
 145   2.0000      -0.807123       -21.9629
 146   2.0000      -0.793771       -21.5996
 147   2.0000      -0.788524       -21.4568
 148   2.0000      -0.781584       -21.2680
 149   2.0000      -0.772612       -21.0238
 150   2.0000      -0.762677       -20.7535
 151   2.0000      -0.753546       -20.5050
 152   2.0000      -0.749286       -20.3891
 153   2.0000      -0.734910       -19.9979
 154   2.0000      -0.729906       -19.8618
 155   2.0000      -0.723584       -19.6897
 156   2.0000      -0.721150       -19.6235
 157   2.0000      -0.714479       -19.4420
 158   2.0000      -0.703380       -19.1400
 159   2.0000      -0.698516       -19.0076
 160   2.0000      -0.691627       -18.8201
 161   2.0000      -0.688738       -18.7415
 162   2.0000      -0.686776       -18.6881
 163   2.0000      -0.683045       -18.5866
 164   2.0000      -0.681055       -18.5325
 165   2.0000      -0.673450       -18.3255
 166   2.0000      -0.667759       -18.1707
 167   2.0000      -0.656997       -17.8778
 168   2.0000      -0.654794       -17.8179
 169   2.0000      -0.652950       -17.7677
 170   2.0000      -0.651165       -17.7191
 171   2.0000      -0.643492       -17.5103
 172   2.0000      -0.642192       -17.4749
 173   2.0000      -0.636931       -17.3318
 174   2.0000      -0.630085       -17.1455
 175   2.0000      -0.623436       -16.9646
 176   2.0000      -0.621008       -16.8985
 177   2.0000      -0.617642       -16.8069
 178   2.0000      -0.615009       -16.7352
 179   2.0000      -0.612629       -16.6705
 180   2.0000      -0.609315       -16.5803
 181   2.0000      -0.604517       -16.4497
 182   2.0000      -0.591169       -16.0865
 183   2.0000      -0.589120       -16.0308
 184   2.0000      -0.587459       -15.9856
 185   2.0000      -0.585784       -15.9400
 186   2.0000      -0.580056       -15.7841
 187   2.0000      -0.574803       -15.6412
 188   2.0000      -0.572682       -15.5835
 189   2.0000      -0.570545       -15.5253
 190   2.0000      -0.565209       -15.3801
 191   2.0000      -0.560818       -15.2606
 192   2.0000      -0.550973       -14.9927
 193   2.0000      -0.548683       -14.9304
 194   2.0000      -0.548312       -14.9203
 195   2.0000      -0.545498       -14.8437
 196   2.0000      -0.541500       -14.7350
 197   2.0000      -0.538942       -14.6653
 198   2.0000      -0.534688       -14.5496
 199   2.0000      -0.530066       -14.4238
 200   2.0000      -0.528357       -14.3773
 201   2.0000      -0.526795       -14.3348
 202   2.0000      -0.525841       -14.3089
 203   2.0000      -0.521341       -14.1864
 204   2.0000      -0.517845       -14.0913
 205   2.0000      -0.516372       -14.0512
 206   2.0000      -0.515958       -14.0399
 207   2.0000      -0.513053       -13.9609
 208   2.0000      -0.510182       -13.8828
 209   2.0000      -0.508631       -13.8406
 210   2.0000      -0.505061       -13.7434
 211   2.0000      -0.501206       -13.6385
 212   2.0000      -0.499186       -13.5836
 213   2.0000      -0.498045       -13.5525
 214   2.0000      -0.494216       -13.4483
 215   2.0000      -0.491553       -13.3758
 216   2.0000      -0.490243       -13.3402
 217   2.0000      -0.484139       -13.1741
 218   2.0000      -0.482766       -13.1367
 219   2.0000      -0.482319       -13.1246
 220   2.0000      -0.476482       -12.9657
 221   2.0000      -0.475857       -12.9487
 222   2.0000      -0.473858       -12.8943
 223   2.0000      -0.472172       -12.8485
 224   2.0000      -0.472047       -12.8450
 225   2.0000      -0.469975       -12.7887
 226   2.0000      -0.467201       -12.7132
 227   2.0000      -0.464460       -12.6386
 228   2.0000      -0.460861       -12.5407
 229   2.0000      -0.459769       -12.5109
 230   2.0000      -0.451848       -12.2954
 231   2.0000      -0.450777       -12.2663
 232   2.0000      -0.450398       -12.2559
 233   2.0000      -0.448332       -12.1997
 234   2.0000      -0.447630       -12.1806
 235   2.0000      -0.446283       -12.1440
 236   2.0000      -0.444540       -12.0965
 237   2.0000      -0.442000       -12.0274
 238   2.0000      -0.440395       -11.9837
 239   2.0000      -0.439521       -11.9600
 240   2.0000      -0.437285       -11.8991
 241   2.0000      -0.434573       -11.8253
 242   2.0000      -0.434006       -11.8099
 243   2.0000      -0.430313       -11.7094
 244   2.0000      -0.428066       -11.6483
 245   2.0000      -0.426873       -11.6158
 246   2.0000      -0.426491       -11.6054
 247   2.0000      -0.421485       -11.4692
 248   2.0000      -0.419506       -11.4153
 249   2.0000      -0.418343       -11.3837
 250   2.0000      -0.417623       -11.3641
 251   2.0000      -0.415124       -11.2961
 252   2.0000      -0.415012       -11.2931
 253   2.0000      -0.409595       -11.1457
 254   2.0000      -0.408631       -11.1194
 255   2.0000      -0.406608       -11.0644
 256   2.0000      -0.404924       -11.0185
 257   2.0000      -0.401169       -10.9164
 258   2.0000      -0.400486       -10.8978
 259   2.0000      -0.399348       -10.8668
 260   2.0000      -0.397379       -10.8132
 261   2.0000      -0.390970       -10.6388
 262   2.0000      -0.383400       -10.4328
 263   2.0000      -0.381230       -10.3738
 264   2.0000      -0.372564       -10.1380
 265   2.0000      -0.369710       -10.0603
 266   2.0000      -0.367947       -10.0123
 267   2.0000      -0.365345        -9.9415
 268   2.0000      -0.361326        -9.8322
 269   2.0000      -0.358192        -9.7469
 270   2.0000      -0.350985        -9.5508
 271   2.0000      -0.345597        -9.4042
 272   2.0000      -0.343613        -9.3502
 273   2.0000      -0.341589        -9.2951
 274   2.0000      -0.340115        -9.2550
 275   2.0000      -0.338024        -9.1981
 276   2.0000      -0.335289        -9.1237
 277   2.0000      -0.326418        -8.8823
 278   2.0000      -0.325196        -8.8490
 279   2.0000      -0.319057        -8.6820
 280   2.0000      -0.308965        -8.4074
 281   2.0000      -0.306464        -8.3393
 282   2.0000      -0.305664        -8.3175
 283   2.0000      -0.290862        -7.9147
 284   2.0000      -0.283192        -7.7060
 285   2.0000      -0.261560        -7.1174
 286   2.0000      -0.219907        -5.9840
 287   0.0000      -0.129495        -3.5237
 288   0.0000      -0.114242        -3.1087
 289   0.0000      -0.079286        -2.1575
 290   0.0000      -0.071795        -1.9536
 291   0.0000      -0.068907        -1.8751

MULLIKEN ATOMIC CHARGES
-----------------------
   0 C :    0.299486
   1 C :   -0.340877
   2 C :   -0.187883
   3 N :    0.149255
   4 C :   -0.197112
   5 N :    0.164889
   6 C :    0.020642
   7 C :   -0.018728
   8 C :   -0.070480
   9 C :    0.114672
  10 C :   -0.094583
  11 C :   -0.025912
  12 S :    0.138972
  13 C :   -0.048904
  14 C :    0.024258
  15 C :    0.157253
  16 O :   -0.150726
  17 C :   -0.053731
  18 C :   -0.091123
  19 C :    0.079605
  20 C :   -0.049903
  21 C :   -0.044179
  22 N :    0.075986
  23 C :   -0.150104
  24 C :   -0.120609
  25 N :    0.058407
  26 C :   -0.203760
  27 N :    0.235671
  28 C :   -0.217204
  29 N :    0.231085
  30 C :    0.064846
  31 C :    0.028585
  32 C :    0.018804
  33 N :   -0.280012
  34 S :    0.542066
  35 N :   -0.265117
  36 C :    0.009457
  37 C :   -0.039932
  38 C :   -0.063924
  39 N :   -0.004785
  40 C :    0.022800
  41 C :    0.028257
  42 N :    0.002822
  43 C :    0.147930
  44 C :   -0.077159
  45 C :    0.004742
  46 N :   -0.023026
  47 C :    0.038515
  48 C :    0.036265
  49 N :   -0.021165
  50 C :   -0.100476
  51 C :   -0.042034
  52 C :    0.072016
  53 C :   -0.028196
  54 C :   -0.018700
  55 N :   -0.025804
  56 C :   -0.081463
  57 C :   -0.140472
  58 N :    0.054721
  59 C :   -0.224632
  60 N :    0.238081
  61 C :   -0.242282
  62 N :    0.216515
  63 C :    0.118149
  64 C :   -0.000316
  65 C :    0.015786
  66 N :   -0.275593
  67 S :    0.516556
  68 N :   -0.281287
  69 C :   -0.137604
  70 C :    0.038491
  71 C :    0.017432
  72 C :    0.047132
  73 C :   -0.036926
  74 S :    0.131157
  75 C :   -0.055378
  76 C :    0.023818
  77 C :    0.073396
  78 C :   -0.082237
  79 S :    0.157242
  80 C :    0.002189
  81 H :   -0.016885
  82 H :   -0.006682
  83 H :    0.036524
  84 H :   -0.009228
  85 H :    0.045009
  86 H :    0.008478
  87 H :    0.011842
  88 H :    0.019138
  89 H :    0.021723
  90 H :    0.010673
  91 H :    0.006953
  92 H :    0.000741
  93 H :   -0.004424
  94 H :   -0.011886
  95 H :   -0.001352
  96 H :    0.002194
  97 H :    0.035668
  98 H :    0.047903
Sum of atomic charges:   -0.0000000

LOEWDIN ATOMIC CHARGES
----------------------
   0 C :    0.074708
   1 C :   -0.134147
   2 C :   -0.017136
   3 N :   -0.054015
   4 C :   -0.023605
   5 N :   -0.045207
   6 C :   -0.021591
   7 C :   -0.049627
   8 C :    0.019973
   9 C :   -0.035425
  10 C :   -0.145727
  11 C :   -0.009502
  12 S :    0.427560
  13 C :   -0.150600
  14 C :   -0.059135
  15 C :    0.083407
  16 O :   -0.144491
  17 C :   -0.074227
  18 C :    0.077931
  19 C :   -0.038877
  20 C :    0.011989
  21 C :   -0.006787
  22 N :    0.031607
  23 C :   -0.045114
  24 C :   -0.015664
  25 N :   -0.007475
  26 C :   -0.033863
  27 N :   -0.002136
  28 C :   -0.037759
  29 N :   -0.017272
  30 C :    0.029818
  31 C :   -0.037354
  32 C :   -0.025231
  33 N :   -0.280927
  34 S :    0.684690
  35 N :   -0.270846
  36 C :   -0.039113
  37 C :    0.009781
  38 C :   -0.011678
  39 N :   -0.025434
  40 C :    0.002294
  41 C :    0.011376
  42 N :   -0.028162
  43 C :    0.012447
  44 C :   -0.013452
  45 C :    0.015064
  46 N :   -0.026904
  47 C :    0.015950
  48 C :    0.013913
  49 N :   -0.021958
  50 C :   -0.023126
  51 C :    0.023212
  52 C :   -0.062771
  53 C :    0.007193
  54 C :   -0.009576
  55 N :   -0.025280
  56 C :   -0.056052
  57 C :   -0.020982
  58 N :   -0.007036
  59 C :   -0.032635
  60 N :   -0.011835
  61 C :   -0.046685
  62 N :   -0.033350
  63 C :   -0.018621
  64 C :   -0.048251
  65 C :   -0.033412
  66 N :   -0.274597
  67 S :    0.645363
  68 N :   -0.279241
  69 C :   -0.048021
  70 C :   -0.117797
  71 C :   -0.039768
  72 C :   -0.014050
  73 C :   -0.212270
  74 S :    0.473931
  75 C :   -0.139411
  76 C :   -0.030235
  77 C :   -0.003233
  78 C :   -0.147361
  79 S :    0.425329
  80 C :   -0.025136
  81 H :    0.038319
  82 H :    0.040544
  83 H :    0.028622
  84 H :    0.034269
  85 H :    0.048234
  86 H :    0.024863
  87 H :    0.026191
  88 H :    0.028545
  89 H :    0.030155
  90 H :    0.026590
  91 H :    0.027833
  92 H :    0.043130
  93 H :    0.035837
  94 H :    0.031731
  95 H :    0.036015
  96 H :    0.039123
  97 H :    0.035784
  98 H :    0.037852

  Mayer bond orders larger than 0.100000
B(  0-C ,  1-C ) :   1.6431 B(  0-C ,  6-C ) :   1.0050 B(  0-C , 17-C ) :   1.0635
B(  1-C ,  2-C ) :   1.1406 B(  1-C ,  4-C ) :   1.1439 B(  2-C ,  3-N ) :   2.9716
B(  4-C ,  5-N ) :   2.9831 B(  6-C ,  7-C ) :   1.2714 B(  6-C , 11-C ) :   1.4058
B(  7-C ,  8-C ) :   1.4239 B(  7-C , 15-C ) :   0.9477 B(  8-C ,  9-C ) :   1.2456
B(  8-C , 81-H ) :   1.0172 B(  9-C , 10-C ) :   1.3034 B(  9-C , 14-C ) :   1.1710
B( 10-C , 11-C ) :   1.3251 B( 10-C , 12-S ) :   1.0967 B( 11-C , 82-H ) :   0.9832
B( 12-S , 13-C ) :   1.1263 B( 13-C , 14-C ) :   1.6275 B( 13-C , 83-H ) :   0.9689
B( 14-C , 84-H ) :   0.9993 B( 15-C , 16-O ) :   2.2280 B( 15-C , 17-C ) :   0.9344
B( 17-C , 18-C ) :   1.6087 B( 18-C , 19-C ) :   1.1568 B( 18-C , 85-H ) :   0.9298
B( 19-C , 20-C ) :   1.2569 B( 19-C , 30-C ) :   0.1304 B( 19-C , 32-C ) :   1.2012
B( 20-C , 21-C ) :   1.1128 B( 20-C , 25-N ) :   1.4387 B( 21-C , 22-N ) :   1.4088
B( 21-C , 30-C ) :   1.3097 B( 22-N , 23-C ) :   1.7067 B( 23-C , 24-C ) :   1.1900
B( 23-C , 28-C ) :   1.1559 B( 24-C , 25-N ) :   1.7587 B( 24-C , 26-C ) :   1.1477
B( 26-C , 27-N ) :   3.0487 B( 28-C , 29-N ) :   3.0511 B( 30-C , 31-C ) :   1.2784
B( 30-C , 36-C ) :   1.0140 B( 31-C , 32-C ) :   1.1042 B( 31-C , 35-N ) :   1.4786
B( 32-C , 33-N ) :   1.4982 B( 33-N , 34-S ) :   1.2869 B( 33-N , 35-N ) :   0.1574
B( 34-S , 35-N ) :   1.3123 B( 36-C , 37-C ) :   1.2896 B( 36-C , 43-C ) :   0.1348
B( 36-C , 45-C ) :   1.3098 B( 37-C , 38-C ) :   1.1616 B( 37-C , 42-N ) :   1.4440
B( 38-C , 39-N ) :   1.4742 B( 38-C , 43-C ) :   1.1907 B( 39-N , 40-C ) :   1.6867
B( 40-C , 41-C ) :   1.1901 B( 40-C , 86-H ) :   0.9748 B( 41-C , 42-N ) :   1.6803
B( 41-C , 87-H ) :   0.9738 B( 43-C , 44-C ) :   1.1850 B( 43-C , 50-C ) :   1.2243
B( 44-C , 45-C ) :   1.1729 B( 44-C , 49-N ) :   1.4512 B( 45-C , 46-N ) :   1.3982
B( 46-N , 47-C ) :   1.6686 B( 47-C , 48-C ) :   1.1866 B( 47-C , 88-H ) :   0.9716
B( 48-C , 49-N ) :   1.6710 B( 48-C , 89-H ) :   0.9748 B( 50-C , 51-C ) :   1.4798
B( 50-C , 90-H ) :   0.9447 B( 51-C , 52-C ) :   1.2161 B( 51-C , 91-H ) :   0.9462
B( 52-C , 53-C ) :   1.2448 B( 52-C , 63-C ) :   0.1075 B( 52-C , 65-C ) :   1.1335
B( 53-C , 54-C ) :   1.1063 B( 53-C , 58-N ) :   1.4382 B( 54-C , 55-N ) :   1.4688
B( 54-C , 63-C ) :   1.1432 B( 55-N , 56-C ) :   1.5728 B( 55-N , 74-S ) :   0.1024
B( 56-C , 57-C ) :   1.2504 B( 56-C , 61-C ) :   1.1672 B( 57-C , 58-N ) :   1.7349
B( 57-C , 59-C ) :   1.1648 B( 59-C , 60-N ) :   3.0532 B( 61-C , 62-N ) :   2.9786
B( 63-C , 64-C ) :   1.1268 B( 63-C , 69-C ) :   1.3624 B( 64-C , 65-C ) :   1.1207
B( 64-C , 68-N ) :   1.5691 B( 65-C , 66-N ) :   1.5415 B( 66-N , 67-S ) :   1.2468
B( 66-N , 68-N ) :   0.1397 B( 67-S , 68-N ) :   1.2608 B( 69-C , 70-C ) :   1.3708
B( 69-C , 92-H ) :   0.9525 B( 70-C , 71-C ) :   1.1949 B( 70-C , 74-S ) :   1.1064
B( 71-C , 72-C ) :   1.5337 B( 71-C , 93-H ) :   1.0026 B( 72-C , 73-C ) :   1.2176
B( 72-C , 94-H ) :   0.9922 B( 73-C , 74-S ) :   0.9965 B( 73-C , 75-C ) :   1.4689
B( 75-C , 76-C ) :   1.1585 B( 75-C , 79-S ) :   1.1059 B( 76-C , 77-C ) :   1.6486
B( 76-C , 95-H ) :   0.9939 B( 77-C , 78-C ) :   1.0779 B( 77-C , 96-H ) :   0.9939
B( 78-C , 79-S ) :   1.0062 B( 78-C , 80-C ) :   1.8539 B( 80-C , 97-H ) :   0.9526
B( 80-C , 98-H ) :   0.9405

-----------------------------------------------------------------------------
         ABSORPTION SPECTRUM VIA TRANSITION ELECTRIC DIPOLE MOMENTS
-----------------------------------------------------------------------------
State   Energy  Wavelength   fosc         T2         TX        TY        TZ
        (cm-1)    (nm)                  (au**2)     (au)      (au)      (au)
-----------------------------------------------------------------------------
   0    6549.4   1526.9   0.891499955  44.81244   1.58631  -6.15552   2.09895
   1   10368.9    964.4   0.188688952   5.99086   1.48024  -1.93675   0.22079
   2   15512.9    644.6   0.159024520   3.37479   0.16823   1.52922  -1.00398
   3   16215.3    616.7   0.209008961   4.24342  -1.20752   1.66584  -0.10151
   4   18078.6    553.1   0.033483916   0.60974  -0.60411  -0.30196   0.39193
   5   18419.9    542.9   0.193487178   3.45812  -0.17315   1.45397  -1.14634
   6   20743.5    482.1   0.085958689   1.36422  -0.61801   0.78538  -0.60453
   7   21622.7    462.5   0.095793938   1.45849  -0.71294   0.89881  -0.37729
   8   21915.1    456.3   0.029107095   0.43725  -0.65674   0.03794  -0.06711
   9   22381.8    446.8   0.049361302   0.72605  -0.18178  -0.50123   0.66467
  10   23012.6    434.5   0.181669570   2.59891   0.27737   0.86433  -1.33226
  11   23218.7    430.7   0.005213153   0.07392   0.16707   0.20887  -0.04875
  12   23458.5    426.3   0.012500656   0.17543  -0.22194   0.22825  -0.27217
  13   23636.6    423.1   0.017885334   0.24911   0.21025   0.29367  -0.34448
  14   24089.0    415.1   0.112280402   1.53448   0.13244   0.79328  -0.94215
  15   24441.8    409.1   0.053970173   0.72694  -0.33180   0.30436  -0.72403
  16   24951.7    400.8   0.013914144   0.18358   0.29775   0.30649  -0.03152
  17   25104.4    398.3   0.018791173   0.24642   0.40583   0.21469  -0.18876
  18   25875.5    386.5   0.011961222   0.15218   0.04990  -0.23033   0.31087
  19   26383.6    379.0   0.002555340   0.03189  -0.05457   0.10250  -0.13565
  20   26469.0    377.8   0.026573396   0.33051  -0.01877  -0.30789   0.48514
  21   26871.9    372.1   0.028277111   0.34643  -0.15144   0.56561  -0.05983
  22   27165.4    368.1   0.050604160   0.61326   0.27531  -0.11802  -0.72356
  23   27467.0    364.1   0.093192562   1.11698   0.73782  -0.73316   0.18726
  24   27760.9    360.2   0.022929508   0.27192  -0.21276   0.08475  -0.46847
  25   28263.6    353.8   0.012018528   0.13999  -0.18770   0.18609  -0.26482
  26   28431.7    351.7   0.004816099   0.05577   0.00707   0.23038   0.05141
  27   28841.1    346.7   0.024830468   0.28343  -0.26021   0.10176  -0.45318
  28   29008.0    344.7   0.017526863   0.19891   0.00680  -0.09037  -0.43669
  29   29082.8    343.8   0.058220604   0.65905  -0.58249   0.45315  -0.33823
  30   29269.9    341.6   0.069844040   0.78557  -0.14333  -0.17740   0.85648
  31   29748.4    336.2   0.200767860   2.22181   0.44952   0.82323   1.15847
  32   29896.1    334.5   0.058017704   0.63888  -0.15491  -0.03128  -0.78352
  33   30167.5    331.5   0.052249522   0.57019  -0.37566  -0.39380   0.52344
  34   30442.3    328.5   0.076666322   0.82909  -0.08342   0.85942  -0.28901
  35   30602.8    326.8   0.094916782   1.02107   0.85099  -0.23040  -0.49377
  36   30925.1    323.4   0.355009297   3.77924  -0.69238  -0.08770   1.81443
  37   30975.6    322.8   0.110214774   1.17137   0.33263  -0.34802   0.96934
  38   31369.7    318.8   0.056756542   0.59564   0.37395   0.19756  -0.64558
  39   31478.6    317.7   0.291855844   3.05231  -0.24772  -0.90388   1.47443
  40   31839.2    314.1   0.057897413   0.59865   0.21283   0.04568  -0.74247
  41   31983.1    312.7   0.033562791   0.34547  -0.39246  -0.10762   0.42410
  42   32116.3    311.4   0.139424856   1.42919   0.04455  -0.16895   1.18265
  43   32423.1    308.4   0.067289377   0.68323   0.21120  -0.17732  -0.77922
  44   32536.9    307.3   0.006581333   0.06659   0.20369   0.00446   0.15837
  45   32701.6    305.8   0.044511669   0.44811  -0.60033   0.29350  -0.03952
  46   32884.4    304.1   0.009747124   0.09758  -0.24611   0.15750   0.11047
  47   33072.5    302.4   0.089454041   0.89045   0.30467  -0.89058   0.06698
  48   33324.8    300.1   0.046065349   0.45507   0.05564  -0.13573   0.65845
  49   33437.8    299.1   0.001814881   0.01787  -0.01669  -0.12451   0.04568
  50   33562.2    298.0   0.033700705   0.33057   0.46791  -0.30064   0.14576
  51   33739.2    296.4   0.057597032   0.56201   0.13397   0.38301  -0.63037
  52   33912.0    294.9   0.139728734   1.35646  -0.17653   0.15178   1.14117
  53   33971.9    294.4   0.005238005   0.05076  -0.13654  -0.15693  -0.08654
  54   34592.3    289.1   0.142768265   1.35871  -0.40187   0.24821   1.06565
  55   34866.0    286.8   0.011449560   0.10811  -0.22580  -0.09429   0.21962
  56   35002.4    285.7   0.027127027   0.25514   0.19144  -0.04538  -0.46522
  57   35150.9    284.5   0.039123170   0.36641   0.47750  -0.09272  -0.36029
  58   35382.4    282.6   0.069860658   0.65001   0.02630   0.67880   0.43422
  59   35539.9    281.4   0.112706529   1.04402  -0.85248  -0.53229   0.18429
  60   35657.7    280.4   0.095926660   0.88565  -0.27078  -0.42630   0.79410
  61   35782.4    279.5   0.144915565   1.33328   0.76131  -0.20776  -0.84293
  62   35968.1    278.0   0.091016420   0.83306   0.25342   0.14583   0.86462
  63   36028.5    277.6   0.224641359   2.05267  -0.68621   0.26881   1.22863
  64   36282.4    275.6   0.414885127   3.76450  -0.26840   0.48165   1.86023
  65   36379.1    274.9   0.071857697   0.65028  -0.32857   0.46921  -0.56759
  66   36621.8    273.1   0.161099990   1.44821   0.22798  -0.96060   0.68810
  67   36849.4    271.4   0.026360580   0.23550  -0.11166  -0.36016   0.30549
  68   36968.4    270.5   0.276012501   2.45795   0.36514   0.52311   1.43213
  69   37214.6    268.7   0.120235051   1.06364  -0.45155  -0.23428  -0.89713
  70   37572.0    266.2   0.006438326   0.05641   0.07030  -0.22430   0.03409
  71   37648.9    265.6   0.032540791   0.28455   0.01250  -0.22975  -0.48125
  72   37949.9    263.5   0.023871699   0.20708  -0.13316  -0.02840  -0.43422
  73   38506.2    259.7   0.016249431   0.13893  -0.22763   0.20603  -0.21133
  74   38665.7    258.6   0.030965112   0.26365   0.36369   0.23605   0.27505
  75   38727.6    258.2   0.076287649   0.64850   0.18632   0.13598  -0.77155
  76   38877.6    257.2   0.002679845   0.02269  -0.10536  -0.07206  -0.08000
  77   38998.6    256.4   0.041732885   0.35229  -0.21642   0.27695  -0.47828
  78   39082.9    255.9   0.068334396   0.57561   0.30057   0.21780   0.66169
  79   39247.9    254.8   0.047781142   0.40079   0.07900   0.10225   0.61975
  80   39477.4    253.3   0.034568341   0.28827  -0.42546   0.32355   0.05076
  81   39639.6    252.3   0.004619088   0.03836  -0.10530  -0.09860  -0.13249
  82   39668.0    252.1   0.041733727   0.34636  -0.47200   0.29633   0.18910
  83   39773.6    251.4   0.018295000   0.15143   0.02229  -0.31358  -0.22935
  84   39978.7    250.1   0.033996354   0.27995  -0.48021  -0.09343  -0.20154
  85   40042.3    249.7   0.089290372   0.73411  -0.07572   0.23326  -0.82095
  86   40199.4    248.8   0.135793105   1.11208   0.50744   0.39479  -0.83589
  87   40234.5    248.5   0.011629980   0.09516   0.02330   0.28761   0.10907

FINAL SINGLE POINT ENERGY     -5229.695162780516

DIPOLE MOMENT
-------------
                                X             Y             Z
Electronic contribution:      8.90969     -32.04991       1.35437
Nuclear contribution   :    -11.52942      39.66491       2.99729
                        -----------------------------------------
Total Dipole Moment    :     -2.61973       7.61500       4.35166
                        -----------------------------------------
Magnitude (a.u.)       :      9.15359
Magnitude (Debye)      :     23.26657

Rotational constants in cm-1:     0.001778     0.000215     0.000203
Rotational constants in MHz :    53.313171     6.457870     6.078223

                             ****ORCA TERMINATED NORMALLY****
TOTAL RUN TIME: 0 days 0 hours 12 minutes 45 seconds 461 msec
