                         Program Version 4.2.0 -  RELEASE  -
|  1> # ORCA input file
|  2> # SCF done       -202.332765515254          0.000699027838
|  3> ! CAM-B3LYP def2-SVP def2/J RIJCOSX Grid4 TightSCF
|  4> %maxcore 5000
|  5> %tddft
|  6>     Mode sTDDFT
|  7>     Ethresh 5.0
|  8>     maxcore 5000
|  9> end
| 10>
| 11> %pal
| 12>   nprocs 6
| 13>   end
| 14> * xyz 0 1
| 15>    C       -6.90857         0.31423         4.29295
| 16>    C       -6.53199        -0.99562         4.14087
| 17>    C       -6.54465        -1.94702         5.18275
| 18>    N       -6.52542        -2.76805         5.98505
| 19>    C       -6.08722        -1.59762         2.94501
| 20>    N       -5.71736        -2.16869         2.01953
| 21>    C       -7.37626         0.91540         5.53824
| 22>    C       -7.68945         2.27714         5.29675
| 23>    C       -8.15781         3.11804         6.27737
| 24>    C       -8.32490         2.59212         7.56175
| 25>    C       -8.00910         1.23230         7.79569
| 26>    C       -7.53631         0.38161         6.80250
| 27>    S       -8.28913         0.79862         9.45201
| 28>    C       -8.81563         2.40671         9.80994
| 29>    C       -8.78618         3.23632         8.74412
| 30>    C       -7.42651         2.58783         3.88545
| 31>    O       -7.59367         3.66653         3.33974
| 32>    C       -6.92742         1.34985         3.27596
| 33>    C       -6.53255         1.20429         1.97049
| 34>    C       -6.49926         2.13935         0.92809
| 35>    S       -6.98580         3.81250         1.00418
| 36>    C       -6.56969         4.06725        -0.65623
| 37>    C       -6.07443         2.89940        -1.24388
| 38>    C       -6.03758         1.82323        -0.36509
| 39>    S       -5.48599         0.19685        -0.73154
| 40>    C       -4.99882         0.12045        -2.43294
| 41>    O       -4.60677        -0.94121        -2.82765
| 42>    C       -5.04356         1.29405        -3.38834
| 43>    O       -4.69046         1.13921        -4.52531
| 44>    S       -5.58476         2.90846        -2.93388
| 45>    C       -6.71654         5.32081        -1.30135
| 46>    C       -7.25726         6.40341        -0.69605
| 47>    C       -7.43476         7.71053        -1.26285
| 48>    C       -6.89340         8.07736        -2.50806
| 49>    C       -7.09683         9.34572        -2.99116
| 50>    C       -7.81476        10.28995        -2.23041
| 51>    C       -8.35849         9.94083        -1.00065
| 52>    C       -8.16688         8.66014        -0.53112
| 53>    C       -7.79022        11.55637        -2.92168
| 54>    C       -7.05024        11.40546        -4.10775
| 55>    C       -6.61305         9.96607        -4.28261
| 56>    C       -5.09258         9.83903        -4.45651
| 57>    C       -4.32139        10.48290        -3.30988
| 58>    C       -7.37592         9.40868        -5.50830
| 59>    C       -7.24324         7.91059        -5.74829
| 60>    C       -6.83927        12.47877        -4.93639
| 61>    C       -7.36613        13.73835        -4.59913
| 62>    C       -8.11092        13.86593        -3.41555
| 63>    C       -8.32450        12.79220        -2.57896
| 64>    C       -7.10571        14.83994        -5.48753
| 65>    C       -7.57537        16.10308        -5.36053
| 66>    C       -7.25750        17.13627        -6.28022
| 67>    C       -6.45364        17.11776        -7.41429
| 68>    C       -6.44235        18.41930        -7.99186
| 69>    C       -7.27986        19.26527        -7.17695
| 70>    O       -7.59666        20.44058        -7.24641
| 71>    N       -7.74080        18.41938        -6.15513
| 72>    C       -8.61881        18.90185        -5.12559
| 73>    C       -5.62399        18.39609        -9.12219
| 74>    N       -5.14559        17.10960        -9.24414
| 75>    C       -5.62136        16.26762        -8.22190
| 76>    O       -5.32601        15.08801        -8.14288
| 77>    C       -4.27592        16.57906       -10.25626
| 78>    C       -5.33013        19.48907        -9.98549
| 79>    C       -5.91955        20.78520        -9.77323
| 80>    C       -5.45989        21.65037       -10.74737
| 81>    C       -5.72944        23.01462       -10.98253
| 82>    C       -5.10475        23.60885       -12.04718
| 83>    C       -5.15031        24.94213       -12.55670
| 84>    C       -4.32208        25.02889       -13.66362
| 85>    C       -3.73484        23.74596       -13.87661
| 86>    C       -4.19836        22.86719       -12.90376
| 87>    C       -3.93039        21.50959       -12.67215
| 88>    C       -4.55775        20.90897       -11.60324
| 89>    C       -4.50322        19.57902       -11.10321
| 90>    C       -4.10880        26.22325       -14.44614
| 91>    C       -3.31511        26.32235       -15.50871
| 92>    H       -8.38663         4.14950         6.05860
| 93>    H       -7.31040        -0.64543         7.03472
| 94>    H       -9.11941         2.63492        10.81308
| 95>    H       -9.07727         4.27059         8.77761
| 96>    H       -6.17854         0.22378         1.67461
| 97>    H       -6.37558         5.36238        -2.32657
| 98>    H       -7.60929         6.28072         0.32165
| 99>    H       -6.29644         7.36882        -3.05909
|100>    H       -8.91016        10.66343        -0.41834
|101>    H       -8.57977         8.37160         0.42469
|102>    H       -4.80661        10.31302        -5.39731
|103>    H       -4.82477         8.78350        -4.51667
|104>    H       -4.54575        11.54516        -3.24382
|105>    H       -3.25159        10.36698        -3.46700
|106>    H       -4.58234        10.01754        -2.36150
|107>    H       -7.01938         9.94556        -6.38981
|108>    H       -8.43494         9.64965        -5.38214
|109>    H       -6.20357         7.61598        -5.86256
|110>    H       -7.76847         7.64673        -6.66364
|111>    H       -7.68551         7.34504        -4.93241
|112>    H       -6.26697        12.38008        -5.84703
|113>    H       -8.52032        14.82663        -3.14457
|114>    H       -8.89499        12.91107        -1.66977
|115>    H       -6.47078        14.61735        -6.33506
|116>    H       -8.22190        16.37424        -4.53869
|117>    H       -8.80082        19.95577        -5.33841
|118>    H       -8.15778        18.81060        -4.13956
|119>    H       -9.56993        18.36495        -5.13557
|120>    H       -4.71534        16.68807       -11.24932
|121>    H       -4.15744        15.51726       -10.03272
|122>    H       -3.29565        17.05867       -10.22594
|123>    H       -6.60183        21.01983        -8.97687
|124>    H       -6.40561        23.55538       -10.33621
|125>    H       -5.73586        25.74159       -12.14046
|126>    H       -3.04505        23.50030       -14.66320
|127>    H       -3.25368        20.96356       -13.31493
|128>    H       -3.90466        18.80650       -11.54371
|129>    H       -4.65958        27.09211       -14.10738
|130>    H       -2.74788        25.48754       -15.88314
|131>    H       -3.20534        27.24922       -16.04439
|132> *
|133>
|134>                          ****END OF INPUT****

CARTESIAN COORDINATES (ANGSTROEM)
---------------------------------
  C     -6.908570    0.314230    4.292950
  C     -6.531990   -0.995620    4.140870
  C     -6.544650   -1.947020    5.182750
  N     -6.525420   -2.768050    5.985050
  C     -6.087220   -1.597620    2.945010
  N     -5.717360   -2.168690    2.019530
  C     -7.376260    0.915400    5.538240
  C     -7.689450    2.277140    5.296750
  C     -8.157810    3.118040    6.277370
  C     -8.324900    2.592120    7.561750
  C     -8.009100    1.232300    7.795690
  C     -7.536310    0.381610    6.802500
  S     -8.289130    0.798620    9.452010
  C     -8.815630    2.406710    9.809940
  C     -8.786180    3.236320    8.744120
  C     -7.426510    2.587830    3.885450
  O     -7.593670    3.666530    3.339740
  C     -6.927420    1.349850    3.275960
  C     -6.532550    1.204290    1.970490
  C     -6.499260    2.139350    0.928090
  S     -6.985800    3.812500    1.004180
  C     -6.569690    4.067250   -0.656230
  C     -6.074430    2.899400   -1.243880
  C     -6.037580    1.823230   -0.365090
  S     -5.485990    0.196850   -0.731540
  C     -4.998820    0.120450   -2.432940
  O     -4.606770   -0.941210   -2.827650
  C     -5.043560    1.294050   -3.388340
  O     -4.690460    1.139210   -4.525310
  S     -5.584760    2.908460   -2.933880
  C     -6.716540    5.320810   -1.301350
  C     -7.257260    6.403410   -0.696050
  C     -7.434760    7.710530   -1.262850
  C     -6.893400    8.077360   -2.508060
  C     -7.096830    9.345720   -2.991160
  C     -7.814760   10.289950   -2.230410
  C     -8.358490    9.940830   -1.000650
  C     -8.166880    8.660140   -0.531120
  C     -7.790220   11.556370   -2.921680
  C     -7.050240   11.405460   -4.107750
  C     -6.613050    9.966070   -4.282610
  C     -5.092580    9.839030   -4.456510
  C     -4.321390   10.482900   -3.309880
  C     -7.375920    9.408680   -5.508300
  C     -7.243240    7.910590   -5.748290
  C     -6.839270   12.478770   -4.936390
  C     -7.366130   13.738350   -4.599130
  C     -8.110920   13.865930   -3.415550
  C     -8.324500   12.792200   -2.578960
  C     -7.105710   14.839940   -5.487530
  C     -7.575370   16.103080   -5.360530
  C     -7.257500   17.136270   -6.280220
  C     -6.453640   17.117760   -7.414290
  C     -6.442350   18.419300   -7.991860
  C     -7.279860   19.265270   -7.176950
  O     -7.596660   20.440580   -7.246410
  N     -7.740800   18.419380   -6.155130
  C     -8.618810   18.901850   -5.125590
  C     -5.623990   18.396090   -9.122190
  N     -5.145590   17.109600   -9.244140
  C     -5.621360   16.267620   -8.221900
  O     -5.326010   15.088010   -8.142880
  C     -4.275920   16.579060  -10.256260
  C     -5.330130   19.489070   -9.985490
  C     -5.919550   20.785200   -9.773230
  C     -5.459890   21.650370  -10.747370
  C     -5.729440   23.014620  -10.982530
  C     -5.104750   23.608850  -12.047180
  C     -5.150310   24.942130  -12.556700
  C     -4.322080   25.028890  -13.663620
  C     -3.734840   23.745960  -13.876610
  C     -4.198360   22.867190  -12.903760
  C     -3.930390   21.509590  -12.672150
  C     -4.557750   20.908970  -11.603240
  C     -4.503220   19.579020  -11.103210
  C     -4.108800   26.223250  -14.446140
  C     -3.315110   26.322350  -15.508710
  H     -8.386630    4.149500    6.058600
  H     -7.310400   -0.645430    7.034720
  H     -9.119410    2.634920   10.813080
  H     -9.077270    4.270590    8.777610
  H     -6.178540    0.223780    1.674610
  H     -6.375580    5.362380   -2.326570
  H     -7.609290    6.280720    0.321650
  H     -6.296440    7.368820   -3.059090
  H     -8.910160   10.663430   -0.418340
  H     -8.579770    8.371600    0.424690
  H     -4.806610   10.313020   -5.397310
  H     -4.824770    8.783500   -4.516670
  H     -4.545750   11.545160   -3.243820
  H     -3.251590   10.366980   -3.467000
  H     -4.582340   10.017540   -2.361500
  H     -7.019380    9.945560   -6.389810
  H     -8.434940    9.649650   -5.382140
  H     -6.203570    7.615980   -5.862560
  H     -7.768470    7.646730   -6.663640
  H     -7.685510    7.345040   -4.932410
  H     -6.266970   12.380080   -5.847030
  H     -8.520320   14.826630   -3.144570
  H     -8.894990   12.911070   -1.669770
  H     -6.470780   14.617350   -6.335060
  H     -8.221900   16.374240   -4.538690
  H     -8.800820   19.955770   -5.338410
  H     -8.157780   18.810600   -4.139560
  H     -9.569930   18.364950   -5.135570
  H     -4.715340   16.688070  -11.249320
  H     -4.157440   15.517260  -10.032720
  H     -3.295650   17.058670  -10.225940
  H     -6.601830   21.019830   -8.976870
  H     -6.405610   23.555380  -10.336210
  H     -5.735860   25.741590  -12.140460
  H     -3.045050   23.500300  -14.663200
  H     -3.253680   20.963560  -13.314930
  H     -3.904660   18.806500  -11.543710
  H     -4.659580   27.092110  -14.107380
  H     -2.747880   25.487540  -15.883140
  H     -3.205340   27.249220  -16.044390

 Total Charge           Charge          ....    0
 Multiplicity           Mult            ....    1
 Number of Electrons    NEL             ....  556
 Basis Dimension        Dim             .... 1294

ORBITAL ENERGIES
----------------

  NO   OCC          E(Eh)            E(eV)
   0   2.0000     -88.975278     -2421.1404
   1   2.0000     -88.973508     -2421.0922
   2   2.0000     -88.971802     -2421.0458
   3   2.0000     -88.968061     -2420.9440
   4   2.0000     -19.242332      -523.6105
   5   2.0000     -19.240481      -523.5601
   6   2.0000     -19.223925      -523.1096
   7   2.0000     -19.182849      -521.9918
   8   2.0000     -19.178999      -521.8871
   9   2.0000     -14.448224      -393.1562
  10   2.0000     -14.446031      -393.0965
  11   2.0000     -14.415830      -392.2747
  12   2.0000     -14.413223      -392.2037
  13   2.0000     -10.407033      -283.1898
  14   2.0000     -10.406576      -283.1773
  15   2.0000     -10.371773      -282.2303
  16   2.0000     -10.364596      -282.0350
  17   2.0000     -10.364394      -282.0295
  18   2.0000     -10.342093      -281.4227
  19   2.0000     -10.341658      -281.4108
  20   2.0000     -10.340997      -281.3928
  21   2.0000     -10.331689      -281.1395
  22   2.0000     -10.329977      -281.0930
  23   2.0000     -10.328155      -281.0434
  24   2.0000     -10.328041      -281.0403
  25   2.0000     -10.327304      -281.0202
  26   2.0000     -10.327073      -281.0140
  27   2.0000     -10.321655      -280.8665
  28   2.0000     -10.317946      -280.7656
  29   2.0000     -10.316343      -280.7220
  30   2.0000     -10.315499      -280.6990
  31   2.0000     -10.307256      -280.4747
  32   2.0000     -10.303809      -280.3809
  33   2.0000     -10.303343      -280.3682
  34   2.0000     -10.302925      -280.3568
  35   2.0000     -10.301111      -280.3075
  36   2.0000     -10.300711      -280.2966
  37   2.0000     -10.300184      -280.2823
  38   2.0000     -10.299609      -280.2666
  39   2.0000     -10.299440      -280.2620
  40   2.0000     -10.298912      -280.2476
  41   2.0000     -10.295165      -280.1457
  42   2.0000     -10.291925      -280.0575
  43   2.0000     -10.290572      -280.0207
  44   2.0000     -10.289724      -279.9976
  45   2.0000     -10.284667      -279.8600
  46   2.0000     -10.284289      -279.8497
  47   2.0000     -10.284276      -279.8494
  48   2.0000     -10.282764      -279.8082
  49   2.0000     -10.282698      -279.8064
  50   2.0000     -10.282639      -279.8048
  51   2.0000     -10.281802      -279.7820
  52   2.0000     -10.280720      -279.7526
  53   2.0000     -10.280424      -279.7446
  54   2.0000     -10.279472      -279.7186
  55   2.0000     -10.278732      -279.6985
  56   2.0000     -10.278599      -279.6949
  57   2.0000     -10.278582      -279.6944
  58   2.0000     -10.277872      -279.6751
  59   2.0000     -10.276836      -279.6469
  60   2.0000     -10.276152      -279.6283
  61   2.0000     -10.274143      -279.5736
  62   2.0000     -10.273915      -279.5674
  63   2.0000     -10.273597      -279.5588
  64   2.0000     -10.268751      -279.4269
  65   2.0000     -10.268013      -279.4068
  66   2.0000     -10.267407      -279.3904
  67   2.0000     -10.266358      -279.3618
  68   2.0000     -10.266299      -279.3602
  69   2.0000     -10.266222      -279.3581
  70   2.0000     -10.264390      -279.3082
  71   2.0000     -10.261084      -279.2183
  72   2.0000     -10.257528      -279.1215
  73   2.0000     -10.255096      -279.0554
  74   2.0000     -10.250118      -278.9199
  75   2.0000     -10.249613      -278.9062
  76   2.0000     -10.249414      -278.9007
  77   2.0000      -8.069575      -219.5843
  78   2.0000      -8.068362      -219.5513
  79   2.0000      -8.068216      -219.5473
  80   2.0000      -8.064229      -219.4388
  81   2.0000      -6.039481      -164.3426
  82   2.0000      -6.038071      -164.3043
  83   2.0000      -6.037807      -164.2971
  84   2.0000      -6.034738      -164.2136
  85   2.0000      -6.033752      -164.1867
  86   2.0000      -6.033500      -164.1799
  87   2.0000      -6.033457      -164.1787
  88   2.0000      -6.030513      -164.0986
  89   2.0000      -6.030303      -164.0929
  90   2.0000      -6.029414      -164.0687
  91   2.0000      -6.029132      -164.0610
  92   2.0000      -6.025943      -163.9742
  93   2.0000      -1.179904       -32.1068
  94   2.0000      -1.147208       -31.2171
  95   2.0000      -1.139018       -30.9942
  96   2.0000      -1.124194       -30.5909
  97   2.0000      -1.117299       -30.4032
  98   2.0000      -1.053311       -28.6621
  99   2.0000      -1.045298       -28.4440
 100   2.0000      -1.023721       -27.8569
 101   2.0000      -1.019993       -27.7554
 102   2.0000      -1.008925       -27.4542
 103   2.0000      -0.995090       -27.0778
 104   2.0000      -0.993104       -27.0237
 105   2.0000      -0.987102       -26.8604
 106   2.0000      -0.986389       -26.8410
 107   2.0000      -0.960992       -26.1499
 108   2.0000      -0.956808       -26.0361
 109   2.0000      -0.940102       -25.5815
 110   2.0000      -0.938442       -25.5363
 111   2.0000      -0.927797       -25.2466
 112   2.0000      -0.923568       -25.1316
 113   2.0000      -0.912779       -24.8380
 114   2.0000      -0.900545       -24.5051
 115   2.0000      -0.898410       -24.4470
 116   2.0000      -0.896600       -24.3977
 117   2.0000      -0.891541       -24.2601
 118   2.0000      -0.882435       -24.0123
 119   2.0000      -0.873198       -23.7609
 120   2.0000      -0.864775       -23.5317
 121   2.0000      -0.863707       -23.5027
 122   2.0000      -0.854627       -23.2556
 123   2.0000      -0.842200       -22.9174
 124   2.0000      -0.841344       -22.8941
 125   2.0000      -0.840115       -22.8607
 126   2.0000      -0.837378       -22.7862
 127   2.0000      -0.834686       -22.7130
 128   2.0000      -0.828362       -22.5409
 129   2.0000      -0.824383       -22.4326
 130   2.0000      -0.814246       -22.1568
 131   2.0000      -0.807617       -21.9764
 132   2.0000      -0.797295       -21.6955
 133   2.0000      -0.784285       -21.3415
 134   2.0000      -0.770449       -20.9650
 135   2.0000      -0.765543       -20.8315
 136   2.0000      -0.760487       -20.6939
 137   2.0000      -0.759064       -20.6552
 138   2.0000      -0.755721       -20.5642
 139   2.0000      -0.752259       -20.4700
 140   2.0000      -0.742204       -20.1964
 141   2.0000      -0.737243       -20.0614
 142   2.0000      -0.723274       -19.6813
 143   2.0000      -0.711843       -19.3702
 144   2.0000      -0.703225       -19.1357
 145   2.0000      -0.696979       -18.9658
 146   2.0000      -0.693297       -18.8656
 147   2.0000      -0.692360       -18.8401
 148   2.0000      -0.687755       -18.7148
 149   2.0000      -0.680774       -18.5248
 150   2.0000      -0.676490       -18.4082
 151   2.0000      -0.668863       -18.2007
 152   2.0000      -0.667237       -18.1565
 153   2.0000      -0.665771       -18.1165
 154   2.0000      -0.663991       -18.0681
 155   2.0000      -0.660181       -17.9644
 156   2.0000      -0.649761       -17.6809
 157   2.0000      -0.647072       -17.6077
 158   2.0000      -0.644002       -17.5242
 159   2.0000      -0.633861       -17.2482
 160   2.0000      -0.627730       -17.0814
 161   2.0000      -0.622730       -16.9454
 162   2.0000      -0.621925       -16.9234
 163   2.0000      -0.619776       -16.8650
 164   2.0000      -0.604218       -16.4416
 165   2.0000      -0.601788       -16.3755
 166   2.0000      -0.597183       -16.2502
 167   2.0000      -0.596254       -16.2249
 168   2.0000      -0.590470       -16.0675
 169   2.0000      -0.585305       -15.9270
 170   2.0000      -0.581931       -15.8352
 171   2.0000      -0.580000       -15.7826
 172   2.0000      -0.575589       -15.6626
 173   2.0000      -0.568386       -15.4666
 174   2.0000      -0.564803       -15.3691
 175   2.0000      -0.558728       -15.2038
 176   2.0000      -0.556416       -15.1409
 177   2.0000      -0.553278       -15.0554
 178   2.0000      -0.552911       -15.0455
 179   2.0000      -0.549272       -14.9464
 180   2.0000      -0.547692       -14.9034
 181   2.0000      -0.547273       -14.8921
 182   2.0000      -0.544789       -14.8245
 183   2.0000      -0.543302       -14.7840
 184   2.0000      -0.542504       -14.7623
 185   2.0000      -0.540052       -14.6956
 186   2.0000      -0.538434       -14.6515
 187   2.0000      -0.535651       -14.5758
 188   2.0000      -0.533210       -14.5094
 189   2.0000      -0.530156       -14.4263
 190   2.0000      -0.528859       -14.3910
 191   2.0000      -0.527216       -14.3463
 192   2.0000      -0.524636       -14.2761
 193   2.0000      -0.523104       -14.2344
 194   2.0000      -0.520903       -14.1745
 195   2.0000      -0.518193       -14.1007
 196   2.0000      -0.517619       -14.0851
 197   2.0000      -0.509271       -13.8580
 198   2.0000      -0.509017       -13.8511
 199   2.0000      -0.503448       -13.6995
 200   2.0000      -0.502956       -13.6861
 201   2.0000      -0.501440       -13.6449
 202   2.0000      -0.498731       -13.5712
 203   2.0000      -0.496258       -13.5039
 204   2.0000      -0.494764       -13.4632
 205   2.0000      -0.494606       -13.4589
 206   2.0000      -0.493729       -13.4351
 207   2.0000      -0.492525       -13.4023
 208   2.0000      -0.488082       -13.2814
 209   2.0000      -0.486637       -13.2421
 210   2.0000      -0.485789       -13.2190
 211   2.0000      -0.481710       -13.1080
 212   2.0000      -0.479790       -13.0558
 213   2.0000      -0.479037       -13.0352
 214   2.0000      -0.476662       -12.9706
 215   2.0000      -0.472927       -12.8690
 216   2.0000      -0.470071       -12.7913
 217   2.0000      -0.466963       -12.7067
 218   2.0000      -0.464233       -12.6324
 219   2.0000      -0.463209       -12.6046
 220   2.0000      -0.460475       -12.5302
 221   2.0000      -0.458888       -12.4870
 222   2.0000      -0.456364       -12.4183
 223   2.0000      -0.455333       -12.3902
 224   2.0000      -0.454534       -12.3685
 225   2.0000      -0.452380       -12.3099
 226   2.0000      -0.449297       -12.2260
 227   2.0000      -0.448480       -12.2038
 228   2.0000      -0.447497       -12.1770
 229   2.0000      -0.445897       -12.1335
 230   2.0000      -0.442412       -12.0386
 231   2.0000      -0.442118       -12.0307
 232   2.0000      -0.438577       -11.9343
 233   2.0000      -0.437622       -11.9083
 234   2.0000      -0.437008       -11.8916
 235   2.0000      -0.435575       -11.8526
 236   2.0000      -0.433797       -11.8042
 237   2.0000      -0.433337       -11.7917
 238   2.0000      -0.428568       -11.6619
 239   2.0000      -0.425895       -11.5892
 240   2.0000      -0.425667       -11.5830
 241   2.0000      -0.424952       -11.5635
 242   2.0000      -0.423724       -11.5301
 243   2.0000      -0.420396       -11.4395
 244   2.0000      -0.415426       -11.3043
 245   2.0000      -0.412764       -11.2319
 246   2.0000      -0.412150       -11.2152
 247   2.0000      -0.409466       -11.1421
 248   2.0000      -0.405845       -11.0436
 249   2.0000      -0.404699       -11.0124
 250   2.0000      -0.399289       -10.8652
 251   2.0000      -0.392922       -10.6919
 252   2.0000      -0.391621       -10.6565
 253   2.0000      -0.390497       -10.6260
 254   2.0000      -0.388172       -10.5627
 255   2.0000      -0.383796       -10.4436
 256   2.0000      -0.378167       -10.2904
 257   2.0000      -0.375725       -10.2240
 258   2.0000      -0.366427        -9.9710
 259   2.0000      -0.365215        -9.9380
 260   2.0000      -0.349780        -9.5180
 261   2.0000      -0.344614        -9.3774
 262   2.0000      -0.339405        -9.2357
 263   2.0000      -0.335599        -9.1321
 264   2.0000      -0.329761        -8.9732
 265   2.0000      -0.325970        -8.8701
 266   2.0000      -0.324238        -8.8230
 267   2.0000      -0.321272        -8.7423
 268   2.0000      -0.321138        -8.7386
 269   2.0000      -0.316520        -8.6129
 270   2.0000      -0.306801        -8.3485
 271   2.0000      -0.303033        -8.2459
 272   2.0000      -0.296976        -8.0811
 273   2.0000      -0.288399        -7.8477
 274   2.0000      -0.267531        -7.2799
 275   2.0000      -0.261842        -7.1251
 276   2.0000      -0.254538        -6.9263
 277   2.0000      -0.220587        -6.0025
 278   0.0000      -0.101657        -2.7662
 279   0.0000      -0.097358        -2.6492
 280   0.0000      -0.068650        -1.8681
 281   0.0000      -0.062503        -1.7008
 282   0.0000      -0.056786        -1.5452

MULLIKEN ATOMIC CHARGES
-----------------------
   0 C :    0.324456
   1 C :   -0.354425
   2 C :   -0.186953
   3 N :    0.151859
   4 C :   -0.194686
   5 N :    0.153170
   6 C :    0.011554
   7 C :   -0.009412
   8 C :   -0.069203
   9 C :    0.113610
  10 C :   -0.097196
  11 C :   -0.021783
  12 S :    0.143195
  13 C :   -0.049440
  14 C :    0.027933
  15 C :    0.160954
  16 O :   -0.188833
  17 C :   -0.094987
  18 C :   -0.056857
  19 C :   -0.085019
  20 S :    0.197160
  21 C :   -0.059690
  22 C :   -0.028678
  23 C :   -0.015137
  24 S :    0.092766
  25 C :    0.088758
  26 O :   -0.118638
  27 C :    0.083171
  28 O :   -0.131177
  29 S :    0.072913
  30 C :   -0.014897
  31 C :    0.000194
  32 C :    0.119932
  33 C :   -0.085704
  34 C :    0.022105
  35 C :    0.103498
  36 C :   -0.050568
  37 C :   -0.010846
  38 C :    0.097917
  39 C :    0.029599
  40 C :   -0.136356
  41 C :    0.050097
  42 C :    0.024447
  43 C :    0.077960
  44 C :    0.029689
  45 C :   -0.105663
  46 C :    0.118376
  47 C :   -0.009204
  48 C :   -0.041605
  49 C :   -0.008783
  50 C :   -0.001814
  51 C :    0.138564
  52 C :   -0.066207
  53 C :   -0.091869
  54 C :    0.158351
  55 O :   -0.221804
  56 N :   -0.271510
  57 C :    0.123157
  58 C :    0.181752
  59 N :   -0.276157
  60 C :    0.154995
  61 O :   -0.219119
  62 C :    0.128303
  63 C :    0.018527
  64 C :   -0.026824
  65 C :    0.053504
  66 C :    0.003038
  67 C :    0.059740
  68 C :   -0.024519
  69 C :    0.061101
  70 C :   -0.023782
  71 C :    0.046707
  72 C :   -0.003989
  73 C :    0.066483
  74 C :   -0.083057
  75 C :    0.013724
  76 C :   -0.026369
  77 H :   -0.014788
  78 H :   -0.006379
  79 H :    0.038335
  80 H :   -0.007622
  81 H :    0.031426
  82 H :    0.007294
  83 H :   -0.000509
  84 H :   -0.036367
  85 H :   -0.030617
  86 H :   -0.023600
  87 H :    0.005207
  88 H :    0.006836
  89 H :    0.022985
  90 H :    0.013253
  91 H :    0.016691
  92 H :    0.003204
  93 H :    0.005426
  94 H :    0.005952
  95 H :    0.016163
  96 H :    0.017018
  97 H :   -0.018306
  98 H :   -0.031787
  99 H :   -0.036393
 100 H :    0.006479
 101 H :   -0.042494
 102 H :    0.057617
 103 H :    0.030224
 104 H :    0.031275
 105 H :    0.033265
 106 H :    0.054920
 107 H :    0.033580
 108 H :   -0.005244
 109 H :   -0.016167
 110 H :   -0.026688
 111 H :   -0.024679
 112 H :   -0.025597
 113 H :   -0.039136
 114 H :   -0.019405
 115 H :    0.007518
 116 H :    0.020612
Sum of atomic charges:   -0.0000000

LOEWDIN ATOMIC CHARGES
----------------------
   0 C :    0.075272
   1 C :   -0.141721
   2 C :   -0.017661
   3 N :   -0.054115
   4 C :   -0.025722
   5 N :   -0.046998
   6 C :   -0.020866
   7 C :   -0.053791
   8 C :    0.023066
   9 C :   -0.036073
  10 C :   -0.145133
  11 C :   -0.008064
  12 S :    0.432008
  13 C :   -0.149370
  14 C :   -0.058167
  15 C :    0.085573
  16 O :   -0.173957
  17 C :   -0.105963
  18 C :    0.042873
  19 C :   -0.208038
  20 S :    0.525913
  21 C :   -0.161449
  22 C :   -0.232598
  23 C :   -0.182978
  24 S :    0.412508
  25 C :   -0.108952
  26 O :   -0.092494
  27 C :   -0.113521
  28 O :   -0.104385
  29 S :    0.384474
  30 C :   -0.064900
  31 C :    0.020451
  32 C :   -0.034972
  33 C :   -0.008362
  34 C :    0.007151
  35 C :   -0.004677
  36 C :   -0.020108
  37 C :   -0.007559
  38 C :   -0.016458
  39 C :    0.006738
  40 C :   -0.034826
  41 C :   -0.015045
  42 C :   -0.056501
  43 C :   -0.008678
  44 C :   -0.058934
  45 C :   -0.007648
  46 C :   -0.026733
  47 C :   -0.009457
  48 C :   -0.016495
  49 C :    0.035078
  50 C :   -0.055295
  51 C :    0.074249
  52 C :   -0.127293
  53 C :   -0.133535
  54 C :    0.080985
  55 O :   -0.214671
  56 N :   -0.007664
  57 C :    0.026599
  58 C :    0.083948
  59 N :   -0.006556
  60 C :    0.080099
  61 O :   -0.211295
  62 C :    0.027385
  63 C :   -0.076290
  64 C :    0.066613
  65 C :   -0.070623
  66 C :    0.081265
  67 C :   -0.060789
  68 C :    0.017466
  69 C :   -0.059643
  70 C :    0.044098
  71 C :   -0.063629
  72 C :    0.075266
  73 C :   -0.062429
  74 C :    0.017719
  75 C :   -0.020667
  76 C :   -0.054575
  77 H :    0.039356
  78 H :    0.041029
  79 H :    0.029431
  80 H :    0.034950
  81 H :    0.039961
  82 H :    0.024920
  83 H :    0.027367
  84 H :    0.025027
  85 H :    0.028594
  86 H :    0.028692
  87 H :    0.023517
  88 H :    0.019688
  89 H :    0.025883
  90 H :    0.025625
  91 H :    0.023873
  92 H :    0.023023
  93 H :    0.026683
  94 H :    0.020678
  95 H :    0.029545
  96 H :    0.022932
  97 H :    0.032525
  98 H :    0.025100
  99 H :    0.027042
 100 H :    0.036361
 101 H :    0.024204
 102 H :    0.041000
 103 H :    0.024548
 104 H :    0.025021
 105 H :    0.025000
 106 H :    0.039519
 107 H :    0.024480
 108 H :    0.029722
 109 H :    0.038834
 110 H :    0.024635
 111 H :    0.024645
 112 H :    0.034337
 113 H :    0.022446
 114 H :    0.029271
 115 H :    0.017600
 116 H :    0.024460

  Mayer bond orders larger than 0.100000
B(  0-C ,  1-C ) :   1.6187 B(  0-C ,  6-C ) :   0.9964 B(  0-C , 17-C ) :   1.0833
B(  1-C ,  2-C ) :   1.1486 B(  1-C ,  4-C ) :   1.1465 B(  2-C ,  3-N ) :   2.9681
B(  4-C ,  5-N ) :   2.9602 B(  6-C ,  7-C ) :   1.2700 B(  6-C , 11-C ) :   1.4192
B(  7-C ,  8-C ) :   1.4225 B(  7-C , 15-C ) :   0.9649 B(  8-C ,  9-C ) :   1.2442
B(  8-C , 77-H ) :   1.0163 B(  9-C , 10-C ) :   1.3041 B(  9-C , 14-C ) :   1.1721
B( 10-C , 11-C ) :   1.3198 B( 10-C , 12-S ) :   1.1008 B( 11-C , 78-H ) :   0.9807
B( 12-S , 13-C ) :   1.1283 B( 13-C , 14-C ) :   1.6266 B( 13-C , 79-H ) :   0.9692
B( 14-C , 80-H ) :   0.9990 B( 15-C , 16-O ) :   2.1164 B( 15-C , 17-C ) :   0.9749
B( 17-C , 18-C ) :   1.5372 B( 18-C , 19-C ) :   1.2774 B( 18-C , 81-H ) :   0.9248
B( 19-C , 20-S ) :   1.0883 B( 19-C , 23-C ) :   1.4292 B( 20-S , 21-C ) :   1.1204
B( 21-C , 22-C ) :   1.4544 B( 21-C , 30-C ) :   1.1765 B( 22-C , 23-C ) :   1.3786
B( 22-C , 29-S ) :   0.9591 B( 23-C , 24-S ) :   0.9993 B( 24-S , 25-C ) :   1.0478
B( 24-S , 26-O ) :   0.1336 B( 25-C , 26-O ) :   2.1719 B( 25-C , 27-C ) :   0.7691
B( 27-C , 28-O ) :   2.1569 B( 27-C , 29-S ) :   1.0567 B( 28-O , 29-S ) :   0.1409
B( 30-C , 31-C ) :   1.6531 B( 30-C , 82-H ) :   0.9587 B( 31-C , 32-C ) :   1.0867
B( 31-C , 83-H ) :   0.9836 B( 32-C , 33-C ) :   1.2833 B( 32-C , 37-C ) :   1.3245
B( 33-C , 34-C ) :   1.4251 B( 33-C , 84-H ) :   0.9920 B( 34-C , 35-C ) :   1.3612
B( 34-C , 40-C ) :   0.9179 B( 35-C , 36-C ) :   1.3383 B( 35-C , 38-C ) :   1.0067
B( 36-C , 37-C ) :   1.3773 B( 36-C , 85-H ) :   0.9911 B( 37-C , 86-H ) :   0.9953
B( 38-C , 39-C ) :   1.3756 B( 38-C , 48-C ) :   1.3183 B( 39-C , 40-C ) :   0.9245
B( 39-C , 45-C ) :   1.3666 B( 40-C , 41-C ) :   1.0336 B( 40-C , 43-C ) :   1.0119
B( 41-C , 42-C ) :   1.1038 B( 41-C , 87-H ) :   0.9392 B( 41-C , 88-H ) :   0.9384
B( 42-C , 89-H ) :   0.9633 B( 42-C , 90-H ) :   0.9649 B( 42-C , 91-H ) :   0.9646
B( 43-C , 44-C ) :   1.1156 B( 43-C , 92-H ) :   0.9377 B( 43-C , 93-H ) :   0.9387
B( 44-C , 94-H ) :   0.9628 B( 44-C , 95-H ) :   0.9595 B( 44-C , 96-H ) :   0.9605
B( 45-C , 46-C ) :   1.2839 B( 45-C , 97-H ) :   1.0190 B( 46-C , 47-C ) :   1.3294
B( 46-C , 49-C ) :   1.0742 B( 47-C , 48-C ) :   1.4137 B( 47-C , 98-H ) :   0.9843
B( 48-C , 99-H ) :   0.9890 B( 49-C , 50-C ) :   1.5978 B( 49-C ,100-H ) :   0.9721
B( 50-C , 51-C ) :   1.1544 B( 50-C ,101-H ) :   0.9555 B( 51-C , 52-C ) :   1.3468
B( 51-C , 56-N ) :   1.1555 B( 52-C , 53-C ) :   1.2215 B( 52-C , 60-C ) :   1.0035
B( 53-C , 54-C ) :   0.9971 B( 53-C , 58-C ) :   1.3554 B( 54-C , 55-O ) :   2.0156
B( 54-C , 56-N ) :   1.0624 B( 55-O ,108-H ) :   0.1167 B( 56-N , 57-C ) :   0.9713
B( 57-C ,102-H ) :   0.9495 B( 57-C ,103-H ) :   0.9719 B( 57-C ,104-H ) :   0.9717
B( 58-C , 59-N ) :   1.1908 B( 58-C , 63-C ) :   1.0715 B( 59-N , 60-C ) :   1.0514
B( 59-N , 62-C ) :   0.9702 B( 60-C , 61-O ) :   2.0211 B( 61-O ,100-H ) :   0.1098
B( 62-C ,105-H ) :   0.9693 B( 62-C ,106-H ) :   0.9433 B( 62-C ,107-H ) :   0.9691
B( 63-C , 64-C ) :   1.1613 B( 63-C , 74-C ) :   1.4134 B( 64-C , 65-C ) :   1.4092
B( 64-C ,108-H ) :   0.9841 B( 65-C , 66-C ) :   1.1315 B( 65-C , 73-C ) :   1.1349
B( 66-C , 67-C ) :   1.4436 B( 66-C ,109-H ) :   1.0085 B( 67-C , 68-C ) :   1.1033
B( 67-C , 71-C ) :   1.1281 B( 68-C , 69-C ) :   1.4763 B( 68-C ,110-H ) :   1.0174
B( 69-C , 70-C ) :   1.1742 B( 69-C , 75-C ) :   1.0835 B( 70-C , 71-C ) :   1.4006
B( 70-C ,111-H ) :   1.0086 B( 71-C , 72-C ) :   1.1606 B( 72-C , 73-C ) :   1.4015
B( 72-C ,112-H ) :   1.0046 B( 73-C , 74-C ) :   1.1077 B( 74-C ,113-H ) :   1.0221
B( 75-C , 76-C ) :   1.9354 B( 75-C ,114-H ) :   0.9662 B( 76-C ,115-H ) :   0.9528
B( 76-C ,116-H ) :   0.9496

-----------------------------------------------------------------------------
         ABSORPTION SPECTRUM VIA TRANSITION ELECTRIC DIPOLE MOMENTS
-----------------------------------------------------------------------------
State   Energy  Wavelength   fosc         T2         TX        TY        TZ
        (cm-1)    (nm)                  (au**2)     (au)      (au)      (au)
-----------------------------------------------------------------------------
   0    8386.9   1192.3   0.048967559   1.92213   0.35333   0.96410  -0.93156
   1   16309.9    613.1   1.672961378  33.76841   1.04667   4.07732  -4.00604
   2   16912.7    591.3   0.593257890  11.54800   0.07673   2.74277  -2.00482
   3   19034.1    525.4   0.086638524   1.49849   0.98252  -0.68999   0.23885
   4   20852.7    479.6   0.544159796   8.59093   0.52124   1.76768  -2.27916
   5   22454.3    445.3   0.221725940   3.25082  -0.23445  -1.53152   0.92213
   6   25077.2    398.8   0.052354810   0.68731   0.30810  -0.73706  -0.22163
   7   26155.5    382.3   0.156425317   1.96888  -0.22247   1.38531  -0.01727
   8   26476.1    377.7   0.043943873   0.54641  -0.20850  -0.42817   0.56534
   9   26672.6    374.9   0.002892105   0.03570  -0.11532  -0.14744   0.02569
  10   26994.9    370.4   0.097456909   1.18852   0.29017  -0.46693  -0.94143
  11   27576.5    362.6   0.149071346   1.77963  -0.56606   0.90626   0.79869
  12   27772.5    360.1   0.087317013   1.03505   0.38753   0.21986  -0.91462
  13   28005.6    357.1   0.167579704   1.96994  -0.42879  -0.50932   1.23558
  14   28274.6    353.7   0.002263595   0.02636  -0.11044   0.02275   0.11679
  15   28303.5    353.3   0.002443929   0.02843  -0.08004  -0.00660  -0.14825
  16   28935.6    345.6   0.224537898   2.55466  -0.10265   1.59256   0.08871
  17   29211.8    342.3   0.366335765   4.12855   0.37412  -1.99641  -0.05401
  18   29589.5    338.0   0.072704499   0.80891  -0.11030   0.85225  -0.26535
  19   29698.7    336.7   0.098836999   1.09561   0.30281  -0.97155  -0.24498
  20   29848.3    335.0   0.000055401   0.00061   0.01593  -0.01699   0.00828
  21   30114.8    332.1   0.010916646   0.11934  -0.13760   0.23291   0.21485
  22   30485.8    328.0   0.173300074   1.87144   0.37810  -1.29657   0.21772
  23   30785.6    324.8   0.185349933   1.98208  -0.59166  -0.57255   1.14202
  24   30821.8    324.4   0.083805963   0.89514   0.33949   0.39222  -0.79123
  25   31590.8    316.5   0.010855727   0.11313  -0.11407  -0.13678   0.28532
  26   31710.0    315.4   0.009327830   0.09684  -0.11652   0.28726   0.02736
  27   32502.2    307.7   0.226785628   2.29709   0.59123   0.35187  -1.35046
  28   32750.9    305.3   0.112739759   1.13326   0.25587  -0.99553  -0.27695
  29   33022.6    302.8   0.611467027   6.09590   0.74941  -1.61239  -1.71304
  30   33471.5    298.8   0.000216154   0.00213  -0.04220   0.01854  -0.00105
  31   33599.2    297.6   0.101013223   0.98975  -0.34361   0.30396   0.88278
  32   33673.0    297.0   0.002062625   0.02017   0.08050  -0.08344  -0.08199
  33   34070.4    293.5   0.066126833   0.63896  -0.38544   0.34290   0.61059
  34   34166.1    292.7   0.040468823   0.38994  -0.29327   0.25256   0.49005
  35   34813.3    287.2   0.053620140   0.50706   0.16165  -0.69140  -0.05384
  36   35621.5    280.7   0.062901671   0.58133   0.14338  -0.73783   0.12799
  37   35803.6    279.3   0.012961363   0.11918   0.09059  -0.31419  -0.11072
  38   36085.6    277.1   0.000287167   0.00262   0.02215  -0.01599   0.04328
  39   36184.1    276.4   0.000376770   0.00343  -0.02038   0.04923   0.02428
  40   36602.8    273.2   0.191946058   1.72640  -0.09456  -1.24905   0.39666
  41   36929.5    270.8   0.107315049   0.95667   0.30132   0.55398  -0.74765
  42   36933.5    270.8   0.258019325   2.29989   0.26397   1.08662  -1.02444
  43   37450.9    267.0   0.598312101   5.25945   0.09166   1.99158  -1.13342
  44   37918.5    263.7   0.109470903   0.95044  -0.05237   0.95502  -0.18876
  45   38041.7    262.9   0.007283738   0.06303   0.01711   0.11835  -0.22076
  46   38211.5    261.7   0.045298916   0.39027  -0.01618   0.55027  -0.29532
  47   38478.8    259.9   0.055382757   0.47384  -0.37651   0.23133   0.52779
  48   38534.2    259.5   0.020338730   0.17376   0.04387   0.27931  -0.30630
  49   38648.7    258.7   0.129506460   1.10314   0.01000  -0.69967   0.78327
  50   38880.8    257.2   0.001262015   0.01069  -0.02322   0.09311   0.03843
  51   38966.8    256.6   0.000058629   0.00050  -0.01764  -0.00620   0.01207
  52   39015.8    256.3   0.000757569   0.00639   0.01305  -0.06282   0.04771
  53   39277.0    254.6   0.070845336   0.59381  -0.24387  -0.49700   0.53603
  54   39587.9    252.6   0.209528098   1.74243  -0.02738   1.02092  -0.83631
  55   39806.4    251.2   0.050451168   0.41725  -0.05681  -0.54026   0.34949
  56   39838.8    251.0   0.002561298   0.02117  -0.08547  -0.07294   0.09241
  57   39970.9    250.2   0.000661588   0.00545  -0.02371   0.05848  -0.03831
  58   40295.2    248.2   0.022180514   0.18121   0.03803   0.32614  -0.27092

FINAL SINGLE POINT ENERGY     -4646.362191293540

DIPOLE MOMENT
-------------
                                X             Y             Z
Electronic contribution:     -4.82270    -133.06621      83.53790
Nuclear contribution   :      3.60747     137.43678     -82.48972
                        -----------------------------------------
Total Dipole Moment    :     -1.21523       4.37056       1.04818
                        -----------------------------------------
Magnitude (a.u.)       :      4.65589
Magnitude (Debye)      :     11.83433

Rotational constants in cm-1:     0.001956     0.000145     0.000136
Rotational constants in MHz :    58.632065     4.348345     4.087719

                             ****ORCA TERMINATED NORMALLY****
TOTAL RUN TIME: 0 days 0 hours 13 minutes 45 seconds 103 msec
