                         Program Version 4.2.0 -  RELEASE  -
|  1> # ORCA input file
|  2> # SCF done       -207.707603821450          0.000932117792
|  3> ! CAM-B3LYP def2-SVP def2/J RIJCOSX Grid4 TightSCF
|  4> %maxcore 5000
|  5> %tddft
|  6>     Mode sTDDFT
|  7>     Ethresh 5.0
|  8>     maxcore 5000
|  9> end
| 10>
| 11> %pal
| 12>   nprocs 6
| 13>   end
| 14> * xyz 0 1
| 15>    C       -1.97326        -1.87858         1.14681
| 16>    C       -1.93889        -3.07546         1.81207
| 17>    C       -0.76154        -3.81079         2.06063
| 18>    N        0.16417        -4.44760         2.29481
| 19>    C       -3.08017        -3.70419         2.35064
| 20>    N       -3.98741        -4.24011         2.80582
| 21>    C       -0.82491        -1.16947         0.59066
| 22>    C       -1.26484         0.07134         0.05782
| 23>    C       -0.41502         0.95759        -0.55995
| 24>    C        0.93035         0.59978        -0.66965
| 25>    C        1.36453        -0.63461        -0.12782
| 26>    C        0.50658        -1.52769         0.50533
| 27>    S        3.06546        -0.87048        -0.37554
| 28>    C        3.16510         0.66486        -1.20110
| 29>    C        1.98610         1.32555        -1.28395
| 30>   Br        4.81598         1.24445        -1.86839
| 31>    C       -2.70776         0.18104         0.24576
| 32>    O       -3.43125         1.12407        -0.07763
| 33>    C       -3.14306        -1.06833         0.88132
| 34>    C       -4.47336        -1.35301         1.06860
| 35>    N       -5.38527        -0.45051         0.68258
| 36>    C       -6.73400        -0.51963         0.68565
| 37>    S       -7.62380        -1.77429         1.47735
| 38>    C       -9.10107        -1.00284         0.98100
| 39>    N      -10.30841        -1.61267         1.35704
| 40>    O      -11.34216        -1.07361         1.01390
| 41>    O      -10.22180        -2.64110         2.00240
| 42>    C       -8.91704         0.13951         0.25202
| 43>    C       -7.55385         0.44116         0.05991
| 44>    C       -6.99699         1.51567        -0.69681
| 45>    C       -7.65138         2.55664        -1.26447
| 46>    C       -6.98495         3.57380        -2.00887
| 47>    C       -5.66059         3.47830        -2.50918
| 48>    C       -4.96901         4.61938        -3.05507
| 49>    N       -3.66099         4.53545        -3.30567
| 50>    C       -3.03379         3.39104        -3.14435
| 51>    C       -3.77643         2.20714        -2.84091
| 52>    N       -5.04304         2.28747        -2.52013
| 53>    C       -3.14548         0.94012        -2.88100
| 54>    N       -2.58999        -0.06231        -2.90010
| 55>    C       -1.62660         3.32914        -3.25194
| 56>    N       -0.48502         3.21905        -3.27532
| 57>    C       -5.61462         5.87962        -3.27277
| 58>    C       -6.97623         5.92715        -2.87911
| 59>    C       -7.63528         4.80301        -2.26037
| 60>    N       -8.90288         5.08166        -1.95415
| 61>    S       -9.24375         6.58263        -2.40323
| 62>    N       -7.79698         6.96396        -3.00148
| 63>    C       -4.86267         6.92585        -3.81922
| 64>    C       -5.13525         8.27062        -3.97410
| 65>    C       -4.19833         9.17476        -4.53442
| 66>    C       -4.58363        10.48250        -4.50187
| 67>    C       -5.84443        10.66797        -3.90147
| 68>    S       -6.55290         9.13996        -3.44435
| 69>    C       -6.49312        11.86790        -3.63451
| 70>    C       -6.07295        13.17533        -3.94965
| 71>    C       -6.91868        14.14691        -3.49527
| 72>    C       -8.04169        13.64934        -2.79858
| 73>    S       -7.99776        11.90286        -2.75285
| 74>    C       -9.02297        14.39610        -2.17506
| 75>    C      -10.09879        13.83393        -1.49366
| 76>    C      -11.05060        14.47866        -0.73700
| 77>    C      -11.10879        15.80990        -0.19663
| 78>    C      -10.04262        16.61639         0.12846
| 79>    C      -10.17329        17.89811         0.69826
| 80>    N      -10.22201        18.95660         1.14143
| 81>    C       -8.69309        16.22087         0.04349
| 82>    N       -7.58008        15.93746         0.04117
| 83>    C      -12.50031        16.07057         0.16971
| 84>    C      -13.23344        14.86226         0.05356
| 85>    C      -12.33967        13.80197        -0.45562
| 86>    O      -12.60315        12.63483        -0.64586
| 87>    C      -14.56671        14.77530         0.36982
| 88>    C      -15.21064        15.93740         0.81000
| 89>    C      -14.47351        17.14111         0.90804
| 90>    C      -13.12109        17.22753         0.59664
| 91>    S      -15.46575        18.45546         1.46040
| 92>    C      -16.83842        17.38418         1.55580
| 93>    C      -16.56975        16.10800         1.19106
| 94>   Br      -18.49592        18.05305         2.12416
| 95>    H       -0.76932         1.89363        -0.96032
| 96>    H        0.88332        -2.45910         0.89443
| 97>    H        1.85217         2.27503        -1.76964
| 98>    H       -4.82746        -2.28496         1.48987
| 99>    H       -4.94942         0.40288         0.27954
|100>    H       -9.73627         0.71957        -0.13124
|101>    H       -5.92801         1.48793        -0.84191
|102>    H       -8.71052         2.71171        -1.11624
|103>    H       -3.87002         6.62534        -4.13530
|104>    H       -3.26091         8.82925        -4.93328
|105>    H       -3.99033        11.29852        -4.87268
|106>    H       -5.16798        13.36884        -4.49651
|107>    H       -6.76177        15.20258        -3.62512
|108>    H       -8.93273        15.47038        -2.24562
|109>    H      -10.26552        12.76783        -1.61999
|110>    H      -15.09823        13.84085         0.28145
|111>    H      -12.60248        18.16790         0.68336
|112>    H      -17.29855        15.31821         1.18985
|113> *
|114>
|115>                          ****END OF INPUT****

CARTESIAN COORDINATES (ANGSTROEM)
---------------------------------
  C     -1.973260   -1.878580    1.146810
  C     -1.938890   -3.075460    1.812070
  C     -0.761540   -3.810790    2.060630
  N      0.164170   -4.447600    2.294810
  C     -3.080170   -3.704190    2.350640
  N     -3.987410   -4.240110    2.805820
  C     -0.824910   -1.169470    0.590660
  C     -1.264840    0.071340    0.057820
  C     -0.415020    0.957590   -0.559950
  C      0.930350    0.599780   -0.669650
  C      1.364530   -0.634610   -0.127820
  C      0.506580   -1.527690    0.505330
  S      3.065460   -0.870480   -0.375540
  C      3.165100    0.664860   -1.201100
  C      1.986100    1.325550   -1.283950
  Br     4.815980    1.244450   -1.868390
  C     -2.707760    0.181040    0.245760
  O     -3.431250    1.124070   -0.077630
  C     -3.143060   -1.068330    0.881320
  C     -4.473360   -1.353010    1.068600
  N     -5.385270   -0.450510    0.682580
  C     -6.734000   -0.519630    0.685650
  S     -7.623800   -1.774290    1.477350
  C     -9.101070   -1.002840    0.981000
  N    -10.308410   -1.612670    1.357040
  O    -11.342160   -1.073610    1.013900
  O    -10.221800   -2.641100    2.002400
  C     -8.917040    0.139510    0.252020
  C     -7.553850    0.441160    0.059910
  C     -6.996990    1.515670   -0.696810
  C     -7.651380    2.556640   -1.264470
  C     -6.984950    3.573800   -2.008870
  C     -5.660590    3.478300   -2.509180
  C     -4.969010    4.619380   -3.055070
  N     -3.660990    4.535450   -3.305670
  C     -3.033790    3.391040   -3.144350
  C     -3.776430    2.207140   -2.840910
  N     -5.043040    2.287470   -2.520130
  C     -3.145480    0.940120   -2.881000
  N     -2.589990   -0.062310   -2.900100
  C     -1.626600    3.329140   -3.251940
  N     -0.485020    3.219050   -3.275320
  C     -5.614620    5.879620   -3.272770
  C     -6.976230    5.927150   -2.879110
  C     -7.635280    4.803010   -2.260370
  N     -8.902880    5.081660   -1.954150
  S     -9.243750    6.582630   -2.403230
  N     -7.796980    6.963960   -3.001480
  C     -4.862670    6.925850   -3.819220
  C     -5.135250    8.270620   -3.974100
  C     -4.198330    9.174760   -4.534420
  C     -4.583630   10.482500   -4.501870
  C     -5.844430   10.667970   -3.901470
  S     -6.552900    9.139960   -3.444350
  C     -6.493120   11.867900   -3.634510
  C     -6.072950   13.175330   -3.949650
  C     -6.918680   14.146910   -3.495270
  C     -8.041690   13.649340   -2.798580
  S     -7.997760   11.902860   -2.752850
  C     -9.022970   14.396100   -2.175060
  C    -10.098790   13.833930   -1.493660
  C    -11.050600   14.478660   -0.737000
  C    -11.108790   15.809900   -0.196630
  C    -10.042620   16.616390    0.128460
  C    -10.173290   17.898110    0.698260
  N    -10.222010   18.956600    1.141430
  C     -8.693090   16.220870    0.043490
  N     -7.580080   15.937460    0.041170
  C    -12.500310   16.070570    0.169710
  C    -13.233440   14.862260    0.053560
  C    -12.339670   13.801970   -0.455620
  O    -12.603150   12.634830   -0.645860
  C    -14.566710   14.775300    0.369820
  C    -15.210640   15.937400    0.810000
  C    -14.473510   17.141110    0.908040
  C    -13.121090   17.227530    0.596640
  S    -15.465750   18.455460    1.460400
  C    -16.838420   17.384180    1.555800
  C    -16.569750   16.108000    1.191060
  Br   -18.495920   18.053050    2.124160
  H     -0.769320    1.893630   -0.960320
  H      0.883320   -2.459100    0.894430
  H      1.852170    2.275030   -1.769640
  H     -4.827460   -2.284960    1.489870
  H     -4.949420    0.402880    0.279540
  H     -9.736270    0.719570   -0.131240
  H     -5.928010    1.487930   -0.841910
  H     -8.710520    2.711710   -1.116240
  H     -3.870020    6.625340   -4.135300
  H     -3.260910    8.829250   -4.933280
  H     -3.990330   11.298520   -4.872680
  H     -5.167980   13.368840   -4.496510
  H     -6.761770   15.202580   -3.625120
  H     -8.932730   15.470380   -2.245620
  H    -10.265520   12.767830   -1.619990
  H    -15.098230   13.840850    0.281450
  H    -12.602480   18.167900    0.683360
  H    -17.298550   15.318210    1.189850

 Total Charge           Charge          ....    0
 Multiplicity           Mult            ....    1
 Number of Electrons    NEL             ....  636
 Basis Dimension        Dim             .... 1270

ORBITAL ENERGIES
----------------

  NO   OCC          E(Eh)            E(eV)
   0   2.0000    -482.884919    -13139.9667
   1   2.0000    -482.883685    -13139.9331
   2   2.0000     -89.053960     -2423.2815
   3   2.0000     -88.998343     -2421.7680
   4   2.0000     -88.975556     -2421.1480
   5   2.0000     -88.974504     -2421.1193
   6   2.0000     -88.974129     -2421.1091
   7   2.0000     -88.973468     -2421.0911
   8   2.0000     -62.562614     -1702.4153
   9   2.0000     -62.561393     -1702.3821
  10   2.0000     -56.396561     -1534.6285
  11   2.0000     -56.395339     -1534.5952
  12   2.0000     -56.393851     -1534.5547
  13   2.0000     -56.393817     -1534.5538
  14   2.0000     -56.392629     -1534.5215
  15   2.0000     -56.392598     -1534.5206
  16   2.0000     -19.245129      -523.6866
  17   2.0000     -19.244395      -523.6666
  18   2.0000     -19.241491      -523.5876
  19   2.0000     -19.212225      -522.7912
  20   2.0000     -14.656654      -398.8278
  21   2.0000     -14.499690      -394.5566
  22   2.0000     -14.472878      -393.8270
  23   2.0000     -14.467766      -393.6879
  24   2.0000     -14.465877      -393.6365
  25   2.0000     -14.462011      -393.5313
  26   2.0000     -14.446661      -393.1136
  27   2.0000     -14.439413      -392.9164
  28   2.0000     -14.422700      -392.4616
  29   2.0000     -14.417588      -392.3225
  30   2.0000     -14.413735      -392.2177
  31   2.0000     -14.412218      -392.1764
  32   2.0000     -10.388396      -282.6826
  33   2.0000     -10.388014      -282.6722
  34   2.0000     -10.386314      -282.6260
  35   2.0000     -10.382326      -282.5175
  36   2.0000     -10.375715      -282.3376
  37   2.0000     -10.362648      -281.9820
  38   2.0000     -10.358940      -281.8811
  39   2.0000     -10.357657      -281.8462
  40   2.0000     -10.357222      -281.8343
  41   2.0000     -10.357081      -281.8305
  42   2.0000     -10.355887      -281.7980
  43   2.0000     -10.355020      -281.7744
  44   2.0000     -10.351298      -281.6731
  45   2.0000     -10.349575      -281.6263
  46   2.0000     -10.345997      -281.5289
  47   2.0000     -10.341478      -281.4059
  48   2.0000     -10.340463      -281.3783
  49   2.0000     -10.340422      -281.3772
  50   2.0000     -10.340373      -281.3758
  51   2.0000     -10.339931      -281.3638
  52   2.0000     -10.339259      -281.3455
  53   2.0000     -10.335790      -281.2511
  54   2.0000     -10.334398      -281.2133
  55   2.0000     -10.328461      -281.0517
  56   2.0000     -10.327287      -281.0198
  57   2.0000     -10.325018      -280.9580
  58   2.0000     -10.324215      -280.9362
  59   2.0000     -10.321588      -280.8647
  60   2.0000     -10.320467      -280.8342
  61   2.0000     -10.319784      -280.8156
  62   2.0000     -10.316761      -280.7333
  63   2.0000     -10.316740      -280.7328
  64   2.0000     -10.315378      -280.6957
  65   2.0000     -10.313817      -280.6532
  66   2.0000     -10.313741      -280.6511
  67   2.0000     -10.313129      -280.6345
  68   2.0000     -10.312388      -280.6143
  69   2.0000     -10.312154      -280.6080
  70   2.0000     -10.311797      -280.5983
  71   2.0000     -10.308816      -280.5171
  72   2.0000     -10.308438      -280.5069
  73   2.0000     -10.307364      -280.4776
  74   2.0000     -10.306985      -280.4673
  75   2.0000     -10.305836      -280.4360
  76   2.0000     -10.305767      -280.4342
  77   2.0000     -10.304606      -280.4026
  78   2.0000     -10.303787      -280.3803
  79   2.0000     -10.303157      -280.3631
  80   2.0000     -10.300522      -280.2915
  81   2.0000     -10.299768      -280.2709
  82   2.0000     -10.298872      -280.2466
  83   2.0000     -10.297878      -280.2195
  84   2.0000     -10.295653      -280.1590
  85   2.0000     -10.294030      -280.1148
  86   2.0000     -10.293218      -280.0927
  87   2.0000     -10.290780      -280.0263
  88   2.0000      -8.792038      -239.2435
  89   2.0000      -8.790833      -239.2107
  90   2.0000      -8.145109      -221.6397
  91   2.0000      -8.093646      -220.2393
  92   2.0000      -8.071576      -219.6387
  93   2.0000      -8.070553      -219.6109
  94   2.0000      -8.070526      -219.6102
  95   2.0000      -8.068161      -219.5458
  96   2.0000      -6.628305      -180.3653
  97   2.0000      -6.627106      -180.3327
  98   2.0000      -6.613784      -179.9702
  99   2.0000      -6.613594      -179.9650
 100   2.0000      -6.612593      -179.9378
 101   2.0000      -6.612372      -179.9318
 102   2.0000      -6.116246      -166.4315
 103   2.0000      -6.108525      -166.2214
 104   2.0000      -6.107724      -166.1996
 105   2.0000      -6.063265      -164.9898
 106   2.0000      -6.058869      -164.8702
 107   2.0000      -6.055160      -164.7693
 108   2.0000      -6.041247      -164.3907
 109   2.0000      -6.040188      -164.3619
 110   2.0000      -6.040131      -164.3603
 111   2.0000      -6.037908      -164.2998
 112   2.0000      -6.036973      -164.2744
 113   2.0000      -6.036080      -164.2501
 114   2.0000      -6.035950      -164.2466
 115   2.0000      -6.033499      -164.1798
 116   2.0000      -6.032815      -164.1612
 117   2.0000      -6.031760      -164.1325
 118   2.0000      -6.031722      -164.1315
 119   2.0000      -6.029366      -164.0674
 120   2.0000      -2.744216       -74.6739
 121   2.0000      -2.743027       -74.6416
 122   2.0000      -2.740079       -74.5613
 123   2.0000      -2.739954       -74.5579
 124   2.0000      -2.738888       -74.5289
 125   2.0000      -2.738741       -74.5249
 126   2.0000      -2.728407       -74.2437
 127   2.0000      -2.728391       -74.2433
 128   2.0000      -2.727199       -74.2108
 129   2.0000      -2.727183       -74.2104
 130   2.0000      -1.326939       -36.1078
 131   2.0000      -1.156349       -31.4659
 132   2.0000      -1.152450       -31.3598
 133   2.0000      -1.146310       -31.1927
 134   2.0000      -1.129763       -30.7424
 135   2.0000      -1.126614       -30.6567
 136   2.0000      -1.109642       -30.1949
 137   2.0000      -1.055482       -28.7211
 138   2.0000      -1.028753       -27.9938
 139   2.0000      -1.027090       -27.9485
 140   2.0000      -1.024610       -27.8810
 141   2.0000      -1.021149       -27.7869
 142   2.0000      -1.018060       -27.7028
 143   2.0000      -1.017010       -27.6742
 144   2.0000      -1.015621       -27.6365
 145   2.0000      -1.011501       -27.5243
 146   2.0000      -1.009236       -27.4627
 147   2.0000      -1.000293       -27.2194
 148   2.0000      -0.999223       -27.1902
 149   2.0000      -0.993988       -27.0478
 150   2.0000      -0.991744       -26.9867
 151   2.0000      -0.987729       -26.8775
 152   2.0000      -0.987066       -26.8594
 153   2.0000      -0.945388       -25.7253
 154   2.0000      -0.943118       -25.6636
 155   2.0000      -0.935847       -25.4657
 156   2.0000      -0.925710       -25.1898
 157   2.0000      -0.918393       -24.9907
 158   2.0000      -0.917549       -24.9678
 159   2.0000      -0.912158       -24.8211
 160   2.0000      -0.906692       -24.6724
 161   2.0000      -0.903942       -24.5975
 162   2.0000      -0.891029       -24.2461
 163   2.0000      -0.887809       -24.1585
 164   2.0000      -0.884445       -24.0670
 165   2.0000      -0.884264       -24.0620
 166   2.0000      -0.876183       -23.8421
 167   2.0000      -0.871522       -23.7153
 168   2.0000      -0.856456       -23.3054
 169   2.0000      -0.855623       -23.2827
 170   2.0000      -0.850595       -23.1459
 171   2.0000      -0.838550       -22.8181
 172   2.0000      -0.838053       -22.8046
 173   2.0000      -0.831203       -22.6182
 174   2.0000      -0.827776       -22.5249
 175   2.0000      -0.814021       -22.1506
 176   2.0000      -0.805833       -21.9278
 177   2.0000      -0.796232       -21.6666
 178   2.0000      -0.779793       -21.2193
 179   2.0000      -0.768019       -20.8989
 180   2.0000      -0.763809       -20.7843
 181   2.0000      -0.756728       -20.5916
 182   2.0000      -0.749426       -20.3929
 183   2.0000      -0.742566       -20.2063
 184   2.0000      -0.737750       -20.0752
 185   2.0000      -0.724513       -19.7150
 186   2.0000      -0.716644       -19.5009
 187   2.0000      -0.711606       -19.3638
 188   2.0000      -0.705683       -19.2026
 189   2.0000      -0.702796       -19.1241
 190   2.0000      -0.698044       -18.9947
 191   2.0000      -0.694819       -18.9070
 192   2.0000      -0.687898       -18.7187
 193   2.0000      -0.683617       -18.6022
 194   2.0000      -0.673458       -18.3257
 195   2.0000      -0.667970       -18.1764
 196   2.0000      -0.665890       -18.1198
 197   2.0000      -0.661744       -18.0070
 198   2.0000      -0.657965       -17.9041
 199   2.0000      -0.654344       -17.8056
 200   2.0000      -0.644405       -17.5352
 201   2.0000      -0.643601       -17.5133
 202   2.0000      -0.640638       -17.4326
 203   2.0000      -0.638097       -17.3635
 204   2.0000      -0.637108       -17.3366
 205   2.0000      -0.634906       -17.2767
 206   2.0000      -0.631815       -17.1926
 207   2.0000      -0.630494       -17.1566
 208   2.0000      -0.623810       -16.9747
 209   2.0000      -0.621760       -16.9190
 210   2.0000      -0.610099       -16.6016
 211   2.0000      -0.603880       -16.4324
 212   2.0000      -0.600180       -16.3317
 213   2.0000      -0.598015       -16.2728
 214   2.0000      -0.594662       -16.1816
 215   2.0000      -0.589609       -16.0441
 216   2.0000      -0.585802       -15.9405
 217   2.0000      -0.585491       -15.9320
 218   2.0000      -0.577163       -15.7054
 219   2.0000      -0.570179       -15.5154
 220   2.0000      -0.568178       -15.4609
 221   2.0000      -0.566580       -15.4174
 222   2.0000      -0.563821       -15.3423
 223   2.0000      -0.559528       -15.2255
 224   2.0000      -0.552911       -15.0455
 225   2.0000      -0.551164       -14.9979
 226   2.0000      -0.548813       -14.9340
 227   2.0000      -0.543284       -14.7835
 228   2.0000      -0.543016       -14.7762
 229   2.0000      -0.541106       -14.7242
 230   2.0000      -0.539696       -14.6859
 231   2.0000      -0.535709       -14.5774
 232   2.0000      -0.533600       -14.5200
 233   2.0000      -0.528896       -14.3920
 234   2.0000      -0.527276       -14.3479
 235   2.0000      -0.524832       -14.2814
 236   2.0000      -0.523129       -14.2351
 237   2.0000      -0.521101       -14.1799
 238   2.0000      -0.514891       -14.0109
 239   2.0000      -0.510718       -13.8973
 240   2.0000      -0.510230       -13.8841
 241   2.0000      -0.508076       -13.8254
 242   2.0000      -0.506665       -13.7871
 243   2.0000      -0.504919       -13.7396
 244   2.0000      -0.501835       -13.6556
 245   2.0000      -0.499123       -13.5818
 246   2.0000      -0.498285       -13.5590
 247   2.0000      -0.496300       -13.5050
 248   2.0000      -0.494959       -13.4685
 249   2.0000      -0.493701       -13.4343
 250   2.0000      -0.492140       -13.3918
 251   2.0000      -0.491079       -13.3629
 252   2.0000      -0.486152       -13.2289
 253   2.0000      -0.484581       -13.1861
 254   2.0000      -0.479823       -13.0566
 255   2.0000      -0.478846       -13.0301
 256   2.0000      -0.475950       -12.9513
 257   2.0000      -0.474879       -12.9221
 258   2.0000      -0.471527       -12.8309
 259   2.0000      -0.467117       -12.7109
 260   2.0000      -0.465265       -12.6605
 261   2.0000      -0.462797       -12.5934
 262   2.0000      -0.461506       -12.5582
 263   2.0000      -0.459803       -12.5119
 264   2.0000      -0.457686       -12.4543
 265   2.0000      -0.456840       -12.4312
 266   2.0000      -0.454722       -12.3736
 267   2.0000      -0.453989       -12.3537
 268   2.0000      -0.450912       -12.2699
 269   2.0000      -0.447593       -12.1796
 270   2.0000      -0.447414       -12.1748
 271   2.0000      -0.445276       -12.1166
 272   2.0000      -0.444496       -12.0953
 273   2.0000      -0.442621       -12.0443
 274   2.0000      -0.441180       -12.0051
 275   2.0000      -0.440047       -11.9743
 276   2.0000      -0.437558       -11.9066
 277   2.0000      -0.434725       -11.8295
 278   2.0000      -0.432092       -11.7578
 279   2.0000      -0.431074       -11.7301
 280   2.0000      -0.430279       -11.7085
 281   2.0000      -0.426297       -11.6001
 282   2.0000      -0.423671       -11.5287
 283   2.0000      -0.419471       -11.4144
 284   2.0000      -0.417817       -11.3694
 285   2.0000      -0.416029       -11.3207
 286   2.0000      -0.415208       -11.2984
 287   2.0000      -0.414133       -11.2691
 288   2.0000      -0.407651       -11.0927
 289   2.0000      -0.407346       -11.0845
 290   2.0000      -0.402414       -10.9502
 291   2.0000      -0.391908       -10.6644
 292   2.0000      -0.388941       -10.5836
 293   2.0000      -0.387524       -10.5451
 294   2.0000      -0.384348       -10.4586
 295   2.0000      -0.380318       -10.3490
 296   2.0000      -0.375196       -10.2096
 297   2.0000      -0.374279       -10.1847
 298   2.0000      -0.374157       -10.1813
 299   2.0000      -0.373988       -10.1767
 300   2.0000      -0.372943       -10.1483
 301   2.0000      -0.366085        -9.9617
 302   2.0000      -0.364736        -9.9250
 303   2.0000      -0.360996        -9.8232
 304   2.0000      -0.360562        -9.8114
 305   2.0000      -0.357613        -9.7311
 306   2.0000      -0.351146        -9.5552
 307   2.0000      -0.346909        -9.4399
 308   2.0000      -0.343170        -9.3381
 309   2.0000      -0.335058        -9.1174
 310   2.0000      -0.324186        -8.8216
 311   2.0000      -0.318285        -8.6610
 312   2.0000      -0.314042        -8.5455
 313   2.0000      -0.298696        -8.1279
 314   2.0000      -0.293909        -7.9977
 315   2.0000      -0.292506        -7.9595
 316   2.0000      -0.275431        -7.4949
 317   2.0000      -0.231157        -6.2901
 318   0.0000      -0.145830        -3.9682
 319   0.0000      -0.102161        -2.7800
 320   0.0000      -0.091180        -2.4811
 321   0.0000      -0.077104        -2.0981
 322   0.0000      -0.068410        -1.8615

MULLIKEN ATOMIC CHARGES
-----------------------
   0 C :    0.321319
   1 C :   -0.338220
   2 C :   -0.183956
   3 N :    0.152037
   4 C :   -0.198850
   5 N :    0.148665
   6 C :    0.008309
   7 C :    0.030143
   8 C :   -0.042968
   9 C :    0.105848
  10 C :   -0.088399
  11 C :   -0.020587
  12 S :    0.188194
  13 C :   -0.126164
  14 C :    0.050447
  15 Br:    0.025469
  16 C :    0.180635
  17 O :   -0.250703
  18 C :   -0.123362
  19 C :    0.041180
  20 N :   -0.013600
  21 C :   -0.110121
  22 S :    0.196119
  23 C :   -0.003668
  24 N :    0.274332
  25 O :   -0.243827
  26 O :   -0.254421
  27 C :    0.014282
  28 C :    0.133708
  29 C :   -0.011622
  30 C :   -0.047711
  31 C :    0.066972
  32 C :   -0.048605
  33 C :   -0.034205
  34 N :    0.046031
  35 C :   -0.138565
  36 C :   -0.107585
  37 N :    0.007992
  38 C :   -0.191722
  39 N :    0.205681
  40 C :   -0.174369
  41 N :    0.194651
  42 C :    0.104298
  43 C :    0.041249
  44 C :    0.013071
  45 N :   -0.280518
  46 S :    0.555219
  47 N :   -0.322431
  48 C :   -0.112248
  49 C :    0.011534
  50 C :    0.031095
  51 C :    0.042531
  52 C :   -0.023479
  53 S :    0.141103
  54 C :   -0.053743
  55 C :    0.038568
  56 C :    0.047796
  57 C :   -0.021166
  58 S :    0.112996
  59 C :    0.007714
  60 C :    0.013283
  61 C :   -0.117230
  62 C :    0.282371
  63 C :   -0.338962
  64 C :   -0.178564
  65 N :    0.145802
  66 C :   -0.218382
  67 N :    0.160063
  68 C :    0.007648
  69 C :   -0.002568
  70 C :    0.136614
  71 O :   -0.150553
  72 C :   -0.076934
  73 C :    0.114895
  74 C :   -0.087700
  75 C :   -0.025738
  76 S :    0.183911
  77 C :   -0.125892
  78 C :    0.039726
  79 Br:    0.022285
  80 H :   -0.038575
  81 H :   -0.004901
  82 H :    0.005867
  83 H :    0.043762
  84 H :    0.188973
  85 H :    0.017987
  86 H :    0.009576
  87 H :   -0.003706
  88 H :    0.007652
  89 H :    0.002569
  90 H :   -0.004531
  91 H :   -0.000580
  92 H :    0.007091
  93 H :    0.015523
  94 H :    0.016759
  95 H :   -0.011753
  96 H :   -0.004676
  97 H :   -0.003491
Sum of atomic charges:   -0.0000000

LOEWDIN ATOMIC CHARGES
----------------------
   0 C :    0.081181
   1 C :   -0.144745
   2 C :   -0.019524
   3 N :   -0.050461
   4 C :   -0.019851
   5 N :   -0.053384
   6 C :   -0.015629
   7 C :   -0.050847
   8 C :    0.033951
   9 C :   -0.028698
  10 C :   -0.140923
  11 C :   -0.006986
  12 S :    0.435032
  13 C :   -0.271882
  14 C :   -0.061142
  15 Br:    0.138848
  16 C :    0.108354
  17 O :   -0.184264
  18 C :   -0.134956
  19 C :    0.114512
  20 N :    0.077651
  21 C :   -0.103822
  22 S :    0.478325
  23 C :   -0.198406
  24 N :    0.272634
  25 O :   -0.209991
  26 O :   -0.220876
  27 C :    0.008262
  28 C :   -0.090042
  29 C :    0.004260
  30 C :   -0.016918
  31 C :   -0.028005
  32 C :   -0.001669
  33 C :   -0.001321
  34 N :    0.000573
  35 C :   -0.039873
  36 C :   -0.024599
  37 N :    0.002933
  38 C :   -0.031675
  39 N :   -0.021066
  40 C :   -0.023108
  41 N :   -0.026225
  42 C :   -0.036452
  43 C :   -0.039897
  44 C :   -0.040836
  45 N :   -0.282748
  46 S :    0.676930
  47 N :   -0.293267
  48 C :   -0.027435
  49 C :   -0.134292
  50 C :   -0.016825
  51 C :   -0.026058
  52 C :   -0.170984
  53 S :    0.449294
  54 C :   -0.171607
  55 C :   -0.011343
  56 C :   -0.022123
  57 C :   -0.107727
  58 S :    0.408516
  59 C :   -0.051258
  60 C :    0.045335
  61 C :   -0.093204
  62 C :    0.067238
  63 C :   -0.146963
  64 C :   -0.020487
  65 N :   -0.056760
  66 C :   -0.024185
  67 N :   -0.058019
  68 C :   -0.017000
  69 C :   -0.052101
  70 C :    0.079350
  71 O :   -0.151339
  72 C :    0.020808
  73 C :   -0.034869
  74 C :   -0.144030
  75 C :   -0.014449
  76 S :    0.431490
  77 C :   -0.273097
  78 C :   -0.070386
  79 Br:    0.135355
  80 H :    0.034686
  81 H :    0.041892
  82 H :    0.042434
  83 H :    0.038756
  84 H :    0.081694
  85 H :    0.048371
  86 H :    0.026497
  87 H :    0.034078
  88 H :    0.042393
  89 H :    0.038957
  90 H :    0.034893
  91 H :    0.037620
  92 H :    0.042312
  93 H :    0.040237
  94 H :    0.035332
  95 H :    0.040535
  96 H :    0.040543
  97 H :    0.038566

  Mayer bond orders larger than 0.100000
B(  0-C ,  1-C ) :   1.6372 B(  0-C ,  6-C ) :   1.0113 B(  0-C , 18-C ) :   1.0814
B(  1-C ,  2-C ) :   1.1424 B(  1-C ,  4-C ) :   1.1439 B(  2-C ,  3-N ) :   2.9714
B(  4-C ,  5-N ) :   2.9640 B(  6-C ,  7-C ) :   1.2624 B(  6-C , 11-C ) :   1.4227
B(  7-C ,  8-C ) :   1.3990 B(  7-C , 16-C ) :   1.0036 B(  8-C ,  9-C ) :   1.2673
B(  8-C , 80-H ) :   1.0113 B(  9-C , 10-C ) :   1.2987 B(  9-C , 14-C ) :   1.1712
B( 10-C , 11-C ) :   1.3192 B( 10-C , 12-S ) :   1.0931 B( 11-C , 81-H ) :   0.9804
B( 12-S , 13-C ) :   1.0817 B( 13-C , 14-C ) :   1.6119 B( 13-C , 15-Br) :   1.0211
B( 14-C , 82-H ) :   0.9965 B( 16-C , 17-O ) :   1.9385 B( 16-C , 18-C ) :   1.0142
B( 17-O , 84-H ) :   0.1531 B( 18-C , 19-C ) :   1.4761 B( 19-C , 20-N ) :   1.3163
B( 19-C , 83-H ) :   0.9346 B( 20-N , 21-C ) :   1.2144 B( 20-N , 84-H ) :   0.8128
B( 21-C , 22-S ) :   1.1441 B( 21-C , 28-C ) :   1.3392 B( 22-S , 23-C ) :   1.0784
B( 23-C , 24-N ) :   0.9603 B( 23-C , 27-C ) :   1.5104 B( 24-N , 25-O ) :   1.5404
B( 24-N , 26-O ) :   1.5173 B( 25-O , 26-O ) :   0.2635 B( 27-C , 28-C ) :   1.2100
B( 27-C , 85-H ) :   1.0020 B( 28-C , 29-C ) :   1.1070 B( 29-C , 30-C ) :   1.6225
B( 29-C , 86-H ) :   0.9396 B( 30-C , 31-C ) :   1.2028 B( 30-C , 87-H ) :   0.9676
B( 31-C , 32-C ) :   1.2277 B( 31-C , 42-C ) :   0.1110 B( 31-C , 44-C ) :   1.1718
B( 32-C , 33-C ) :   1.1229 B( 32-C , 37-N ) :   1.3996 B( 33-C , 34-N ) :   1.4796
B( 33-C , 42-C ) :   1.1911 B( 34-N , 35-C ) :   1.6994 B( 35-C , 36-C ) :   1.2171
B( 35-C , 40-C ) :   1.1397 B( 36-C , 37-N ) :   1.7074 B( 36-C , 38-C ) :   1.1365
B( 38-C , 39-N ) :   3.0053 B( 40-C , 41-N ) :   3.0041 B( 42-C , 43-C ) :   1.1529
B( 42-C , 48-C ) :   1.2853 B( 43-C , 44-C ) :   1.1210 B( 43-C , 47-N ) :   1.4869
B( 44-C , 45-N ) :   1.5360 B( 45-N , 46-S ) :   1.2783 B( 45-N , 47-N ) :   0.1434
B( 46-S , 47-N ) :   1.2547 B( 48-C , 49-C ) :   1.4513 B( 48-C , 88-H ) :   0.9421
B( 49-C , 50-C ) :   1.1697 B( 49-C , 53-S ) :   1.0691 B( 50-C , 51-C ) :   1.5533
B( 50-C , 89-H ) :   1.0024 B( 51-C , 52-C ) :   1.2054 B( 51-C , 90-H ) :   0.9945
B( 52-C , 53-S ) :   1.0463 B( 52-C , 54-C ) :   1.4420 B( 54-C , 55-C ) :   1.2218
B( 54-C , 58-S ) :   1.0617 B( 55-C , 56-C ) :   1.5423 B( 55-C , 91-H ) :   0.9950
B( 56-C , 57-C ) :   1.1794 B( 56-C , 92-H ) :   1.0004 B( 57-C , 58-S ) :   1.0743
B( 57-C , 59-C ) :   1.5123 B( 59-C , 60-C ) :   1.2020 B( 59-C , 93-H ) :   0.9617
B( 60-C , 61-C ) :   1.5558 B( 60-C , 94-H ) :   0.9385 B( 61-C , 62-C ) :   1.0779
B( 61-C , 70-C ) :   0.9550 B( 62-C , 63-C ) :   1.6087 B( 62-C , 68-C ) :   1.0060
B( 63-C , 64-C ) :   1.1319 B( 63-C , 66-C ) :   1.1642 B( 64-C , 65-N ) :   2.9785
B( 66-C , 67-N ) :   3.0113 B( 68-C , 69-C ) :   1.2740 B( 68-C , 75-C ) :   1.4212
B( 69-C , 70-C ) :   0.9223 B( 69-C , 72-C ) :   1.4275 B( 70-C , 71-O ) :   2.2516
B( 72-C , 73-C ) :   1.2471 B( 72-C , 95-H ) :   1.0172 B( 73-C , 74-C ) :   1.3130
B( 73-C , 78-C ) :   1.1620 B( 74-C , 75-C ) :   1.3188 B( 74-C , 76-S ) :   1.0848
B( 75-C , 96-H ) :   0.9824 B( 76-S , 77-C ) :   1.0872 B( 77-C , 78-C ) :   1.6178
B( 77-C , 79-Br) :   1.0187 B( 78-C , 97-H ) :   1.0011

-----------------------------------------------------------------------------
         ABSORPTION SPECTRUM VIA TRANSITION ELECTRIC DIPOLE MOMENTS
-----------------------------------------------------------------------------
State   Energy  Wavelength   fosc         T2         TX        TY        TZ
        (cm-1)    (nm)                  (au**2)     (au)      (au)      (au)
-----------------------------------------------------------------------------
   0    5375.7   1860.2   0.559604872  34.27076  -1.67808   5.60486  -0.20081
   1   13765.2    726.5   0.397017358   9.49517   1.74720  -2.38083  -0.87983
   2   14603.2    684.8   0.310884220   7.00851   1.49113  -1.02123  -1.93446
   3   18564.2    538.7   0.221620108   3.93015   1.65735  -0.95803   0.51530
   4   19749.5    506.3   0.115820917   1.93067   1.03055  -0.78530  -0.50192
   5   20768.6    481.5   0.035587685   0.56412   0.00586   0.46228  -0.59192
   6   21289.6    469.7   0.119809874   1.85268   1.28519  -0.44551  -0.04992
   7   21846.5    457.7   0.006358030   0.09581   0.19947   0.08335  -0.22153
   8   22073.1    453.0   0.061445310   0.91644   0.28445   0.51974  -0.75193
   9   22900.2    436.7   0.173694956   2.49703  -1.35194  -0.33296   0.74728
  10   23590.9    423.9   0.042516469   0.59332   0.68475  -0.20579  -0.28650
  11   24569.4    407.0   0.067745743   0.90774  -0.73967  -0.55062   0.23971
  12   25011.8    399.8   0.317316388   4.17659  -1.45292  -0.96575   1.06440
  13   25218.4    396.5   0.008867661   0.11576  -0.09862   0.27690  -0.17135
  14   25502.6    392.1   0.021178067   0.27339  -0.32098  -0.28909   0.29459
  15   25794.8    387.7   0.507185296   6.47306   2.54220  -0.10133   0.00557
  16   25915.7    385.9   0.021105465   0.26811   0.48508  -0.18103  -0.00542
  17   26265.8    380.7   0.004342855   0.05443  -0.04988   0.16001  -0.16230
  18   26658.7    375.1   0.047841768   0.59080   0.68561  -0.33811   0.08016
  19   27134.8    368.5   0.099183045   1.20334  -0.67628  -0.33729   0.79512
  20   27374.7    365.3   0.003061755   0.03682   0.17380   0.01017   0.08070
  21   28217.9    354.4   0.006553969   0.07646  -0.20463  -0.17705   0.05695
  22   28586.6    349.8   0.051468986   0.59273  -0.60379   0.10721   0.46548
  23   28804.1    347.2   0.428111382   4.89303   1.68608   1.18758  -0.79989
  24   29288.5    341.4   0.010247713   0.11519   0.20114  -0.21350   0.17073
  25   29820.9    335.3   0.056424042   0.62290   0.78530  -0.06579   0.04333
  26   29938.0    334.0   0.030510994   0.33551   0.56563   0.00288  -0.12476
  27   30239.4    330.7   0.541965826   5.90030  -2.31266   0.25654   0.69720
  28   30357.8    329.4   0.235583566   2.55476   0.47627  -1.45951   0.44471
  29   30496.8    327.9   0.012528262   0.13524  -0.23595   0.26374  -0.10006
  30   31282.1    319.7   0.104775833   1.10266  -1.02859   0.11607   0.17659
  31   31550.7    317.0   0.067074515   0.69988  -0.25227  -0.75081   0.26932
  32   31752.6    314.9   0.055044004   0.57070  -0.70175  -0.01295   0.27941
  33   32103.9    311.5   0.484431485   4.96764  -2.03445  -0.44437   0.79448
  34   32225.0    310.3   0.212893972   2.17493  -1.45981   0.09332   0.18757
  35   32522.1    307.5   0.058921117   0.59644  -0.28232   0.64109  -0.32517
  36   32644.7    306.3   0.040741136   0.41086   0.47214  -0.42769  -0.07090
  37   32752.1    305.3   0.100732467   1.01253   0.07536  -0.99726   0.11100
  38   33162.4    301.5   0.027280574   0.27082  -0.45510   0.22599  -0.11238
  39   33321.4    300.1   0.261217827   2.58080  -0.02468   1.41196  -0.76588
  40   33699.5    296.7   0.164619610   1.60818  -0.96990   0.78035  -0.24192
  41   34217.6    292.2   0.164122937   1.57905   1.07690   0.19880  -0.61629
  42   34288.6    291.6   0.122054390   1.17187  -1.05350  -0.00140   0.24903
  43   34699.0    288.2   0.652073573   6.18664  -2.35605  -0.62957   0.48919
  44   34861.7    286.8   0.001314583   0.01241   0.08454   0.01967  -0.06986
  45   35029.7    285.5   0.000705227   0.00663   0.07902   0.01250   0.01506
  46   35480.5    281.8   0.001315727   0.01221   0.03967  -0.09752   0.03352
  47   35648.0    280.5   0.028098945   0.25950   0.30928   0.32469  -0.24171
  48   35969.9    278.0   0.047248530   0.43244   0.40329  -0.51277   0.08287
  49   36042.9    277.4   0.010807838   0.09872  -0.10336   0.29260  -0.04917
  50   36211.5    276.2   0.036129559   0.32847   0.08961  -0.35965   0.43714
  51   36300.5    275.5   0.081536110   0.73946   0.28511  -0.78166   0.21721
  52   36722.9    272.3   0.000593202   0.00532   0.02913  -0.02448  -0.06221
  53   36995.3    270.3   0.001694168   0.01508   0.03151   0.09442   0.07188
  54   37015.4    270.2   0.170015286   1.51210   0.72407  -0.99064   0.08031
  55   37229.6    268.6   0.013442762   0.11887   0.14167  -0.29178   0.11688
  56   37388.9    267.5   0.003728935   0.03283  -0.01421   0.13106  -0.12432
  57   37510.9    266.6   0.025454620   0.22340  -0.17804   0.43338  -0.06233
  58   37865.1    264.1   0.062112402   0.54003   0.63000  -0.37513   0.04904
  59   37989.8    263.2   0.022490668   0.19490  -0.04995   0.43738   0.03320
  60   38249.5    261.4   0.034660404   0.29832  -0.40820  -0.25464  -0.25856
  61   38348.6    260.8   0.011016203   0.09457  -0.26618   0.13948   0.06533
  62   38536.8    259.5   0.051490665   0.43987   0.62856  -0.09545   0.18887
  63   38654.8    258.7   0.019263904   0.16407   0.01434  -0.40225   0.04533
  64   38719.6    258.3   0.007144176   0.06074   0.22534   0.00416  -0.09973
  65   39035.5    256.2   0.015323042   0.12923  -0.21711   0.27835  -0.06795
  66   39094.0    255.8   0.015280234   0.12868   0.25589  -0.09700   0.23192
  67   39411.0    253.7   0.019248517   0.16079   0.04551  -0.37042   0.14666
  68   39585.7    252.6   0.026497650   0.22037   0.09998  -0.45615   0.04792
  69   39696.2    251.9   0.069474489   0.57617   0.70207  -0.18177  -0.22412
  70   40064.9    249.6   0.124309878   1.02145   0.03230  -0.95025  -0.34269
  71   40224.7    248.6   0.007062488   0.05780  -0.07035  -0.22989   0.00221

FINAL SINGLE POINT ENERGY    -10634.915379997268

DIPOLE MOMENT
-------------
                                X             Y             Z
Electronic contribution:     -3.90116      44.50079      24.49660
Nuclear contribution   :      3.82004     -41.35321     -27.81142
                        -----------------------------------------
Total Dipole Moment    :     -0.08112       3.14758      -3.31481
                        -----------------------------------------
Magnitude (a.u.)       :      4.57185
Magnitude (Debye)      :     11.62073

Rotational constants in cm-1:     0.000856     0.000160     0.000142
Rotational constants in MHz :    25.661876     4.783571     4.246344

                             ****ORCA TERMINATED NORMALLY****
TOTAL RUN TIME: 0 days 0 hours 12 minutes 57 seconds 615 msec
