                         Program Version 4.2.0 -  RELEASE  -
|  1> # ORCA input file
|  2> # SCF done       -180.257642645330          0.002139667579
|  3> ! CAM-B3LYP def2-SVP def2/J RIJCOSX Grid4 TightSCF
|  4> %maxcore 5000
|  5> %tddft
|  6>     Mode sTDDFT
|  7>     Ethresh 5.0
|  8>     maxcore 5000
|  9> end
| 10>
| 11> %pal
| 12>   nprocs 6
| 13>   end
| 14> * xyz 0 1
| 15>    C      -11.59148         1.81149         6.76048
| 16>    S      -10.73098         1.63822         5.24078
| 17>    C      -10.55595        -0.02788         5.62153
| 18>    C      -11.15614        -0.30562         6.85014
| 19>    N      -11.72630         0.74022         7.46283
| 20>    C      -11.01394        -1.75342         7.19919
| 21>    C      -10.25563        -2.26227         6.00688
| 22>    C      -10.00536        -1.22203         5.10463
| 23>    S       -9.14492        -1.74471         3.71488
| 24>    C       -9.11494        -3.39182         4.34082
| 25>    C       -9.75415        -3.47960         5.57688
| 26>    C       -8.51564        -4.43968         3.62657
| 27>    C       -7.91071        -4.30979         2.40041
| 28>    C       -7.34560        -5.36757         1.69671
| 29>    C       -6.75232        -5.25499         0.44972
| 30>    C       -6.20141        -6.28822        -0.32544
| 31>    C       -5.70713        -5.87774        -1.53937
| 32>    C       -5.84252        -4.50411        -1.76876
| 33>    S       -6.61018        -3.73020        -0.40523
| 34>    C       -5.47254        -3.78367        -2.91013
| 35>    C       -4.93062        -4.27493        -4.09917
| 36>    C       -4.73184        -3.30424        -5.05824
| 37>    C       -5.09469        -2.02030        -4.65306
| 38>    S       -5.69956        -2.05601        -3.01296
| 39>    C       -5.04021        -0.84584        -5.41457
| 40>    C       -5.33281         0.40364        -4.94214
| 41>    C       -5.35666         1.57025        -5.71754
| 42>    C       -5.57386         2.87163        -5.26719
| 43>    C       -5.58794         3.81925        -6.26969
| 44>    C       -5.39565         3.28814        -7.54501
| 45>    S       -5.15958         1.56083        -7.45490
| 46>    C       -5.42648         3.96064        -8.77373
| 47>    C       -5.62202         5.32769        -8.99057
| 48>    C       -5.66913         5.67174       -10.32019
| 49>    C       -5.51389         4.58766       -11.19745
| 50>    S       -5.27856         3.11244       -10.29175
| 51>    C       -5.57789         4.64763       -12.58411
| 52>    C       -5.43734         3.54889       -13.42977
| 53>    C       -5.58246         3.58036       -14.82349
| 54>    O       -5.43698         2.44103       -15.59255
| 55>    C       -5.15568         1.29173       -14.92811
| 56>    C       -5.01627         1.25632       -13.51084
| 57>    C       -4.73744         0.01764       -13.03554
| 58>    S       -4.63837        -1.13047       -14.31800
| 59>    C       -4.97766         0.07480       -15.50312
| 60>    O       -5.15220         2.37510       -12.75618
| 61>    C       -5.90978         4.73645       -15.56107
| 62>    C       -6.15380         4.72734       -16.90497
| 63>    C       -6.52570         5.84523       -17.70703
| 64>    C       -6.94287         5.62522       -19.01069
| 65>    C       -7.37543         6.68842       -19.81695
| 66>    C       -7.87868         6.71934       -21.11458
| 67>    C       -8.06098         5.53922       -22.00988
| 68>    C       -9.53607         5.33453       -22.39015
| 69>    N      -10.35188         5.29806       -21.18912
| 70>    C       -7.17211         5.63863       -23.27503
| 71>    N       -5.75557         5.77019       -23.00593
| 72>    C       -8.17553         8.09711       -21.41648
| 73>    C       -8.68870         8.69762       -22.50988
| 74>    C       -8.90056        10.17087       -22.57816
| 75>    C       -8.53767        10.91194       -21.33046
| 76>    C       -8.02551        10.30487       -20.24613
| 77>    C       -7.82582         8.90213       -20.23541
| 78>    C       -7.34571         8.04072       -19.27459
| 79>    C       -6.87774         8.24948       -17.95496
| 80>    C       -6.49238         7.19147       -17.20291
| 81>    C       -8.09255        10.72497       -23.73307
| 82>    C       -8.61073        11.35194       -24.77133
| 83>    H      -11.97073         2.76851         7.05422
| 84>    H      -11.98420        -2.24181         7.31057
| 85>    H      -10.46250        -1.89350         8.13115
| 86>    H       -9.83617        -4.40694         6.11505
| 87>    H       -8.55269        -5.41622         4.09278
| 88>    H       -7.87661        -3.32757         1.94386
| 89>    H       -7.37598        -6.35694         2.13532
| 90>    H       -6.18654        -7.30691         0.02024
| 91>    H       -5.25542        -6.53731        -2.25863
| 92>    H       -4.70593        -5.31628        -4.24346
| 93>    H       -4.33160        -3.49860        -6.03788
| 94>    H       -4.74730        -0.95684        -6.45133
| 95>    H       -5.57309         0.52065        -3.89248
| 96>    H       -5.71726         3.09556        -4.22473
| 97>    H       -5.74510         4.86929        -6.10013
| 98>    H       -5.72903         6.03194        -8.18507
| 99>    H       -5.81920         6.67430       -10.68057
|100>    H       -5.76545         5.61629       -13.01487
|101>    H       -4.58758        -0.27769       -12.01853
|102>    H       -5.02428        -0.17880       -16.54117
|103>    H       -5.99365         5.65457       -15.00590
|104>    H       -6.10296         3.77377       -17.41381
|105>    H       -6.95674         4.61331       -19.39306
|106>    H       -7.74045         4.64778       -21.45550
|107>    H       -9.61342         4.41836       -23.00428
|108>    H       -9.88821         6.17156       -22.99665
|109>    H      -10.05917         4.53684       -20.58414
|110>    H      -11.32815         5.15341       -21.42424
|111>    H       -7.47282         6.50095       -23.87364
|112>    H       -7.31464         4.73841       -23.88069
|113>    H       -5.58442         6.61146       -22.46328
|114>    H       -5.42680         4.98357       -22.45447
|115>    H       -8.95644         8.14959       -23.40171
|116>    H       -9.96186        10.35332       -22.80345
|117>    H       -8.69557        11.97985       -21.35659
|118>    H       -7.76769        10.87483       -19.36493
|119>    H       -6.83585         9.25459       -17.56032
|120>    H       -6.12885         7.35517       -16.20184
|121>    H       -7.02488        10.57929       -23.64220
|122>    H       -9.67255        11.50841       -24.87465
|123>    H       -7.99405        11.73978       -25.56414
|124> *
|125>
|126>                          ****END OF INPUT****

CARTESIAN COORDINATES (ANGSTROEM)
---------------------------------
  C    -11.591480    1.811490    6.760480
  S    -10.730980    1.638220    5.240780
  C    -10.555950   -0.027880    5.621530
  C    -11.156140   -0.305620    6.850140
  N    -11.726300    0.740220    7.462830
  C    -11.013940   -1.753420    7.199190
  C    -10.255630   -2.262270    6.006880
  C    -10.005360   -1.222030    5.104630
  S     -9.144920   -1.744710    3.714880
  C     -9.114940   -3.391820    4.340820
  C     -9.754150   -3.479600    5.576880
  C     -8.515640   -4.439680    3.626570
  C     -7.910710   -4.309790    2.400410
  C     -7.345600   -5.367570    1.696710
  C     -6.752320   -5.254990    0.449720
  C     -6.201410   -6.288220   -0.325440
  C     -5.707130   -5.877740   -1.539370
  C     -5.842520   -4.504110   -1.768760
  S     -6.610180   -3.730200   -0.405230
  C     -5.472540   -3.783670   -2.910130
  C     -4.930620   -4.274930   -4.099170
  C     -4.731840   -3.304240   -5.058240
  C     -5.094690   -2.020300   -4.653060
  S     -5.699560   -2.056010   -3.012960
  C     -5.040210   -0.845840   -5.414570
  C     -5.332810    0.403640   -4.942140
  C     -5.356660    1.570250   -5.717540
  C     -5.573860    2.871630   -5.267190
  C     -5.587940    3.819250   -6.269690
  C     -5.395650    3.288140   -7.545010
  S     -5.159580    1.560830   -7.454900
  C     -5.426480    3.960640   -8.773730
  C     -5.622020    5.327690   -8.990570
  C     -5.669130    5.671740  -10.320190
  C     -5.513890    4.587660  -11.197450
  S     -5.278560    3.112440  -10.291750
  C     -5.577890    4.647630  -12.584110
  C     -5.437340    3.548890  -13.429770
  C     -5.582460    3.580360  -14.823490
  O     -5.436980    2.441030  -15.592550
  C     -5.155680    1.291730  -14.928110
  C     -5.016270    1.256320  -13.510840
  C     -4.737440    0.017640  -13.035540
  S     -4.638370   -1.130470  -14.318000
  C     -4.977660    0.074800  -15.503120
  O     -5.152200    2.375100  -12.756180
  C     -5.909780    4.736450  -15.561070
  C     -6.153800    4.727340  -16.904970
  C     -6.525700    5.845230  -17.707030
  C     -6.942870    5.625220  -19.010690
  C     -7.375430    6.688420  -19.816950
  C     -7.878680    6.719340  -21.114580
  C     -8.060980    5.539220  -22.009880
  C     -9.536070    5.334530  -22.390150
  N    -10.351880    5.298060  -21.189120
  C     -7.172110    5.638630  -23.275030
  N     -5.755570    5.770190  -23.005930
  C     -8.175530    8.097110  -21.416480
  C     -8.688700    8.697620  -22.509880
  C     -8.900560   10.170870  -22.578160
  C     -8.537670   10.911940  -21.330460
  C     -8.025510   10.304870  -20.246130
  C     -7.825820    8.902130  -20.235410
  C     -7.345710    8.040720  -19.274590
  C     -6.877740    8.249480  -17.954960
  C     -6.492380    7.191470  -17.202910
  C     -8.092550   10.724970  -23.733070
  C     -8.610730   11.351940  -24.771330
  H    -11.970730    2.768510    7.054220
  H    -11.984200   -2.241810    7.310570
  H    -10.462500   -1.893500    8.131150
  H     -9.836170   -4.406940    6.115050
  H     -8.552690   -5.416220    4.092780
  H     -7.876610   -3.327570    1.943860
  H     -7.375980   -6.356940    2.135320
  H     -6.186540   -7.306910    0.020240
  H     -5.255420   -6.537310   -2.258630
  H     -4.705930   -5.316280   -4.243460
  H     -4.331600   -3.498600   -6.037880
  H     -4.747300   -0.956840   -6.451330
  H     -5.573090    0.520650   -3.892480
  H     -5.717260    3.095560   -4.224730
  H     -5.745100    4.869290   -6.100130
  H     -5.729030    6.031940   -8.185070
  H     -5.819200    6.674300  -10.680570
  H     -5.765450    5.616290  -13.014870
  H     -4.587580   -0.277690  -12.018530
  H     -5.024280   -0.178800  -16.541170
  H     -5.993650    5.654570  -15.005900
  H     -6.102960    3.773770  -17.413810
  H     -6.956740    4.613310  -19.393060
  H     -7.740450    4.647780  -21.455500
  H     -9.613420    4.418360  -23.004280
  H     -9.888210    6.171560  -22.996650
  H    -10.059170    4.536840  -20.584140
  H    -11.328150    5.153410  -21.424240
  H     -7.472820    6.500950  -23.873640
  H     -7.314640    4.738410  -23.880690
  H     -5.584420    6.611460  -22.463280
  H     -5.426800    4.983570  -22.454470
  H     -8.956440    8.149590  -23.401710
  H     -9.961860   10.353320  -22.803450
  H     -8.695570   11.979850  -21.356590
  H     -7.767690   10.874830  -19.364930
  H     -6.835850    9.254590  -17.560320
  H     -6.128850    7.355170  -16.201840
  H     -7.024880   10.579290  -23.642200
  H     -9.672550   11.508410  -24.874650
  H     -7.994050   11.739780  -25.564140

 Total Charge           Charge          ....    0
 Multiplicity           Mult            ....    1
 Number of Electrons    NEL             ....  526
 Basis Dimension        Dim             .... 1185

ORBITAL ENERGIES
----------------

  NO   OCC          E(Eh)            E(eV)
   0   2.0000     -88.961472     -2420.7647
   1   2.0000     -88.953598     -2420.5504
   2   2.0000     -88.951182     -2420.4847
   3   2.0000     -88.938955     -2420.1520
   4   2.0000     -88.938561     -2420.1413
   5   2.0000     -88.938083     -2420.1283
   6   2.0000     -88.935449     -2420.0566
   7   2.0000     -19.270730      -524.3832
   8   2.0000     -19.268241      -524.3155
   9   2.0000     -14.405574      -391.9956
  10   2.0000     -14.371196      -391.0601
  11   2.0000     -14.364548      -390.8792
  12   2.0000     -10.340581      -281.3815
  13   2.0000     -10.337961      -281.3102
  14   2.0000     -10.334697      -281.2214
  15   2.0000     -10.334233      -281.2088
  16   2.0000     -10.320558      -280.8367
  17   2.0000     -10.301725      -280.3242
  18   2.0000     -10.300971      -280.3037
  19   2.0000     -10.300269      -280.2846
  20   2.0000     -10.300072      -280.2792
  21   2.0000     -10.298527      -280.2372
  22   2.0000     -10.298276      -280.2303
  23   2.0000     -10.296683      -280.1870
  24   2.0000     -10.295936      -280.1667
  25   2.0000     -10.295861      -280.1646
  26   2.0000     -10.295475      -280.1541
  27   2.0000     -10.295012      -280.1415
  28   2.0000     -10.294899      -280.1385
  29   2.0000     -10.290861      -280.0286
  30   2.0000     -10.287377      -279.9338
  31   2.0000     -10.287258      -279.9305
  32   2.0000     -10.284199      -279.8473
  33   2.0000     -10.281421      -279.7717
  34   2.0000     -10.278140      -279.6824
  35   2.0000     -10.276894      -279.6485
  36   2.0000     -10.276889      -279.6484
  37   2.0000     -10.275810      -279.6190
  38   2.0000     -10.275807      -279.6189
  39   2.0000     -10.275293      -279.6049
  40   2.0000     -10.275031      -279.5978
  41   2.0000     -10.274067      -279.5716
  42   2.0000     -10.273966      -279.5688
  43   2.0000     -10.273548      -279.5575
  44   2.0000     -10.273214      -279.5484
  45   2.0000     -10.272635      -279.5326
  46   2.0000     -10.272585      -279.5312
  47   2.0000     -10.272047      -279.5166
  48   2.0000     -10.271921      -279.5132
  49   2.0000     -10.271782      -279.5094
  50   2.0000     -10.271741      -279.5083
  51   2.0000     -10.271292      -279.4961
  52   2.0000     -10.270158      -279.4652
  53   2.0000     -10.269604      -279.4501
  54   2.0000     -10.268626      -279.4235
  55   2.0000     -10.265493      -279.3383
  56   2.0000     -10.265286      -279.3326
  57   2.0000     -10.264114      -279.3007
  58   2.0000     -10.262071      -279.2451
  59   2.0000     -10.262014      -279.2436
  60   2.0000     -10.261872      -279.2397
  61   2.0000     -10.259428      -279.1732
  62   2.0000     -10.258662      -279.1524
  63   2.0000     -10.257441      -279.1191
  64   2.0000     -10.254330      -279.0345
  65   2.0000     -10.253474      -279.0112
  66   2.0000     -10.251902      -278.9684
  67   2.0000     -10.249757      -278.9101
  68   2.0000      -8.057068      -219.2440
  69   2.0000      -8.048597      -219.0135
  70   2.0000      -8.046918      -218.9678
  71   2.0000      -8.035220      -218.6495
  72   2.0000      -8.034738      -218.6363
  73   2.0000      -8.034335      -218.6254
  74   2.0000      -8.030832      -218.5301
  75   2.0000      -6.026254      -163.9827
  76   2.0000      -6.022131      -163.8705
  77   2.0000      -6.019368      -163.7953
  78   2.0000      -6.017962      -163.7571
  79   2.0000      -6.016441      -163.7157
  80   2.0000      -6.013978      -163.6487
  81   2.0000      -6.012270      -163.6022
  82   2.0000      -6.010508      -163.5542
  83   2.0000      -6.008604      -163.5024
  84   2.0000      -6.004767      -163.3980
  85   2.0000      -6.004279      -163.3847
  86   2.0000      -6.003946      -163.3757
  87   2.0000      -6.000779      -163.2895
  88   2.0000      -6.000587      -163.2843
  89   2.0000      -6.000294      -163.2763
  90   2.0000      -5.999980      -163.2677
  91   2.0000      -5.996511      -163.1733
  92   2.0000      -5.996262      -163.1666
  93   2.0000      -5.996073      -163.1614
  94   2.0000      -5.995461      -163.1448
  95   2.0000      -5.992021      -163.0512
  96   2.0000      -1.196524       -32.5591
  97   2.0000      -1.160066       -31.5670
  98   2.0000      -1.059041       -28.8180
  99   2.0000      -0.987849       -26.8807
 100   2.0000      -0.987064       -26.8594
 101   2.0000      -0.985628       -26.8203
 102   2.0000      -0.979714       -26.6594
 103   2.0000      -0.974958       -26.5300
 104   2.0000      -0.966366       -26.2961
 105   2.0000      -0.962902       -26.2019
 106   2.0000      -0.955712       -26.0063
 107   2.0000      -0.943565       -25.6757
 108   2.0000      -0.935757       -25.4632
 109   2.0000      -0.922789       -25.1104
 110   2.0000      -0.914698       -24.8902
 111   2.0000      -0.902291       -24.5526
 112   2.0000      -0.896975       -24.4079
 113   2.0000      -0.888995       -24.1908
 114   2.0000      -0.886289       -24.1171
 115   2.0000      -0.875089       -23.8124
 116   2.0000      -0.864312       -23.5191
 117   2.0000      -0.857238       -23.3266
 118   2.0000      -0.847974       -23.0745
 119   2.0000      -0.841270       -22.8921
 120   2.0000      -0.835987       -22.7484
 121   2.0000      -0.830828       -22.6080
 122   2.0000      -0.828179       -22.5359
 123   2.0000      -0.827649       -22.5215
 124   2.0000      -0.823624       -22.4120
 125   2.0000      -0.819896       -22.3105
 126   2.0000      -0.815456       -22.1897
 127   2.0000      -0.812709       -22.1149
 128   2.0000      -0.810852       -22.0644
 129   2.0000      -0.804007       -21.8782
 130   2.0000      -0.793130       -21.5822
 131   2.0000      -0.781386       -21.2626
 132   2.0000      -0.770557       -20.9679
 133   2.0000      -0.769462       -20.9381
 134   2.0000      -0.753578       -20.5059
 135   2.0000      -0.750924       -20.4337
 136   2.0000      -0.740867       -20.1600
 137   2.0000      -0.726852       -19.7787
 138   2.0000      -0.713477       -19.4147
 139   2.0000      -0.706880       -19.2352
 140   2.0000      -0.701978       -19.1018
 141   2.0000      -0.690733       -18.7958
 142   2.0000      -0.682805       -18.5801
 143   2.0000      -0.681321       -18.5397
 144   2.0000      -0.678449       -18.4615
 145   2.0000      -0.671200       -18.2643
 146   2.0000      -0.666407       -18.1338
 147   2.0000      -0.662543       -18.0287
 148   2.0000      -0.650253       -17.6943
 149   2.0000      -0.646926       -17.6038
 150   2.0000      -0.645992       -17.5783
 151   2.0000      -0.639522       -17.4023
 152   2.0000      -0.634149       -17.2561
 153   2.0000      -0.631933       -17.1958
 154   2.0000      -0.625463       -17.0197
 155   2.0000      -0.620084       -16.8733
 156   2.0000      -0.617758       -16.8100
 157   2.0000      -0.615739       -16.7551
 158   2.0000      -0.611577       -16.6419
 159   2.0000      -0.604158       -16.4400
 160   2.0000      -0.600112       -16.3299
 161   2.0000      -0.594971       -16.1900
 162   2.0000      -0.591517       -16.0960
 163   2.0000      -0.587939       -15.9986
 164   2.0000      -0.584848       -15.9145
 165   2.0000      -0.581174       -15.8146
 166   2.0000      -0.571044       -15.5389
 167   2.0000      -0.568554       -15.4712
 168   2.0000      -0.565083       -15.3767
 169   2.0000      -0.562114       -15.2959
 170   2.0000      -0.561462       -15.2782
 171   2.0000      -0.554420       -15.0865
 172   2.0000      -0.551427       -15.0051
 173   2.0000      -0.545015       -14.8306
 174   2.0000      -0.543815       -14.7980
 175   2.0000      -0.542946       -14.7743
 176   2.0000      -0.541097       -14.7240
 177   2.0000      -0.535582       -14.5739
 178   2.0000      -0.527265       -14.3476
 179   2.0000      -0.524129       -14.2623
 180   2.0000      -0.522087       -14.2067
 181   2.0000      -0.521287       -14.1849
 182   2.0000      -0.517296       -14.0763
 183   2.0000      -0.515194       -14.0191
 184   2.0000      -0.513216       -13.9653
 185   2.0000      -0.510153       -13.8820
 186   2.0000      -0.507772       -13.8172
 187   2.0000      -0.505637       -13.7591
 188   2.0000      -0.504887       -13.7387
 189   2.0000      -0.498945       -13.5770
 190   2.0000      -0.497910       -13.5488
 191   2.0000      -0.492744       -13.4082
 192   2.0000      -0.489652       -13.3241
 193   2.0000      -0.488060       -13.2808
 194   2.0000      -0.485238       -13.2040
 195   2.0000      -0.483830       -13.1657
 196   2.0000      -0.483500       -13.1567
 197   2.0000      -0.482752       -13.1364
 198   2.0000      -0.477930       -13.0051
 199   2.0000      -0.475604       -12.9418
 200   2.0000      -0.473923       -12.8961
 201   2.0000      -0.473664       -12.8891
 202   2.0000      -0.470567       -12.8048
 203   2.0000      -0.470237       -12.7958
 204   2.0000      -0.467024       -12.7084
 205   2.0000      -0.466408       -12.6916
 206   2.0000      -0.463854       -12.6221
 207   2.0000      -0.462157       -12.5759
 208   2.0000      -0.458558       -12.4780
 209   2.0000      -0.456013       -12.4088
 210   2.0000      -0.455566       -12.3966
 211   2.0000      -0.451004       -12.2724
 212   2.0000      -0.449025       -12.2186
 213   2.0000      -0.447975       -12.1900
 214   2.0000      -0.446967       -12.1626
 215   2.0000      -0.446202       -12.1418
 216   2.0000      -0.442737       -12.0475
 217   2.0000      -0.438372       -11.9287
 218   2.0000      -0.437148       -11.8954
 219   2.0000      -0.431997       -11.7552
 220   2.0000      -0.428648       -11.6641
 221   2.0000      -0.427678       -11.6377
 222   2.0000      -0.424834       -11.5603
 223   2.0000      -0.423503       -11.5241
 224   2.0000      -0.421830       -11.4786
 225   2.0000      -0.420121       -11.4321
 226   2.0000      -0.419814       -11.4237
 227   2.0000      -0.416094       -11.3225
 228   2.0000      -0.410739       -11.1768
 229   2.0000      -0.410593       -11.1728
 230   2.0000      -0.407170       -11.0797
 231   2.0000      -0.402805       -10.9609
 232   2.0000      -0.402537       -10.9536
 233   2.0000      -0.395644       -10.7660
 234   2.0000      -0.389392       -10.5959
 235   2.0000      -0.383189       -10.4271
 236   2.0000      -0.381026       -10.3682
 237   2.0000      -0.379873       -10.3369
 238   2.0000      -0.378163       -10.2903
 239   2.0000      -0.370434       -10.0800
 240   2.0000      -0.361268        -9.8306
 241   2.0000      -0.357333        -9.7235
 242   2.0000      -0.343005        -9.3336
 243   2.0000      -0.341970        -9.3055
 244   2.0000      -0.339178        -9.2295
 245   2.0000      -0.332865        -9.0577
 246   2.0000      -0.326845        -8.8939
 247   2.0000      -0.324105        -8.8194
 248   2.0000      -0.320472        -8.7205
 249   2.0000      -0.316226        -8.6049
 250   2.0000      -0.314062        -8.5461
 251   2.0000      -0.313017        -8.5176
 252   2.0000      -0.309678        -8.4268
 253   2.0000      -0.301150        -8.1947
 254   2.0000      -0.297056        -8.0833
 255   2.0000      -0.289985        -7.8909
 256   2.0000      -0.285694        -7.7741
 257   2.0000      -0.280628        -7.6363
 258   2.0000      -0.265078        -7.2131
 259   2.0000      -0.243787        -6.6338
 260   2.0000      -0.221092        -6.0162
 261   2.0000      -0.207592        -5.6489
 262   2.0000      -0.165158        -4.4942
 263   0.0000      -0.102568        -2.7910
 264   0.0000      -0.062670        -1.7053
 265   0.0000      -0.047561        -1.2942
 266   0.0000      -0.021634        -0.5887
 267   0.0000       0.000030         0.0008

MULLIKEN ATOMIC CHARGES
-----------------------
   0 C :   -0.010829
   1 S :    0.118906
   2 C :   -0.075005
   3 C :   -0.238456
   4 N :   -0.036785
   5 C :    0.379920
   6 C :   -0.148076
   7 C :   -0.096039
   8 S :    0.130207
   9 C :   -0.036690
  10 C :   -0.026633
  11 C :   -0.005607
  12 C :   -0.002931
  13 C :   -0.011874
  14 C :   -0.021107
  15 C :    0.025362
  16 C :    0.016475
  17 C :   -0.041892
  18 S :    0.078090
  19 C :   -0.043304
  20 C :    0.009053
  21 C :    0.025668
  22 C :   -0.031671
  23 S :    0.083355
  24 C :   -0.003946
  25 C :   -0.006146
  26 C :   -0.029392
  27 C :    0.020915
  28 C :    0.010445
  29 C :   -0.044647
  30 S :    0.083204
  31 C :   -0.040493
  32 C :    0.019740
  33 C :    0.013251
  34 C :   -0.007547
  35 S :    0.116315
  36 C :   -0.082584
  37 C :    0.187319
  38 C :    0.178429
  39 O :   -0.250960
  40 C :    0.221100
  41 C :    0.229402
  42 C :   -0.175711
  43 S :    0.105368
  44 C :   -0.176122
  45 O :   -0.279201
  46 C :   -0.061326
  47 C :   -0.004505
  48 C :    0.132516
  49 C :   -0.121906
  50 C :    0.065654
  51 C :    0.003980
  52 C :   -0.074615
  53 C :    0.144751
  54 N :   -0.208102
  55 C :    0.136388
  56 N :   -0.211644
  57 C :    0.113068
  58 C :   -0.151064
  59 C :    0.119773
  60 C :   -0.042939
  61 C :    0.021645
  62 C :    0.006309
  63 C :    0.031101
  64 C :   -0.000866
  65 C :   -0.002377
  66 C :   -0.045566
  67 C :   -0.018647
  68 H :    0.034088
  69 H :    0.034849
  70 H :    0.033756
  71 H :   -0.027168
  72 H :   -0.017112
  73 H :    0.004720
  74 H :   -0.020172
  75 H :   -0.017701
  76 H :   -0.016992
  77 H :   -0.019050
  78 H :   -0.017892
  79 H :   -0.010793
  80 H :   -0.008279
  81 H :   -0.016062
  82 H :   -0.018405
  83 H :   -0.018588
  84 H :   -0.018804
  85 H :   -0.018808
  86 H :    0.027157
  87 H :    0.021736
  88 H :   -0.014765
  89 H :   -0.013339
  90 H :   -0.051894
  91 H :   -0.036616
  92 H :   -0.017186
  93 H :   -0.021183
  94 H :    0.087921
  95 H :    0.087851
  96 H :   -0.013218
  97 H :   -0.003943
  98 H :    0.097043
  99 H :    0.084126
 100 H :   -0.001739
 101 H :    0.025871
 102 H :   -0.011890
 103 H :   -0.038686
 104 H :   -0.042275
 105 H :   -0.041014
 106 H :    0.013204
 107 H :    0.015009
 108 H :    0.025737
Sum of atomic charges:   -0.0000000

LOEWDIN ATOMIC CHARGES
----------------------
   0 C :   -0.131284
   1 S :    0.407955
   2 C :   -0.215883
   3 C :   -0.047935
   4 N :   -0.084140
   5 C :   -0.011983
   6 C :   -0.051099
   7 C :   -0.196288
   8 S :    0.428406
   9 C :   -0.161894
  10 C :   -0.053901
  11 C :   -0.039884
  12 C :   -0.045068
  13 C :   -0.054076
  14 C :   -0.152444
  15 C :   -0.042436
  16 C :   -0.039609
  17 C :   -0.180321
  18 S :    0.379648
  19 C :   -0.181377
  20 C :   -0.043864
  21 C :   -0.043754
  22 C :   -0.153137
  23 S :    0.387232
  24 C :   -0.060769
  25 C :   -0.060056
  26 C :   -0.153573
  27 C :   -0.043574
  28 C :   -0.044048
  29 C :   -0.178345
  30 S :    0.386319
  31 C :   -0.189822
  32 C :   -0.037121
  33 C :   -0.045880
  34 C :   -0.145311
  35 S :    0.406309
  36 C :   -0.076648
  37 C :    0.023381
  38 C :    0.027405
  39 O :   -0.047511
  40 C :   -0.008040
  41 C :   -0.007575
  42 C :   -0.210007
  43 S :    0.433075
  44 C :   -0.214170
  45 O :   -0.058898
  46 C :   -0.050972
  47 C :   -0.009065
  48 C :   -0.026727
  49 C :   -0.018700
  50 C :   -0.020120
  51 C :   -0.032993
  52 C :   -0.053847
  53 C :    0.023791
  54 N :   -0.116023
  55 C :    0.021325
  56 N :   -0.110490
  57 C :   -0.013813
  58 C :    0.057804
  59 C :   -0.030328
  60 C :   -0.031427
  61 C :   -0.018786
  62 C :   -0.030308
  63 C :   -0.032530
  64 C :   -0.006795
  65 C :   -0.028702
  66 C :   -0.003722
  67 C :   -0.057337
  68 H :    0.015389
  69 H :    0.054929
  70 H :    0.054718
  71 H :    0.029833
  72 H :    0.033179
  73 H :    0.015754
  74 H :    0.031596
  75 H :    0.031147
  76 H :    0.030457
  77 H :    0.029376
  78 H :    0.031572
  79 H :    0.027374
  80 H :    0.027783
  81 H :    0.031890
  82 H :    0.029541
  83 H :    0.029326
  84 H :    0.029861
  85 H :    0.036476
  86 H :    0.030113
  87 H :    0.027757
  88 H :    0.028078
  89 H :    0.028356
  90 H :    0.018816
  91 H :    0.017148
  92 H :   -0.002674
  93 H :    0.011367
  94 H :    0.051762
  95 H :    0.053290
  96 H :    0.013758
  97 H :    0.015013
  98 H :    0.052008
  99 H :    0.050034
 100 H :    0.025770
 101 H :    0.053741
 102 H :    0.024605
 103 H :    0.028497
 104 H :    0.025668
 105 H :    0.021254
 106 H :    0.029802
 107 H :    0.021011
 108 H :    0.026388

  Mayer bond orders larger than 0.100000
B(  0-C ,  1-S ) :   1.1281 B(  0-C ,  4-N ) :   1.6894 B(  0-C , 68-H ) :   0.9667
B(  1-S ,  2-C ) :   1.0893 B(  2-C ,  3-C ) :   1.5175 B(  2-C ,  7-C ) :   1.1993
B(  3-C ,  4-N ) :   1.4150 B(  3-C ,  5-C ) :   1.0475 B(  5-C ,  6-C ) :   0.9826
B(  5-C , 69-H ) :   0.8655 B(  5-C , 70-H ) :   0.8646 B(  6-C ,  7-C ) :   1.5179
B(  6-C , 10-C ) :   1.3082 B(  7-C ,  8-S ) :   1.0823 B(  8-S ,  9-C ) :   1.0844
B(  9-C , 10-C ) :   1.4038 B(  9-C , 11-C ) :   1.2006 B( 10-C , 71-H ) :   1.0078
B( 11-C , 12-C ) :   1.5400 B( 11-C , 72-H ) :   0.9846 B( 12-C , 13-C ) :   1.2305
B( 12-C , 73-H ) :   0.9647 B( 13-C , 14-C ) :   1.4723 B( 13-C , 74-H ) :   0.9847
B( 14-C , 15-C ) :   1.2029 B( 14-C , 18-S ) :   1.0424 B( 15-C , 16-C ) :   1.5028
B( 15-C , 75-H ) :   1.0006 B( 16-C , 17-C ) :   1.2706 B( 16-C , 76-H ) :   0.9946
B( 17-C , 18-S ) :   1.0645 B( 17-C , 19-C ) :   1.3737 B( 19-C , 20-C ) :   1.2897
B( 19-C , 23-S ) :   1.0666 B( 20-C , 21-C ) :   1.4627 B( 20-C , 77-H ) :   0.9952
B( 21-C , 22-C ) :   1.2607 B( 21-C , 78-H ) :   1.0002 B( 22-C , 23-S ) :   1.0608
B( 22-C , 24-C ) :   1.3988 B( 24-C , 25-C ) :   1.3366 B( 24-C , 79-H ) :   0.9717
B( 25-C , 26-C ) :   1.3957 B( 25-C , 80-H ) :   0.9718 B( 26-C , 27-C ) :   1.2647
B( 26-C , 30-S ) :   1.0602 B( 27-C , 28-C ) :   1.4556 B( 27-C , 81-H ) :   1.0011
B( 28-C , 29-C ) :   1.2953 B( 28-C , 82-H ) :   0.9951 B( 29-C , 30-S ) :   1.0677
B( 29-C , 31-C ) :   1.3682 B( 31-C , 32-C ) :   1.2691 B( 31-C , 35-S ) :   1.0449
B( 32-C , 33-C ) :   1.5032 B( 32-C , 83-H ) :   0.9961 B( 33-C , 34-C ) :   1.2054
B( 33-C , 84-H ) :   1.0008 B( 34-C , 35-S ) :   1.0582 B( 34-C , 36-C ) :   1.4775
B( 36-C , 37-C ) :   1.2729 B( 36-C , 85-H ) :   0.9550 B( 37-C , 38-C ) :   1.3426
B( 37-C , 45-O ) :   1.0294 B( 38-C , 39-O ) :   1.0565 B( 38-C , 46-C ) :   1.2348
B( 39-O , 40-C ) :   1.0604 B( 40-C , 41-C ) :   1.2105 B( 40-C , 44-C ) :   1.5657
B( 41-C , 42-C ) :   1.5705 B( 41-C , 45-O ) :   1.0357 B( 42-C , 43-S ) :   1.1401
B( 42-C , 86-H ) :   0.9728 B( 43-S , 44-C ) :   1.1399 B( 44-C , 87-H ) :   0.9728
B( 46-C , 47-C ) :   1.5854 B( 46-C , 88-H ) :   0.9473 B( 47-C , 48-C ) :   1.0904
B( 47-C , 89-H ) :   0.9904 B( 48-C , 49-C ) :   1.4763 B( 48-C , 65-C ) :   1.1148
B( 49-C , 50-C ) :   1.1248 B( 49-C , 90-H ) :   1.0022 B( 50-C , 51-C ) :   1.4753
B( 50-C , 63-C ) :   1.1199 B( 51-C , 52-C ) :   1.0112 B( 51-C , 57-C ) :   1.0922
B( 52-C , 53-C ) :   1.0371 B( 52-C , 55-C ) :   1.0099 B( 52-C , 91-H ) :   0.8882
B( 53-C , 54-N ) :   1.0896 B( 53-C , 92-H ) :   0.9387 B( 53-C , 93-H ) :   0.9321
B( 54-N , 94-H ) :   0.9711 B( 54-N , 95-H ) :   0.9686 B( 55-C , 56-N ) :   1.1284
B( 55-C , 96-H ) :   0.9462 B( 55-C , 97-H ) :   0.9457 B( 56-N , 98-H ) :   0.9793
B( 56-N , 99-H ) :   0.9773 B( 57-C , 58-C ) :   1.6360 B( 57-C , 62-C ) :   1.0531
B( 58-C , 59-C ) :   0.9779 B( 58-C ,100-H ) :   0.9706 B( 59-C , 60-C ) :   0.9898
B( 59-C , 66-C ) :   0.9633 B( 59-C ,101-H ) :   0.8713 B( 60-C , 61-C ) :   1.7185
B( 60-C ,102-H ) :   0.9737 B( 61-C , 62-C ) :   1.1270 B( 61-C ,103-H ) :   0.9884
B( 62-C , 63-C ) :   1.4549 B( 63-C , 64-C ) :   1.1302 B( 64-C , 65-C ) :   1.6278
B( 64-C ,104-H ) :   0.9886 B( 65-C ,105-H ) :   0.9788 B( 66-C , 67-C ) :   2.0070
B( 66-C ,106-H ) :   0.9662 B( 67-C ,107-H ) :   0.9593 B( 67-C ,108-H ) :   0.9528

-----------------------------------------------------------------------------
         ABSORPTION SPECTRUM VIA TRANSITION ELECTRIC DIPOLE MOMENTS
-----------------------------------------------------------------------------
State   Energy  Wavelength   fosc         T2         TX        TY        TZ
        (cm-1)    (nm)                  (au**2)     (au)      (au)      (au)
-----------------------------------------------------------------------------
   0    2661.7   3756.9   0.379935753  46.99148   0.68160   2.95875  -6.14595
   1   10647.6    939.2   0.003395236   0.10498  -0.06947   0.24487  -0.20047
   2   13171.0    759.2   0.174742974   4.36775   1.47143  -0.12761   1.47864
   3   14388.4    695.0   0.011265090   0.25775   0.15438  -0.32558   0.35766
   4   15353.7    651.3   0.265462366   5.69200  -1.75158   1.61820  -0.07326
   5   18190.8    549.7   0.059582626   1.07831  -0.11703   0.64995  -0.80136
   6   18341.6    545.2   0.200282310   3.59485  -0.62271   0.32551   1.76100
   7   21240.6    470.8   0.630308455   9.76927   0.74483  -2.06067  -2.22894
   8   22857.3    437.5   0.208127680   2.99764  -0.39989   0.83962   1.46040
   9   23085.3    433.2   0.290050285   4.13632   0.21976  -1.13571  -1.67278
  10   25040.6    399.4   0.042970512   0.56494   0.27975  -0.69490   0.06159
  11   25534.2    391.6   0.154950557   1.99777  -0.40988   1.31255   0.32710
  12   26708.9    374.4   0.062885829   0.77513  -0.19580   0.35566  -0.78122
  13   27447.1    364.3   0.240137576   2.88031  -0.28006   0.39435  -1.62677
  14   27572.9    362.7   0.203748162   2.43269   0.45407  -1.48070   0.18449
  15   27607.6    362.2   0.503433988   6.00330  -0.90903   2.23021  -0.45067
  16   29072.5    344.0   0.031507829   0.35679  -0.19180   0.43484   0.36183
  17   29344.0    340.8   0.011443625   0.12839  -0.18404   0.23230   0.20137
  18   29468.5    339.3   0.006803079   0.07600   0.07447   0.23997   0.11346
  19   29953.3    333.9   0.017809460   0.19574  -0.00271   0.14425   0.41824
  20   30090.1    332.3   0.012157685   0.13302   0.05952   0.27339   0.23394
  21   30206.6    331.1   0.024209993   0.26386   0.03118   0.08952   0.50485
  22   30271.0    330.3   0.015199421   0.16530   0.12459  -0.37746   0.08545
  23   30535.9    327.5   0.069075966   0.74472  -0.25136   0.65630  -0.50081
  24   30990.0    322.7   0.029822570   0.31681  -0.00528  -0.51294  -0.23168
  25   32152.6    311.0   0.032247772   0.33019  -0.00142   0.19879   0.53914
  26   32263.1    310.0   0.010665077   0.10883   0.01886   0.32876   0.01970
  27   32578.1    307.0   0.077453696   0.78269  -0.26766   0.81937  -0.19920
  28   33126.1    301.9   0.001449990   0.01441   0.10757   0.05255   0.00876
  29   33177.4    301.4   0.007986551   0.07925  -0.18278  -0.18564   0.10667
  30   33547.8    298.1   0.049050726   0.48135  -0.27458   0.63259   0.07604
  31   33679.2    296.9   0.034193838   0.33424  -0.19664   0.22904  -0.49307
  32   33829.2    295.6   0.001328016   0.01292   0.07224  -0.07539   0.04496
  33   34376.4    290.9   0.094948681   0.90929  -0.21170   0.66800  -0.64672
  34   34744.1    287.8   0.077886444   0.73800  -0.18950   0.42252  -0.72358
  35   34799.0    287.4   0.031565078   0.29862   0.48154  -0.18835  -0.17681
  36   35103.6    284.9   0.007556839   0.07087   0.07195  -0.25518   0.02401
  37   35366.3    282.8   0.008489157   0.07902  -0.11562   0.20580  -0.15265
  38   36000.5    277.8   0.120389425   1.10092   0.14667  -0.73639   0.73289
  39   36230.7    276.0   0.024034646   0.21839   0.11709  -0.33269   0.30659
  40   36590.3    273.3   0.203079812   1.82716  -0.51474   0.96933  -0.78905
  41   36910.3    270.9   0.053616618   0.47822  -0.12812   0.15901  -0.66070
  42   37058.6    269.8   0.272178750   2.41791  -0.40265   1.27900  -0.78737
  43   37660.1    265.5   0.052247203   0.45673   0.17305  -0.62564   0.18803
  44   38184.2    261.9   0.059227337   0.51064  -0.16565   0.67236  -0.17644
  45   38796.7    257.8   0.021459308   0.18209  -0.01972   0.40290   0.13920
  46   38979.6    256.5   0.052170669   0.44062   0.21056  -0.36178   0.51517
  47   39127.6    255.6   0.067445171   0.56747   0.22764  -0.53381   0.48031
  48   39565.3    252.7   0.019294535   0.16054   0.07562   0.00681   0.39342
  49   39594.5    252.6   0.034091269   0.28346  -0.10745   0.51706   0.06752
  50   39837.8    251.0   0.017349907   0.14338  -0.17270   0.33219   0.05658
  51   40158.0    249.0   0.106124534   0.87000   0.32373  -0.39660   0.77969

FINAL SINGLE POINT ENERGY     -5256.438644006907

DIPOLE MOMENT
-------------
                                X             Y             Z
Electronic contribution:     13.07790     -52.98996     137.48709
Nuclear contribution   :    -13.82213      52.84512    -137.90275
                        -----------------------------------------
Total Dipole Moment    :     -0.74422      -0.14484      -0.41566
                        -----------------------------------------
Magnitude (a.u.)       :      0.86465
Magnitude (Debye)      :      2.19777

Rotational constants in cm-1:     0.001556     0.000148     0.000140
Rotational constants in MHz :    46.647876     4.442864     4.185493

                             ****ORCA TERMINATED NORMALLY****
TOTAL RUN TIME: 0 days 0 hours 13 minutes 21 seconds 81 msec
