                         Program Version 4.2.0 -  RELEASE  -
|  1> # ORCA input file
|  2> # SCF done       -163.276940395552          0.000252000786
|  3> ! CAM-B3LYP def2-SVP def2/J RIJCOSX Grid4 TightSCF
|  4> %maxcore 5000
|  5> %tddft
|  6>     Mode sTDDFT
|  7>     Ethresh 5.0
|  8>     maxcore 5000
|  9> end
| 10>
| 11> %pal
| 12>   nprocs 6
| 13>   end
| 14> * xyz 0 1
| 15>    C       -4.62108        -2.91653         7.76394
| 16>    C       -4.75871        -3.99217         6.91360
| 17>    C       -4.12413        -5.23440         7.10287
| 18>    N       -3.63386        -6.27014         7.19321
| 19>    C       -5.54544        -4.02822         5.74646
| 20>    N       -6.16035        -4.15856         4.78341
| 21>    C       -3.81935        -2.91524         8.98786
| 22>    C       -3.95186        -1.65192         9.61246
| 23>    C       -3.31371        -1.33290        10.78451
| 24>    C       -2.49982        -2.30898        11.37129
| 25>    C       -2.37275        -3.56709        10.74072
| 26>    C       -3.02173        -3.89028         9.55404
| 27>    S       -1.31683        -4.62400        11.63036
| 28>    C       -1.06527        -3.37506        12.82061
| 29>    C       -1.73552        -2.22669        12.56804
| 30>   Br        0.06051        -3.70509        14.28539
| 31>    C       -4.84399        -0.79847         8.79667
| 32>    O       -5.17099         0.34514         9.05506
| 33>    C       -5.22441        -1.61853         7.63448
| 34>    C       -5.99299        -1.16793         6.57486
| 35>    C       -6.53446         0.10493         6.46831
| 36>    C       -7.21750         0.54248         5.34555
| 37>    C       -7.74518         1.83220         5.12831
| 38>    C       -8.30227         2.00754         3.89179
| 39>    C       -8.24436         0.85941         3.08042
| 40>    S       -7.48645        -0.46263         3.93993
| 41>    C       -8.65257         0.70968         1.76319
| 42>    C       -9.21030         1.67843         0.90123
| 43>    C       -9.44372         1.21942        -0.36088
| 44>    C       -9.10162        -0.14118        -0.55625
| 45>    S       -8.45925        -0.81158         0.93540
| 46>    C       -9.17470        -0.83556        -1.73983
| 47>    C       -8.84597        -2.19061        -1.95320
| 48>    S       -8.06977        -2.56002        -3.48298
| 49>    C       -7.64982        -4.12128        -2.97757
| 50>    C       -8.12733        -4.40599        -1.71423
| 51>    C       -8.87479        -3.32904        -1.13368
| 52>    C       -9.60784        -3.56215         0.07514
| 53>    C       -9.34279        -4.74991         0.74979
| 54>    C       -8.50085        -5.73897         0.24718
| 55>    C       -7.92366        -5.61489        -0.99593
| 56>    O       -7.18042        -6.57897        -1.57956
| 57>    C      -10.61702        -2.64093         0.48036
| 58>    C      -11.40749        -2.60264         1.59734
| 59>    C      -12.38087        -1.58945         1.82493
| 60>    C      -13.07540        -1.71453         2.98551
| 61>    C      -12.71048        -2.84753         3.74949
| 62>    S      -11.41366        -3.71546         2.95547
| 63>    C      -13.28078        -3.29682         4.92127
| 64>    C      -14.33141        -2.70343         5.65966
| 65>    C      -14.71379        -3.42157         6.74793
| 66>    C      -13.99609        -4.63407         6.93923
| 67>    S      -12.78585        -4.79755         5.67894
| 68>    C      -14.24172        -5.53579         7.93989
| 69>    C      -13.60828        -6.77281         8.17969
| 70>    S      -14.18408        -7.75860         9.49953
| 71>    C      -13.02271        -8.98637         9.14003
| 72>    C      -12.94053       -10.20950         9.91312
| 73>    O      -12.16238       -11.10959         9.70151
| 74>    O      -13.84004       -10.25163        10.91605
| 75>    C      -12.23574        -8.63933         8.06090
| 76>    C      -12.55929        -7.40123         7.52013
| 77>    H       -3.43501        -0.36026        11.23517
| 78>    H       -2.88938        -4.86418         9.11358
| 79>    H       -1.69412        -1.35618        13.19705
| 80>    H       -6.16968        -1.84496         5.74762
| 81>    H       -6.39592         0.80485         7.27950
| 82>    H       -7.68656         2.59507         5.88413
| 83>    H       -8.74075         2.92828         3.55069
| 84>    H       -9.41032         2.68323         1.22685
| 85>    H       -9.85431         1.81328        -1.15855
| 86>    H       -9.38477        -0.25054        -2.62738
| 87>    H       -7.06916        -4.76614        -3.60602
| 88>    H       -9.82884        -4.94099         1.69126
| 89>    H       -8.33880        -6.63661         0.82707
| 90>    H       -7.09760        -7.33745        -0.98678
| 91>    H      -10.84762        -1.86985        -0.24275
| 92>    H      -12.52894        -0.79611         1.11273
| 93>    H      -13.84639        -1.03732         3.30640
| 94>    H      -14.77399        -1.76868         5.36558
| 95>    H      -15.49835        -3.13078         7.42400
| 96>    H      -15.03676        -5.27601         8.62705
| 97>    H      -13.74728       -11.08437        11.40276
| 98>    H      -11.45617        -9.28413         7.69721
| 99>    H      -12.04782        -6.97103         6.67958
|100> *
|101>
|102>                          ****END OF INPUT****

CARTESIAN COORDINATES (ANGSTROEM)
---------------------------------
  C     -4.621080   -2.916530    7.763940
  C     -4.758710   -3.992170    6.913600
  C     -4.124130   -5.234400    7.102870
  N     -3.633860   -6.270140    7.193210
  C     -5.545440   -4.028220    5.746460
  N     -6.160350   -4.158560    4.783410
  C     -3.819350   -2.915240    8.987860
  C     -3.951860   -1.651920    9.612460
  C     -3.313710   -1.332900   10.784510
  C     -2.499820   -2.308980   11.371290
  C     -2.372750   -3.567090   10.740720
  C     -3.021730   -3.890280    9.554040
  S     -1.316830   -4.624000   11.630360
  C     -1.065270   -3.375060   12.820610
  C     -1.735520   -2.226690   12.568040
  Br     0.060510   -3.705090   14.285390
  C     -4.843990   -0.798470    8.796670
  O     -5.170990    0.345140    9.055060
  C     -5.224410   -1.618530    7.634480
  C     -5.992990   -1.167930    6.574860
  C     -6.534460    0.104930    6.468310
  C     -7.217500    0.542480    5.345550
  C     -7.745180    1.832200    5.128310
  C     -8.302270    2.007540    3.891790
  C     -8.244360    0.859410    3.080420
  S     -7.486450   -0.462630    3.939930
  C     -8.652570    0.709680    1.763190
  C     -9.210300    1.678430    0.901230
  C     -9.443720    1.219420   -0.360880
  C     -9.101620   -0.141180   -0.556250
  S     -8.459250   -0.811580    0.935400
  C     -9.174700   -0.835560   -1.739830
  C     -8.845970   -2.190610   -1.953200
  S     -8.069770   -2.560020   -3.482980
  C     -7.649820   -4.121280   -2.977570
  C     -8.127330   -4.405990   -1.714230
  C     -8.874790   -3.329040   -1.133680
  C     -9.607840   -3.562150    0.075140
  C     -9.342790   -4.749910    0.749790
  C     -8.500850   -5.738970    0.247180
  C     -7.923660   -5.614890   -0.995930
  O     -7.180420   -6.578970   -1.579560
  C    -10.617020   -2.640930    0.480360
  C    -11.407490   -2.602640    1.597340
  C    -12.380870   -1.589450    1.824930
  C    -13.075400   -1.714530    2.985510
  C    -12.710480   -2.847530    3.749490
  S    -11.413660   -3.715460    2.955470
  C    -13.280780   -3.296820    4.921270
  C    -14.331410   -2.703430    5.659660
  C    -14.713790   -3.421570    6.747930
  C    -13.996090   -4.634070    6.939230
  S    -12.785850   -4.797550    5.678940
  C    -14.241720   -5.535790    7.939890
  C    -13.608280   -6.772810    8.179690
  S    -14.184080   -7.758600    9.499530
  C    -13.022710   -8.986370    9.140030
  C    -12.940530  -10.209500    9.913120
  O    -12.162380  -11.109590    9.701510
  O    -13.840040  -10.251630   10.916050
  C    -12.235740   -8.639330    8.060900
  C    -12.559290   -7.401230    7.520130
  H     -3.435010   -0.360260   11.235170
  H     -2.889380   -4.864180    9.113580
  H     -1.694120   -1.356180   13.197050
  H     -6.169680   -1.844960    5.747620
  H     -6.395920    0.804850    7.279500
  H     -7.686560    2.595070    5.884130
  H     -8.740750    2.928280    3.550690
  H     -9.410320    2.683230    1.226850
  H     -9.854310    1.813280   -1.158550
  H     -9.384770   -0.250540   -2.627380
  H     -7.069160   -4.766140   -3.606020
  H     -9.828840   -4.940990    1.691260
  H     -8.338800   -6.636610    0.827070
  H     -7.097600   -7.337450   -0.986780
  H    -10.847620   -1.869850   -0.242750
  H    -12.528940   -0.796110    1.112730
  H    -13.846390   -1.037320    3.306400
  H    -14.773990   -1.768680    5.365580
  H    -15.498350   -3.130780    7.424000
  H    -15.036760   -5.276010    8.627050
  H    -13.747280  -11.084370   11.402760
  H    -11.456170   -9.284130    7.697210
  H    -12.047820   -6.971030    6.679580

 Total Charge           Charge          ....    0
 Multiplicity           Mult            ....    1
 Number of Electrons    NEL             ....  504
 Basis Dimension        Dim             .... 1029

ORBITAL ENERGIES
----------------

  NO   OCC          E(Eh)            E(eV)
   0   2.0000    -482.872899    -13139.6396
   1   2.0000     -88.980586     -2421.2848
   2   2.0000     -88.959923     -2420.7226
   3   2.0000     -88.959908     -2420.7222
   4   2.0000     -88.952486     -2420.5202
   5   2.0000     -88.948695     -2420.4171
   6   2.0000     -88.944361     -2420.2991
   7   2.0000     -88.943115     -2420.2652
   8   2.0000     -62.550633     -1702.0893
   9   2.0000     -56.384564     -1534.3020
  10   2.0000     -56.381883     -1534.2290
  11   2.0000     -56.381841     -1534.2279
  12   2.0000     -19.266413      -524.2658
  13   2.0000     -19.247485      -523.7507
  14   2.0000     -19.192797      -522.2626
  15   2.0000     -19.184951      -522.0490
  16   2.0000     -14.394479      -391.6937
  17   2.0000     -14.391992      -391.6260
  18   2.0000     -10.390569      -282.7418
  19   2.0000     -10.353194      -281.7247
  20   2.0000     -10.343525      -281.4616
  21   2.0000     -10.342950      -281.4460
  22   2.0000     -10.330173      -281.0983
  23   2.0000     -10.320069      -280.8234
  24   2.0000     -10.319803      -280.8161
  25   2.0000     -10.316927      -280.7378
  26   2.0000     -10.316868      -280.7362
  27   2.0000     -10.316513      -280.7266
  28   2.0000     -10.314925      -280.6834
  29   2.0000     -10.314151      -280.6623
  30   2.0000     -10.311836      -280.5993
  31   2.0000     -10.309299      -280.5303
  32   2.0000     -10.307507      -280.4815
  33   2.0000     -10.306623      -280.4575
  34   2.0000     -10.305977      -280.4399
  35   2.0000     -10.303889      -280.3831
  36   2.0000     -10.302592      -280.3478
  37   2.0000     -10.300536      -280.2918
  38   2.0000     -10.299780      -280.2713
  39   2.0000     -10.298836      -280.2456
  40   2.0000     -10.298800      -280.2446
  41   2.0000     -10.298562      -280.2381
  42   2.0000     -10.296827      -280.1909
  43   2.0000     -10.293738      -280.1068
  44   2.0000     -10.290145      -280.0091
  45   2.0000     -10.289409      -279.9891
  46   2.0000     -10.287611      -279.9401
  47   2.0000     -10.286736      -279.9163
  48   2.0000     -10.285800      -279.8909
  49   2.0000     -10.285690      -279.8879
  50   2.0000     -10.285291      -279.8770
  51   2.0000     -10.284825      -279.8643
  52   2.0000     -10.284719      -279.8614
  53   2.0000     -10.284056      -279.8434
  54   2.0000     -10.283149      -279.8187
  55   2.0000     -10.282038      -279.7885
  56   2.0000     -10.281899      -279.7847
  57   2.0000     -10.281297      -279.7683
  58   2.0000     -10.280176      -279.7378
  59   2.0000     -10.279774      -279.7269
  60   2.0000     -10.276202      -279.6297
  61   2.0000     -10.272027      -279.5161
  62   2.0000     -10.271323      -279.4969
  63   2.0000     -10.267897      -279.4037
  64   2.0000     -10.265505      -279.3386
  65   2.0000     -10.264491      -279.3110
  66   2.0000      -8.780070      -238.9179
  67   2.0000      -8.076195      -219.7644
  68   2.0000      -8.055809      -219.2097
  69   2.0000      -8.055176      -219.1925
  70   2.0000      -8.048483      -219.0104
  71   2.0000      -8.044309      -218.8968
  72   2.0000      -8.040140      -218.7833
  73   2.0000      -8.038964      -218.7513
  74   2.0000      -6.616301      -180.0387
  75   2.0000      -6.601816      -179.6445
  76   2.0000      -6.601679      -179.6408
  77   2.0000      -6.045137      -164.4965
  78   2.0000      -6.040913      -164.3816
  79   2.0000      -6.039150      -164.3336
  80   2.0000      -6.025513      -163.9625
  81   2.0000      -6.024884      -163.9454
  82   2.0000      -6.021243      -163.8464
  83   2.0000      -6.020666      -163.8307
  84   2.0000      -6.018045      -163.7593
  85   2.0000      -6.017055      -163.7324
  86   2.0000      -6.016350      -163.7132
  87   2.0000      -6.014030      -163.6501
  88   2.0000      -6.013515      -163.6361
  89   2.0000      -6.009905      -163.5378
  90   2.0000      -6.009712      -163.5326
  91   2.0000      -6.009397      -163.5240
  92   2.0000      -6.008744      -163.5062
  93   2.0000      -6.006540      -163.4463
  94   2.0000      -6.005850      -163.4275
  95   2.0000      -6.004654      -163.3949
  96   2.0000      -6.001071      -163.2975
  97   2.0000      -5.999903      -163.2656
  98   2.0000      -2.732172       -74.3462
  99   2.0000      -2.728140       -74.2365
 100   2.0000      -2.727985       -74.2322
 101   2.0000      -2.716501       -73.9197
 102   2.0000      -2.716477       -73.9191
 103   2.0000      -1.171985       -31.8913
 104   2.0000      -1.161743       -31.6126
 105   2.0000      -1.105762       -30.0893
 106   2.0000      -1.075072       -29.2542
 107   2.0000      -1.012076       -27.5400
 108   2.0000      -1.004013       -27.3206
 109   2.0000      -1.003640       -27.3104
 110   2.0000      -0.992957       -27.0197
 111   2.0000      -0.992547       -27.0086
 112   2.0000      -0.983119       -26.7520
 113   2.0000      -0.977084       -26.5878
 114   2.0000      -0.972440       -26.4614
 115   2.0000      -0.968228       -26.3468
 116   2.0000      -0.967312       -26.3219
 117   2.0000      -0.940942       -25.6043
 118   2.0000      -0.924896       -25.1677
 119   2.0000      -0.913040       -24.8451
 120   2.0000      -0.897764       -24.4294
 121   2.0000      -0.890392       -24.2288
 122   2.0000      -0.888489       -24.1770
 123   2.0000      -0.877040       -23.8655
 124   2.0000      -0.867554       -23.6073
 125   2.0000      -0.864803       -23.5325
 126   2.0000      -0.857320       -23.3288
 127   2.0000      -0.851672       -23.1752
 128   2.0000      -0.845441       -23.0056
 129   2.0000      -0.841700       -22.9038
 130   2.0000      -0.831614       -22.6294
 131   2.0000      -0.830974       -22.6120
 132   2.0000      -0.827054       -22.5053
 133   2.0000      -0.822110       -22.3707
 134   2.0000      -0.816315       -22.2131
 135   2.0000      -0.811249       -22.0752
 136   2.0000      -0.804120       -21.8812
 137   2.0000      -0.783101       -21.3093
 138   2.0000      -0.773450       -21.0467
 139   2.0000      -0.755151       -20.5487
 140   2.0000      -0.742478       -20.2039
 141   2.0000      -0.737761       -20.0755
 142   2.0000      -0.725952       -19.7541
 143   2.0000      -0.721432       -19.6312
 144   2.0000      -0.708137       -19.2694
 145   2.0000      -0.700113       -19.0510
 146   2.0000      -0.689790       -18.7701
 147   2.0000      -0.680955       -18.5297
 148   2.0000      -0.677053       -18.4235
 149   2.0000      -0.670817       -18.2539
 150   2.0000      -0.669281       -18.2121
 151   2.0000      -0.657539       -17.8926
 152   2.0000      -0.650475       -17.7003
 153   2.0000      -0.648398       -17.6438
 154   2.0000      -0.639102       -17.3909
 155   2.0000      -0.634016       -17.2524
 156   2.0000      -0.628180       -17.0936
 157   2.0000      -0.626570       -17.0498
 158   2.0000      -0.624878       -17.0038
 159   2.0000      -0.618922       -16.8417
 160   2.0000      -0.612943       -16.6790
 161   2.0000      -0.605147       -16.4669
 162   2.0000      -0.604103       -16.4385
 163   2.0000      -0.601496       -16.3675
 164   2.0000      -0.596629       -16.2351
 165   2.0000      -0.594442       -16.1756
 166   2.0000      -0.580808       -15.8046
 167   2.0000      -0.577491       -15.7143
 168   2.0000      -0.575705       -15.6657
 169   2.0000      -0.564320       -15.3559
 170   2.0000      -0.554960       -15.1012
 171   2.0000      -0.546847       -14.8805
 172   2.0000      -0.542413       -14.7598
 173   2.0000      -0.538844       -14.6627
 174   2.0000      -0.535224       -14.5642
 175   2.0000      -0.531768       -14.4702
 176   2.0000      -0.528005       -14.3678
 177   2.0000      -0.526449       -14.3254
 178   2.0000      -0.524755       -14.2793
 179   2.0000      -0.524021       -14.2593
 180   2.0000      -0.520349       -14.1594
 181   2.0000      -0.518811       -14.1176
 182   2.0000      -0.515915       -14.0388
 183   2.0000      -0.513788       -13.9809
 184   2.0000      -0.509809       -13.8726
 185   2.0000      -0.507220       -13.8021
 186   2.0000      -0.505543       -13.7565
 187   2.0000      -0.499373       -13.5886
 188   2.0000      -0.496482       -13.5100
 189   2.0000      -0.494975       -13.4690
 190   2.0000      -0.491108       -13.3637
 191   2.0000      -0.490291       -13.3415
 192   2.0000      -0.487894       -13.2763
 193   2.0000      -0.486170       -13.2294
 194   2.0000      -0.481339       -13.0979
 195   2.0000      -0.479848       -13.0573
 196   2.0000      -0.477926       -13.0050
 197   2.0000      -0.476104       -12.9554
 198   2.0000      -0.475521       -12.9396
 199   2.0000      -0.474180       -12.9031
 200   2.0000      -0.471772       -12.8376
 201   2.0000      -0.468477       -12.7479
 202   2.0000      -0.467087       -12.7101
 203   2.0000      -0.464634       -12.6433
 204   2.0000      -0.461396       -12.5552
 205   2.0000      -0.454427       -12.3656
 206   2.0000      -0.452993       -12.3266
 207   2.0000      -0.450967       -12.2714
 208   2.0000      -0.446681       -12.1548
 209   2.0000      -0.443338       -12.0638
 210   2.0000      -0.440886       -11.9971
 211   2.0000      -0.437428       -11.9030
 212   2.0000      -0.436571       -11.8797
 213   2.0000      -0.434975       -11.8363
 214   2.0000      -0.430332       -11.7099
 215   2.0000      -0.429732       -11.6936
 216   2.0000      -0.426780       -11.6133
 217   2.0000      -0.423681       -11.5290
 218   2.0000      -0.421890       -11.4802
 219   2.0000      -0.420867       -11.4524
 220   2.0000      -0.418353       -11.3840
 221   2.0000      -0.409755       -11.1500
 222   2.0000      -0.408166       -11.1068
 223   2.0000      -0.405759       -11.0413
 224   2.0000      -0.404553       -11.0084
 225   2.0000      -0.402576       -10.9546
 226   2.0000      -0.393460       -10.7066
 227   2.0000      -0.391040       -10.6408
 228   2.0000      -0.389694       -10.6041
 229   2.0000      -0.386605       -10.5201
 230   2.0000      -0.380853       -10.3635
 231   2.0000      -0.376090       -10.2339
 232   2.0000      -0.368216       -10.0197
 233   2.0000      -0.362596        -9.8667
 234   2.0000      -0.358305        -9.7500
 235   2.0000      -0.351864        -9.5747
 236   2.0000      -0.341112        -9.2821
 237   2.0000      -0.339511        -9.2386
 238   2.0000      -0.336759        -9.1637
 239   2.0000      -0.331286        -9.0147
 240   2.0000      -0.327447        -8.9103
 241   2.0000      -0.325450        -8.8560
 242   2.0000      -0.321483        -8.7480
 243   2.0000      -0.314971        -8.5708
 244   2.0000      -0.313352        -8.5268
 245   2.0000      -0.301333        -8.1997
 246   2.0000      -0.297782        -8.1030
 247   2.0000      -0.285691        -7.7741
 248   2.0000      -0.276321        -7.5191
 249   2.0000      -0.260593        -7.0911
 250   2.0000      -0.224004        -6.0955
 251   2.0000      -0.203395        -5.5347
 252   0.0000      -0.105072        -2.8592
 253   0.0000      -0.076859        -2.0914
 254   0.0000      -0.054848        -1.4925
 255   0.0000      -0.039770        -1.0822
 256   0.0000      -0.023782        -0.6471

MULLIKEN ATOMIC CHARGES
-----------------------
   0 C :    0.331813
   1 C :   -0.370241
   2 C :   -0.189681
   3 N :    0.130137
   4 C :   -0.190986
   5 N :    0.126141
   6 C :    0.013258
   7 C :   -0.009665
   8 C :   -0.079254
   9 C :    0.119462
  10 C :   -0.093653
  11 C :   -0.025520
  12 S :    0.177138
  13 C :   -0.124088
  14 C :    0.035022
  15 Br:    0.011027
  16 C :    0.134294
  17 O :   -0.169306
  18 C :   -0.090783
  19 C :   -0.041326
  20 C :   -0.024726
  21 C :    0.005364
  22 C :    0.021085
  23 C :    0.041009
  24 C :   -0.051720
  25 S :    0.110091
  26 C :   -0.033760
  27 C :    0.018745
  28 C :    0.053970
  29 C :   -0.079593
  30 S :    0.142740
  31 C :    0.035445
  32 C :   -0.242291
  33 S :    0.170473
  34 C :   -0.109708
  35 C :    0.021947
  36 C :    0.149813
  37 C :    0.084646
  38 C :   -0.030069
  39 C :   -0.065577
  40 C :    0.163619
  41 O :   -0.170551
  42 C :   -0.050356
  43 C :   -0.023604
  44 C :    0.028631
  45 C :    0.022797
  46 C :   -0.025353
  47 S :    0.064884
  48 C :   -0.044644
  49 C :    0.031906
  50 C :    0.031606
  51 C :   -0.024503
  52 S :    0.066201
  53 C :    0.035998
  54 C :   -0.096429
  55 S :    0.160540
  56 C :   -0.156910
  57 C :    0.153276
  58 O :   -0.199230
  59 O :   -0.190410
  60 C :    0.043180
  61 C :   -0.001695
  62 H :   -0.017995
  63 H :   -0.011886
  64 H :   -0.007035
  65 H :    0.012735
  66 H :    0.014156
  67 H :   -0.002601
  68 H :   -0.010067
  69 H :   -0.011756
  70 H :   -0.007377
  71 H :    0.000324
  72 H :    0.038543
  73 H :   -0.004231
  74 H :   -0.029410
  75 H :    0.192921
  76 H :   -0.002982
  77 H :   -0.016758
  78 H :   -0.017216
  79 H :   -0.015469
  80 H :   -0.013266
  81 H :   -0.017413
  82 H :    0.190730
  83 H :    0.004272
  84 H :    0.001155
Sum of atomic charges:   -0.0000000

LOEWDIN ATOMIC CHARGES
----------------------
   0 C :    0.073364
   1 C :   -0.162067
   2 C :   -0.018967
   3 N :   -0.074883
   4 C :   -0.020740
   5 N :   -0.074173
   6 C :   -0.017271
   7 C :   -0.047942
   8 C :    0.015589
   9 C :   -0.037041
  10 C :   -0.146519
  11 C :   -0.014705
  12 S :    0.425223
  13 C :   -0.276020
  14 C :   -0.071385
  15 Br:    0.126771
  16 C :    0.081124
  17 O :   -0.162588
  18 C :   -0.113531
  19 C :    0.048076
  20 C :   -0.077041
  21 C :   -0.103159
  22 C :   -0.047552
  23 C :   -0.010481
  24 C :   -0.197136
  25 S :    0.413524
  26 C :   -0.149582
  27 C :   -0.046568
  28 C :   -0.015797
  29 C :   -0.166508
  30 S :    0.453676
  31 C :   -0.054207
  32 C :   -0.197818
  33 S :    0.493883
  34 C :   -0.156134
  35 C :   -0.071765
  36 C :   -0.030742
  37 C :   -0.063751
  38 C :    0.013940
  39 C :   -0.086650
  40 C :    0.072624
  41 O :   -0.036439
  42 C :   -0.059297
  43 C :   -0.154775
  44 C :   -0.026333
  45 C :   -0.043571
  46 C :   -0.171099
  47 S :    0.384974
  48 C :   -0.183289
  49 C :   -0.032791
  50 C :   -0.034107
  51 C :   -0.137852
  52 S :    0.384085
  53 C :   -0.083938
  54 C :   -0.155849
  55 S :    0.458019
  56 C :   -0.240890
  57 C :    0.060229
  58 O :   -0.191929
  59 O :   -0.056007
  60 C :   -0.007022
  61 C :   -0.074175
  62 H :    0.037872
  63 H :    0.039473
  64 H :    0.037019
  65 H :    0.030872
  66 H :    0.037596
  67 H :    0.037331
  68 H :    0.033463
  69 H :    0.032885
  70 H :    0.035616
  71 H :    0.036417
  72 H :    0.033429
  73 H :    0.018840
  74 H :    0.031625
  75 H :    0.104404
  76 H :    0.033347
  77 H :    0.031489
  78 H :    0.030582
  79 H :    0.031278
  80 H :    0.033030
  81 H :    0.032316
  82 H :    0.099354
  83 H :    0.040281
  84 H :    0.018469

  Mayer bond orders larger than 0.100000
B(  0-C ,  1-C ) :   1.5695 B(  0-C ,  6-C ) :   0.9852 B(  0-C , 18-C ) :   1.1276
B(  1-C ,  2-C ) :   1.1516 B(  1-C ,  4-C ) :   1.1558 B(  2-C ,  3-N ) :   2.9594
B(  4-C ,  5-N ) :   2.9580 B(  6-C ,  7-C ) :   1.2788 B(  6-C , 11-C ) :   1.4227
B(  7-C ,  8-C ) :   1.4325 B(  7-C , 16-C ) :   0.9338 B(  8-C ,  9-C ) :   1.2361
B(  8-C , 62-H ) :   1.0165 B(  9-C , 10-C ) :   1.3196 B(  9-C , 14-C ) :   1.1595
B( 10-C , 11-C ) :   1.3169 B( 10-C , 12-S ) :   1.0823 B( 11-C , 63-H ) :   0.9795
B( 12-S , 13-C ) :   1.0849 B( 13-C , 14-C ) :   1.6226 B( 13-C , 15-Br) :   1.0110
B( 14-C , 64-H ) :   0.9995 B( 16-C , 17-O ) :   2.1816 B( 16-C , 18-C ) :   0.9719
B( 18-C , 19-C ) :   1.4494 B( 19-C , 20-C ) :   1.2894 B( 19-C , 65-H ) :   0.9439
B( 20-C , 21-C ) :   1.3885 B( 20-C , 66-H ) :   0.9771 B( 21-C , 22-C ) :   1.1984
B( 21-C , 25-S ) :   1.0933 B( 22-C , 23-C ) :   1.5178 B( 22-C , 67-H ) :   1.0019
B( 23-C , 24-C ) :   1.2363 B( 23-C , 68-H ) :   0.9947 B( 24-C , 25-S ) :   1.0488
B( 24-C , 26-C ) :   1.4371 B( 26-C , 27-C ) :   1.1986 B( 26-C , 30-S ) :   1.1005
B( 27-C , 28-C ) :   1.5732 B( 27-C , 69-H ) :   0.9943 B( 28-C , 29-C ) :   1.1537
B( 28-C , 70-H ) :   0.9979 B( 29-C , 30-S ) :   1.0497 B( 29-C , 31-C ) :   1.5747
B( 31-C , 32-C ) :   1.1555 B( 31-C , 71-H ) :   0.9501 B( 32-C , 33-S ) :   1.1343
B( 32-C , 36-C ) :   1.3394 B( 33-S , 34-C ) :   1.2359 B( 34-C , 35-C ) :   1.4044
B( 34-C , 72-H ) :   0.9710 B( 35-C , 36-C ) :   1.2306 B( 35-C , 40-C ) :   1.1687
B( 36-C , 37-C ) :   1.1605 B( 37-C , 38-C ) :   1.4215 B( 37-C , 42-C ) :   1.1302
B( 38-C , 39-C ) :   1.2725 B( 38-C , 73-H ) :   0.9696 B( 39-C , 40-C ) :   1.4253
B( 39-C , 74-H ) :   0.9856 B( 40-C , 41-O ) :   1.2766 B( 41-O , 75-H ) :   0.9540
B( 42-C , 43-C ) :   1.5971 B( 42-C , 76-H ) :   0.9553 B( 43-C , 44-C ) :   1.1403
B( 43-C , 47-S ) :   1.0348 B( 44-C , 45-C ) :   1.5915 B( 44-C , 77-H ) :   0.9997
B( 45-C , 46-C ) :   1.1770 B( 45-C , 78-H ) :   0.9931 B( 46-C , 47-S ) :   1.0417
B( 46-C , 48-C ) :   1.5189 B( 48-C , 49-C ) :   1.1808 B( 48-C , 52-S ) :   1.0330
B( 49-C , 50-C ) :   1.5983 B( 49-C , 79-H ) :   0.9927 B( 50-C , 51-C ) :   1.1368
B( 50-C , 80-H ) :   0.9992 B( 51-C , 52-S ) :   1.0427 B( 51-C , 53-C ) :   1.6164
B( 53-C , 54-C ) :   1.1542 B( 53-C , 81-H ) :   0.9521 B( 54-C , 55-S ) :   1.1371
B( 54-C , 61-C ) :   1.4420 B( 55-S , 56-C ) :   1.1100 B( 56-C , 57-C ) :   0.9829
B( 56-C , 60-C ) :   1.5063 B( 57-C , 58-O ) :   2.1688 B( 57-C , 59-O ) :   1.2731
B( 59-O , 82-H ) :   0.9449 B( 60-C , 61-C ) :   1.3012 B( 60-C , 83-H ) :   1.0021
B( 61-C , 84-H ) :   0.9833

-----------------------------------------------------------------------------
         ABSORPTION SPECTRUM VIA TRANSITION ELECTRIC DIPOLE MOMENTS
-----------------------------------------------------------------------------
State   Energy  Wavelength   fosc         T2         TX        TY        TZ
        (cm-1)    (nm)                  (au**2)     (au)      (au)      (au)
-----------------------------------------------------------------------------
   0    7547.5   1324.9   0.226649152   9.88615  -2.23724  -1.29499  -1.78995
   1   12034.8    830.9   0.402641620  11.01424   2.20326  -0.15589   2.47701
   2   14444.3    692.3   1.204254229  27.44711  -1.54277  -1.31364   4.83129
   3   18112.2    552.1   0.178859692   3.25100  -0.64962  -0.64913   1.55165
   4   19045.8    525.0   0.395231548   6.83167   0.21440  -2.07943   1.56897
   5   19639.2    509.2   0.278050559   4.66096  -0.78172   1.75024  -0.99324
   6   21823.2    458.2   0.138568407   2.09036   0.07211   0.04083   1.44343
   7   23189.9    431.2   0.063872221   0.90675  -0.43679   0.82487   0.18857
   8   24109.1    414.8   0.017980564   0.24553   0.13363  -0.16547   0.44754
   9   24630.4    406.0   0.256395915   3.42700  -0.49130  -0.60233  -1.68013
  10   25700.4    389.1   0.024730217   0.31678  -0.30764   0.43392  -0.18400
  11   25931.1    385.6   0.378339009   4.80326  -0.74711   2.06033   0.01057
  12   26813.7    372.9   0.073805868   0.90617   0.55002  -0.73341   0.25644
  13   26827.6    372.8   0.044701176   0.54855  -0.41765   0.57774  -0.20080
  14   27195.1    367.7   0.053639557   0.64934   0.46559  -0.60654   0.25432
  15   28274.1    353.7   0.087954744   1.02411  -0.40549   0.86796   0.32609
  16   28589.7    349.8   0.002603740   0.02998  -0.00018   0.15615   0.07483
  17   29878.7    334.7   0.141499175   1.55908  -0.44646   1.03716   0.53297
  18   30719.8    325.5   0.154164959   1.65213   0.72744  -0.96879   0.42942
  19   31192.8    320.6   0.245733846   2.59350   0.06911  -0.92361  -1.31745
  20   31470.4    317.8   0.208574004   2.18190  -1.03816   1.05013   0.03669
  21   31736.6    315.1   0.000581984   0.00604   0.06856  -0.03614  -0.00553
  22   32032.7    312.2   0.175346862   1.80210   0.86403  -0.26223   0.99338
  23   32267.3    309.9   0.039746193   0.40552  -0.13855   0.22297   0.58017
  24   32737.3    305.5   0.309109185   3.10846   1.15681  -0.06373   1.32898
  25   32818.7    304.7   0.056686253   0.56863  -0.48077   0.57625  -0.07369
  26   33137.7    301.8   0.047080417   0.46773   0.29253  -0.29818   0.54152
  27   33578.1    297.8   0.012660225   0.12413  -0.17673  -0.12943  -0.27593
  28   33755.4    296.2   0.011172475   0.10896  -0.14020  -0.23025   0.19051
  29   34031.1    293.8   0.002217196   0.02145  -0.05069   0.11072   0.08136
  30   34264.3    291.8   0.013602488   0.13069  -0.09239   0.28452   0.20298
  31   34554.3    289.4   0.008211766   0.07824  -0.19642   0.17858  -0.08812
  32   34926.4    286.3   0.007207519   0.06794  -0.09860   0.12120  -0.20863
  33   35088.0    285.0   0.034978876   0.32819  -0.06501  -0.47946  -0.30672
  34   35469.0    281.9   0.002404468   0.02232  -0.09022  -0.02502   0.11641
  35   35566.4    281.2   0.095777724   0.88654   0.11254  -0.83815  -0.41398
  36   36013.3    277.7   0.050830121   0.46466   0.33243  -0.58660   0.10025
  37   36162.2    276.5   0.135982186   1.23795  -0.28306  -0.60470  -0.89004
  38   36522.4    273.8   0.068465111   0.61714  -0.23755   0.57036   0.48518
  39   36896.2    271.0   0.018997895   0.16951  -0.09268  -0.28368   0.28363
  40   37157.9    269.1   0.044261997   0.39215   0.31117  -0.50666  -0.19652
  41   37368.4    267.6   0.117174072   1.03229   0.11796  -0.99597  -0.16252
  42   37741.7    265.0   0.019501873   0.17011   0.16349   0.10224  -0.36459
  43   38041.7    262.9   0.083965755   0.72664   0.10654  -0.80263  -0.26661
  44   38162.8    262.0   0.020870695   0.18004  -0.07646   0.28666  -0.30335
  45   38529.1    259.5   0.032505632   0.27774   0.24886   0.15067  -0.43944
  46   38777.9    257.9   0.152882829   1.29793  -0.05292   0.79749   0.81188
  47   39257.4    254.7   0.018335250   0.15376   0.01351   0.34503  -0.18582
  48   39406.3    253.8   0.010442987   0.08724   0.18733  -0.22278  -0.05019
  49   39632.7    252.3   0.005358057   0.04451  -0.15010   0.11939  -0.08788
  50   40012.8    249.9   0.000090265   0.00074   0.00972  -0.01171  -0.02261
  51   40026.8    249.8   0.038289855   0.31493  -0.22596  -0.12236   0.49890
  52   40236.4    248.5   0.008815881   0.07213   0.13605   0.14893  -0.17732
  53   40320.5    248.0   0.015332135   0.12519  -0.12158   0.17293  -0.28373

FINAL SINGLE POINT ENERGY     -7610.874514076555

DIPOLE MOMENT
-------------
                                X             Y             Z
Electronic contribution:    105.54824     -14.41839     103.34620
Nuclear contribution   :   -107.60789      17.51450    -106.62181
                        -----------------------------------------
Total Dipole Moment    :     -2.05965       3.09610      -3.27561
                        -----------------------------------------
Magnitude (a.u.)       :      4.95557
Magnitude (Debye)      :     12.59605

Rotational constants in cm-1:     0.000833     0.000466     0.000356
Rotational constants in MHz :    24.969878    13.971056    10.661743

                             ****ORCA TERMINATED NORMALLY****
TOTAL RUN TIME: 0 days 0 hours 8 minutes 31 seconds 875 msec
