                         Program Version 4.2.0 -  RELEASE  -
|  1> # ORCA input file
|  2> # SCF done       -169.046832680445          0.000524769071
|  3> ! CAM-B3LYP def2-SVP def2/J RIJCOSX Grid4 TightSCF
|  4> %maxcore 5000
|  5> %tddft
|  6>     Mode sTDDFT
|  7>     Ethresh 5.0
|  8>     maxcore 5000
|  9> end
| 10>
| 11> %pal
| 12>   nprocs 6
| 13>   end
| 14> * xyz 0 1
| 15>    C       -3.36977        -1.03781         1.91248
| 16>    C       -2.73161        -1.57896         0.82467
| 17>    C       -1.95585        -2.75547         0.86972
| 18>    N       -1.31138        -3.70566         0.83627
| 19>    C       -2.73519        -1.05567        -0.48547
| 20>    N       -2.67265        -0.70946        -1.57901
| 21>    C       -3.32919        -1.58317         3.26778
| 22>    C       -4.06960        -0.73062         4.12297
| 23>    C       -4.22305        -0.97499         5.46533
| 24>    C       -3.61682        -2.12067         5.99239
| 25>    C       -2.87963        -2.96710         5.13200
| 26>    C       -2.72355        -2.71766         3.77340
| 27>    S       -2.21677        -4.32716         5.98712
| 28>    C       -2.93029        -3.74743         7.46864
| 29>    C       -3.62853        -2.59550         7.33289
| 30>   Br       -2.68625        -4.71831         9.05504
| 31>    C       -4.61230         0.38997         3.33190
| 32>    O       -5.28816         1.31088         3.75794
| 33>    C       -4.18157         0.15942         1.95152
| 34>    C       -4.53977         0.93083         0.87273
| 35>    C       -5.32234         2.08785         0.82360
| 36>    S       -6.04838         2.97366         2.13259
| 37>    C       -6.71920         4.14956         1.04503
| 38>    C       -6.41044         3.85564        -0.29040
| 39>    C       -5.61804         2.71323        -0.40290
| 40>    O       -5.14608         2.19338        -1.57512
| 41>    S       -4.29795         3.24401        -2.55908
| 42>    C       -5.69042         4.08863        -3.41487
| 43>    C       -6.96729         4.01300        -2.59232
| 44>    O       -6.86649         4.62611        -1.31890
| 45>    C       -7.48877         5.20834         1.58018
| 46>    C       -8.11057         6.16758         0.84456
| 47>    C       -8.91786         7.20755         1.36173
| 48>    S       -9.68649         8.31245         0.26217
| 49>    C      -10.46952         9.18675         1.54417
| 50>    C      -10.11378         8.64950         2.77947
| 51>    C       -9.25785         7.53433         2.67158
| 52>    O       -8.78892         6.81805         3.74107
| 53>    S       -9.93083         6.26867         4.82986
| 54>    C      -10.11800         7.76061         5.88458
| 55>    C       -9.77879         9.01897         5.09919
| 56>    O      -10.57602         9.19428         3.94244
| 57>    C      -11.33124        10.26242         1.21591
| 58>    C      -12.04428        10.98931         2.11225
| 59>    C      -12.94234        12.03479         1.78380
| 60>    S      -13.67099        12.96463         3.06203
| 61>    C      -14.58223        13.93452         1.94241
| 62>    C      -14.30867        13.55091         0.63728
| 63>    C      -13.39069        12.48518         0.54563
| 64>    O      -12.91547        11.94011        -0.60615
| 65>    S      -13.93469        11.87330        -1.92607
| 66>    C      -14.15645        13.65922        -2.10502
| 67>    S      -15.11806        14.34053        -0.71464
| 68>    C      -15.46248        14.96461         2.35435
| 69>    C      -15.69228        15.30353         3.64288
| 70>    C      -16.57800        16.33886         4.05260
| 71>    O      -17.27056        17.06173         3.13384
| 72>    C      -18.01446        17.94944         3.80438
| 73>    C      -17.82610        17.82780         5.14951
| 74>    C      -16.89274        16.78264         5.32823
| 75>    C      -16.35882        16.26716         6.61754
| 76>    H       -4.79414        -0.30532         6.08896
| 77>    H       -2.15310        -3.39582         3.16140
| 78>    H       -4.13225        -2.09976         8.14254
| 79>    H       -4.19334         0.61735        -0.10557
| 80>    H       -5.85225         3.62015        -4.38489
| 81>    H       -5.36984         5.12044        -3.54615
| 82>    H       -7.75403         4.56898        -3.11322
| 83>    H       -7.29036         2.97045        -2.48839
| 84>    H       -7.57673         5.21418         2.65661
| 85>    H       -8.01223         6.15213        -0.23027
| 86>    H       -9.46215         7.67791         6.75064
| 87>    H      -11.15934         7.76368         6.20113
| 88>    H       -9.98450         9.89306         5.72647
| 89>    H       -8.71460         9.02483         4.83531
| 90>    H      -11.41214        10.48348         0.16187
| 91>    H      -11.94765        10.77416         3.16563
| 92>    H      -13.18032        14.13833        -2.15369
| 93>    H      -14.73225        13.84217        -3.00715
| 94>    H      -15.97076        15.49640         1.56089
| 95>    H      -15.18743        14.77201         4.43743
| 96>    H      -18.63187        18.60861         3.22635
| 97>    H      -18.29302        18.40893         5.91841
| 98>    H      -16.78057        16.82720         7.44767
| 99>    H      -15.27379        16.35965         6.64804
|100>    H      -16.60928        15.21434         6.74309
|101> *
|102>
|103>                          ****END OF INPUT****

CARTESIAN COORDINATES (ANGSTROEM)
---------------------------------
  C     -3.369770   -1.037810    1.912480
  C     -2.731610   -1.578960    0.824670
  C     -1.955850   -2.755470    0.869720
  N     -1.311380   -3.705660    0.836270
  C     -2.735190   -1.055670   -0.485470
  N     -2.672650   -0.709460   -1.579010
  C     -3.329190   -1.583170    3.267780
  C     -4.069600   -0.730620    4.122970
  C     -4.223050   -0.974990    5.465330
  C     -3.616820   -2.120670    5.992390
  C     -2.879630   -2.967100    5.132000
  C     -2.723550   -2.717660    3.773400
  S     -2.216770   -4.327160    5.987120
  C     -2.930290   -3.747430    7.468640
  C     -3.628530   -2.595500    7.332890
  Br    -2.686250   -4.718310    9.055040
  C     -4.612300    0.389970    3.331900
  O     -5.288160    1.310880    3.757940
  C     -4.181570    0.159420    1.951520
  C     -4.539770    0.930830    0.872730
  C     -5.322340    2.087850    0.823600
  S     -6.048380    2.973660    2.132590
  C     -6.719200    4.149560    1.045030
  C     -6.410440    3.855640   -0.290400
  C     -5.618040    2.713230   -0.402900
  O     -5.146080    2.193380   -1.575120
  S     -4.297950    3.244010   -2.559080
  C     -5.690420    4.088630   -3.414870
  C     -6.967290    4.013000   -2.592320
  O     -6.866490    4.626110   -1.318900
  C     -7.488770    5.208340    1.580180
  C     -8.110570    6.167580    0.844560
  C     -8.917860    7.207550    1.361730
  S     -9.686490    8.312450    0.262170
  C    -10.469520    9.186750    1.544170
  C    -10.113780    8.649500    2.779470
  C     -9.257850    7.534330    2.671580
  O     -8.788920    6.818050    3.741070
  S     -9.930830    6.268670    4.829860
  C    -10.118000    7.760610    5.884580
  C     -9.778790    9.018970    5.099190
  O    -10.576020    9.194280    3.942440
  C    -11.331240   10.262420    1.215910
  C    -12.044280   10.989310    2.112250
  C    -12.942340   12.034790    1.783800
  S    -13.670990   12.964630    3.062030
  C    -14.582230   13.934520    1.942410
  C    -14.308670   13.550910    0.637280
  C    -13.390690   12.485180    0.545630
  O    -12.915470   11.940110   -0.606150
  S    -13.934690   11.873300   -1.926070
  C    -14.156450   13.659220   -2.105020
  S    -15.118060   14.340530   -0.714640
  C    -15.462480   14.964610    2.354350
  C    -15.692280   15.303530    3.642880
  C    -16.578000   16.338860    4.052600
  O    -17.270560   17.061730    3.133840
  C    -18.014460   17.949440    3.804380
  C    -17.826100   17.827800    5.149510
  C    -16.892740   16.782640    5.328230
  C    -16.358820   16.267160    6.617540
  H     -4.794140   -0.305320    6.088960
  H     -2.153100   -3.395820    3.161400
  H     -4.132250   -2.099760    8.142540
  H     -4.193340    0.617350   -0.105570
  H     -5.852250    3.620150   -4.384890
  H     -5.369840    5.120440   -3.546150
  H     -7.754030    4.568980   -3.113220
  H     -7.290360    2.970450   -2.488390
  H     -7.576730    5.214180    2.656610
  H     -8.012230    6.152130   -0.230270
  H     -9.462150    7.677910    6.750640
  H    -11.159340    7.763680    6.201130
  H     -9.984500    9.893060    5.726470
  H     -8.714600    9.024830    4.835310
  H    -11.412140   10.483480    0.161870
  H    -11.947650   10.774160    3.165630
  H    -13.180320   14.138330   -2.153690
  H    -14.732250   13.842170   -3.007150
  H    -15.970760   15.496400    1.560890
  H    -15.187430   14.772010    4.437430
  H    -18.631870   18.608610    3.226350
  H    -18.293020   18.408930    5.918410
  H    -16.780570   16.827200    7.447670
  H    -15.273790   16.359650    6.648040
  H    -16.609280   15.214340    6.743090

 Total Charge           Charge          ....    0
 Multiplicity           Mult            ....    1
 Number of Electrons    NEL             ....  516
 Basis Dimension        Dim             .... 1029

ORBITAL ENERGIES
----------------

  NO   OCC          E(Eh)            E(eV)
   0   2.0000    -482.879068    -13139.8074
   1   2.0000     -88.977182     -2421.1922
   2   2.0000     -88.969139     -2420.9734
   3   2.0000     -88.967970     -2420.9415
   4   2.0000     -88.967287     -2420.9230
   5   2.0000     -88.954598     -2420.5777
   6   2.0000     -88.954238     -2420.5679
   7   2.0000     -88.951259     -2420.4868
   8   2.0000     -88.937496     -2420.1123
   9   2.0000     -62.556783     -1702.2566
  10   2.0000     -56.390724     -1534.4696
  11   2.0000     -56.388029     -1534.3963
  12   2.0000     -56.387987     -1534.3951
  13   2.0000     -19.279428      -524.6199
  14   2.0000     -19.272608      -524.4343
  15   2.0000     -19.271902      -524.4151
  16   2.0000     -19.271172      -524.3952
  17   2.0000     -19.258989      -524.0637
  18   2.0000     -19.257804      -524.0315
  19   2.0000     -19.208408      -522.6874
  20   2.0000     -14.402024      -391.8990
  21   2.0000     -14.401477      -391.8841
  22   2.0000     -10.356068      -281.8029
  23   2.0000     -10.350893      -281.6621
  24   2.0000     -10.346808      -281.5509
  25   2.0000     -10.344431      -281.4863
  26   2.0000     -10.344360      -281.4844
  27   2.0000     -10.337427      -281.2957
  28   2.0000     -10.337181      -281.2890
  29   2.0000     -10.337170      -281.2887
  30   2.0000     -10.336096      -281.2595
  31   2.0000     -10.333081      -281.1774
  32   2.0000     -10.327900      -281.0364
  33   2.0000     -10.326377      -280.9950
  34   2.0000     -10.316007      -280.7128
  35   2.0000     -10.315347      -280.6949
  36   2.0000     -10.312174      -280.6085
  37   2.0000     -10.308884      -280.5190
  38   2.0000     -10.307661      -280.4857
  39   2.0000     -10.307573      -280.4833
  40   2.0000     -10.305396      -280.4241
  41   2.0000     -10.305057      -280.4148
  42   2.0000     -10.303417      -280.3702
  43   2.0000     -10.303314      -280.3674
  44   2.0000     -10.302588      -280.3477
  45   2.0000     -10.300565      -280.2926
  46   2.0000     -10.300022      -280.2779
  47   2.0000     -10.299545      -280.2649
  48   2.0000     -10.298132      -280.2264
  49   2.0000     -10.297125      -280.1990
  50   2.0000     -10.296528      -280.1828
  51   2.0000     -10.295002      -280.1412
  52   2.0000     -10.291587      -280.0483
  53   2.0000     -10.289191      -279.9831
  54   2.0000     -10.283417      -279.8260
  55   2.0000     -10.281686      -279.7789
  56   2.0000     -10.280135      -279.7367
  57   2.0000     -10.277319      -279.6601
  58   2.0000     -10.275183      -279.6019
  59   2.0000     -10.274965      -279.5960
  60   2.0000     -10.273526      -279.5569
  61   2.0000     -10.272297      -279.5234
  62   2.0000     -10.268514      -279.4205
  63   2.0000     -10.267530      -279.3937
  64   2.0000     -10.259531      -279.1760
  65   2.0000      -8.786213      -239.0850
  66   2.0000      -8.069100      -219.5714
  67   2.0000      -8.063283      -219.4131
  68   2.0000      -8.060968      -219.3501
  69   2.0000      -8.059782      -219.3178
  70   2.0000      -8.049858      -219.0478
  71   2.0000      -8.047871      -218.9937
  72   2.0000      -8.046670      -218.9610
  73   2.0000      -8.032846      -218.5848
  74   2.0000      -6.622485      -180.2070
  75   2.0000      -6.607940      -179.8112
  76   2.0000      -6.607787      -179.8070
  77   2.0000      -6.042922      -164.4363
  78   2.0000      -6.035490      -164.2340
  79   2.0000      -6.035122      -164.2240
  80   2.0000      -6.034022      -164.1941
  81   2.0000      -6.032983      -164.1658
  82   2.0000      -6.028694      -164.0491
  83   2.0000      -6.027007      -164.0032
  84   2.0000      -6.025845      -163.9716
  85   2.0000      -6.025526      -163.9629
  86   2.0000      -6.024504      -163.9351
  87   2.0000      -6.019131      -163.7889
  88   2.0000      -6.017408      -163.7420
  89   2.0000      -6.017385      -163.7414
  90   2.0000      -6.016087      -163.7061
  91   2.0000      -6.015942      -163.7021
  92   2.0000      -6.015397      -163.6873
  93   2.0000      -6.013097      -163.6247
  94   2.0000      -6.012238      -163.6013
  95   2.0000      -6.011581      -163.5834
  96   2.0000      -6.009626      -163.5302
  97   2.0000      -6.008435      -163.4978
  98   2.0000      -6.003332      -163.3590
  99   2.0000      -5.999383      -163.2515
 100   2.0000      -5.992188      -163.0557
 101   2.0000      -2.738339       -74.5140
 102   2.0000      -2.734315       -74.4045
 103   2.0000      -2.734131       -74.3995
 104   2.0000      -2.722601       -74.0857
 105   2.0000      -2.722589       -74.0854
 106   2.0000      -1.197467       -32.5847
 107   2.0000      -1.176588       -32.0166
 108   2.0000      -1.174021       -31.9467
 109   2.0000      -1.167475       -31.7686
 110   2.0000      -1.151446       -31.3324
 111   2.0000      -1.149115       -31.2690
 112   2.0000      -1.123423       -30.5699
 113   2.0000      -1.012523       -27.5522
 114   2.0000      -1.001549       -27.2535
 115   2.0000      -0.986690       -26.8492
 116   2.0000      -0.985600       -26.8195
 117   2.0000      -0.982812       -26.7437
 118   2.0000      -0.980582       -26.6830
 119   2.0000      -0.977749       -26.6059
 120   2.0000      -0.932736       -25.3810
 121   2.0000      -0.928070       -25.2541
 122   2.0000      -0.908351       -24.7175
 123   2.0000      -0.905581       -24.6421
 124   2.0000      -0.900417       -24.5016
 125   2.0000      -0.900202       -24.4957
 126   2.0000      -0.898081       -24.4380
 127   2.0000      -0.895603       -24.3706
 128   2.0000      -0.889497       -24.2044
 129   2.0000      -0.877240       -23.8709
 130   2.0000      -0.875696       -23.8289
 131   2.0000      -0.863526       -23.4977
 132   2.0000      -0.857369       -23.3302
 133   2.0000      -0.843608       -22.9557
 134   2.0000      -0.830354       -22.5951
 135   2.0000      -0.822084       -22.3700
 136   2.0000      -0.819502       -22.2998
 137   2.0000      -0.818402       -22.2698
 138   2.0000      -0.816199       -22.2099
 139   2.0000      -0.802511       -21.8374
 140   2.0000      -0.792153       -21.5556
 141   2.0000      -0.783361       -21.3163
 142   2.0000      -0.774190       -21.0668
 143   2.0000      -0.766646       -20.8615
 144   2.0000      -0.751729       -20.4556
 145   2.0000      -0.747634       -20.3442
 146   2.0000      -0.730181       -19.8692
 147   2.0000      -0.724336       -19.7102
 148   2.0000      -0.710721       -19.3397
 149   2.0000      -0.708276       -19.2732
 150   2.0000      -0.702242       -19.1090
 151   2.0000      -0.688177       -18.7263
 152   2.0000      -0.680225       -18.5099
 153   2.0000      -0.679757       -18.4971
 154   2.0000      -0.675735       -18.3877
 155   2.0000      -0.663687       -18.0598
 156   2.0000      -0.662938       -18.0395
 157   2.0000      -0.653210       -17.7747
 158   2.0000      -0.646880       -17.6025
 159   2.0000      -0.644860       -17.5475
 160   2.0000      -0.642946       -17.4955
 161   2.0000      -0.627804       -17.0834
 162   2.0000      -0.614832       -16.7304
 163   2.0000      -0.614617       -16.7246
 164   2.0000      -0.612361       -16.6632
 165   2.0000      -0.603995       -16.4356
 166   2.0000      -0.600604       -16.3433
 167   2.0000      -0.594461       -16.1761
 168   2.0000      -0.590460       -16.0672
 169   2.0000      -0.582759       -15.8577
 170   2.0000      -0.580998       -15.8098
 171   2.0000      -0.578263       -15.7353
 172   2.0000      -0.568053       -15.4575
 173   2.0000      -0.566914       -15.4265
 174   2.0000      -0.565573       -15.3900
 175   2.0000      -0.563021       -15.3206
 176   2.0000      -0.561027       -15.2663
 177   2.0000      -0.552629       -15.0378
 178   2.0000      -0.549652       -14.9568
 179   2.0000      -0.544689       -14.8217
 180   2.0000      -0.542594       -14.7647
 181   2.0000      -0.538640       -14.6571
 182   2.0000      -0.533418       -14.5151
 183   2.0000      -0.530382       -14.4324
 184   2.0000      -0.529559       -14.4100
 185   2.0000      -0.528334       -14.3767
 186   2.0000      -0.525544       -14.3008
 187   2.0000      -0.519778       -14.1439
 188   2.0000      -0.517701       -14.0874
 189   2.0000      -0.515533       -14.0284
 190   2.0000      -0.513406       -13.9705
 191   2.0000      -0.510810       -13.8998
 192   2.0000      -0.508496       -13.8369
 193   2.0000      -0.506082       -13.7712
 194   2.0000      -0.502372       -13.6702
 195   2.0000      -0.499325       -13.5873
 196   2.0000      -0.494409       -13.4536
 197   2.0000      -0.490138       -13.3373
 198   2.0000      -0.489917       -13.3313
 199   2.0000      -0.486676       -13.2431
 200   2.0000      -0.484458       -13.1828
 201   2.0000      -0.484290       -13.1782
 202   2.0000      -0.479351       -13.0438
 203   2.0000      -0.477076       -12.9819
 204   2.0000      -0.476179       -12.9575
 205   2.0000      -0.473038       -12.8720
 206   2.0000      -0.471550       -12.8315
 207   2.0000      -0.469660       -12.7801
 208   2.0000      -0.465895       -12.6777
 209   2.0000      -0.464611       -12.6427
 210   2.0000      -0.461368       -12.5545
 211   2.0000      -0.457699       -12.4546
 212   2.0000      -0.451336       -12.2815
 213   2.0000      -0.449596       -12.2341
 214   2.0000      -0.445515       -12.1231
 215   2.0000      -0.443317       -12.0633
 216   2.0000      -0.439855       -11.9691
 217   2.0000      -0.436030       -11.8650
 218   2.0000      -0.431742       -11.7483
 219   2.0000      -0.431530       -11.7425
 220   2.0000      -0.430364       -11.7108
 221   2.0000      -0.428565       -11.6618
 222   2.0000      -0.424926       -11.5628
 223   2.0000      -0.424812       -11.5597
 224   2.0000      -0.423421       -11.5219
 225   2.0000      -0.419123       -11.4049
 226   2.0000      -0.414187       -11.2706
 227   2.0000      -0.413676       -11.2567
 228   2.0000      -0.409302       -11.1377
 229   2.0000      -0.408369       -11.1123
 230   2.0000      -0.405518       -11.0347
 231   2.0000      -0.399244       -10.8640
 232   2.0000      -0.395993       -10.7755
 233   2.0000      -0.393395       -10.7048
 234   2.0000      -0.392400       -10.6778
 235   2.0000      -0.386461       -10.5161
 236   2.0000      -0.384597       -10.4654
 237   2.0000      -0.379003       -10.3132
 238   2.0000      -0.374323       -10.1858
 239   2.0000      -0.369648       -10.0586
 240   2.0000      -0.368603       -10.0302
 241   2.0000      -0.362566        -9.8659
 242   2.0000      -0.349245        -9.5034
 243   2.0000      -0.340787        -9.2733
 244   2.0000      -0.331209        -9.0127
 245   2.0000      -0.323851        -8.8124
 246   2.0000      -0.313752        -8.5376
 247   2.0000      -0.308257        -8.3881
 248   2.0000      -0.307625        -8.3709
 249   2.0000      -0.305772        -8.3205
 250   2.0000      -0.305176        -8.3043
 251   2.0000      -0.295180        -8.0322
 252   2.0000      -0.292862        -7.9692
 253   2.0000      -0.285222        -7.7613
 254   2.0000      -0.279791        -7.6135
 255   2.0000      -0.274034        -7.4569
 256   2.0000      -0.244447        -6.6518
 257   2.0000      -0.213899        -5.8205
 258   0.0000      -0.085334        -2.3220
 259   0.0000      -0.055090        -1.4991
 260   0.0000      -0.043608        -1.1866
 261   0.0000      -0.018401        -0.5007
 262   0.0000       0.001560         0.0424

MULLIKEN ATOMIC CHARGES
-----------------------
   0 C :    0.334867
   1 C :   -0.360758
   2 C :   -0.190240
   3 N :    0.141138
   4 C :   -0.198073
   5 N :    0.150461
   6 C :    0.009550
   7 C :   -0.011098
   8 C :   -0.076515
   9 C :    0.116679
  10 C :   -0.091443
  11 C :   -0.024056
  12 S :    0.181882
  13 C :   -0.124198
  14 C :    0.039527
  15 Br:    0.016598
  16 C :    0.163835
  17 O :   -0.187264
  18 C :   -0.096008
  19 C :   -0.041654
  20 C :   -0.122897
  21 S :    0.205511
  22 C :   -0.119404
  23 C :    0.194278
  24 C :    0.184449
  25 O :   -0.407157
  26 S :    0.221480
  27 C :   -0.080596
  28 C :    0.184927
  29 O :   -0.321353
  30 C :    0.014523
  31 C :    0.045846
  32 C :   -0.124627
  33 S :    0.139668
  34 C :   -0.143597
  35 C :    0.176165
  36 C :    0.179585
  37 O :   -0.421556
  38 S :    0.204498
  39 C :   -0.077726
  40 C :    0.187258
  41 O :   -0.319300
  42 C :    0.032552
  43 C :    0.025234
  44 C :   -0.112552
  45 S :    0.113647
  46 C :   -0.120169
  47 C :   -0.028308
  48 C :    0.207783
  49 O :   -0.413253
  50 S :    0.248508
  51 C :   -0.140682
  52 S :    0.031598
  53 C :    0.000532
  54 C :   -0.044703
  55 C :    0.112771
  56 O :   -0.194173
  57 C :    0.146763
  58 C :   -0.045387
  59 C :   -0.126428
  60 C :    0.117999
  61 H :   -0.013792
  62 H :   -0.007704
  63 H :   -0.006565
  64 H :    0.023591
  65 H :    0.065856
  66 H :    0.065731
  67 H :    0.037792
  68 H :    0.048007
  69 H :   -0.005522
  70 H :   -0.008883
  71 H :    0.063238
  72 H :    0.065109
  73 H :    0.037180
  74 H :    0.046482
  75 H :   -0.008775
  76 H :   -0.012501
  77 H :    0.108754
  78 H :    0.090319
  79 H :    0.005282
  80 H :   -0.010367
  81 H :    0.005806
  82 H :   -0.022103
  83 H :    0.009303
  84 H :    0.029435
  85 H :    0.029385
Sum of atomic charges:   -0.0000000

LOEWDIN ATOMIC CHARGES
----------------------
   0 C :    0.076669
   1 C :   -0.149798
   2 C :   -0.017854
   3 N :   -0.064202
   4 C :   -0.024501
   5 N :   -0.054087
   6 C :   -0.018673
   7 C :   -0.049167
   8 C :    0.018697
   9 C :   -0.035444
  10 C :   -0.145328
  11 C :   -0.011649
  12 S :    0.429460
  13 C :   -0.274230
  14 C :   -0.070708
  15 Br:    0.131429
  16 C :    0.083190
  17 O :   -0.172294
  18 C :   -0.120394
  19 C :    0.058462
  20 C :   -0.213033
  21 S :    0.513289
  22 C :   -0.165913
  23 C :   -0.018384
  24 C :   -0.010929
  25 O :   -0.242320
  26 S :    0.381827
  27 C :   -0.157355
  28 C :    0.072908
  29 O :   -0.101337
  30 C :   -0.052138
  31 C :   -0.019864
  32 C :   -0.196078
  33 S :    0.445998
  34 C :   -0.186938
  35 C :   -0.007784
  36 C :   -0.036207
  37 O :   -0.247059
  38 S :    0.370179
  39 C :   -0.157554
  40 C :    0.072373
  41 O :   -0.099916
  42 C :   -0.046705
  43 C :   -0.040107
  44 C :   -0.190721
  45 S :    0.431946
  46 C :   -0.190423
  47 C :   -0.219378
  48 C :   -0.030350
  49 O :   -0.237254
  50 S :    0.378696
  51 C :   -0.259645
  52 S :    0.289197
  53 C :   -0.046420
  54 C :   -0.040205
  55 C :    0.007053
  56 O :    0.015346
  57 C :    0.038835
  58 C :   -0.079176
  59 C :   -0.063470
  60 C :   -0.047922
  61 H :    0.039466
  62 H :    0.040599
  63 H :    0.037572
  64 H :    0.049670
  65 H :    0.030893
  66 H :    0.032911
  67 H :    0.033765
  68 H :    0.026086
  69 H :    0.028162
  70 H :    0.028577
  71 H :    0.029445
  72 H :    0.032873
  73 H :    0.033073
  74 H :    0.025738
  75 H :    0.026798
  76 H :    0.026372
  77 H :    0.027672
  78 H :    0.034913
  79 H :    0.030344
  80 H :    0.027172
  81 H :    0.021003
  82 H :    0.027249
  83 H :    0.033732
  84 H :    0.036567
  85 H :    0.036706

  Mayer bond orders larger than 0.100000
B(  0-C ,  1-C ) :   1.6068 B(  0-C ,  6-C ) :   0.9926 B(  0-C , 18-C ) :   1.0970
B(  1-C ,  2-C ) :   1.1489 B(  1-C ,  4-C ) :   1.1476 B(  2-C ,  3-N ) :   2.9642
B(  4-C ,  5-N ) :   2.9626 B(  6-C ,  7-C ) :   1.2775 B(  6-C , 11-C ) :   1.4165
B(  7-C ,  8-C ) :   1.4259 B(  7-C , 16-C ) :   0.9537 B(  8-C ,  9-C ) :   1.2387
B(  8-C , 61-H ) :   1.0175 B(  9-C , 10-C ) :   1.3133 B(  9-C , 14-C ) :   1.1626
B( 10-C , 11-C ) :   1.3224 B( 10-C , 12-S ) :   1.0842 B( 11-C , 62-H ) :   0.9797
B( 12-S , 13-C ) :   1.0869 B( 13-C , 14-C ) :   1.6188 B( 13-C , 15-Br) :   1.0142
B( 14-C , 63-H ) :   1.0003 B( 16-C , 17-O ) :   2.1229 B( 16-C , 18-C ) :   0.9894
B( 18-C , 19-C ) :   1.4374 B( 19-C , 20-C ) :   1.3137 B( 19-C , 64-H ) :   0.9359
B( 20-C , 21-S ) :   1.0698 B( 20-C , 22-C ) :   0.1020 B( 20-C , 24-C ) :   1.3550
B( 21-S , 22-C ) :   1.1143 B( 22-C , 23-C ) :   1.3550 B( 22-C , 30-C ) :   1.1653
B( 23-C , 24-C ) :   1.2988 B( 23-C , 29-O ) :   1.1202 B( 24-C , 25-O ) :   1.0605
B( 25-O , 26-S ) :   0.8843 B( 26-S , 27-C ) :   0.9868 B( 27-C , 28-C ) :   1.0766
B( 27-C , 65-H ) :   0.9432 B( 27-C , 66-H ) :   0.9374 B( 28-C , 29-O ) :   0.9506
B( 28-C , 67-H ) :   0.9514 B( 28-C , 68-H ) :   0.9431 B( 30-C , 31-C ) :   1.6431
B( 30-C , 69-H ) :   0.9544 B( 31-C , 32-C ) :   1.1524 B( 31-C , 70-H ) :   0.9468
B( 32-C , 33-S ) :   1.1084 B( 32-C , 34-C ) :   0.1122 B( 32-C , 36-C ) :   1.4543
B( 33-S , 34-C ) :   1.1153 B( 34-C , 35-C ) :   1.4507 B( 34-C , 42-C ) :   1.1418
B( 35-C , 36-C ) :   1.2341 B( 35-C , 41-O ) :   1.1184 B( 36-C , 37-O ) :   1.0335
B( 37-O , 38-S ) :   0.8904 B( 38-S , 39-C ) :   0.9861 B( 39-C , 40-C ) :   1.0741
B( 39-C , 71-H ) :   0.9438 B( 39-C , 72-H ) :   0.9380 B( 40-C , 41-O ) :   0.9542
B( 40-C , 73-H ) :   0.9514 B( 40-C , 74-H ) :   0.9424 B( 42-C , 43-C ) :   1.6718
B( 42-C , 75-H ) :   0.9510 B( 43-C , 44-C ) :   1.1358 B( 43-C , 76-H ) :   0.9506
B( 44-C , 45-S ) :   1.1040 B( 44-C , 46-C ) :   0.1082 B( 44-C , 48-C ) :   1.5023
B( 45-S , 46-C ) :   1.1058 B( 46-C , 47-C ) :   1.5192 B( 46-C , 53-C ) :   1.1488
B( 47-C , 48-C ) :   1.2558 B( 47-C , 52-S ) :   0.9920 B( 48-C , 49-O ) :   1.0445
B( 49-O , 50-S ) :   0.8767 B( 50-S , 51-C ) :   0.9903 B( 51-C , 52-S ) :   0.9820
B( 51-C , 77-H ) :   0.9382 B( 51-C , 78-H ) :   0.9505 B( 53-C , 54-C ) :   1.6563
B( 53-C , 79-H ) :   0.9739 B( 54-C , 55-C ) :   1.1709 B( 54-C , 80-H ) :   0.9559
B( 55-C , 56-O ) :   1.1471 B( 55-C , 59-C ) :   1.4737 B( 56-O , 57-C ) :   1.1520
B( 57-C , 58-C ) :   1.5250 B( 57-C , 81-H ) :   1.0038 B( 58-C , 59-C ) :   1.2583
B( 58-C , 82-H ) :   1.0055 B( 59-C , 60-C ) :   1.0979 B( 60-C , 83-H ) :   0.9503
B( 60-C , 84-H ) :   0.9480 B( 60-C , 85-H ) :   0.9478

-----------------------------------------------------------------------------
         ABSORPTION SPECTRUM VIA TRANSITION ELECTRIC DIPOLE MOMENTS
-----------------------------------------------------------------------------
State   Energy  Wavelength   fosc         T2         TX        TY        TZ
        (cm-1)    (nm)                  (au**2)     (au)      (au)      (au)
-----------------------------------------------------------------------------
   0   15535.3    643.7   2.315919571  49.07717  -4.12900   5.65925   0.03746
   1   22044.4    453.6   0.201216239   3.00498   1.10679  -0.99655  -0.88707
   2   23298.8    429.2   0.246066782   3.47693  -0.93543   1.52440  -0.52737
   3   23952.6    417.5   0.419020344   5.75914  -1.47819   1.62618   0.96416
   4   27417.3    364.7   0.024448333   0.29356  -0.16916   0.26731  -0.43988
   5   28224.5    354.3   0.256808535   2.99543  -0.08000  -0.35505   1.69203
   6   28584.9    349.8   0.067391607   0.77615  -0.09947   0.53098  -0.69593
   7   29539.5    338.5   0.015258066   0.17005  -0.00114   0.40143  -0.09434
   8   29793.0    335.6   0.013707670   0.15147   0.10883  -0.09025   0.36260
   9   29946.3    333.9   0.053004984   0.58271   0.06665   0.23928  -0.72181
  10   30188.9    331.2   0.012622658   0.13765  -0.05934   0.31262  -0.19078
  11   30725.4    325.5   0.011630797   0.12462  -0.10247   0.20642   0.26742
  12   31101.1    321.5   0.018395221   0.19472   0.14745  -0.24922   0.33296
  13   31573.5    316.7   0.087344680   0.91073   0.08522  -0.46343   0.82988
  14   31802.9    314.4   0.136783272   1.41593  -0.17840   0.45081  -1.08668
  15   32219.2    310.4   0.191851282   1.96031  -0.09944   0.10017   1.39298
  16   33156.1    301.6   0.002375291   0.02358   0.00578   0.01476  -0.15275
  17   33252.5    300.7   0.012929721   0.12801  -0.06139  -0.02270   0.35175
  18   33867.3    295.3   0.510607487   4.96343  -0.46122  -0.15268   2.17426
  19   34235.0    292.1   0.014414061   0.13861  -0.09712   0.29981  -0.19822
  20   35143.9    284.5   0.094227103   0.88268  -0.12306   0.22333  -0.90424
  21   35267.9    283.5   0.178092767   1.66242  -0.24818   0.28546   1.23262
  22   35575.1    281.1   0.106569972   0.98620  -0.04949   0.00856   0.99180
  23   35833.7    279.1   0.048161910   0.44247  -0.29071   0.21407   0.55869
  24   36799.9    271.7   0.141784256   1.26840   0.45057  -0.42096  -0.94244
  25   37322.5    267.9   0.008695294   0.07670   0.15020  -0.07275  -0.22101
  26   37535.3    266.4   0.032251909   0.28287  -0.17433   0.44447  -0.23438
  27   38258.3    261.4   0.049177311   0.42317  -0.03849   0.01020   0.64930
  28   38940.4    256.8   0.076523422   0.64695  -0.25149   0.23020   0.72850
  29   39013.9    256.3   0.106498255   0.89867   0.46401  -0.77799   0.27945
  30   39525.8    253.0   0.159695772   1.33011   0.66254  -0.93924  -0.09474
  31   39732.1    251.7   0.042405143   0.35136  -0.22073   0.35346  -0.42155
  32   39997.6    250.0   0.028046671   0.23085  -0.24549   0.41020   0.04813
  33   40250.9    248.4   0.021495597   0.17581  -0.28220   0.12214  -0.28506

FINAL SINGLE POINT ENERGY     -8045.197116894437

DIPOLE MOMENT
-------------
                                X             Y             Z
Electronic contribution:    102.17697    -170.54729      61.22938
Nuclear contribution   :   -105.00680     174.23616     -59.96678
                        -----------------------------------------
Total Dipole Moment    :     -2.82984       3.68887       1.26260
                        -----------------------------------------
Magnitude (a.u.)       :      4.81767
Magnitude (Debye)      :     12.24554

Rotational constants in cm-1:     0.001644     0.000227     0.000201
Rotational constants in MHz :    49.282885     6.807574     6.015814

                             ****ORCA TERMINATED NORMALLY****
TOTAL RUN TIME: 0 days 0 hours 7 minutes 33 seconds 178 msec
