                         Program Version 4.2.0 -  RELEASE  -
|  1> # ORCA input file
|  2> # SCF done       -188.387224171513          0.000480620574
|  3> ! CAM-B3LYP def2-SVP def2/J RIJCOSX Grid4 TightSCF
|  4> %maxcore 5000
|  5> %tddft
|  6>     Mode sTDDFT
|  7>     Ethresh 5.0
|  8>     maxcore 5000
|  9> end
| 10>
| 11> %pal
| 12>   nprocs 6
| 13>   end
| 14> * xyz 0 1
| 15>    C       -5.81943         0.99118         2.55885
| 16>    C       -6.67403         0.76295         3.60900
| 17>    C       -6.25299         0.48572         4.92636
| 18>    N       -5.98456         0.25433         6.01857
| 19>    C       -8.08203         0.79131         3.55685
| 20>    N       -9.23026         0.81745         3.61077
| 21>    C       -4.36621         1.01025         2.65438
| 22>    C       -3.82969         1.32529         1.38267
| 23>    C       -2.48048         1.43852         1.15129
| 24>    C       -1.61392         1.22135         2.22711
| 25>    C       -2.15726         0.90112         3.49448
| 26>    C       -3.52166         0.79297         3.72894
| 27>    S       -0.91087         0.67110         4.68370
| 28>    C        0.30513         1.00374         3.47878
| 29>    C       -0.19350         1.27308         2.24890
| 30>   Br        2.11782         0.96477         3.95875
| 31>    C       -4.92640         1.48791         0.40879
| 32>    O       -4.79999         1.79036        -0.75859
| 33>    C       -6.17864         1.25946         1.17397
| 34>    C       -7.45335         1.42118         0.72144
| 35>    C       -7.89362         1.59375        -0.63013
| 36>    C       -7.25667         0.94972        -1.66173
| 37>    S       -7.95876         1.17944        -3.19320
| 38>    C       -9.15345         2.23087        -2.49052
| 39>    C       -9.03677         2.35943        -1.09951
| 40>    C       -9.94351         3.21922        -0.42946
| 41>    C       -9.88724         3.33293         1.07420
| 42>    C       -8.71851         4.20148         1.54311
| 43>    C      -10.88039         3.95424        -1.15039
| 44>    C      -11.72352         4.99032        -0.44927
| 45>    C      -13.09457         4.44615        -0.04317
| 46>    C      -11.04294         3.75402        -2.54518
| 47>    C      -12.02328         4.25038        -3.49316
| 48>    C      -11.80071         3.76423        -4.74933
| 49>    S      -10.44874         2.71845        -4.89395
| 50>    C      -10.15413         2.88015        -3.19236
| 51>    C      -13.17213         5.08846        -3.23567
| 52>    C      -14.35712         4.98206        -3.86892
| 53>    C      -15.48286         5.77389        -3.49228
| 54>    O      -15.31951         6.68752        -2.47487
| 55>    C      -16.54133         7.18232        -2.23076
| 56>    C      -17.20858         8.06491        -1.36009
| 57>    C      -16.56697         9.05710        -0.48572
| 58>    O      -17.13237        10.02283        -0.01155
| 59>    N      -15.24822         8.81670        -0.27964
| 60>    C      -18.56103         7.94351        -1.73008
| 61>    O      -18.71306         7.09801        -2.80445
| 62>    C      -17.48667         6.61899        -3.08489
| 63>    C      -16.80463         5.71227        -3.90860
| 64>    C      -19.73460         8.46446        -1.14118
| 65>    C      -19.89299         8.71748         0.19791
| 66>    C      -21.04351         9.25316         0.83603
| 67>    C      -20.97069         9.27985         2.19619
| 68>    C      -19.76262         8.75543         2.70745
| 69>    S      -18.72076         8.24974         1.40307
| 70>    C      -19.33417         8.62099         4.01586
| 71>    C      -19.96298         8.99284         5.22105
| 72>    C      -19.22459         8.71497         6.33465
| 73>    C      -17.97726         8.10181         6.06934
| 74>    S      -17.77551         7.89472         4.34152
| 75>    C      -17.03906         7.71031         6.99779
| 76>    C      -15.81501         7.08830         6.74521
| 77>    S      -15.22234         6.65475         5.15119
| 78>    C      -13.74011         5.94659         5.73972
| 79>    C      -13.69829         6.05010         7.13006
| 80>    C      -14.85089         6.68294         7.67208
| 81>    N      -14.67514         6.71428         9.01446
| 82>    N      -13.50481         6.15300         9.36382
| 83>    C      -12.90730         5.75164         8.27170
| 84>    C      -12.82707         5.37934         4.80395
| 85>    C      -11.66891         4.78781         5.11311
| 86>    H       -2.10646         1.68465         0.16984
| 87>    H       -3.88300         0.54974         4.71378
| 88>    H        0.41357         1.49976         1.39156
| 89>    H       -8.23110         1.39293         1.46646
| 90>    H       -6.41838         0.28797        -1.57637
| 91>    H       -9.82021         2.33567         1.50724
| 92>    H      -10.81413         3.74896         1.46148
| 93>    H       -7.77607         3.84953         1.12957
| 94>    H       -8.64702         4.18392         2.62861
| 95>    H       -8.85970         5.23149         1.22215
| 96>    H      -11.83703         5.84907        -1.10904
| 97>    H      -11.20527         5.36289         0.43310
| 98>    H      -13.68789         5.22575         0.43069
| 99>    H      -12.98525         3.62169         0.65789
|100>    H      -13.63570         4.07931        -0.91176
|101>    H      -12.36709         3.99587        -5.62984
|102>    H      -13.09587         5.84533        -2.47444
|103>    H      -14.53436         4.24156        -4.63355
|104>    H      -14.77409         8.04546        -0.71328
|105>    H      -14.72279         9.47619         0.26791
|106>    H      -17.19458         5.08508        -4.68238
|107>    H      -20.59477         8.56635        -1.78802
|108>    H      -21.88328         9.60670         0.26413
|109>    H      -21.74780         9.65271         2.83964
|110>    H      -20.93257         9.45755         5.23659
|111>    H      -19.53851         8.93261         7.34071
|112>    H      -17.27287         7.89760         8.03859
|113>    H      -15.28180         7.08445         9.72610
|114>    H      -11.95144         5.27328         8.33133
|115>    H      -13.13878         5.44858         3.76936
|116>    H      -11.33109         4.69701         6.12940
|117>    H      -11.03417         4.36972         4.35248
|118> *
|119>
|120>                          ****END OF INPUT****

CARTESIAN COORDINATES (ANGSTROEM)
---------------------------------
  C     -5.819430    0.991180    2.558850
  C     -6.674030    0.762950    3.609000
  C     -6.252990    0.485720    4.926360
  N     -5.984560    0.254330    6.018570
  C     -8.082030    0.791310    3.556850
  N     -9.230260    0.817450    3.610770
  C     -4.366210    1.010250    2.654380
  C     -3.829690    1.325290    1.382670
  C     -2.480480    1.438520    1.151290
  C     -1.613920    1.221350    2.227110
  C     -2.157260    0.901120    3.494480
  C     -3.521660    0.792970    3.728940
  S     -0.910870    0.671100    4.683700
  C      0.305130    1.003740    3.478780
  C     -0.193500    1.273080    2.248900
  Br     2.117820    0.964770    3.958750
  C     -4.926400    1.487910    0.408790
  O     -4.799990    1.790360   -0.758590
  C     -6.178640    1.259460    1.173970
  C     -7.453350    1.421180    0.721440
  C     -7.893620    1.593750   -0.630130
  C     -7.256670    0.949720   -1.661730
  S     -7.958760    1.179440   -3.193200
  C     -9.153450    2.230870   -2.490520
  C     -9.036770    2.359430   -1.099510
  C     -9.943510    3.219220   -0.429460
  C     -9.887240    3.332930    1.074200
  C     -8.718510    4.201480    1.543110
  C    -10.880390    3.954240   -1.150390
  C    -11.723520    4.990320   -0.449270
  C    -13.094570    4.446150   -0.043170
  C    -11.042940    3.754020   -2.545180
  C    -12.023280    4.250380   -3.493160
  C    -11.800710    3.764230   -4.749330
  S    -10.448740    2.718450   -4.893950
  C    -10.154130    2.880150   -3.192360
  C    -13.172130    5.088460   -3.235670
  C    -14.357120    4.982060   -3.868920
  C    -15.482860    5.773890   -3.492280
  O    -15.319510    6.687520   -2.474870
  C    -16.541330    7.182320   -2.230760
  C    -17.208580    8.064910   -1.360090
  C    -16.566970    9.057100   -0.485720
  O    -17.132370   10.022830   -0.011550
  N    -15.248220    8.816700   -0.279640
  C    -18.561030    7.943510   -1.730080
  O    -18.713060    7.098010   -2.804450
  C    -17.486670    6.618990   -3.084890
  C    -16.804630    5.712270   -3.908600
  C    -19.734600    8.464460   -1.141180
  C    -19.892990    8.717480    0.197910
  C    -21.043510    9.253160    0.836030
  C    -20.970690    9.279850    2.196190
  C    -19.762620    8.755430    2.707450
  S    -18.720760    8.249740    1.403070
  C    -19.334170    8.620990    4.015860
  C    -19.962980    8.992840    5.221050
  C    -19.224590    8.714970    6.334650
  C    -17.977260    8.101810    6.069340
  S    -17.775510    7.894720    4.341520
  C    -17.039060    7.710310    6.997790
  C    -15.815010    7.088300    6.745210
  S    -15.222340    6.654750    5.151190
  C    -13.740110    5.946590    5.739720
  C    -13.698290    6.050100    7.130060
  C    -14.850890    6.682940    7.672080
  N    -14.675140    6.714280    9.014460
  N    -13.504810    6.153000    9.363820
  C    -12.907300    5.751640    8.271700
  C    -12.827070    5.379340    4.803950
  C    -11.668910    4.787810    5.113110
  H     -2.106460    1.684650    0.169840
  H     -3.883000    0.549740    4.713780
  H      0.413570    1.499760    1.391560
  H     -8.231100    1.392930    1.466460
  H     -6.418380    0.287970   -1.576370
  H     -9.820210    2.335670    1.507240
  H    -10.814130    3.748960    1.461480
  H     -7.776070    3.849530    1.129570
  H     -8.647020    4.183920    2.628610
  H     -8.859700    5.231490    1.222150
  H    -11.837030    5.849070   -1.109040
  H    -11.205270    5.362890    0.433100
  H    -13.687890    5.225750    0.430690
  H    -12.985250    3.621690    0.657890
  H    -13.635700    4.079310   -0.911760
  H    -12.367090    3.995870   -5.629840
  H    -13.095870    5.845330   -2.474440
  H    -14.534360    4.241560   -4.633550
  H    -14.774090    8.045460   -0.713280
  H    -14.722790    9.476190    0.267910
  H    -17.194580    5.085080   -4.682380
  H    -20.594770    8.566350   -1.788020
  H    -21.883280    9.606700    0.264130
  H    -21.747800    9.652710    2.839640
  H    -20.932570    9.457550    5.236590
  H    -19.538510    8.932610    7.340710
  H    -17.272870    7.897600    8.038590
  H    -15.281800    7.084450    9.726100
  H    -11.951440    5.273280    8.331330
  H    -13.138780    5.448580    3.769360
  H    -11.331090    4.697010    6.129400
  H    -11.034170    4.369720    4.352480

 Total Charge           Charge          ....    0
 Multiplicity           Mult            ....    1
 Number of Electrons    NEL             ....  560
 Basis Dimension        Dim             .... 1196

ORBITAL ENERGIES
----------------

  NO   OCC          E(Eh)            E(eV)
   0   2.0000    -482.887609    -13140.0399
   1   2.0000     -88.977877     -2421.2111
   2   2.0000     -88.965988     -2420.8876
   3   2.0000     -88.958158     -2420.6745
   4   2.0000     -88.954047     -2420.5627
   5   2.0000     -88.939516     -2420.1673
   6   2.0000     -88.929504     -2419.8948
   7   2.0000     -62.565357     -1702.4899
   8   2.0000     -56.399311     -1534.7033
   9   2.0000     -56.396585     -1534.6291
  10   2.0000     -56.396554     -1534.6282
  11   2.0000     -19.297444      -525.1101
  12   2.0000     -19.287336      -524.8351
  13   2.0000     -19.217972      -522.9476
  14   2.0000     -19.159672      -521.3612
  15   2.0000     -14.476723      -393.9317
  16   2.0000     -14.430350      -392.6698
  17   2.0000     -14.421342      -392.4247
  18   2.0000     -14.416544      -392.2941
  19   2.0000     -14.413603      -392.2141
  20   2.0000     -10.370284      -282.1898
  21   2.0000     -10.361489      -281.9504
  22   2.0000     -10.359757      -281.9033
  23   2.0000     -10.344700      -281.4936
  24   2.0000     -10.343656      -281.4652
  25   2.0000     -10.337930      -281.3094
  26   2.0000     -10.333256      -281.1822
  27   2.0000     -10.328196      -281.0445
  28   2.0000     -10.324599      -280.9466
  29   2.0000     -10.321430      -280.8604
  30   2.0000     -10.320264      -280.8287
  31   2.0000     -10.319790      -280.8158
  32   2.0000     -10.319372      -280.8044
  33   2.0000     -10.313741      -280.6512
  34   2.0000     -10.310548      -280.5643
  35   2.0000     -10.310442      -280.5614
  36   2.0000     -10.309691      -280.5410
  37   2.0000     -10.308173      -280.4997
  38   2.0000     -10.304091      -280.3886
  39   2.0000     -10.303823      -280.3813
  40   2.0000     -10.303598      -280.3751
  41   2.0000     -10.303459      -280.3714
  42   2.0000     -10.302496      -280.3452
  43   2.0000     -10.301724      -280.3242
  44   2.0000     -10.300602      -280.2936
  45   2.0000     -10.299945      -280.2758
  46   2.0000     -10.299312      -280.2585
  47   2.0000     -10.299018      -280.2505
  48   2.0000     -10.297435      -280.2075
  49   2.0000     -10.294571      -280.1295
  50   2.0000     -10.294462      -280.1266
  51   2.0000     -10.294207      -280.1196
  52   2.0000     -10.289001      -279.9779
  53   2.0000     -10.288921      -279.9758
  54   2.0000     -10.287895      -279.9479
  55   2.0000     -10.284475      -279.8548
  56   2.0000     -10.283377      -279.8249
  57   2.0000     -10.283105      -279.8175
  58   2.0000     -10.281919      -279.7852
  59   2.0000     -10.281187      -279.7653
  60   2.0000     -10.279707      -279.7250
  61   2.0000     -10.279306      -279.7141
  62   2.0000     -10.279083      -279.7081
  63   2.0000     -10.279071      -279.7077
  64   2.0000     -10.278982      -279.7053
  65   2.0000     -10.277614      -279.6681
  66   2.0000     -10.276510      -279.6380
  67   2.0000     -10.273582      -279.5584
  68   2.0000     -10.271355      -279.4978
  69   2.0000     -10.269086      -279.4360
  70   2.0000     -10.268226      -279.4126
  71   2.0000     -10.265677      -279.3433
  72   2.0000     -10.264072      -279.2996
  73   2.0000     -10.258697      -279.1533
  74   2.0000     -10.256051      -279.0813
  75   2.0000      -8.794811      -239.3190
  76   2.0000      -8.073858      -219.7008
  77   2.0000      -8.062335      -219.3873
  78   2.0000      -8.052496      -219.1196
  79   2.0000      -8.050327      -219.0605
  80   2.0000      -8.035664      -218.6615
  81   2.0000      -8.025686      -218.3900
  82   2.0000      -6.631143      -180.4426
  83   2.0000      -6.616530      -180.0449
  84   2.0000      -6.616322      -180.0393
  85   2.0000      -6.043562      -164.4537
  86   2.0000      -6.039269      -164.3369
  87   2.0000      -6.035069      -164.2226
  88   2.0000      -6.031606      -164.1283
  89   2.0000      -6.027403      -164.0140
  90   2.0000      -6.024371      -163.9315
  91   2.0000      -6.021824      -163.8622
  92   2.0000      -6.019825      -163.8078
  93   2.0000      -6.017556      -163.7460
  94   2.0000      -6.015607      -163.6930
  95   2.0000      -6.014843      -163.6722
  96   2.0000      -6.011994      -163.5947
  97   2.0000      -6.005433      -163.4161
  98   2.0000      -6.001257      -163.3025
  99   2.0000      -5.996618      -163.1763
 100   2.0000      -5.995406      -163.1433
 101   2.0000      -5.991272      -163.0308
 102   2.0000      -5.986596      -162.9036
 103   2.0000      -2.746989       -74.7494
 104   2.0000      -2.742941       -74.6392
 105   2.0000      -2.742740       -74.6337
 106   2.0000      -2.731147       -74.3183
 107   2.0000      -2.731136       -74.3180
 108   2.0000      -1.215109       -33.0648
 109   2.0000      -1.194578       -32.5061
 110   2.0000      -1.136776       -30.9333
 111   2.0000      -1.133551       -30.8455
 112   2.0000      -1.100601       -29.9489
 113   2.0000      -1.025738       -27.9117
 114   2.0000      -1.016895       -27.6711
 115   2.0000      -1.008931       -27.4544
 116   2.0000      -0.997656       -27.1476
 117   2.0000      -0.991960       -26.9926
 118   2.0000      -0.989526       -26.9264
 119   2.0000      -0.978367       -26.6227
 120   2.0000      -0.977782       -26.6068
 121   2.0000      -0.973186       -26.4817
 122   2.0000      -0.963057       -26.2061
 123   2.0000      -0.945219       -25.7207
 124   2.0000      -0.930049       -25.3079
 125   2.0000      -0.916863       -24.9491
 126   2.0000      -0.915605       -24.9149
 127   2.0000      -0.910862       -24.7858
 128   2.0000      -0.907626       -24.6978
 129   2.0000      -0.900967       -24.5166
 130   2.0000      -0.897864       -24.4321
 131   2.0000      -0.888496       -24.1772
 132   2.0000      -0.886956       -24.1353
 133   2.0000      -0.876817       -23.8594
 134   2.0000      -0.874061       -23.7844
 135   2.0000      -0.866743       -23.5853
 136   2.0000      -0.858574       -23.3630
 137   2.0000      -0.856474       -23.3058
 138   2.0000      -0.846434       -23.0326
 139   2.0000      -0.836378       -22.7590
 140   2.0000      -0.834341       -22.7036
 141   2.0000      -0.831945       -22.6384
 142   2.0000      -0.824705       -22.4414
 143   2.0000      -0.815385       -22.1878
 144   2.0000      -0.812658       -22.1136
 145   2.0000      -0.800342       -21.7784
 146   2.0000      -0.792092       -21.5539
 147   2.0000      -0.782422       -21.2908
 148   2.0000      -0.766469       -20.8567
 149   2.0000      -0.761089       -20.7103
 150   2.0000      -0.756527       -20.5861
 151   2.0000      -0.740349       -20.1459
 152   2.0000      -0.723937       -19.6993
 153   2.0000      -0.721630       -19.6365
 154   2.0000      -0.713691       -19.4205
 155   2.0000      -0.710210       -19.3258
 156   2.0000      -0.705113       -19.1871
 157   2.0000      -0.699323       -19.0295
 158   2.0000      -0.697446       -18.9785
 159   2.0000      -0.695906       -18.9366
 160   2.0000      -0.692708       -18.8495
 161   2.0000      -0.690017       -18.7763
 162   2.0000      -0.685566       -18.6552
 163   2.0000      -0.679561       -18.4918
 164   2.0000      -0.675978       -18.3943
 165   2.0000      -0.660894       -17.9838
 166   2.0000      -0.659029       -17.9331
 167   2.0000      -0.653313       -17.7775
 168   2.0000      -0.640551       -17.4303
 169   2.0000      -0.637054       -17.3351
 170   2.0000      -0.632821       -17.2199
 171   2.0000      -0.626912       -17.0591
 172   2.0000      -0.620609       -16.8876
 173   2.0000      -0.616768       -16.7831
 174   2.0000      -0.614642       -16.7253
 175   2.0000      -0.609914       -16.5966
 176   2.0000      -0.603982       -16.4352
 177   2.0000      -0.601971       -16.3805
 178   2.0000      -0.601180       -16.3589
 179   2.0000      -0.596192       -16.2232
 180   2.0000      -0.589169       -16.0321
 181   2.0000      -0.586368       -15.9559
 182   2.0000      -0.577738       -15.7211
 183   2.0000      -0.574926       -15.6445
 184   2.0000      -0.572190       -15.5701
 185   2.0000      -0.565441       -15.3864
 186   2.0000      -0.559159       -15.2155
 187   2.0000      -0.553639       -15.0653
 188   2.0000      -0.549502       -14.9527
 189   2.0000      -0.546271       -14.8648
 190   2.0000      -0.544075       -14.8050
 191   2.0000      -0.543080       -14.7780
 192   2.0000      -0.539813       -14.6891
 193   2.0000      -0.538621       -14.6566
 194   2.0000      -0.533600       -14.5200
 195   2.0000      -0.532728       -14.4963
 196   2.0000      -0.528787       -14.3890
 197   2.0000      -0.525209       -14.2917
 198   2.0000      -0.524352       -14.2683
 199   2.0000      -0.522496       -14.2178
 200   2.0000      -0.520798       -14.1716
 201   2.0000      -0.517649       -14.0860
 202   2.0000      -0.517182       -14.0732
 203   2.0000      -0.513046       -13.9607
 204   2.0000      -0.511244       -13.9117
 205   2.0000      -0.508244       -13.8300
 206   2.0000      -0.506399       -13.7798
 207   2.0000      -0.502430       -13.6718
 208   2.0000      -0.499688       -13.5972
 209   2.0000      -0.497668       -13.5422
 210   2.0000      -0.495482       -13.4827
 211   2.0000      -0.494272       -13.4498
 212   2.0000      -0.490163       -13.3380
 213   2.0000      -0.487710       -13.2713
 214   2.0000      -0.484504       -13.1840
 215   2.0000      -0.483481       -13.1562
 216   2.0000      -0.481731       -13.1086
 217   2.0000      -0.478573       -13.0226
 218   2.0000      -0.478064       -13.0088
 219   2.0000      -0.472339       -12.8530
 220   2.0000      -0.471809       -12.8386
 221   2.0000      -0.468260       -12.7420
 222   2.0000      -0.465661       -12.6713
 223   2.0000      -0.462585       -12.5876
 224   2.0000      -0.461623       -12.5614
 225   2.0000      -0.461153       -12.5486
 226   2.0000      -0.458769       -12.4837
 227   2.0000      -0.458645       -12.4804
 228   2.0000      -0.456274       -12.4158
 229   2.0000      -0.454332       -12.3630
 230   2.0000      -0.451643       -12.2898
 231   2.0000      -0.449244       -12.2246
 232   2.0000      -0.448004       -12.1908
 233   2.0000      -0.446155       -12.1405
 234   2.0000      -0.445161       -12.1134
 235   2.0000      -0.442184       -12.0324
 236   2.0000      -0.440080       -11.9752
 237   2.0000      -0.434631       -11.8269
 238   2.0000      -0.431907       -11.7528
 239   2.0000      -0.430400       -11.7118
 240   2.0000      -0.430101       -11.7036
 241   2.0000      -0.427750       -11.6397
 242   2.0000      -0.425508       -11.5787
 243   2.0000      -0.424467       -11.5503
 244   2.0000      -0.422163       -11.4876
 245   2.0000      -0.417800       -11.3689
 246   2.0000      -0.413161       -11.2427
 247   2.0000      -0.409980       -11.1561
 248   2.0000      -0.408660       -11.1202
 249   2.0000      -0.408397       -11.1131
 250   2.0000      -0.406647       -11.0654
 251   2.0000      -0.399663       -10.8754
 252   2.0000      -0.392589       -10.6829
 253   2.0000      -0.390762       -10.6332
 254   2.0000      -0.384171       -10.4538
 255   2.0000      -0.383232       -10.4283
 256   2.0000      -0.377632       -10.2759
 257   2.0000      -0.377072       -10.2606
 258   2.0000      -0.376890       -10.2557
 259   2.0000      -0.361766        -9.8442
 260   2.0000      -0.355562        -9.6753
 261   2.0000      -0.351899        -9.5757
 262   2.0000      -0.340712        -9.2712
 263   2.0000      -0.339621        -9.2416
 264   2.0000      -0.339330        -9.2336
 265   2.0000      -0.335487        -9.1291
 266   2.0000      -0.334073        -9.0906
 267   2.0000      -0.327727        -8.9179
 268   2.0000      -0.318661        -8.6712
 269   2.0000      -0.317954        -8.6520
 270   2.0000      -0.317091        -8.6285
 271   2.0000      -0.313998        -8.5443
 272   2.0000      -0.307136        -8.3576
 273   2.0000      -0.297618        -8.0986
 274   2.0000      -0.295973        -8.0538
 275   2.0000      -0.281466        -7.6591
 276   2.0000      -0.270340        -7.3563
 277   2.0000      -0.263616        -7.1734
 278   2.0000      -0.236817        -6.4441
 279   2.0000      -0.195147        -5.3102
 280   0.0000      -0.088793        -2.4162
 281   0.0000      -0.078747        -2.1428
 282   0.0000      -0.059701        -1.6246
 283   0.0000      -0.030698        -0.8353
 284   0.0000      -0.015749        -0.4285

MULLIKEN ATOMIC CHARGES
-----------------------
   0 C :    0.312633
   1 C :   -0.360017
   2 C :   -0.184814
   3 N :    0.151520
   4 C :   -0.183993
   5 N :    0.149659
   6 C :    0.014846
   7 C :   -0.020102
   8 C :   -0.069628
   9 C :    0.119069
  10 C :   -0.091664
  11 C :   -0.018025
  12 S :    0.188782
  13 C :   -0.122874
  14 C :    0.038802
  15 Br:    0.026212
  16 C :    0.127026
  17 O :   -0.143400
  18 C :   -0.079316
  19 C :   -0.047381
  20 C :    0.048659
  21 C :   -0.042517
  22 S :    0.159596
  23 C :   -0.158150
  24 C :    0.130362
  25 C :   -0.106998
  26 C :    0.012823
  27 C :    0.024949
  28 C :   -0.114311
  29 C :    0.009059
  30 C :    0.033586
  31 C :    0.116759
  32 C :    0.088040
  33 C :   -0.123683
  34 S :    0.127736
  35 C :   -0.150019
  36 C :   -0.025240
  37 C :   -0.021216
  38 C :    0.172025
  39 O :   -0.237513
  40 C :    0.081795
  41 C :   -0.088559
  42 C :    0.055545
  43 O :   -0.199575
  44 N :   -0.085571
  45 C :    0.121546
  46 O :   -0.202064
  47 C :    0.204819
  48 C :   -0.135551
  49 C :   -0.038031
  50 C :    0.007577
  51 C :    0.026785
  52 C :    0.038010
  53 C :   -0.054485
  54 S :    0.101182
  55 C :   -0.026770
  56 C :    0.027640
  57 C :    0.031752
  58 C :   -0.039082
  59 S :    0.057111
  60 C :   -0.020434
  61 C :   -0.144327
  62 S :    0.119472
  63 C :   -0.118382
  64 C :    0.026643
  65 C :    0.129606
  66 N :   -0.041808
  67 N :   -0.062562
  68 C :   -0.014502
  69 C :    0.039600
  70 C :   -0.023502
  71 H :   -0.009806
  72 H :   -0.005524
  73 H :   -0.002391
  74 H :    0.012414
  75 H :    0.032727
  76 H :    0.024478
  77 H :   -0.000888
  78 H :    0.020928
  79 H :    0.021874
  80 H :    0.009422
  81 H :    0.005809
  82 H :    0.000891
  83 H :    0.014553
  84 H :    0.015145
  85 H :    0.024066
  86 H :    0.019026
  87 H :    0.002350
  88 H :   -0.010857
  89 H :    0.120328
  90 H :    0.125982
  91 H :   -0.008843
  92 H :   -0.005508
  93 H :   -0.014589
  94 H :   -0.017058
  95 H :   -0.016955
  96 H :   -0.016726
  97 H :   -0.027135
  98 H :    0.134062
  99 H :    0.001310
 100 H :   -0.019821
 101 H :    0.013572
 102 H :    0.032005
Sum of atomic charges:   -0.0000000

LOEWDIN ATOMIC CHARGES
----------------------
   0 C :    0.079956
   1 C :   -0.145380
   2 C :   -0.018541
   3 N :   -0.054390
   4 C :   -0.017973
   5 N :   -0.054315
   6 C :   -0.022557
   7 C :   -0.050723
   8 C :    0.022120
   9 C :   -0.031474
  10 C :   -0.143452
  11 C :   -0.008649
  12 S :    0.433696
  13 C :   -0.270294
  14 C :   -0.070377
  15 Br:    0.138579
  16 C :    0.080369
  17 O :   -0.139144
  18 C :   -0.101878
  19 C :    0.084757
  20 C :   -0.083186
  21 C :   -0.109530
  22 S :    0.453092
  23 C :   -0.180015
  24 C :   -0.034570
  25 C :   -0.019055
  26 C :   -0.032572
  27 C :   -0.051505
  28 C :   -0.013701
  29 C :   -0.032350
  30 C :   -0.051917
  31 C :   -0.038756
  32 C :   -0.059865
  33 C :   -0.169353
  34 S :    0.413691
  35 C :   -0.177331
  36 C :   -0.022016
  37 C :   -0.036659
  38 C :    0.038132
  39 O :   -0.005784
  40 C :   -0.001743
  41 C :   -0.141249
  42 C :    0.043530
  43 O :   -0.219080
  44 N :   -0.006784
  45 C :    0.072857
  46 O :    0.002461
  47 C :   -0.005614
  48 C :   -0.069246
  49 C :   -0.090180
  50 C :   -0.116842
  51 C :   -0.037020
  52 C :   -0.027955
  53 C :   -0.183993
  54 S :    0.424915
  55 C :   -0.168830
  56 C :   -0.044324
  57 C :   -0.030694
  58 C :   -0.166096
  59 S :    0.372116
  60 C :   -0.067729
  61 C :   -0.214240
  62 S :    0.455206
  63 C :   -0.168503
  64 C :   -0.093813
  65 C :   -0.017114
  66 N :    0.087733
  67 N :   -0.056379
  68 C :   -0.038563
  69 C :   -0.045784
  70 C :   -0.038290
  71 H :    0.041037
  72 H :    0.041227
  73 H :    0.039279
  74 H :    0.040111
  75 H :    0.028786
  76 H :    0.028086
  77 H :    0.027542
  78 H :    0.023265
  79 H :    0.025908
  80 H :    0.025032
  81 H :    0.024447
  82 H :    0.026180
  83 H :    0.022808
  84 H :    0.025582
  85 H :    0.027321
  86 H :    0.022616
  87 H :    0.024433
  88 H :    0.034640
  89 H :    0.067313
  90 H :    0.079641
  91 H :    0.036016
  92 H :    0.038228
  93 H :    0.032065
  94 H :    0.030866
  95 H :    0.031148
  96 H :    0.031395
  97 H :    0.034207
  98 H :    0.085203
  99 H :    0.021462
 100 H :    0.027733
 101 H :    0.023580
 102 H :    0.027011

  Mayer bond orders larger than 0.100000
B(  0-C ,  1-C ) :   1.6272 B(  0-C ,  6-C ) :   1.0099 B(  0-C , 18-C ) :   1.0559
B(  1-C ,  2-C ) :   1.1407 B(  1-C ,  4-C ) :   1.1551 B(  2-C ,  3-N ) :   2.9678
B(  4-C ,  5-N ) :   2.9546 B(  6-C ,  7-C ) :   1.2671 B(  6-C , 11-C ) :   1.4028
B(  7-C ,  8-C ) :   1.4250 B(  7-C , 16-C ) :   0.9435 B(  8-C ,  9-C ) :   1.2458
B(  8-C , 71-H ) :   1.0165 B(  9-C , 10-C ) :   1.3018 B(  9-C , 14-C ) :   1.1638
B( 10-C , 11-C ) :   1.3362 B( 10-C , 12-S ) :   1.0871 B( 11-C , 72-H ) :   0.9786
B( 12-S , 13-C ) :   1.0864 B( 13-C , 14-C ) :   1.6180 B( 13-C , 15-Br) :   1.0204
B( 14-C , 73-H ) :   0.9999 B( 16-C , 17-O ) :   2.2344 B( 16-C , 18-C ) :   0.9244
B( 18-C , 19-C ) :   1.6483 B( 19-C , 20-C ) :   1.0768 B( 19-C , 74-H ) :   0.9252
B( 20-C , 21-C ) :   1.5504 B( 20-C , 24-C ) :   1.1322 B( 21-C , 22-S ) :   1.1810
B( 21-C , 75-H ) :   0.9561 B( 22-S , 23-C ) :   1.0650 B( 23-C , 24-C ) :   1.3823
B( 23-C , 35-C ) :   1.3812 B( 24-C , 25-C ) :   1.2598 B( 25-C , 26-C ) :   1.0458
B( 25-C , 28-C ) :   1.5276 B( 26-C , 27-C ) :   1.1033 B( 26-C , 76-H ) :   0.9255
B( 26-C , 77-H ) :   0.9055 B( 27-C , 78-H ) :   0.9620 B( 27-C , 79-H ) :   0.9656
B( 27-C , 80-H ) :   0.9567 B( 28-C , 29-C ) :   1.0533 B( 28-C , 31-C ) :   1.2565
B( 29-C , 30-C ) :   1.1071 B( 29-C , 81-H ) :   0.9276 B( 29-C , 82-H ) :   0.9136
B( 30-C , 83-H ) :   0.9644 B( 30-C , 84-H ) :   0.9572 B( 30-C , 85-H ) :   0.9604
B( 31-C , 32-C ) :   1.1439 B( 31-C , 35-C ) :   1.3727 B( 32-C , 33-C ) :   1.6069
B( 32-C , 36-C ) :   1.0241 B( 33-C , 34-S ) :   1.1096 B( 33-C , 86-H ) :   0.9621
B( 34-S , 35-C ) :   1.0831 B( 36-C , 37-C ) :   1.7313 B( 36-C , 87-H ) :   0.9567
B( 37-C , 38-C ) :   1.1416 B( 37-C , 88-H ) :   0.9669 B( 38-C , 39-O ) :   1.0812
B( 38-C , 48-C ) :   1.4402 B( 39-O , 40-C ) :   1.1121 B( 40-C , 41-C ) :   1.2145
B( 40-C , 47-C ) :   1.3973 B( 41-C , 42-C ) :   0.9023 B( 41-C , 45-C ) :   1.4041
B( 42-C , 43-O ) :   2.1811 B( 42-C , 44-N ) :   1.2693 B( 44-N , 89-H ) :   0.9384
B( 44-N , 90-H ) :   0.9365 B( 45-C , 46-O ) :   1.1067 B( 45-C , 49-C ) :   1.1854
B( 46-O , 47-C ) :   1.1302 B( 47-C , 48-C ) :   1.1993 B( 48-C , 91-H ) :   1.0325
B( 49-C , 50-C ) :   1.5664 B( 49-C , 92-H ) :   0.9551 B( 50-C , 51-C ) :   1.1537
B( 50-C , 54-S ) :   1.0736 B( 51-C , 52-C ) :   1.5893 B( 51-C , 93-H ) :   0.9954
B( 52-C , 53-C ) :   1.1895 B( 52-C , 94-H ) :   0.9925 B( 53-C , 54-S ) :   1.0728
B( 53-C , 55-C ) :   1.4878 B( 55-C , 56-C ) :   1.2008 B( 55-C , 59-S ) :   1.0499
B( 56-C , 57-C ) :   1.5707 B( 56-C , 95-H ) :   0.9927 B( 57-C , 58-C ) :   1.1609
B( 57-C , 96-H ) :   0.9991 B( 58-C , 59-S ) :   1.0369 B( 58-C , 60-C ) :   1.5349
B( 60-C , 61-C ) :   1.2295 B( 60-C , 97-H ) :   0.9710 B( 61-C , 62-S ) :   1.0743
B( 61-C , 63-C ) :   0.1045 B( 61-C , 65-C ) :   1.3388 B( 62-S , 63-C ) :   1.1519
B( 63-C , 64-C ) :   1.3125 B( 63-C , 69-C ) :   1.1448 B( 64-C , 65-C ) :   1.2736
B( 64-C , 68-C ) :   1.1523 B( 65-C , 66-N ) :   1.1633 B( 66-N , 67-N ) :   1.1324
B( 66-N , 98-H ) :   0.9488 B( 67-N , 68-C ) :   1.7453 B( 68-C , 99-H ) :   0.9976
B( 69-C , 70-C ) :   1.8985 B( 69-C ,100-H ) :   0.9490 B( 70-C ,101-H ) :   0.9554
B( 70-C ,102-H ) :   0.9473

-----------------------------------------------------------------------------
         ABSORPTION SPECTRUM VIA TRANSITION ELECTRIC DIPOLE MOMENTS
-----------------------------------------------------------------------------
State   Energy  Wavelength   fosc         T2         TX        TY        TZ
        (cm-1)    (nm)                  (au**2)     (au)      (au)      (au)
-----------------------------------------------------------------------------
   0   11951.0    836.7   0.702398026  19.34879  -1.34220   0.45227  -4.16446
   1   14671.9    681.6   0.000516892   0.01160   0.09023  -0.05640  -0.01657
   2   19727.5    506.9   0.040735984   0.67980   0.73759  -0.36229   0.06720
   3   21485.1    465.4   0.002598448   0.03982  -0.15794   0.11387   0.04365
   4   22132.0    451.8   0.357508987   5.31792   1.62257  -0.60667   1.52222
   5   22266.7    449.1   0.392781636   5.80725  -1.90726   0.82392  -1.22098
   6   23017.5    434.5   1.516864343  21.69526   3.80006  -2.02007  -1.78161
   7   25019.3    399.7   0.189163514   2.48908  -1.28930   0.74571   0.52028
   8   26155.9    382.3   0.004552794   0.05730  -0.15415   0.17940   0.03684
   9   26543.0    376.7   0.003313364   0.04110   0.20002   0.00428   0.03269
  10   26824.8    372.8   0.047911876   0.58801  -0.29713  -0.07315   0.70311
  11   28428.6    351.8   0.345365940   3.99944   1.98894   0.13950  -0.15528
  12   28898.7    346.0   0.034350200   0.39131  -0.31314   0.00592   0.54150
  13   29049.9    344.2   0.029239721   0.33136   0.51466  -0.05149   0.25266
  14   29913.1    334.3   0.104837830   1.15380   0.11325   0.06724   1.06605
  15   30179.5    331.4   0.015685946   0.17111   0.16545  -0.06346   0.37378
  16   30280.4    330.2   0.030298467   0.32941   0.40587  -0.10461   0.39209
  17   30360.2    329.4   0.032949232   0.35729  -0.55812  -0.07076   0.20193
  18   31140.2    321.1   0.128658549   1.36017   1.01710  -0.56427   0.08527
  19   31438.8    318.1   0.115116727   1.20545  -0.91484   0.40560  -0.45167
  20   31497.6    317.5   0.078767440   0.82328   0.65905  -0.52929   0.32982
  21   31922.5    313.3   0.000372351   0.00384  -0.04575   0.01770  -0.03786
  22   32079.5    311.7   0.000399060   0.00410   0.02976   0.02203   0.05220
  23   32260.4    310.0   0.040608013   0.41440  -0.42054   0.00876  -0.48730
  24   32386.3    308.8   0.032101109   0.32631   0.55911  -0.01538   0.11606
  25   33207.7    301.1   0.424696864   4.21033  -1.45538   0.24392  -1.42573
  26   33686.2    296.9   0.239978135   2.34528  -1.46107  -0.04689   0.45645
  27   33720.5    296.6   0.274463860   2.67958   1.59076   0.23085  -0.30947
  28   33848.3    295.4   0.014908746   0.14500   0.03637   0.01277  -0.37884
  29   33943.4    294.6   0.082956450   0.80458  -0.59126  -0.16783   0.65332
  30   34629.9    288.8   0.157803098   1.50017  -0.62038   0.55988   0.89545
  31   35946.0    278.2   0.148342151   1.35859  -0.30416   0.11771  -1.11903
  32   36067.0    277.3   0.000638428   0.00583  -0.03372   0.03993   0.05565
  33   36391.0    274.8   0.034480645   0.31193  -0.04475  -0.31256  -0.46069
  34   36828.5    271.5   0.102566534   0.91685   0.86999  -0.27238   0.29286
  35   36958.7    270.6   0.025035303   0.22300   0.32394  -0.19214  -0.28487
  36   37547.2    266.3   0.005870639   0.05147  -0.19294   0.07307  -0.09438
  37   37773.6    264.7   0.093275707   0.81294  -0.76179   0.28308  -0.39049
  38   37893.0    263.9   0.007452566   0.06475  -0.09041  -0.06383   0.22913
  39   37953.5    263.5   0.245090602   2.12594   1.26025  -0.29004   0.67348
  40   38425.2    260.2   0.281952592   2.41566   1.17735  -0.58493   0.82907
  41   38868.3    257.3   0.011494965   0.09736  -0.26799  -0.07089   0.14324
  42   39022.8    256.3   0.026886068   0.22682   0.00111  -0.37672  -0.29137
  43   39384.3    253.9   0.027483431   0.22973   0.45080   0.14962  -0.06426
  44   39507.3    253.1   0.178345701   1.48615  -0.25976   0.11515  -1.18550
  45   39877.4    250.8   0.001293667   0.01068  -0.05851   0.01648  -0.08358
  46   40088.1    249.5   0.006718429   0.05517   0.13076  -0.10649  -0.16351

FINAL SINGLE POINT ENERGY     -7648.623908328314

DIPOLE MOMENT
-------------
                                X             Y             Z
Electronic contribution:    171.14592     -55.69309      22.61189
Nuclear contribution   :   -170.43489      55.66931     -23.48076
                        -----------------------------------------
Total Dipole Moment    :      0.71104      -0.02378      -0.86888
                        -----------------------------------------
Magnitude (a.u.)       :      1.12298
Magnitude (Debye)      :      2.85438

Rotational constants in cm-1:     0.001069     0.000287     0.000234
Rotational constants in MHz :    32.039705     8.614703     7.020520

                             ****ORCA TERMINATED NORMALLY****
TOTAL RUN TIME: 0 days 0 hours 10 minutes 33 seconds 570 msec
