                         Program Version 4.2.0 -  RELEASE  -
|  1> # ORCA input file
|  2> # SCF done       -209.969670445709          0.000502681015
|  3> ! CAM-B3LYP def2-SVP def2/J RIJCOSX Grid4 TightSCF
|  4> %maxcore 5000
|  5> %tddft
|  6>     Mode sTDDFT
|  7>     Ethresh 5.0
|  8>     maxcore 5000
|  9> end
| 10>
| 11> %pal
| 12>   nprocs 6
| 13>   end
| 14> * xyz 0 1
| 15>    C       -6.26166         2.29871        -6.57770
| 16>    C       -5.03712         1.76698        -6.86821
| 17>    C       -4.77527         0.95847        -7.99649
| 18>    N       -4.50661         0.30454        -8.89957
| 19>    C       -3.86813         1.99674        -6.11022
| 20>    N       -2.88831         2.16219        -5.53639
| 21>    C       -7.48030         2.14160        -7.35558
| 22>    C       -8.48104         3.00623        -6.83910
| 23>    C       -9.74968         3.06966        -7.36519
| 24>    C      -10.04973         2.23286        -8.44382
| 25>    C       -9.04502         1.37066        -8.95269
| 26>    C       -7.76125         1.31248        -8.42699
| 27>    S       -9.63189         0.42124       -10.28154
| 28>    C      -11.19616         1.17958       -10.13977
| 29>    C      -11.27647         2.09932        -9.14767
| 30>   Br      -12.57085         0.68719       -11.31293
| 31>    C       -7.93844         3.75399        -5.69997
| 32>    O       -8.42976         4.69866        -5.12505
| 33>    C       -6.58900         3.15543        -5.44304
| 34>    C       -5.88033         3.33361        -4.31154
| 35>    C       -6.35131         4.06866        -3.16560
| 36>    S       -5.28032         5.20843        -2.41736
| 37>    C       -6.49670         5.70166        -1.28101
| 38>    C       -7.64354         4.95818        -1.42884
| 39>    C       -7.56568         4.03746        -2.51086
| 40>    N       -8.64649         3.15638        -2.80749
| 41>    O       -8.42956         2.21141        -3.54215
| 42>    O       -9.71146         3.39829        -2.28908
| 43>    C       -8.72853         5.09634        -0.53667
| 44>    N       -9.53944         5.25073         0.25737
| 45>    C       -6.25308         6.71262        -0.25843
| 46>    C       -5.61762         6.36073         0.89201
| 47>    S       -5.51094         7.62237         2.04790
| 48>    C       -6.33285         8.69127         0.95635
| 49>    C       -6.67575         8.09059        -0.26262
| 50>    C       -7.32566         8.86245        -1.25754
| 51>    C       -7.61121         8.21148        -2.58773
| 52>    C       -9.04381         7.68793        -2.71497
| 53>    C       -7.65464        10.18910        -1.00726
| 54>    C       -8.45237        10.97558        -2.01463
| 55>    C       -9.87208        11.23779        -1.50694
| 56>    C       -7.28372        10.80349         0.21928
| 57>    C       -7.46492        12.15351         0.71807
| 58>    C       -6.97364        12.29185         1.98777
| 59>    S       -6.26306        10.88406         2.64825
| 60>    C       -6.63277        10.02302         1.18869
| 61>    C       -8.01860        13.30457         0.04374
| 62>    C       -8.60098        14.34459         0.67345
| 63>    C       -9.07692        15.50738         0.00007
| 64>    O       -8.97544        15.59392        -1.36674
| 65>    C       -9.47740        16.79611        -1.69418
| 66>    C       -9.73395        17.62452        -2.79682
| 67>    C       -9.49913        17.36224        -4.23299
| 68>    O       -9.82428        18.12258        -5.11830
| 69>    N       -8.90693        16.16781        -4.46598
| 70>    C      -10.27641        18.79047        -2.23423
| 71>    O      -10.38380        18.68582        -0.87114
| 72>    C       -9.89901        17.48131        -0.54908
| 73>    C       -9.64882        16.64774         0.54583
| 74>    C      -10.71829        19.95165        -2.90769
| 75>    C      -11.00871        21.16583        -2.36691
| 76>    C      -10.72981        21.72920        -1.06143
| 77>    C       -9.63719        21.46147        -0.27977
| 78>    C       -9.37771        22.09719         0.95085
| 79>    N       -9.13321        22.57250         1.96686
| 80>    C       -8.59506        20.59000        -0.66017
| 81>    N       -7.69680        19.93567        -0.94753
| 82>    C      -11.66244        22.83219        -0.85749
| 83>    C      -12.32117        23.10077        -2.08412
| 84>    C      -11.87730        22.12643        -3.10438
| 85>    O      -12.19062        22.08318        -4.26933
| 86>    C      -13.23088        24.12082        -2.22273
| 87>    C      -13.51058        24.90414        -1.09786
| 88>    C      -12.85762        24.61796         0.12525
| 89>    C      -11.93126        23.59186         0.26490
| 90>    S      -13.35953        25.70200         1.38662
| 91>    C      -14.42086        26.51772         0.26877
| 92>    C      -14.40383        26.00478        -0.98419
| 93>   Br      -15.45214        27.96661         0.86322
| 94>    H      -10.49005         3.73399        -6.94813
| 95>    H       -7.03343         0.63574        -8.84296
| 96>    H      -12.16485         2.65925        -8.91941
| 97>    H       -4.88171         2.92683        -4.21923
| 98>    H       -5.22169         5.39295         1.13289
| 99>    H       -6.92082         7.38080        -2.71880
|100>    H       -7.40086         8.90726        -3.40200
|101>    H       -9.33454         7.13947        -1.82272
|102>    H       -9.12095         7.02218        -3.57197
|103>    H       -9.75026         8.50192        -2.84868
|104>    H       -8.52546        10.43410        -2.95340
|105>    H       -7.94788        11.91576        -2.23703
|106>    H      -10.37686        10.29510        -1.30938
|107>    H      -10.44155        11.78633        -2.25407
|108>    H       -9.86377        11.81642        -0.58721
|109>    H       -6.94933        13.19492         2.56521
|110>    H       -7.92425        13.36194        -1.02794
|111>    H       -8.75012        14.34530         1.74231
|112>    H       -8.60523        15.56898        -3.71836
|113>    H       -8.68709        15.91983        -5.41589
|114>    H       -9.83254        16.82990         1.58342
|115>    H      -10.89575        19.82234        -3.97027
|116>    H      -13.71141        24.31002        -3.16970
|117>    H      -11.46165        23.40569         1.21672
|118>    H      -14.99596        26.38490        -1.79648
|119> *
|120>
|121>                          ****END OF INPUT****

CARTESIAN COORDINATES (ANGSTROEM)
---------------------------------
  C     -6.261660    2.298710   -6.577700
  C     -5.037120    1.766980   -6.868210
  C     -4.775270    0.958470   -7.996490
  N     -4.506610    0.304540   -8.899570
  C     -3.868130    1.996740   -6.110220
  N     -2.888310    2.162190   -5.536390
  C     -7.480300    2.141600   -7.355580
  C     -8.481040    3.006230   -6.839100
  C     -9.749680    3.069660   -7.365190
  C    -10.049730    2.232860   -8.443820
  C     -9.045020    1.370660   -8.952690
  C     -7.761250    1.312480   -8.426990
  S     -9.631890    0.421240  -10.281540
  C    -11.196160    1.179580  -10.139770
  C    -11.276470    2.099320   -9.147670
  Br   -12.570850    0.687190  -11.312930
  C     -7.938440    3.753990   -5.699970
  O     -8.429760    4.698660   -5.125050
  C     -6.589000    3.155430   -5.443040
  C     -5.880330    3.333610   -4.311540
  C     -6.351310    4.068660   -3.165600
  S     -5.280320    5.208430   -2.417360
  C     -6.496700    5.701660   -1.281010
  C     -7.643540    4.958180   -1.428840
  C     -7.565680    4.037460   -2.510860
  N     -8.646490    3.156380   -2.807490
  O     -8.429560    2.211410   -3.542150
  O     -9.711460    3.398290   -2.289080
  C     -8.728530    5.096340   -0.536670
  N     -9.539440    5.250730    0.257370
  C     -6.253080    6.712620   -0.258430
  C     -5.617620    6.360730    0.892010
  S     -5.510940    7.622370    2.047900
  C     -6.332850    8.691270    0.956350
  C     -6.675750    8.090590   -0.262620
  C     -7.325660    8.862450   -1.257540
  C     -7.611210    8.211480   -2.587730
  C     -9.043810    7.687930   -2.714970
  C     -7.654640   10.189100   -1.007260
  C     -8.452370   10.975580   -2.014630
  C     -9.872080   11.237790   -1.506940
  C     -7.283720   10.803490    0.219280
  C     -7.464920   12.153510    0.718070
  C     -6.973640   12.291850    1.987770
  S     -6.263060   10.884060    2.648250
  C     -6.632770   10.023020    1.188690
  C     -8.018600   13.304570    0.043740
  C     -8.600980   14.344590    0.673450
  C     -9.076920   15.507380    0.000070
  O     -8.975440   15.593920   -1.366740
  C     -9.477400   16.796110   -1.694180
  C     -9.733950   17.624520   -2.796820
  C     -9.499130   17.362240   -4.232990
  O     -9.824280   18.122580   -5.118300
  N     -8.906930   16.167810   -4.465980
  C    -10.276410   18.790470   -2.234230
  O    -10.383800   18.685820   -0.871140
  C     -9.899010   17.481310   -0.549080
  C     -9.648820   16.647740    0.545830
  C    -10.718290   19.951650   -2.907690
  C    -11.008710   21.165830   -2.366910
  C    -10.729810   21.729200   -1.061430
  C     -9.637190   21.461470   -0.279770
  C     -9.377710   22.097190    0.950850
  N     -9.133210   22.572500    1.966860
  C     -8.595060   20.590000   -0.660170
  N     -7.696800   19.935670   -0.947530
  C    -11.662440   22.832190   -0.857490
  C    -12.321170   23.100770   -2.084120
  C    -11.877300   22.126430   -3.104380
  O    -12.190620   22.083180   -4.269330
  C    -13.230880   24.120820   -2.222730
  C    -13.510580   24.904140   -1.097860
  C    -12.857620   24.617960    0.125250
  C    -11.931260   23.591860    0.264900
  S    -13.359530   25.702000    1.386620
  C    -14.420860   26.517720    0.268770
  C    -14.403830   26.004780   -0.984190
  Br   -15.452140   27.966610    0.863220
  H    -10.490050    3.733990   -6.948130
  H     -7.033430    0.635740   -8.842960
  H    -12.164850    2.659250   -8.919410
  H     -4.881710    2.926830   -4.219230
  H     -5.221690    5.392950    1.132890
  H     -6.920820    7.380800   -2.718800
  H     -7.400860    8.907260   -3.402000
  H     -9.334540    7.139470   -1.822720
  H     -9.120950    7.022180   -3.571970
  H     -9.750260    8.501920   -2.848680
  H     -8.525460   10.434100   -2.953400
  H     -7.947880   11.915760   -2.237030
  H    -10.376860   10.295100   -1.309380
  H    -10.441550   11.786330   -2.254070
  H     -9.863770   11.816420   -0.587210
  H     -6.949330   13.194920    2.565210
  H     -7.924250   13.361940   -1.027940
  H     -8.750120   14.345300    1.742310
  H     -8.605230   15.568980   -3.718360
  H     -8.687090   15.919830   -5.415890
  H     -9.832540   16.829900    1.583420
  H    -10.895750   19.822340   -3.970270
  H    -13.711410   24.310020   -3.169700
  H    -11.461650   23.405690    1.216720
  H    -14.995960   26.384900   -1.796480

 Total Charge           Charge          ....    0
 Multiplicity           Mult            ....    1
 Number of Electrons    NEL             ....  628
 Basis Dimension        Dim             .... 1287

ORBITAL ENERGIES
----------------

  NO   OCC          E(Eh)            E(eV)
   0   2.0000    -482.894705    -13140.2330
   1   2.0000    -482.882984    -13139.9140
   2   2.0000     -89.008886     -2422.0549
   3   2.0000     -88.987228     -2421.4656
   4   2.0000     -88.972306     -2421.0595
   5   2.0000     -88.970232     -2421.0031
   6   2.0000     -88.965183     -2420.8657
   7   2.0000     -62.572446     -1702.6828
   8   2.0000     -62.560709     -1702.3635
   9   2.0000     -56.406410     -1534.8964
  10   2.0000     -56.403664     -1534.8217
  11   2.0000     -56.403641     -1534.8211
  12   2.0000     -56.394658     -1534.5767
  13   2.0000     -56.391947     -1534.5029
  14   2.0000     -56.391912     -1534.5019
  15   2.0000     -19.319318      -525.7054
  16   2.0000     -19.315359      -525.5976
  17   2.0000     -19.264314      -524.2086
  18   2.0000     -19.257797      -524.0313
  19   2.0000     -19.237181      -523.4703
  20   2.0000     -19.208516      -522.6903
  21   2.0000     -19.187803      -522.1267
  22   2.0000     -14.670155      -399.1952
  23   2.0000     -14.438191      -392.8832
  24   2.0000     -14.433550      -392.7569
  25   2.0000     -14.431181      -392.6924
  26   2.0000     -14.412705      -392.1896
  27   2.0000     -14.412073      -392.1724
  28   2.0000     -14.407961      -392.0605
  29   2.0000     -10.388998      -282.6990
  30   2.0000     -10.388166      -282.6764
  31   2.0000     -10.370282      -282.1897
  32   2.0000     -10.362422      -281.9758
  33   2.0000     -10.361346      -281.9466
  34   2.0000     -10.360221      -281.9159
  35   2.0000     -10.360092      -281.9124
  36   2.0000     -10.359756      -281.9033
  37   2.0000     -10.359536      -281.8973
  38   2.0000     -10.357455      -281.8407
  39   2.0000     -10.356307      -281.8094
  40   2.0000     -10.355709      -281.7932
  41   2.0000     -10.349376      -281.6208
  42   2.0000     -10.345762      -281.5225
  43   2.0000     -10.343674      -281.4657
  44   2.0000     -10.340603      -281.3821
  45   2.0000     -10.339849      -281.3616
  46   2.0000     -10.337326      -281.2930
  47   2.0000     -10.335944      -281.2553
  48   2.0000     -10.335314      -281.2382
  49   2.0000     -10.332884      -281.1721
  50   2.0000     -10.325506      -280.9713
  51   2.0000     -10.324881      -280.9543
  52   2.0000     -10.322347      -280.8853
  53   2.0000     -10.321462      -280.8613
  54   2.0000     -10.320175      -280.8262
  55   2.0000     -10.318792      -280.7886
  56   2.0000     -10.315623      -280.7024
  57   2.0000     -10.315517      -280.6995
  58   2.0000     -10.314873      -280.6820
  59   2.0000     -10.312859      -280.6272
  60   2.0000     -10.312426      -280.6154
  61   2.0000     -10.311643      -280.5941
  62   2.0000     -10.310686      -280.5680
  63   2.0000     -10.310053      -280.5508
  64   2.0000     -10.309995      -280.5492
  65   2.0000     -10.308659      -280.5129
  66   2.0000     -10.307653      -280.4855
  67   2.0000     -10.307379      -280.4781
  68   2.0000     -10.304711      -280.4054
  69   2.0000     -10.303833      -280.3816
  70   2.0000     -10.301869      -280.3281
  71   2.0000     -10.300329      -280.2862
  72   2.0000     -10.298143      -280.2267
  73   2.0000     -10.297109      -280.1986
  74   2.0000     -10.296324      -280.1772
  75   2.0000     -10.295944      -280.1669
  76   2.0000     -10.295444      -280.1533
  77   2.0000     -10.293580      -280.1026
  78   2.0000     -10.293291      -280.0947
  79   2.0000     -10.293244      -280.0934
  80   2.0000     -10.288485      -279.9639
  81   2.0000     -10.287135      -279.9272
  82   2.0000     -10.286253      -279.9032
  83   2.0000     -10.274864      -279.5933
  84   2.0000     -10.270861      -279.4843
  85   2.0000     -10.261030      -279.2168
  86   2.0000     -10.254571      -279.0411
  87   2.0000      -8.801905      -239.5120
  88   2.0000      -8.790144      -239.1920
  89   2.0000      -8.103803      -220.5157
  90   2.0000      -8.083330      -219.9586
  91   2.0000      -8.068350      -219.5510
  92   2.0000      -8.066289      -219.4949
  93   2.0000      -8.061452      -219.3633
  94   2.0000      -6.638291      -180.6371
  95   2.0000      -6.626449      -180.3148
  96   2.0000      -6.623617      -180.2378
  97   2.0000      -6.623365      -180.2309
  98   2.0000      -6.611866      -179.9180
  99   2.0000      -6.611686      -179.9131
 100   2.0000      -6.073067      -165.2566
 101   2.0000      -6.068743      -165.1389
 102   2.0000      -6.066101      -165.0670
 103   2.0000      -6.053016      -164.7109
 104   2.0000      -6.048713      -164.5939
 105   2.0000      -6.044530      -164.4800
 106   2.0000      -6.038061      -164.3040
 107   2.0000      -6.035757      -164.2413
 108   2.0000      -6.033762      -164.1870
 109   2.0000      -6.031527      -164.1262
 110   2.0000      -6.030887      -164.1088
 111   2.0000      -6.029552      -164.0725
 112   2.0000      -6.028036      -164.0312
 113   2.0000      -6.026650      -163.9935
 114   2.0000      -6.023244      -163.9008
 115   2.0000      -2.754104       -74.9430
 116   2.0000      -2.750069       -74.8332
 117   2.0000      -2.749860       -74.8275
 118   2.0000      -2.742286       -74.6214
 119   2.0000      -2.738231       -74.5110
 120   2.0000      -2.738203       -74.5103
 121   2.0000      -2.738180       -74.5097
 122   2.0000      -2.738113       -74.5079
 123   2.0000      -2.726507       -74.1920
 124   2.0000      -2.726499       -74.1918
 125   2.0000      -1.343886       -36.5690
 126   2.0000      -1.240369       -33.7522
 127   2.0000      -1.222412       -33.2635
 128   2.0000      -1.163237       -31.6533
 129   2.0000      -1.152617       -31.3643
 130   2.0000      -1.128591       -30.7105
 131   2.0000      -1.124496       -30.5991
 132   2.0000      -1.046958       -28.4892
 133   2.0000      -1.038297       -28.2535
 134   2.0000      -1.028076       -27.9754
 135   2.0000      -1.018836       -27.7239
 136   2.0000      -1.016815       -27.6689
 137   2.0000      -1.010815       -27.5057
 138   2.0000      -1.008656       -27.4469
 139   2.0000      -1.006093       -27.3772
 140   2.0000      -0.998717       -27.1765
 141   2.0000      -0.994927       -27.0733
 142   2.0000      -0.989126       -26.9155
 143   2.0000      -0.988237       -26.8913
 144   2.0000      -0.985050       -26.8046
 145   2.0000      -0.958317       -26.0771
 146   2.0000      -0.941623       -25.6229
 147   2.0000      -0.937925       -25.5222
 148   2.0000      -0.936150       -25.4739
 149   2.0000      -0.933326       -25.3971
 150   2.0000      -0.928423       -25.2637
 151   2.0000      -0.924397       -25.1541
 152   2.0000      -0.922398       -25.0997
 153   2.0000      -0.918024       -24.9807
 154   2.0000      -0.904231       -24.6054
 155   2.0000      -0.899974       -24.4895
 156   2.0000      -0.898081       -24.4380
 157   2.0000      -0.893309       -24.3082
 158   2.0000      -0.882096       -24.0030
 159   2.0000      -0.877174       -23.8691
 160   2.0000      -0.875709       -23.8292
 161   2.0000      -0.863143       -23.4873
 162   2.0000      -0.860570       -23.4173
 163   2.0000      -0.851315       -23.1654
 164   2.0000      -0.843032       -22.9401
 165   2.0000      -0.839944       -22.8561
 166   2.0000      -0.825653       -22.4672
 167   2.0000      -0.819302       -22.2943
 168   2.0000      -0.808079       -21.9889
 169   2.0000      -0.799171       -21.7465
 170   2.0000      -0.794598       -21.6221
 171   2.0000      -0.777311       -21.1517
 172   2.0000      -0.772888       -21.0313
 173   2.0000      -0.767997       -20.8983
 174   2.0000      -0.758124       -20.6296
 175   2.0000      -0.747840       -20.3498
 176   2.0000      -0.736828       -20.0501
 177   2.0000      -0.734538       -19.9878
 178   2.0000      -0.729824       -19.8595
 179   2.0000      -0.727369       -19.7927
 180   2.0000      -0.723357       -19.6835
 181   2.0000      -0.709980       -19.3195
 182   2.0000      -0.707272       -19.2458
 183   2.0000      -0.704882       -19.1808
 184   2.0000      -0.703329       -19.1386
 185   2.0000      -0.698654       -19.0114
 186   2.0000      -0.685777       -18.6610
 187   2.0000      -0.683978       -18.6120
 188   2.0000      -0.677706       -18.4413
 189   2.0000      -0.672769       -18.3070
 190   2.0000      -0.668703       -18.1963
 191   2.0000      -0.662326       -18.0228
 192   2.0000      -0.657814       -17.9000
 193   2.0000      -0.656083       -17.8529
 194   2.0000      -0.653316       -17.7776
 195   2.0000      -0.641518       -17.4566
 196   2.0000      -0.639212       -17.3938
 197   2.0000      -0.638463       -17.3735
 198   2.0000      -0.635945       -17.3049
 199   2.0000      -0.624354       -16.9895
 200   2.0000      -0.623533       -16.9672
 201   2.0000      -0.619361       -16.8537
 202   2.0000      -0.618717       -16.8362
 203   2.0000      -0.613776       -16.7017
 204   2.0000      -0.602449       -16.3935
 205   2.0000      -0.601377       -16.3643
 206   2.0000      -0.600214       -16.3326
 207   2.0000      -0.597006       -16.2453
 208   2.0000      -0.593203       -16.1419
 209   2.0000      -0.586480       -15.9589
 210   2.0000      -0.584463       -15.9040
 211   2.0000      -0.582336       -15.8462
 212   2.0000      -0.573019       -15.5926
 213   2.0000      -0.570507       -15.5243
 214   2.0000      -0.566123       -15.4050
 215   2.0000      -0.559185       -15.2162
 216   2.0000      -0.556774       -15.1506
 217   2.0000      -0.552773       -15.0417
 218   2.0000      -0.550191       -14.9714
 219   2.0000      -0.548815       -14.9340
 220   2.0000      -0.545961       -14.8564
 221   2.0000      -0.542869       -14.7722
 222   2.0000      -0.541582       -14.7372
 223   2.0000      -0.540666       -14.7123
 224   2.0000      -0.539378       -14.6772
 225   2.0000      -0.534516       -14.5449
 226   2.0000      -0.534244       -14.5375
 227   2.0000      -0.528744       -14.3879
 228   2.0000      -0.528205       -14.3732
 229   2.0000      -0.526266       -14.3204
 230   2.0000      -0.521119       -14.1804
 231   2.0000      -0.520104       -14.1527
 232   2.0000      -0.518768       -14.1164
 233   2.0000      -0.515309       -14.0223
 234   2.0000      -0.511530       -13.9194
 235   2.0000      -0.510069       -13.8797
 236   2.0000      -0.509283       -13.8583
 237   2.0000      -0.507843       -13.8191
 238   2.0000      -0.504700       -13.7336
 239   2.0000      -0.503396       -13.6981
 240   2.0000      -0.500197       -13.6111
 241   2.0000      -0.499222       -13.5845
 242   2.0000      -0.496457       -13.5093
 243   2.0000      -0.496036       -13.4978
 244   2.0000      -0.494546       -13.4573
 245   2.0000      -0.489541       -13.3211
 246   2.0000      -0.487286       -13.2597
 247   2.0000      -0.485842       -13.2204
 248   2.0000      -0.482043       -13.1170
 249   2.0000      -0.481002       -13.0887
 250   2.0000      -0.477680       -12.9983
 251   2.0000      -0.471068       -12.8184
 252   2.0000      -0.469888       -12.7863
 253   2.0000      -0.467889       -12.7319
 254   2.0000      -0.464545       -12.6409
 255   2.0000      -0.463472       -12.6117
 256   2.0000      -0.461560       -12.5597
 257   2.0000      -0.459855       -12.5133
 258   2.0000      -0.459409       -12.5012
 259   2.0000      -0.457873       -12.4594
 260   2.0000      -0.454953       -12.3799
 261   2.0000      -0.453263       -12.3339
 262   2.0000      -0.451143       -12.2762
 263   2.0000      -0.449121       -12.2212
 264   2.0000      -0.445069       -12.1110
 265   2.0000      -0.444069       -12.0837
 266   2.0000      -0.443269       -12.0620
 267   2.0000      -0.442370       -12.0375
 268   2.0000      -0.440946       -11.9988
 269   2.0000      -0.440160       -11.9774
 270   2.0000      -0.439511       -11.9597
 271   2.0000      -0.437767       -11.9122
 272   2.0000      -0.435602       -11.8533
 273   2.0000      -0.433797       -11.8042
 274   2.0000      -0.431491       -11.7415
 275   2.0000      -0.427189       -11.6244
 276   2.0000      -0.424975       -11.5642
 277   2.0000      -0.424506       -11.5514
 278   2.0000      -0.419098       -11.4042
 279   2.0000      -0.417947       -11.3729
 280   2.0000      -0.416451       -11.3322
 281   2.0000      -0.415957       -11.3188
 282   2.0000      -0.411788       -11.2053
 283   2.0000      -0.405410       -11.0318
 284   2.0000      -0.404381       -11.0038
 285   2.0000      -0.399961       -10.8835
 286   2.0000      -0.397772       -10.8239
 287   2.0000      -0.396675       -10.7941
 288   2.0000      -0.391089       -10.6421
 289   2.0000      -0.388720       -10.5776
 290   2.0000      -0.387482       -10.5439
 291   2.0000      -0.383930       -10.4473
 292   2.0000      -0.382558       -10.4099
 293   2.0000      -0.381426       -10.3791
 294   2.0000      -0.372488       -10.1359
 295   2.0000      -0.369732       -10.0609
 296   2.0000      -0.369131       -10.0446
 297   2.0000      -0.360354        -9.8057
 298   2.0000      -0.358988        -9.7686
 299   2.0000      -0.355174        -9.6648
 300   2.0000      -0.351851        -9.5744
 301   2.0000      -0.350531        -9.5384
 302   2.0000      -0.344784        -9.3821
 303   2.0000      -0.342189        -9.3114
 304   2.0000      -0.332189        -9.0393
 305   2.0000      -0.328348        -8.9348
 306   2.0000      -0.321630        -8.7520
 307   2.0000      -0.319685        -8.6991
 308   2.0000      -0.311375        -8.4730
 309   2.0000      -0.306019        -8.3272
 310   2.0000      -0.291028        -7.9193
 311   2.0000      -0.287222        -7.8157
 312   2.0000      -0.283943        -7.7265
 313   2.0000      -0.252535        -6.8718
 314   0.0000      -0.112493        -3.0611
 315   0.0000      -0.093652        -2.5484
 316   0.0000      -0.083785        -2.2799
 317   0.0000      -0.056080        -1.5260
 318   0.0000      -0.045417        -1.2359

MULLIKEN ATOMIC CHARGES
-----------------------
   0 C :    0.292526
   1 C :   -0.331475
   2 C :   -0.184422
   3 N :    0.161945
   4 C :   -0.185694
   5 N :    0.161165
   6 C :    0.024752
   7 C :   -0.003241
   8 C :   -0.058567
   9 C :    0.113621
  10 C :   -0.085720
  11 C :   -0.020629
  12 S :    0.195756
  13 C :   -0.123390
  14 C :    0.042608
  15 Br:    0.035935
  16 C :    0.130183
  17 O :   -0.147282
  18 C :   -0.004704
  19 C :   -0.027257
  20 C :   -0.194768
  21 S :    0.240557
  22 C :   -0.238292
  23 C :   -0.019579
  24 C :    0.259705
  25 N :    0.254830
  26 O :   -0.247868
  27 O :   -0.197661
  28 C :   -0.213671
  29 N :    0.201774
  30 C :   -0.022244
  31 C :   -0.062773
  32 S :    0.151718
  33 C :   -0.143095
  34 C :    0.168623
  35 C :   -0.119191
  36 C :    0.038155
  37 C :    0.031476
  38 C :   -0.121457
  39 C :    0.040412
  40 C :    0.019076
  41 C :    0.132366
  42 C :    0.068456
  43 C :   -0.114352
  44 S :    0.144938
  45 C :   -0.161876
  46 C :   -0.006487
  47 C :   -0.024160
  48 C :    0.191628
  49 O :   -0.230422
  50 C :    0.110990
  51 C :   -0.017317
  52 C :    0.070684
  53 O :   -0.193061
  54 N :   -0.085931
  55 C :    0.056501
  56 O :   -0.195472
  57 C :    0.248773
  58 C :   -0.143610
  59 C :    0.011185
  60 C :   -0.095080
  61 C :    0.271942
  62 C :   -0.326042
  63 C :   -0.182522
  64 N :    0.148383
  65 C :   -0.195127
  66 N :    0.153660
  67 C :    0.004529
  68 C :   -0.004173
  69 C :    0.134497
  70 O :   -0.133926
  71 C :   -0.069523
  72 C :    0.110503
  73 C :   -0.086201
  74 C :   -0.020972
  75 S :    0.182095
  76 C :   -0.125527
  77 C :    0.041951
  78 Br:    0.020904
  79 H :   -0.001795
  80 H :   -0.001444
  81 H :    0.002067
  82 H :    0.038324
  83 H :    0.026692
  84 H :   -0.005910
  85 H :    0.010502
  86 H :    0.017853
  87 H :    0.027451
  88 H :    0.008666
  89 H :   -0.006473
  90 H :    0.000527
  91 H :    0.021086
  92 H :    0.013291
  93 H :    0.026178
  94 H :    0.024871
  95 H :    0.002432
  96 H :   -0.004056
  97 H :    0.125391
  98 H :    0.134722
  99 H :    0.002289
 100 H :    0.051232
 101 H :   -0.009373
 102 H :   -0.004688
 103 H :   -0.003871
Sum of atomic charges:   -0.0000000

LOEWDIN ATOMIC CHARGES
----------------------
   0 C :    0.075757
   1 C :   -0.125909
   2 C :   -0.019117
   3 N :   -0.039361
   4 C :   -0.019075
   5 N :   -0.041913
   6 C :   -0.016648
   7 C :   -0.047785
   8 C :    0.031146
   9 C :   -0.027566
  10 C :   -0.139323
  11 C :   -0.006433
  12 S :    0.440584
  13 C :   -0.267689
  14 C :   -0.068190
  15 Br:    0.146638
  16 C :    0.085137
  17 O :   -0.142856
  18 C :   -0.045129
  19 C :    0.027033
  20 C :   -0.149226
  21 S :    0.520848
  22 C :   -0.125611
  23 C :   -0.086190
  24 C :   -0.037740
  25 N :    0.289840
  26 O :   -0.205553
  27 O :   -0.154544
  28 C :   -0.039327
  29 N :   -0.032239
  30 C :   -0.095949
  31 C :   -0.148847
  32 S :    0.436301
  33 C :   -0.176726
  34 C :   -0.037050
  35 C :   -0.017948
  36 C :   -0.032798
  37 C :   -0.054131
  38 C :   -0.015475
  39 C :   -0.029819
  40 C :   -0.049623
  41 C :   -0.036067
  42 C :   -0.066558
  43 C :   -0.159695
  44 S :    0.430175
  45 C :   -0.176871
  46 C :    0.003967
  47 C :   -0.046013
  48 C :    0.065363
  49 O :   -0.003692
  50 C :   -0.003286
  51 C :   -0.074025
  52 C :    0.067192
  53 O :   -0.199847
  54 N :    0.002775
  55 C :    0.047987
  56 O :    0.028544
  57 C :    0.027613
  58 C :   -0.069502
  59 C :    0.054604
  60 C :   -0.084926
  61 C :    0.070458
  62 C :   -0.136568
  63 C :   -0.019777
  64 N :   -0.057050
  65 C :   -0.021462
  66 N :   -0.060466
  67 C :   -0.016825
  68 C :   -0.051788
  69 C :    0.082006
  70 O :   -0.135192
  71 C :    0.022079
  72 C :   -0.034006
  73 C :   -0.143430
  74 C :   -0.013841
  75 S :    0.429421
  76 C :   -0.272875
  77 C :   -0.069733
  78 Br:    0.134959
  79 H :    0.044766
  80 H :    0.042514
  81 H :    0.041201
  82 H :    0.048913
  83 H :    0.029218
  84 H :    0.016555
  85 H :    0.027628
  86 H :    0.027995
  87 H :    0.030279
  88 H :    0.021688
  89 H :    0.026896
  90 H :    0.021930
  91 H :    0.027751
  92 H :    0.025026
  93 H :    0.024771
  94 H :    0.024380
  95 H :    0.028380
  96 H :    0.037817
  97 H :    0.074188
  98 H :    0.085192
  99 H :    0.041166
 100 H :    0.060182
 101 H :    0.041325
 102 H :    0.040336
 103 H :    0.038762

  Mayer bond orders larger than 0.100000
B(  0-C ,  1-C ) :   1.6676 B(  0-C ,  6-C ) :   1.0213 B(  0-C , 18-C ) :   1.0420
B(  1-C ,  2-C ) :   1.1308 B(  1-C ,  4-C ) :   1.1428 B(  2-C ,  3-N ) :   2.9804
B(  4-C ,  5-N ) :   2.9793 B(  6-C ,  7-C ) :   1.2647 B(  6-C , 11-C ) :   1.3990
B(  7-C ,  8-C ) :   1.4153 B(  7-C , 16-C ) :   0.9489 B(  8-C ,  9-C ) :   1.2559
B(  8-C , 79-H ) :   1.0164 B(  9-C , 10-C ) :   1.2896 B(  9-C , 14-C ) :   1.1682
B( 10-C , 11-C ) :   1.3418 B( 10-C , 12-S ) :   1.0920 B( 11-C , 80-H ) :   0.9811
B( 12-S , 13-C ) :   1.0864 B( 13-C , 14-C ) :   1.6142 B( 13-C , 15-Br) :   1.0257
B( 14-C , 81-H ) :   1.0003 B( 16-C , 17-O ) :   2.2118 B( 16-C , 18-C ) :   0.9021
B( 18-C , 19-C ) :   1.7799 B( 19-C , 20-C ) :   1.0245 B( 19-C , 82-H ) :   0.9204
B( 20-C , 21-S ) :   1.1586 B( 20-C , 24-C ) :   1.5150 B( 21-S , 22-C ) :   1.1699
B( 22-C , 23-C ) :   1.5781 B( 22-C , 30-C ) :   0.9588 B( 23-C , 24-C ) :   1.2519
B( 23-C , 28-C ) :   1.1335 B( 24-C , 25-N ) :   0.9079 B( 25-N , 26-O ) :   1.4978
B( 25-N , 27-O ) :   1.5548 B( 26-O , 27-O ) :   0.2666 B( 28-C , 29-N ) :   2.9980
B( 30-C , 31-C ) :   1.6288 B( 30-C , 34-C ) :   1.1912 B( 31-C , 32-S ) :   1.1340
B( 31-C , 83-H ) :   0.9688 B( 32-S , 33-C ) :   1.0832 B( 33-C , 34-C ) :   1.3647
B( 33-C , 45-C ) :   1.3740 B( 34-C , 35-C ) :   1.2610 B( 35-C , 36-C ) :   1.0598
B( 35-C , 38-C ) :   1.5203 B( 36-C , 37-C ) :   1.1071 B( 36-C , 84-H ) :   0.9042
B( 36-C , 85-H ) :   0.9184 B( 37-C , 86-H ) :   0.9534 B( 37-C , 87-H ) :   0.9576
B( 37-C , 88-H ) :   0.9602 B( 38-C , 39-C ) :   1.0700 B( 38-C , 41-C ) :   1.2340
B( 39-C , 40-C ) :   1.1062 B( 39-C , 89-H ) :   0.9095 B( 39-C , 90-H ) :   0.9230
B( 40-C , 91-H ) :   0.9551 B( 40-C , 92-H ) :   0.9657 B( 40-C , 93-H ) :   0.9647
B( 41-C , 42-C ) :   1.1423 B( 41-C , 45-C ) :   1.3774 B( 42-C , 43-C ) :   1.5982
B( 42-C , 46-C ) :   1.0266 B( 43-C , 44-S ) :   1.1313 B( 43-C , 94-H ) :   0.9605
B( 44-S , 45-C ) :   1.0817 B( 46-C , 47-C ) :   1.7111 B( 46-C , 95-H ) :   0.9674
B( 47-C , 48-C ) :   1.1433 B( 47-C , 96-H ) :   0.9612 B( 48-C , 49-O ) :   1.0980
B( 48-C , 58-C ) :   1.4311 B( 49-O , 50-C ) :   1.1076 B( 50-C , 51-C ) :   1.2226
B( 50-C , 57-C ) :   1.3653 B( 51-C , 52-C ) :   0.8779 B( 51-C , 55-C ) :   1.4162
B( 52-C , 53-O ) :   2.1548 B( 52-C , 54-N ) :   1.3033 B( 54-N , 97-H ) :   0.9383
B( 54-N , 98-H ) :   0.9324 B( 55-C , 56-O ) :   1.0985 B( 55-C , 59-C ) :   1.1826
B( 56-O , 57-C ) :   1.1435 B( 57-C , 58-C ) :   1.1961 B( 58-C , 99-H ) :   1.0350
B( 59-C , 60-C ) :   1.5790 B( 59-C ,100-H ) :   0.9309 B( 60-C , 61-C ) :   1.0413
B( 60-C , 69-C ) :   0.9381 B( 61-C , 62-C ) :   1.6605 B( 61-C , 67-C ) :   1.0141
B( 62-C , 63-C ) :   1.1357 B( 62-C , 65-C ) :   1.1589 B( 63-C , 64-N ) :   2.9868
B( 65-C , 66-N ) :   3.0016 B( 67-C , 68-C ) :   1.2751 B( 67-C , 74-C ) :   1.4136
B( 68-C , 69-C ) :   0.9172 B( 68-C , 71-C ) :   1.4275 B( 69-C , 70-O ) :   2.2785
B( 71-C , 72-C ) :   1.2536 B( 71-C ,101-H ) :   1.0158 B( 72-C , 73-C ) :   1.3086
B( 72-C , 77-C ) :   1.1600 B( 73-C , 74-C ) :   1.3282 B( 73-C , 75-S ) :   1.0816
B( 74-C ,102-H ) :   0.9831 B( 75-S , 76-C ) :   1.0860 B( 76-C , 77-C ) :   1.6216
B( 76-C , 78-Br) :   1.0170 B( 77-C ,103-H ) :   1.0005

-----------------------------------------------------------------------------
         ABSORPTION SPECTRUM VIA TRANSITION ELECTRIC DIPOLE MOMENTS
-----------------------------------------------------------------------------
State   Energy  Wavelength   fosc         T2         TX        TY        TZ
        (cm-1)    (nm)                  (au**2)     (au)      (au)      (au)
-----------------------------------------------------------------------------
   0   18464.3    541.6   0.942926439  16.81203   1.04509  -3.96307   0.11797
   1   21682.3    461.2   0.002758465   0.04188  -0.01682  -0.10794  -0.17305
   2   23246.0    430.2   0.166430773   2.35701   0.20260  -0.78736  -1.30232
   3   24835.6    402.6   0.052438674   0.69511  -0.15905   0.21962   0.78840
   4   25310.7    395.1   0.141505347   1.84054  -1.26960  -0.13144  -0.45976
   5   26024.7    384.3   0.032599918   0.41239   0.47124   0.10937  -0.42233
   6   27357.0    365.5   0.566410127   6.81613   1.39320  -2.15069   0.49963
   7   27437.2    364.5   0.203980844   2.44752   0.97814  -0.89678   0.82858
   8   28080.8    356.1   0.028702977   0.33651   0.01789   0.20562   0.54213
   9   28443.0    351.6   0.075366557   0.87233   0.42790  -0.71725  -0.41807
  10   28777.8    347.5   0.022066894   0.25244  -0.10086  -0.17806  -0.45887
  11   28999.9    344.8   0.321045634   3.64457   0.48605   0.66303   1.72300
  12   29579.4    338.1   0.089787620   0.99932  -0.26169   0.88967   0.37327
  13   29823.4    335.3   0.059065585   0.65201   0.46495  -0.65554   0.07810
  14   30155.6    331.6   0.032898843   0.35916  -0.50762   0.29265   0.12586
  15   30907.4    323.5   0.044212941   0.47094  -0.20505   0.65451  -0.02266
  16   31526.7    317.2   0.711667479   7.43146   2.51867   0.16605   1.02966
  17   31724.8    315.2   0.024489831   0.25413  -0.31880   0.08459  -0.38124
  18   31947.8    313.0   0.076272922   0.78597   0.42807  -0.77626  -0.01206
  19   32305.4    309.5   0.009401863   0.09581  -0.15086  -0.07294  -0.26025
  20   32467.5    308.0   0.450828453   4.57129  -1.22529   1.47834  -0.94045
  21   32741.8    305.4   0.032032337   0.32208  -0.52744   0.20949  -0.00081
  22   33775.2    296.1   0.352257616   3.43350   1.31936  -1.26204  -0.31630
  23   33788.1    296.0   0.023139329   0.22546  -0.33205   0.33106   0.07481
  24   34127.9    293.0   0.055736055   0.53765  -0.20531  -0.50289  -0.49255
  25   34385.8    290.8   0.003441750   0.03295   0.14655  -0.10374  -0.02670
  26   34597.7    289.0   0.118790444   1.13034   0.12353  -0.83920  -0.64095
  27   34742.3    287.8   0.003615606   0.03426   0.10197  -0.03530   0.15039
  28   35098.7    284.9   0.002130126   0.01998  -0.05720   0.07015  -0.10857
  29   35354.4    282.9   0.135459904   1.26137  -0.22570  -0.60894  -0.91631
  30   35967.4    278.0   0.180572277   1.65279  -0.66825   0.76633   0.78675
  31   36296.8    275.5   0.040403785   0.36646   0.04797  -0.35435   0.48846
  32   36496.9    274.0   0.002221142   0.02004   0.10279   0.05360  -0.08122
  33   36572.6    273.4   0.010550416   0.09497  -0.09579  -0.05978   0.28674
  34   36743.9    272.2   0.016693905   0.14957   0.10915   0.37006  -0.02663
  35   37512.2    266.6   0.041340488   0.36281  -0.13629   0.56204  -0.16836
  36   37627.8    265.8   0.005234479   0.04580   0.00091   0.02681   0.21232
  37   37982.2    263.3   0.128046687   1.10985  -0.91716   0.03607  -0.51708
  38   38238.5    261.5   0.059585511   0.51300  -0.04717  -0.22543   0.67820
  39   38335.4    260.9   0.128869682   1.10669  -0.29073   0.80798   0.60773
  40   38506.2    259.7   0.012099032   0.10344  -0.11162  -0.23300  -0.19156
  41   38551.9    259.4   0.161803491   1.38171  -0.14588   0.79746   0.85117
  42   38765.7    258.0   0.101709194   0.86375   0.02211   0.91903   0.13653
  43   38864.8    257.3   0.100717201   0.85315   0.20453  -0.88935  -0.14270
  44   39530.8    253.0   0.162640205   1.35447  -0.67334   0.22273  -0.92275
  45   39732.1    251.7   0.059986137   0.49703   0.09092   0.53621   0.44861
  46   39773.0    251.4   0.074827755   0.61937   0.58179  -0.27090  -0.45553
  47   40193.2    248.8   0.000827404   0.00678  -0.03039  -0.04433  -0.06236

FINAL SINGLE POINT ENERGY    -10269.221211473112

DIPOLE MOMENT
-------------
                                X             Y             Z
Electronic contribution:    -90.01472      46.36597     -51.43116
Nuclear contribution   :     88.92402     -47.68516      51.10871
                        -----------------------------------------
Total Dipole Moment    :     -1.09070      -1.31919      -0.32244
                        -----------------------------------------
Magnitude (a.u.)       :      1.74180
Magnitude (Debye)      :      4.42731

Rotational constants in cm-1:     0.000944     0.000140     0.000127
Rotational constants in MHz :    28.311065     4.182131     3.793529

                             ****ORCA TERMINATED NORMALLY****
TOTAL RUN TIME: 0 days 0 hours 11 minutes 24 seconds 310 msec
