                         Program Version 4.2.0 -  RELEASE  -
|  1> # ORCA input file
|  2> # SCF done       -171.413240685823          0.000293132451
|  3> ! CAM-B3LYP def2-SVP def2/J RIJCOSX Grid4 TightSCF
|  4> %maxcore 5000
|  5> %tddft
|  6>     Mode sTDDFT
|  7>     Ethresh 5.0
|  8>     maxcore 5000
|  9> end
| 10>
| 11> %pal
| 12>   nprocs 6
| 13>   end
| 14> * xyz 0 1
| 15>    C       -2.58498        -2.69605         1.61822
| 16>    C       -3.51892        -3.50700         2.23672
| 17>    C       -3.21657        -4.51486         3.16309
| 18>    N       -3.06694        -5.36323         3.92748
| 19>    C       -4.91383        -3.45737         2.04758
| 20>    N       -6.06078        -3.49680         1.96494
| 21>    C       -1.14108        -2.76333         1.84212
| 22>    C       -0.51505        -1.76884         1.05229
| 23>    C        0.84370        -1.58430         1.03789
| 24>    C        1.62607        -2.42393         1.84142
| 25>    C        0.99210        -3.41217         2.62633
| 26>    C       -0.38643        -3.59745         2.64185
| 27>    S        2.14498        -4.34041         3.53971
| 28>    C        3.44557        -3.39917         2.86012
| 29>    C        3.03988        -2.43956         1.99605
| 30>   Br        5.21736        -3.77390         3.35451
| 31>    C       -1.55398        -1.03162         0.29280
| 32>    O       -1.36418        -0.10971        -0.47843
| 33>    C       -2.82968        -1.65512         0.66784
| 34>    C       -4.07056        -1.30250         0.15368
| 35>    C       -4.34375        -0.30641        -0.76207
| 36>    C       -5.64624        -0.09190        -1.21345
| 37>    C       -6.12393         0.85905        -2.12599
| 38>    C       -7.47977         0.78436        -2.36021
| 39>    C       -8.11283        -0.23075        -1.63870
| 40>    S       -6.96220        -1.09062        -0.64875
| 41>    C       -9.45249        -0.63435        -1.60699
| 42>    C      -10.58238        -0.14434        -2.26456
| 43>    C      -11.73703        -0.83463        -1.96325
| 44>    C      -11.56391        -1.88397        -1.05128
| 45>    S       -9.88017        -1.98924        -0.59986
| 46>    C      -12.54576        -2.77719        -0.62166
| 47>    C      -12.45491        -3.79739         0.30060
| 48>    S      -13.79232        -4.95999         0.38252
| 49>    C      -13.02729        -5.98225         1.58500
| 50>    C      -11.80758        -5.37782         1.97403
| 51>    C      -11.49665        -4.19115         1.26633
| 52>    N      -10.35606        -3.72111         1.81660
| 53>    N       -9.92355        -4.50843         2.80031
| 54>    C      -10.76558        -5.50673         2.91971
| 55>    C      -13.59070        -7.17514         1.99648
| 56>    C      -12.90393        -8.05971         2.81778
| 57>    C      -13.35944        -9.26396         3.30807
| 58>    C      -12.55340       -10.08181         4.10057
| 59>    C      -12.87297       -11.30957         4.69750
| 60>    C      -11.85005       -11.86215         5.42972
| 61>    C      -10.67850       -11.09140         5.43180
| 62>    S      -10.90449        -9.64212         4.48628
| 63>    C       -9.46062       -11.34636         6.05606
| 64>    C       -9.11303       -12.43137         6.88264
| 65>    C       -7.82992       -12.37855         7.34608
| 66>    C       -7.09776       -11.25240         6.90033
| 67>    S       -8.10926       -10.25474         5.87270
| 68>    C       -5.79095       -10.96702         7.21203
| 69>    C       -5.01544        -9.88618         6.76981
| 70>    S       -5.53601        -8.62242         5.65608
| 71>    C       -4.02911        -7.81158         5.66679
| 72>    C       -3.13472        -8.45951         6.49114
| 73>    C       -3.69478        -9.61842         7.10441
| 74>    O       -2.79620       -10.22615         7.90117
| 75>    C       -1.66530        -9.46920         7.80572
| 76>    N       -0.53920        -9.88226         8.55709
| 77>    O        0.46024        -9.19663         8.45693
| 78>    O       -0.64703       -10.87759         9.24069
| 79>    C       -1.79899        -8.39072         6.97335
| 80>    H        1.29413        -0.81897         0.42543
| 81>    H       -0.82346        -4.36675         3.25652
| 82>    H        3.70827        -1.76959         1.48667
| 83>    H       -4.92015        -1.87764         0.50123
| 84>    H       -3.54850         0.31560        -1.14443
| 85>    H       -5.46950         1.57486        -2.59082
| 86>    H       -8.01338         1.43422        -3.03099
| 87>    H      -10.53797         0.69162        -2.93894
| 88>    H      -12.70148        -0.59941        -2.37799
| 89>    H      -13.50157        -2.68249        -1.12288
| 90>    H       -9.81258        -2.90842         1.57352
| 91>    H      -10.60161        -6.24701         3.67572
| 92>    H      -14.57695        -7.43148         1.63577
| 93>    H      -11.89348        -7.78761         3.08535
| 94>    H      -14.36377        -9.60126         3.09206
| 95>    H      -13.84272       -11.76051         4.58119
| 96>    H      -11.92235       -12.79818         5.95367
| 97>    H       -9.80982       -13.21519         7.11877
| 98>    H       -7.38515       -13.11506         7.99130
| 99>    H       -5.27973       -11.65455         7.87421
|100>    H       -3.87535        -6.92885         5.07400
|101>    H       -1.04536        -7.66479         6.74933
|102> *
|103>
|104>                          ****END OF INPUT****

CARTESIAN COORDINATES (ANGSTROEM)
---------------------------------
  C     -2.584980   -2.696050    1.618220
  C     -3.518920   -3.507000    2.236720
  C     -3.216570   -4.514860    3.163090
  N     -3.066940   -5.363230    3.927480
  C     -4.913830   -3.457370    2.047580
  N     -6.060780   -3.496800    1.964940
  C     -1.141080   -2.763330    1.842120
  C     -0.515050   -1.768840    1.052290
  C      0.843700   -1.584300    1.037890
  C      1.626070   -2.423930    1.841420
  C      0.992100   -3.412170    2.626330
  C     -0.386430   -3.597450    2.641850
  S      2.144980   -4.340410    3.539710
  C      3.445570   -3.399170    2.860120
  C      3.039880   -2.439560    1.996050
  Br     5.217360   -3.773900    3.354510
  C     -1.553980   -1.031620    0.292800
  O     -1.364180   -0.109710   -0.478430
  C     -2.829680   -1.655120    0.667840
  C     -4.070560   -1.302500    0.153680
  C     -4.343750   -0.306410   -0.762070
  C     -5.646240   -0.091900   -1.213450
  C     -6.123930    0.859050   -2.125990
  C     -7.479770    0.784360   -2.360210
  C     -8.112830   -0.230750   -1.638700
  S     -6.962200   -1.090620   -0.648750
  C     -9.452490   -0.634350   -1.606990
  C    -10.582380   -0.144340   -2.264560
  C    -11.737030   -0.834630   -1.963250
  C    -11.563910   -1.883970   -1.051280
  S     -9.880170   -1.989240   -0.599860
  C    -12.545760   -2.777190   -0.621660
  C    -12.454910   -3.797390    0.300600
  S    -13.792320   -4.959990    0.382520
  C    -13.027290   -5.982250    1.585000
  C    -11.807580   -5.377820    1.974030
  C    -11.496650   -4.191150    1.266330
  N    -10.356060   -3.721110    1.816600
  N     -9.923550   -4.508430    2.800310
  C    -10.765580   -5.506730    2.919710
  C    -13.590700   -7.175140    1.996480
  C    -12.903930   -8.059710    2.817780
  C    -13.359440   -9.263960    3.308070
  C    -12.553400  -10.081810    4.100570
  C    -12.872970  -11.309570    4.697500
  C    -11.850050  -11.862150    5.429720
  C    -10.678500  -11.091400    5.431800
  S    -10.904490   -9.642120    4.486280
  C     -9.460620  -11.346360    6.056060
  C     -9.113030  -12.431370    6.882640
  C     -7.829920  -12.378550    7.346080
  C     -7.097760  -11.252400    6.900330
  S     -8.109260  -10.254740    5.872700
  C     -5.790950  -10.967020    7.212030
  C     -5.015440   -9.886180    6.769810
  S     -5.536010   -8.622420    5.656080
  C     -4.029110   -7.811580    5.666790
  C     -3.134720   -8.459510    6.491140
  C     -3.694780   -9.618420    7.104410
  O     -2.796200  -10.226150    7.901170
  C     -1.665300   -9.469200    7.805720
  N     -0.539200   -9.882260    8.557090
  O      0.460240   -9.196630    8.456930
  O     -0.647030  -10.877590    9.240690
  C     -1.798990   -8.390720    6.973350
  H      1.294130   -0.818970    0.425430
  H     -0.823460   -4.366750    3.256520
  H      3.708270   -1.769590    1.486670
  H     -4.920150   -1.877640    0.501230
  H     -3.548500    0.315600   -1.144430
  H     -5.469500    1.574860   -2.590820
  H     -8.013380    1.434220   -3.030990
  H    -10.537970    0.691620   -2.938940
  H    -12.701480   -0.599410   -2.377990
  H    -13.501570   -2.682490   -1.122880
  H     -9.812580   -2.908420    1.573520
  H    -10.601610   -6.247010    3.675720
  H    -14.576950   -7.431480    1.635770
  H    -11.893480   -7.787610    3.085350
  H    -14.363770   -9.601260    3.092060
  H    -13.842720  -11.760510    4.581190
  H    -11.922350  -12.798180    5.953670
  H     -9.809820  -13.215190    7.118770
  H     -7.385150  -13.115060    7.991300
  H     -5.279730  -11.654550    7.874210
  H     -3.875350   -6.928850    5.074000
  H     -1.045360   -7.664790    6.749330

 Total Charge           Charge          ....    0
 Multiplicity           Mult            ....    1
 Number of Electrons    NEL             ....  524
 Basis Dimension        Dim             .... 1066

ORBITAL ENERGIES
----------------

  NO   OCC          E(Eh)            E(eV)
   0   2.0000    -482.866615    -13139.4686
   1   2.0000     -88.985524     -2421.4192
   2   2.0000     -88.974585     -2421.1216
   3   2.0000     -88.968844     -2420.9653
   4   2.0000     -88.967958     -2420.9412
   5   2.0000     -88.960966     -2420.7510
   6   2.0000     -88.952648     -2420.5246
   7   2.0000     -88.939118     -2420.1564
   8   2.0000     -62.544308     -1701.9171
   9   2.0000     -56.378231     -1534.1296
  10   2.0000     -56.375569     -1534.0572
  11   2.0000     -56.375521     -1534.0559
  12   2.0000     -19.320180      -525.7288
  13   2.0000     -19.245593      -523.6992
  14   2.0000     -19.243561      -523.6439
  15   2.0000     -19.175487      -521.7915
  16   2.0000     -14.657777      -398.8584
  17   2.0000     -14.491328      -394.3291
  18   2.0000     -14.434678      -392.7876
  19   2.0000     -14.391279      -391.6066
  20   2.0000     -14.380401      -391.3106
  21   2.0000     -10.390849      -282.7494
  22   2.0000     -10.362803      -281.9862
  23   2.0000     -10.345396      -281.5125
  24   2.0000     -10.337348      -281.2935
  25   2.0000     -10.335435      -281.2415
  26   2.0000     -10.333682      -281.1938
  27   2.0000     -10.331937      -281.1463
  28   2.0000     -10.328912      -281.0640
  29   2.0000     -10.328199      -281.0446
  30   2.0000     -10.327307      -281.0203
  31   2.0000     -10.325898      -280.9820
  32   2.0000     -10.325384      -280.9680
  33   2.0000     -10.324262      -280.9375
  34   2.0000     -10.322172      -280.8806
  35   2.0000     -10.320404      -280.8325
  36   2.0000     -10.317410      -280.7510
  37   2.0000     -10.314862      -280.6817
  38   2.0000     -10.314678      -280.6767
  39   2.0000     -10.311806      -280.5985
  40   2.0000     -10.310001      -280.5494
  41   2.0000     -10.306634      -280.4578
  42   2.0000     -10.303274      -280.3663
  43   2.0000     -10.302921      -280.3567
  44   2.0000     -10.302330      -280.3406
  45   2.0000     -10.301451      -280.3167
  46   2.0000     -10.300560      -280.2925
  47   2.0000     -10.300218      -280.2832
  48   2.0000     -10.298794      -280.2444
  49   2.0000     -10.298165      -280.2273
  50   2.0000     -10.295752      -280.1616
  51   2.0000     -10.295543      -280.1560
  52   2.0000     -10.295135      -280.1449
  53   2.0000     -10.290997      -280.0323
  54   2.0000     -10.290704      -280.0243
  55   2.0000     -10.286935      -279.9217
  56   2.0000     -10.286330      -279.9053
  57   2.0000     -10.283165      -279.8191
  58   2.0000     -10.281946      -279.7860
  59   2.0000     -10.279108      -279.7087
  60   2.0000     -10.276586      -279.6401
  61   2.0000     -10.276004      -279.6243
  62   2.0000     -10.274449      -279.5820
  63   2.0000     -10.270729      -279.4807
  64   2.0000     -10.266115      -279.3552
  65   2.0000     -10.263947      -279.2962
  66   2.0000     -10.259204      -279.1671
  67   2.0000     -10.245462      -278.7932
  68   2.0000     -10.244015      -278.7538
  69   2.0000      -8.773721      -238.7451
  70   2.0000      -8.080263      -219.8751
  71   2.0000      -8.070552      -219.6109
  72   2.0000      -8.064906      -219.4572
  73   2.0000      -8.063375      -219.4156
  74   2.0000      -8.057236      -219.2485
  75   2.0000      -8.048559      -219.0124
  76   2.0000      -8.034990      -218.6432
  77   2.0000      -6.609882      -179.8640
  78   2.0000      -6.595491      -179.4724
  79   2.0000      -6.595377      -179.4693
  80   2.0000      -6.049611      -164.6183
  81   2.0000      -6.045046      -164.4941
  82   2.0000      -6.042730      -164.4311
  83   2.0000      -6.040243      -164.3634
  84   2.0000      -6.036056      -164.2494
  85   2.0000      -6.034464      -164.2061
  86   2.0000      -6.033039      -164.1673
  87   2.0000      -6.031703      -164.1310
  88   2.0000      -6.030463      -164.0972
  89   2.0000      -6.028913      -164.0551
  90   2.0000      -6.026701      -163.9949
  91   2.0000      -6.026191      -163.9810
  92   2.0000      -6.024701      -163.9404
  93   2.0000      -6.022611      -163.8836
  94   2.0000      -6.018754      -163.7786
  95   2.0000      -6.018238      -163.7646
  96   2.0000      -6.014038      -163.6503
  97   2.0000      -6.009809      -163.5352
  98   2.0000      -6.004403      -163.3881
  99   2.0000      -6.000414      -163.2796
 100   2.0000      -5.996576      -163.1751
 101   2.0000      -2.725814       -74.1732
 102   2.0000      -2.721689       -74.0609
 103   2.0000      -2.721647       -74.0598
 104   2.0000      -2.710185       -73.7479
 105   2.0000      -2.710180       -73.7478
 106   2.0000      -1.329126       -36.1673
 107   2.0000      -1.239191       -33.7201
 108   2.0000      -1.152662       -31.3655
 109   2.0000      -1.145304       -31.1653
 110   2.0000      -1.088216       -29.6119
 111   2.0000      -1.021614       -27.7995
 112   2.0000      -1.007421       -27.4133
 113   2.0000      -1.001922       -27.2637
 114   2.0000      -0.995746       -27.0956
 115   2.0000      -0.994481       -27.0612
 116   2.0000      -0.991724       -26.9862
 117   2.0000      -0.986574       -26.8460
 118   2.0000      -0.970136       -26.3987
 119   2.0000      -0.965385       -26.2694
 120   2.0000      -0.956382       -26.0245
 121   2.0000      -0.942625       -25.6501
 122   2.0000      -0.935929       -25.4679
 123   2.0000      -0.921894       -25.0860
 124   2.0000      -0.913250       -24.8508
 125   2.0000      -0.911162       -24.7940
 126   2.0000      -0.899417       -24.4744
 127   2.0000      -0.891227       -24.2515
 128   2.0000      -0.882481       -24.0135
 129   2.0000      -0.878400       -23.9025
 130   2.0000      -0.874327       -23.7917
 131   2.0000      -0.867865       -23.6158
 132   2.0000      -0.859490       -23.3879
 133   2.0000      -0.857514       -23.3341
 134   2.0000      -0.853275       -23.2188
 135   2.0000      -0.848574       -23.0909
 136   2.0000      -0.846244       -23.0275
 137   2.0000      -0.839774       -22.8514
 138   2.0000      -0.825346       -22.4588
 139   2.0000      -0.815336       -22.1864
 140   2.0000      -0.809165       -22.0185
 141   2.0000      -0.801763       -21.8171
 142   2.0000      -0.794326       -21.6147
 143   2.0000      -0.786518       -21.4022
 144   2.0000      -0.769779       -20.9467
 145   2.0000      -0.755965       -20.5709
 146   2.0000      -0.738884       -20.1061
 147   2.0000      -0.725451       -19.7405
 148   2.0000      -0.720085       -19.5945
 149   2.0000      -0.716819       -19.5056
 150   2.0000      -0.714571       -19.4445
 151   2.0000      -0.710309       -19.3285
 152   2.0000      -0.701457       -19.0876
 153   2.0000      -0.692353       -18.8399
 154   2.0000      -0.687397       -18.7050
 155   2.0000      -0.681106       -18.5338
 156   2.0000      -0.667223       -18.1561
 157   2.0000      -0.661559       -18.0019
 158   2.0000      -0.658956       -17.9311
 159   2.0000      -0.657119       -17.8811
 160   2.0000      -0.648715       -17.6524
 161   2.0000      -0.643352       -17.5065
 162   2.0000      -0.642748       -17.4901
 163   2.0000      -0.637226       -17.3398
 164   2.0000      -0.635512       -17.2932
 165   2.0000      -0.635132       -17.2828
 166   2.0000      -0.628298       -17.0969
 167   2.0000      -0.625852       -17.0303
 168   2.0000      -0.614000       -16.7078
 169   2.0000      -0.612504       -16.6671
 170   2.0000      -0.610525       -16.6132
 171   2.0000      -0.602312       -16.3897
 172   2.0000      -0.597841       -16.2681
 173   2.0000      -0.593127       -16.1398
 174   2.0000      -0.587861       -15.9965
 175   2.0000      -0.587476       -15.9860
 176   2.0000      -0.575192       -15.6518
 177   2.0000      -0.574437       -15.6312
 178   2.0000      -0.565862       -15.3979
 179   2.0000      -0.564700       -15.3663
 180   2.0000      -0.563070       -15.3219
 181   2.0000      -0.559905       -15.2358
 182   2.0000      -0.553602       -15.0643
 183   2.0000      -0.550404       -14.9772
 184   2.0000      -0.542487       -14.7618
 185   2.0000      -0.539359       -14.6767
 186   2.0000      -0.530454       -14.4344
 187   2.0000      -0.529531       -14.4093
 188   2.0000      -0.522867       -14.2279
 189   2.0000      -0.521496       -14.1906
 190   2.0000      -0.518606       -14.1120
 191   2.0000      -0.516367       -14.0511
 192   2.0000      -0.512854       -13.9555
 193   2.0000      -0.509835       -13.8733
 194   2.0000      -0.506153       -13.7731
 195   2.0000      -0.504133       -13.7182
 196   2.0000      -0.500591       -13.6218
 197   2.0000      -0.500028       -13.6065
 198   2.0000      -0.498974       -13.5778
 199   2.0000      -0.495362       -13.4795
 200   2.0000      -0.494727       -13.4622
 201   2.0000      -0.492886       -13.4121
 202   2.0000      -0.487311       -13.2604
 203   2.0000      -0.481541       -13.1034
 204   2.0000      -0.480899       -13.0859
 205   2.0000      -0.475818       -12.9477
 206   2.0000      -0.474194       -12.9035
 207   2.0000      -0.472589       -12.8598
 208   2.0000      -0.467825       -12.7302
 209   2.0000      -0.467499       -12.7213
 210   2.0000      -0.464275       -12.6336
 211   2.0000      -0.464028       -12.6268
 212   2.0000      -0.461913       -12.5693
 213   2.0000      -0.461119       -12.5477
 214   2.0000      -0.459679       -12.5085
 215   2.0000      -0.458488       -12.4761
 216   2.0000      -0.452962       -12.3257
 217   2.0000      -0.450556       -12.2603
 218   2.0000      -0.442679       -12.0459
 219   2.0000      -0.440789       -11.9945
 220   2.0000      -0.435754       -11.8575
 221   2.0000      -0.434176       -11.8145
 222   2.0000      -0.433541       -11.7973
 223   2.0000      -0.431231       -11.7344
 224   2.0000      -0.427990       -11.6462
 225   2.0000      -0.426850       -11.6152
 226   2.0000      -0.421793       -11.4776
 227   2.0000      -0.419080       -11.4037
 228   2.0000      -0.418431       -11.3861
 229   2.0000      -0.414823       -11.2879
 230   2.0000      -0.412773       -11.2321
 231   2.0000      -0.403519       -10.9803
 232   2.0000      -0.401865       -10.9353
 233   2.0000      -0.395581       -10.7643
 234   2.0000      -0.391862       -10.6631
 235   2.0000      -0.391167       -10.6442
 236   2.0000      -0.389810       -10.6073
 237   2.0000      -0.382602       -10.4111
 238   2.0000      -0.379705       -10.3323
 239   2.0000      -0.378249       -10.2927
 240   2.0000      -0.373355       -10.1595
 241   2.0000      -0.372844       -10.1456
 242   2.0000      -0.363201        -9.8832
 243   2.0000      -0.362430        -9.8622
 244   2.0000      -0.359704        -9.7880
 245   2.0000      -0.356406        -9.6983
 246   2.0000      -0.351835        -9.5739
 247   2.0000      -0.346256        -9.4221
 248   2.0000      -0.344816        -9.3829
 249   2.0000      -0.339941        -9.2503
 250   2.0000      -0.333199        -9.0668
 251   2.0000      -0.325821        -8.8660
 252   2.0000      -0.324680        -8.8350
 253   2.0000      -0.315294        -8.5796
 254   2.0000      -0.306909        -8.3514
 255   2.0000      -0.297102        -8.0845
 256   2.0000      -0.291002        -7.9186
 257   2.0000      -0.288512        -7.8508
 258   2.0000      -0.269702        -7.3390
 259   2.0000      -0.261575        -7.1178
 260   2.0000      -0.230077        -6.2607
 261   2.0000      -0.194777        -5.3002
 262   0.0000      -0.123597        -3.3633
 263   0.0000      -0.082173        -2.2360
 264   0.0000      -0.064526        -1.7558
 265   0.0000      -0.048891        -1.3304
 266   0.0000      -0.034707        -0.9444

MULLIKEN ATOMIC CHARGES
-----------------------
   0 C :    0.337494
   1 C :   -0.401543
   2 C :   -0.141766
   3 N :    0.088085
   4 C :   -0.204674
   5 N :    0.113856
   6 C :    0.011986
   7 C :   -0.008203
   8 C :   -0.084475
   9 C :    0.116718
  10 C :   -0.093068
  11 C :   -0.036514
  12 S :    0.160646
  13 C :   -0.124985
  14 C :    0.037250
  15 Br:    0.003512
  16 C :    0.126981
  17 O :   -0.173134
  18 C :   -0.094605
  19 C :   -0.057632
  20 C :   -0.016770
  21 C :    0.007508
  22 C :    0.002159
  23 C :    0.039434
  24 C :   -0.053175
  25 S :    0.072344
  26 C :   -0.003160
  27 C :    0.001471
  28 C :    0.047868
  29 C :   -0.081594
  30 S :    0.064735
  31 C :    0.079083
  32 C :   -0.205070
  33 S :    0.125242
  34 C :   -0.044715
  35 C :   -0.032179
  36 C :    0.167523
  37 N :   -0.024154
  38 N :   -0.039140
  39 C :   -0.013092
  40 C :    0.010825
  41 C :    0.022360
  42 C :    0.002696
  43 C :   -0.013514
  44 C :    0.019999
  45 C :    0.040417
  46 C :   -0.055518
  47 S :    0.078251
  48 C :   -0.009844
  49 C :    0.012832
  50 C :    0.058744
  51 C :   -0.050486
  52 S :    0.100871
  53 C :    0.027822
  54 C :   -0.210404
  55 S :    0.160313
  56 C :   -0.056464
  57 C :    0.105308
  58 C :    0.206841
  59 O :   -0.182779
  60 C :    0.232240
  61 N :    0.272752
  62 O :   -0.243795
  63 O :   -0.233155
  64 C :   -0.051676
  65 H :   -0.020021
  66 H :   -0.023898
  67 H :   -0.009690
  68 H :    0.010519
  69 H :    0.002743
  70 H :   -0.013395
  71 H :   -0.016819
  72 H :   -0.012031
  73 H :   -0.009755
  74 H :   -0.008526
  75 H :    0.154089
  76 H :    0.006895
  77 H :   -0.022559
  78 H :    0.005453
  79 H :   -0.013689
  80 H :   -0.007896
  81 H :   -0.005699
  82 H :   -0.005764
  83 H :    0.003332
  84 H :    0.020261
  85 H :    0.024795
  86 H :    0.026772
Sum of atomic charges:   -0.0000000

LOEWDIN ATOMIC CHARGES
----------------------
   0 C :    0.073317
   1 C :   -0.196628
   2 C :    0.014703
   3 N :   -0.120607
   4 C :   -0.023073
   5 N :   -0.093903
   6 C :   -0.014296
   7 C :   -0.044473
   8 C :    0.011214
   9 C :   -0.040938
  10 C :   -0.149883
  11 C :   -0.025742
  12 S :    0.413592
  13 C :   -0.280260
  14 C :   -0.070306
  15 Br:    0.120942
  16 C :    0.077336
  17 O :   -0.169386
  18 C :   -0.134229
  19 C :    0.029433
  20 C :   -0.086500
  21 C :   -0.106471
  22 C :   -0.071083
  23 C :   -0.016288
  24 C :   -0.219654
  25 S :    0.417982
  26 C :   -0.137405
  27 C :   -0.069736
  28 C :   -0.012796
  29 C :   -0.198043
  30 S :    0.424371
  31 C :   -0.026644
  32 C :   -0.204320
  33 S :    0.421569
  34 C :   -0.108405
  35 C :   -0.109575
  36 C :   -0.008241
  37 N :    0.120900
  38 N :   -0.043007
  39 C :   -0.037442
  40 C :   -0.077621
  41 C :    0.014018
  42 C :   -0.079508
  43 C :   -0.112990
  44 C :   -0.054528
  45 C :   -0.008690
  46 C :   -0.202108
  47 S :    0.401733
  48 C :   -0.138438
  49 C :   -0.050771
  50 C :    0.000303
  51 C :   -0.176318
  52 S :    0.396887
  53 C :   -0.010925
  54 C :   -0.225144
  55 S :    0.487149
  56 C :   -0.121747
  57 C :   -0.090129
  58 C :    0.041785
  59 O :    0.004983
  60 C :    0.022104
  61 N :    0.271840
  62 O :   -0.205423
  63 O :   -0.194773
  64 C :    0.008267
  65 H :    0.036674
  66 H :    0.034331
  67 H :    0.036128
  68 H :    0.024726
  69 H :    0.035082
  70 H :    0.032724
  71 H :    0.030990
  72 H :    0.032839
  73 H :    0.034420
  74 H :    0.040629
  75 H :    0.063554
  76 H :    0.021343
  77 H :    0.030074
  78 H :    0.024423
  79 H :    0.034165
  80 H :    0.035581
  81 H :    0.035424
  82 H :    0.035200
  83 H :    0.040160
  84 H :    0.053209
  85 H :    0.028436
  86 H :    0.053906

  Mayer bond orders larger than 0.100000
B(  0-C ,  1-C ) :   1.4695 B(  0-C ,  6-C ) :   0.9732 B(  0-C , 18-C ) :   1.2204
B(  1-C ,  2-C ) :   1.1895 B(  1-C ,  4-C ) :   1.1618 B(  2-C ,  3-N ) :   2.8415
B(  3-N , 85-H ) :   0.1579 B(  4-C ,  5-N ) :   2.9601 B(  6-C ,  7-C ) :   1.2836
B(  6-C , 11-C ) :   1.4341 B(  7-C ,  8-C ) :   1.4468 B(  7-C , 16-C ) :   0.9192
B(  8-C ,  9-C ) :   1.2251 B(  8-C , 65-H ) :   1.0154 B(  9-C , 10-C ) :   1.3349
B(  9-C , 14-C ) :   1.1603 B( 10-C , 11-C ) :   1.3079 B( 10-C , 12-S ) :   1.0751
B( 11-C , 66-H ) :   0.9779 B( 12-S , 13-C ) :   1.0833 B( 13-C , 14-C ) :   1.6221
B( 13-C , 15-Br) :   1.0068 B( 14-C , 67-H ) :   0.9995 B( 16-C , 17-O ) :   2.1936
B( 16-C , 18-C ) :   0.9867 B( 18-C , 19-C ) :   1.3290 B( 19-C , 20-C ) :   1.4257
B( 19-C , 68-H ) :   0.9336 B( 20-C , 21-C ) :   1.2641 B( 20-C , 69-H ) :   0.9865
B( 21-C , 22-C ) :   1.2983 B( 21-C , 25-S ) :   1.1173 B( 22-C , 23-C ) :   1.4025
B( 22-C , 70-H ) :   1.0003 B( 23-C , 24-C ) :   1.3506 B( 23-C , 71-H ) :   0.9965
B( 24-C , 25-S ) :   1.0612 B( 24-C , 26-C ) :   1.2863 B( 26-C , 27-C ) :   1.3370
B( 26-C , 30-S ) :   1.1149 B( 27-C , 28-C ) :   1.4154 B( 27-C , 72-H ) :   0.9961
B( 28-C , 29-C ) :   1.3043 B( 28-C , 73-H ) :   0.9982 B( 29-C , 30-S ) :   1.0327
B( 29-C , 31-C ) :   1.3711 B( 31-C , 32-C ) :   1.4379 B( 31-C , 74-H ) :   0.9343
B( 32-C , 33-S ) :   1.0298 B( 32-C , 36-C ) :   1.1857 B( 33-S , 34-C ) :   1.1192
B( 34-C , 35-C ) :   1.1865 B( 34-C , 40-C ) :   1.3352 B( 35-C , 36-C ) :   1.3290
B( 35-C , 39-C ) :   1.2019 B( 36-C , 37-N ) :   1.2118 B( 37-N , 38-N ) :   1.1609
B( 37-N , 75-H ) :   0.9223 B( 38-N , 39-C ) :   1.7079 B( 39-C , 76-H ) :   0.9894
B( 40-C , 41-C ) :   1.4092 B( 40-C , 77-H ) :   0.9737 B( 41-C , 42-C ) :   1.3423
B( 41-C , 78-H ) :   0.9621 B( 42-C , 43-C ) :   1.3708 B( 42-C , 79-H ) :   0.9881
B( 43-C , 44-C ) :   1.2378 B( 43-C , 47-S ) :   1.0938 B( 44-C , 45-C ) :   1.4836
B( 44-C , 80-H ) :   1.0005 B( 45-C , 46-C ) :   1.2712 B( 45-C , 81-H ) :   0.9945
B( 46-C , 47-S ) :   1.0522 B( 46-C , 48-C ) :   1.4047 B( 48-C , 49-C ) :   1.2301
B( 48-C , 52-S ) :   1.0965 B( 49-C , 50-C ) :   1.5440 B( 49-C , 82-H ) :   0.9945
B( 50-C , 51-C ) :   1.1729 B( 50-C , 83-H ) :   1.0005 B( 51-C , 52-S ) :   1.0268
B( 51-C , 53-C ) :   1.5226 B( 53-C , 54-C ) :   1.2206 B( 53-C , 84-H ) :   0.9729
B( 54-C , 55-S ) :   1.0764 B( 54-C , 58-C ) :   1.4032 B( 55-S , 56-C ) :   1.2333
B( 56-C , 57-C ) :   1.4068 B( 56-C , 85-H ) :   0.9310 B( 57-C , 58-C ) :   1.2313
B( 57-C , 64-C ) :   1.0666 B( 58-C , 59-O ) :   1.1494 B( 59-O , 60-C ) :   1.1014
B( 60-C , 61-N ) :   0.9159 B( 60-C , 64-C ) :   1.5781 B( 61-N , 62-O ) :   1.5375
B( 61-N , 63-O ) :   1.5115 B( 62-O , 63-O ) :   0.2804 B( 64-C , 86-H ) :   1.0281

-----------------------------------------------------------------------------
         ABSORPTION SPECTRUM VIA TRANSITION ELECTRIC DIPOLE MOMENTS
-----------------------------------------------------------------------------
State   Energy  Wavelength   fosc         T2         TX        TY        TZ
        (cm-1)    (nm)                  (au**2)     (au)      (au)      (au)
-----------------------------------------------------------------------------
   0    4292.5   2329.6   0.261108907  20.02559  -1.47734  -3.50893   2.35170
   1   10141.4    986.1   0.115132061   3.73742   0.84593  -1.23866   1.21965
   2   13103.0    763.2   1.738682902  43.68440   6.05520  -1.18032   2.37188
   3   16944.2    590.2   0.064070642   1.24484  -0.80838   0.51533  -0.57079
   4   18061.4    553.7   0.179748475   3.27634   0.64501   1.47047  -0.83548
   5   19260.9    519.2   0.232603201   3.97571  -0.96173  -1.48108   0.92584
   6   20666.2    483.9   0.513664724   8.18267   1.37394   2.20678  -1.19376
   7   20942.3    477.5   0.274415713   4.31380  -0.84789  -1.69218   0.85523
   8   21926.4    456.1   0.222491014   3.34057  -0.06094  -1.63647   0.81168
   9   23363.6    428.0   0.133449370   1.88041  -0.59606  -1.12220   0.51554
  10   24311.0    411.3   0.027726854   0.37547  -0.27364   0.46901  -0.28394
  11   25858.2    386.7   0.168732521   2.14820   1.26999  -0.19106   0.70627
  12   26301.2    380.2   0.007941539   0.09940   0.03022  -0.27632   0.14880
  13   26483.1    377.6   0.004046092   0.05030  -0.08763  -0.08094  -0.18991
  14   26755.3    373.8   0.000067488   0.00083  -0.01017   0.02216  -0.01536
  15   26991.3    370.5   0.021227239   0.25891  -0.08109   0.49931   0.05493
  16   27587.3    362.5   0.038259274   0.45656   0.54612   0.15619   0.36596
  17   28605.7    349.6   0.053494368   0.61565  -0.70836  -0.31894  -0.11022
  18   28686.7    348.6   0.060358201   0.69268   0.70402   0.06028   0.43978
  19   29185.4    342.6   0.032469738   0.36626  -0.56225  -0.09495  -0.20277
  20   29493.7    339.1   0.136108307   1.51926  -1.18418  -0.05380  -0.33777
  21   29688.3    336.8   0.046954073   0.52067  -0.45903   0.37160  -0.41458
  22   30427.6    328.6   0.026523078   0.28697   0.53183   0.05599   0.03140
  23   30487.5    328.0   0.084075197   0.90787  -0.94303  -0.10286  -0.08935
  24   30769.8    325.0   0.120589957   1.29021   1.10559   0.25986  -0.01876
  25   30954.8    323.1   0.002127780   0.02263   0.14475   0.02548  -0.03207
  26   31286.5    319.6   0.075345511   0.79282   0.52634  -0.37793   0.61071
  27   31485.3    317.6   0.105922051   1.10752   0.72359   0.74398  -0.17449
  28   31682.6    315.6   0.031715578   0.32956  -0.29163   0.35113  -0.34816
  29   32637.5    306.4   0.074924209   0.75576   0.85391   0.01478   0.16239
  30   32768.0    305.2   0.103155773   1.03638   0.86415  -0.42567   0.32930
  31   32877.6    304.2   0.000000911   0.00001  -0.00122  -0.00171  -0.00217
  32   32974.4    303.3   0.069288358   0.69176   0.78671   0.26974   0.00981
  33   33097.3    302.1   0.026177826   0.26039  -0.42679   0.07622  -0.26912
  34   33540.4    298.1   0.009870832   0.09689  -0.27786   0.09232  -0.10562
  35   33563.0    297.9   0.082346283   0.80772  -0.78444   0.28221  -0.33575
  36   33855.2    295.4   0.167950841   1.63317   1.21349   0.38643  -0.10622
  37   34231.7    292.1   0.022452583   0.21593  -0.20730   0.28502  -0.30285
  38   34450.0    290.3   0.063054515   0.60256  -0.72243  -0.17499   0.22370
  39   34631.0    288.8   0.059005546   0.56092   0.66509  -0.21413   0.26969
  40   34795.4    287.4   0.010953961   0.10364   0.19755   0.11097  -0.22870
  41   35249.3    283.7   0.005290597   0.04941  -0.14949  -0.14976   0.06808
  42   35341.7    283.0   0.000796717   0.00742  -0.05491   0.04790  -0.04596
  43   35579.0    281.1   0.097060403   0.89810  -0.07090   0.64454  -0.69111
  44   36275.6    275.7   0.030759443   0.27915   0.44162  -0.15363   0.24600
  45   36362.7    275.0   0.001947538   0.01763  -0.02471   0.06132  -0.11516
  46   36573.3    273.4   0.054926107   0.49441  -0.68530   0.03287  -0.15394
  47   36704.7    272.4   0.081950193   0.73503  -0.68462  -0.45960   0.23471
  48   36783.0    271.9   0.008180488   0.07322   0.20826   0.16781  -0.04107
  49   36961.7    270.6   0.064184619   0.57168  -0.72608  -0.16998  -0.12488
  50   37286.9    268.2   0.018079147   0.15962   0.39710   0.04353  -0.00659
  51   37385.3    267.5   0.021427200   0.18869  -0.38502  -0.10860   0.16928
  52   37485.7    266.8   0.001498286   0.01316  -0.03186   0.05523  -0.09536
  53   37779.5    264.7   0.130129382   1.13395  -0.42419   0.55631  -0.80283
  54   37832.7    264.3   0.009499593   0.08266   0.19554   0.16826  -0.12694
  55   38531.3    259.5   0.201443108   1.72113   1.27263   0.27861   0.15462
  56   38725.3    258.2   0.085254536   0.72477  -0.30618  -0.60149   0.51887
  57   39039.0    256.2   0.177174354   1.49409   0.67072  -0.67769   0.76482
  58   39751.5    251.6   0.000130599   0.00108   0.01773   0.01366   0.02410

FINAL SINGLE POINT ENERGY     -7774.164528302090

DIPOLE MOMENT
-------------
                                X             Y             Z
Electronic contribution:    138.64990      12.80235      16.42730
Nuclear contribution   :   -144.42170     -15.45749     -16.50690
                        -----------------------------------------
Total Dipole Moment    :     -5.77180      -2.65514      -0.07960
                        -----------------------------------------
Magnitude (a.u.)       :      6.35373
Magnitude (Debye)      :     16.14989

Rotational constants in cm-1:     0.000720     0.000494     0.000295
Rotational constants in MHz :    21.582763    14.810604     8.847849

                             ****ORCA TERMINATED NORMALLY****
TOTAL RUN TIME: 0 days 0 hours 8 minutes 23 seconds 375 msec
