                         Program Version 4.2.0 -  RELEASE  -
|  1> # ORCA input file
|  2> # SCF done       -165.038715980665          0.000750518301
|  3> ! CAM-B3LYP def2-SVP def2/J RIJCOSX Grid4 TightSCF
|  4> %maxcore 5000
|  5> %tddft
|  6>     Mode sTDDFT
|  7>     Ethresh 5.0
|  8>     maxcore 5000
|  9> end
| 10>
| 11> %pal
| 12>   nprocs 6
| 13>   end
| 14> * xyz 0 1
| 15>    C       -1.79073        -1.43093        -0.76962
| 16>    C       -2.26782        -2.72138        -0.69545
| 17>    C       -1.46632        -3.86942        -0.84474
| 18>    N       -0.87254        -4.84678        -0.95846
| 19>    C       -3.60560        -3.09422        -0.46288
| 20>    N       -4.66891        -3.49173        -0.27967
| 21>    C       -0.39485        -1.06682        -1.01045
| 22>    C       -0.29082         0.34520        -1.02029
| 23>    C        0.89757         1.00004        -1.22645
| 24>    C        2.04362         0.22346        -1.43292
| 25>    C        1.93081        -1.18552        -1.41950
| 26>    C        0.72622        -1.84815        -1.21123
| 27>    S        3.46638        -1.95248        -1.69348
| 28>    C        4.22764        -0.38913        -1.82115
| 29>    C        3.37871         0.65395        -1.66687
| 30>   Br        6.07240        -0.28212        -2.14642
| 31>    C       -1.62706         0.93221        -0.78246
| 32>    O       -1.89025         2.11853        -0.72800
| 33>    C       -2.54349        -0.21352        -0.63294
| 34>    C       -3.90537        -0.10564        -0.41170
| 35>    C       -4.60420         1.08742        -0.29911
| 36>    C       -5.97739         1.13852        -0.11146
| 37>    C       -6.77806         2.29228        -0.01775
| 38>    C       -8.11520         2.03246         0.13266
| 39>    C       -8.41925         0.66224         0.16865
| 40>    S       -6.97056        -0.29576         0.01550
| 41>    C       -9.67361         0.06046         0.28052
| 42>    C      -10.93072         0.67842         0.34447
| 43>    C      -11.97591        -0.21031         0.40390
| 44>    C      -11.58148        -1.55563         0.39919
| 45>    S       -9.83979        -1.67320         0.31959
| 46>    C      -12.41133        -2.67515         0.42826
| 47>    C      -11.95974        -3.97377         0.45929
| 48>    C      -12.77630        -5.10174         0.43962
| 49>    C      -12.35511        -6.43907         0.50952
| 50>    C      -13.37680        -7.35062         0.44938
| 51>    C      -14.64754        -6.76469         0.31805
| 52>    S      -14.51583        -5.02378         0.29350
| 53>    C      -15.87512        -7.40505         0.19527
| 54>    C      -16.12104        -8.79438         0.21660
| 55>    C      -17.43353        -9.12097         0.04902
| 56>    C      -18.28723        -8.00216        -0.12139
| 57>    S      -17.36177        -6.51801        -0.04151
| 58>    C      -19.64101        -8.04029        -0.33710
| 59>    C      -20.43225        -6.89565        -0.54404
| 60>    C      -21.80732        -6.77133        -0.79757
| 61>    C      -22.69182        -7.92940        -1.01515
| 62>    O      -22.24642        -9.01227        -1.30486
| 63>    O      -24.00769        -7.74436        -0.89848
| 64>    C      -21.97878        -5.36165        -0.93103
| 65>    N      -20.82783        -4.74257        -0.77113
| 66>    O      -19.88224        -5.66854        -0.51499
| 67>    C      -23.11198        -4.52937        -1.28147
| 68>    S      -22.83292        -3.24304        -2.40020
| 69>    C      -24.46525        -2.68248        -2.24213
| 70>    C      -25.01944        -1.52585        -2.97117
| 71>    O      -26.15806        -1.17414        -2.82452
| 72>    O      -24.18993        -0.88781        -3.80753
| 73>    C      -25.16944        -3.44786        -1.34862
| 74>    C      -24.40197        -4.48901        -0.79907
| 75>    O      -24.85319        -5.36992         0.14018
| 76>    H        0.94357         2.07783        -1.22891
| 77>    H        0.69477        -2.92468        -1.21149
| 78>    H        3.67864         1.68480        -1.71587
| 79>    H       -4.48219        -1.01846        -0.32688
| 80>    H       -4.06761         2.02233        -0.37243
| 81>    H       -6.35153         3.27804        -0.06960
| 82>    H       -8.87194         2.79157         0.21618
| 83>    H      -11.04741         1.74686         0.33665
| 84>    H      -13.01162         0.07638         0.45004
| 85>    H      -13.47891        -2.49404         0.42271
| 86>    H      -10.89200        -4.15003         0.49978
| 87>    H      -11.31565        -6.69937         0.60215
| 88>    H      -13.23700        -8.41549         0.48727
| 89>    H      -15.33322        -9.51265         0.35434
| 90>    H      -17.82080       -10.12363         0.03293
| 91>    H      -20.15123        -8.98901        -0.39416
| 92>    H      -24.25070        -6.88631        -0.50325
| 93>    H      -23.30230        -1.27030        -3.83486
| 94>    H      -26.19858        -3.25252        -1.10437
| 95>    H      -25.77786        -5.18463         0.34464
| 96> *
| 97>
| 98>                          ****END OF INPUT****

CARTESIAN COORDINATES (ANGSTROEM)
---------------------------------
  C     -1.790730   -1.430930   -0.769620
  C     -2.267820   -2.721380   -0.695450
  C     -1.466320   -3.869420   -0.844740
  N     -0.872540   -4.846780   -0.958460
  C     -3.605600   -3.094220   -0.462880
  N     -4.668910   -3.491730   -0.279670
  C     -0.394850   -1.066820   -1.010450
  C     -0.290820    0.345200   -1.020290
  C      0.897570    1.000040   -1.226450
  C      2.043620    0.223460   -1.432920
  C      1.930810   -1.185520   -1.419500
  C      0.726220   -1.848150   -1.211230
  S      3.466380   -1.952480   -1.693480
  C      4.227640   -0.389130   -1.821150
  C      3.378710    0.653950   -1.666870
  Br     6.072400   -0.282120   -2.146420
  C     -1.627060    0.932210   -0.782460
  O     -1.890250    2.118530   -0.728000
  C     -2.543490   -0.213520   -0.632940
  C     -3.905370   -0.105640   -0.411700
  C     -4.604200    1.087420   -0.299110
  C     -5.977390    1.138520   -0.111460
  C     -6.778060    2.292280   -0.017750
  C     -8.115200    2.032460    0.132660
  C     -8.419250    0.662240    0.168650
  S     -6.970560   -0.295760    0.015500
  C     -9.673610    0.060460    0.280520
  C    -10.930720    0.678420    0.344470
  C    -11.975910   -0.210310    0.403900
  C    -11.581480   -1.555630    0.399190
  S     -9.839790   -1.673200    0.319590
  C    -12.411330   -2.675150    0.428260
  C    -11.959740   -3.973770    0.459290
  C    -12.776300   -5.101740    0.439620
  C    -12.355110   -6.439070    0.509520
  C    -13.376800   -7.350620    0.449380
  C    -14.647540   -6.764690    0.318050
  S    -14.515830   -5.023780    0.293500
  C    -15.875120   -7.405050    0.195270
  C    -16.121040   -8.794380    0.216600
  C    -17.433530   -9.120970    0.049020
  C    -18.287230   -8.002160   -0.121390
  S    -17.361770   -6.518010   -0.041510
  C    -19.641010   -8.040290   -0.337100
  C    -20.432250   -6.895650   -0.544040
  C    -21.807320   -6.771330   -0.797570
  C    -22.691820   -7.929400   -1.015150
  O    -22.246420   -9.012270   -1.304860
  O    -24.007690   -7.744360   -0.898480
  C    -21.978780   -5.361650   -0.931030
  N    -20.827830   -4.742570   -0.771130
  O    -19.882240   -5.668540   -0.514990
  C    -23.111980   -4.529370   -1.281470
  S    -22.832920   -3.243040   -2.400200
  C    -24.465250   -2.682480   -2.242130
  C    -25.019440   -1.525850   -2.971170
  O    -26.158060   -1.174140   -2.824520
  O    -24.189930   -0.887810   -3.807530
  C    -25.169440   -3.447860   -1.348620
  C    -24.401970   -4.489010   -0.799070
  O    -24.853190   -5.369920    0.140180
  H      0.943570    2.077830   -1.228910
  H      0.694770   -2.924680   -1.211490
  H      3.678640    1.684800   -1.715870
  H     -4.482190   -1.018460   -0.326880
  H     -4.067610    2.022330   -0.372430
  H     -6.351530    3.278040   -0.069600
  H     -8.871940    2.791570    0.216180
  H    -11.047410    1.746860    0.336650
  H    -13.011620    0.076380    0.450040
  H    -13.478910   -2.494040    0.422710
  H    -10.892000   -4.150030    0.499780
  H    -11.315650   -6.699370    0.602150
  H    -13.237000   -8.415490    0.487270
  H    -15.333220   -9.512650    0.354340
  H    -17.820800  -10.123630    0.032930
  H    -20.151230   -8.989010   -0.394160
  H    -24.250700   -6.886310   -0.503250
  H    -23.302300   -1.270300   -3.834860
  H    -26.198580   -3.252520   -1.104370
  H    -25.777860   -5.184630    0.344640

 Total Charge           Charge          ....    0
 Multiplicity           Mult            ....    1
 Number of Electrons    NEL             ....  492
 Basis Dimension        Dim             ....  996

ORBITAL ENERGIES
----------------

  NO   OCC          E(Eh)            E(eV)
   0   2.0000    -482.875352    -13139.7063
   1   2.0000     -88.992986     -2421.6223
   2   2.0000     -88.968134     -2420.9460
   3   2.0000     -88.965797     -2420.8824
   4   2.0000     -88.963686     -2420.8250
   5   2.0000     -88.962478     -2420.7921
   6   2.0000     -88.958176     -2420.6750
   7   2.0000     -62.553040     -1702.1548
   8   2.0000     -56.386978     -1534.3677
   9   2.0000     -56.384290     -1534.2945
  10   2.0000     -56.384251     -1534.2935
  11   2.0000     -19.330000      -525.9961
  12   2.0000     -19.302222      -525.2402
  13   2.0000     -19.274178      -524.4770
  14   2.0000     -19.247110      -523.7405
  15   2.0000     -19.209434      -522.7153
  16   2.0000     -19.196857      -522.3730
  17   2.0000     -19.192643      -522.2584
  18   2.0000     -14.470273      -393.7562
  19   2.0000     -14.398117      -391.7927
  20   2.0000     -14.395253      -391.7147
  21   2.0000     -10.420470      -283.5554
  22   2.0000     -10.405011      -283.1347
  23   2.0000     -10.374503      -282.3046
  24   2.0000     -10.365086      -282.0483
  25   2.0000     -10.346948      -281.5548
  26   2.0000     -10.346074      -281.5310
  27   2.0000     -10.343824      -281.4698
  28   2.0000     -10.336064      -281.2586
  29   2.0000     -10.334545      -281.2173
  30   2.0000     -10.333714      -281.1946
  31   2.0000     -10.332285      -281.1558
  32   2.0000     -10.331228      -281.1270
  33   2.0000     -10.330729      -281.1134
  34   2.0000     -10.329886      -281.0905
  35   2.0000     -10.324191      -280.9355
  36   2.0000     -10.322853      -280.8991
  37   2.0000     -10.321322      -280.8574
  38   2.0000     -10.320377      -280.8317
  39   2.0000     -10.318195      -280.7724
  40   2.0000     -10.311379      -280.5869
  41   2.0000     -10.310467      -280.5621
  42   2.0000     -10.307416      -280.4791
  43   2.0000     -10.307078      -280.4699
  44   2.0000     -10.307042      -280.4689
  45   2.0000     -10.304457      -280.3985
  46   2.0000     -10.303339      -280.3681
  47   2.0000     -10.302394      -280.3424
  48   2.0000     -10.302387      -280.3422
  49   2.0000     -10.301746      -280.3248
  50   2.0000     -10.301719      -280.3240
  51   2.0000     -10.301089      -280.3069
  52   2.0000     -10.300503      -280.2909
  53   2.0000     -10.299914      -280.2749
  54   2.0000     -10.294606      -280.1305
  55   2.0000     -10.293170      -280.0914
  56   2.0000     -10.292388      -280.0701
  57   2.0000     -10.290945      -280.0308
  58   2.0000     -10.289913      -280.0028
  59   2.0000     -10.288867      -279.9743
  60   2.0000     -10.285125      -279.8725
  61   2.0000     -10.284510      -279.8557
  62   2.0000     -10.274775      -279.5908
  63   2.0000     -10.272950      -279.5412
  64   2.0000     -10.271594      -279.5043
  65   2.0000      -8.782443      -238.9824
  66   2.0000      -8.088254      -220.0926
  67   2.0000      -8.064471      -219.4454
  68   2.0000      -8.062114      -219.3813
  69   2.0000      -8.059611      -219.3132
  70   2.0000      -8.058489      -219.2826
  71   2.0000      -8.054143      -219.1644
  72   2.0000      -6.618682      -180.1035
  73   2.0000      -6.604193      -179.7092
  74   2.0000      -6.604034      -179.7049
  75   2.0000      -6.057602      -164.8357
  76   2.0000      -6.053368      -164.7205
  77   2.0000      -6.050360      -164.6387
  78   2.0000      -6.034039      -164.1946
  79   2.0000      -6.031651      -164.1296
  80   2.0000      -6.030065      -164.0864
  81   2.0000      -6.029359      -164.0672
  82   2.0000      -6.028196      -164.0356
  83   2.0000      -6.027602      -164.0194
  84   2.0000      -6.025649      -163.9663
  85   2.0000      -6.025089      -163.9510
  86   2.0000      -6.023916      -163.9191
  87   2.0000      -6.023672      -163.9124
  88   2.0000      -6.023401      -163.9051
  89   2.0000      -6.020616      -163.8293
  90   2.0000      -6.019694      -163.8042
  91   2.0000      -6.019634      -163.8026
  92   2.0000      -6.015474      -163.6894
  93   2.0000      -2.734557       -74.4111
  94   2.0000      -2.730472       -74.2999
  95   2.0000      -2.730402       -74.2980
  96   2.0000      -2.718856       -73.9838
  97   2.0000      -2.718850       -73.9837
  98   2.0000      -1.268239       -34.5105
  99   2.0000      -1.197330       -32.5810
 100   2.0000      -1.194521       -32.5046
 101   2.0000      -1.174492       -31.9595
 102   2.0000      -1.110134       -30.2083
 103   2.0000      -1.110124       -30.2080
 104   2.0000      -1.089309       -29.6416
 105   2.0000      -1.022150       -27.8141
 106   2.0000      -1.016684       -27.6654
 107   2.0000      -1.012686       -27.5566
 108   2.0000      -1.006809       -27.3967
 109   2.0000      -0.996741       -27.1227
 110   2.0000      -0.996315       -27.1111
 111   2.0000      -0.988914       -26.9097
 112   2.0000      -0.979435       -26.6518
 113   2.0000      -0.976003       -26.5584
 114   2.0000      -0.971580       -26.4380
 115   2.0000      -0.933234       -25.3946
 116   2.0000      -0.928261       -25.2593
 117   2.0000      -0.923371       -25.1262
 118   2.0000      -0.903390       -24.5825
 119   2.0000      -0.892503       -24.2862
 120   2.0000      -0.887625       -24.1535
 121   2.0000      -0.872946       -23.7541
 122   2.0000      -0.870238       -23.6804
 123   2.0000      -0.867832       -23.6149
 124   2.0000      -0.862387       -23.4667
 125   2.0000      -0.860813       -23.4239
 126   2.0000      -0.859346       -23.3840
 127   2.0000      -0.855326       -23.2746
 128   2.0000      -0.840464       -22.8702
 129   2.0000      -0.835906       -22.7461
 130   2.0000      -0.831277       -22.6202
 131   2.0000      -0.814546       -22.1649
 132   2.0000      -0.810016       -22.0417
 133   2.0000      -0.787238       -21.4218
 134   2.0000      -0.770324       -20.9616
 135   2.0000      -0.767137       -20.8749
 136   2.0000      -0.754827       -20.5399
 137   2.0000      -0.743796       -20.2397
 138   2.0000      -0.739226       -20.1154
 139   2.0000      -0.726956       -19.7815
 140   2.0000      -0.719675       -19.5833
 141   2.0000      -0.714136       -19.4326
 142   2.0000      -0.704229       -19.1630
 143   2.0000      -0.698655       -19.0114
 144   2.0000      -0.693517       -18.8716
 145   2.0000      -0.680891       -18.5280
 146   2.0000      -0.675096       -18.3703
 147   2.0000      -0.673212       -18.3190
 148   2.0000      -0.666448       -18.1350
 149   2.0000      -0.658147       -17.9091
 150   2.0000      -0.651691       -17.7334
 151   2.0000      -0.645888       -17.5755
 152   2.0000      -0.641587       -17.4585
 153   2.0000      -0.640066       -17.4171
 154   2.0000      -0.634341       -17.2613
 155   2.0000      -0.631601       -17.1867
 156   2.0000      -0.623745       -16.9730
 157   2.0000      -0.622503       -16.9392
 158   2.0000      -0.616555       -16.7773
 159   2.0000      -0.612937       -16.6789
 160   2.0000      -0.607194       -16.5226
 161   2.0000      -0.605366       -16.4728
 162   2.0000      -0.593048       -16.1377
 163   2.0000      -0.586263       -15.9530
 164   2.0000      -0.583634       -15.8815
 165   2.0000      -0.579188       -15.7605
 166   2.0000      -0.570052       -15.5119
 167   2.0000      -0.560841       -15.2612
 168   2.0000      -0.554633       -15.0923
 169   2.0000      -0.551516       -15.0075
 170   2.0000      -0.546909       -14.8821
 171   2.0000      -0.543638       -14.7932
 172   2.0000      -0.537064       -14.6143
 173   2.0000      -0.536327       -14.5942
 174   2.0000      -0.531253       -14.4561
 175   2.0000      -0.528476       -14.3806
 176   2.0000      -0.524892       -14.2830
 177   2.0000      -0.522383       -14.2148
 178   2.0000      -0.522317       -14.2130
 179   2.0000      -0.519763       -14.1435
 180   2.0000      -0.518083       -14.0978
 181   2.0000      -0.517210       -14.0740
 182   2.0000      -0.515306       -14.0222
 183   2.0000      -0.512960       -13.9584
 184   2.0000      -0.512137       -13.9359
 185   2.0000      -0.510339       -13.8870
 186   2.0000      -0.509116       -13.8538
 187   2.0000      -0.502604       -13.6766
 188   2.0000      -0.500040       -13.6068
 189   2.0000      -0.494190       -13.4476
 190   2.0000      -0.492722       -13.4076
 191   2.0000      -0.489969       -13.3327
 192   2.0000      -0.488457       -13.2916
 193   2.0000      -0.485292       -13.2055
 194   2.0000      -0.480497       -13.0750
 195   2.0000      -0.479603       -13.0507
 196   2.0000      -0.477889       -13.0040
 197   2.0000      -0.477605       -12.9963
 198   2.0000      -0.474604       -12.9146
 199   2.0000      -0.471501       -12.8302
 200   2.0000      -0.470049       -12.7907
 201   2.0000      -0.466200       -12.6860
 202   2.0000      -0.458675       -12.4812
 203   2.0000      -0.456272       -12.4158
 204   2.0000      -0.455344       -12.3905
 205   2.0000      -0.450942       -12.2708
 206   2.0000      -0.446447       -12.1485
 207   2.0000      -0.443945       -12.0804
 208   2.0000      -0.441947       -12.0260
 209   2.0000      -0.435519       -11.8511
 210   2.0000      -0.434566       -11.8252
 211   2.0000      -0.431817       -11.7504
 212   2.0000      -0.431146       -11.7321
 213   2.0000      -0.426772       -11.6131
 214   2.0000      -0.424408       -11.5487
 215   2.0000      -0.416016       -11.3204
 216   2.0000      -0.415681       -11.3113
 217   2.0000      -0.410277       -11.1642
 218   2.0000      -0.409985       -11.1563
 219   2.0000      -0.409013       -11.1298
 220   2.0000      -0.406081       -11.0500
 221   2.0000      -0.402056       -10.9405
 222   2.0000      -0.399806       -10.8793
 223   2.0000      -0.395463       -10.7611
 224   2.0000      -0.389934       -10.6106
 225   2.0000      -0.389041       -10.5863
 226   2.0000      -0.381804       -10.3894
 227   2.0000      -0.373146       -10.1538
 228   2.0000      -0.365775        -9.9533
 229   2.0000      -0.364997        -9.9321
 230   2.0000      -0.363661        -9.8957
 231   2.0000      -0.355121        -9.6633
 232   2.0000      -0.351359        -9.5610
 233   2.0000      -0.349270        -9.5041
 234   2.0000      -0.344843        -9.3837
 235   2.0000      -0.343339        -9.3427
 236   2.0000      -0.342394        -9.3170
 237   2.0000      -0.334269        -9.0959
 238   2.0000      -0.323188        -8.7944
 239   2.0000      -0.317243        -8.6326
 240   2.0000      -0.316841        -8.6217
 241   2.0000      -0.300970        -8.1898
 242   2.0000      -0.295319        -8.0360
 243   2.0000      -0.279262        -7.5991
 244   2.0000      -0.255343        -6.9482
 245   2.0000      -0.209556        -5.7023
 246   0.0000      -0.129402        -3.5212
 247   0.0000      -0.079952        -2.1756
 248   0.0000      -0.053106        -1.4451
 249   0.0000      -0.049820        -1.3557
 250   0.0000      -0.037318        -1.0155

MULLIKEN ATOMIC CHARGES
-----------------------
   0 C :    0.327740
   1 C :   -0.365561
   2 C :   -0.191592
   3 N :    0.134162
   4 C :   -0.190240
   5 N :    0.127252
   6 C :    0.014131
   7 C :   -0.006155
   8 C :   -0.080520
   9 C :    0.118863
  10 C :   -0.091965
  11 C :   -0.028916
  12 S :    0.177384
  13 C :   -0.122395
  14 C :    0.034729
  15 Br:    0.012306
  16 C :    0.134262
  17 O :   -0.168349
  18 C :   -0.089187
  19 C :   -0.043545
  20 C :   -0.019652
  21 C :    0.001844
  22 C :    0.024197
  23 C :    0.036259
  24 C :   -0.048470
  25 S :    0.110155
  26 C :   -0.026834
  27 C :    0.014302
  28 C :    0.039801
  29 C :   -0.036219
  30 S :    0.116613
  31 C :    0.008314
  32 C :   -0.012918
  33 C :   -0.021663
  34 C :    0.033094
  35 C :    0.026020
  36 C :   -0.045368
  37 S :    0.104669
  38 C :   -0.045929
  39 C :    0.035983
  40 C :    0.032563
  41 C :    0.002231
  42 S :    0.133933
  43 C :   -0.053415
  44 C :    0.159340
  45 C :   -0.123939
  46 C :    0.161536
  47 O :   -0.197412
  48 O :   -0.168941
  49 C :    0.011412
  50 N :   -0.005828
  51 O :   -0.197295
  52 C :   -0.201149
  53 S :    0.181477
  54 C :   -0.163721
  55 C :    0.188159
  56 O :   -0.164820
  57 O :   -0.150309
  58 C :   -0.041828
  59 C :    0.224499
  60 O :   -0.223265
  61 H :   -0.015346
  62 H :   -0.010296
  63 H :   -0.006679
  64 H :    0.013386
  65 H :    0.015529
  66 H :   -0.001908
  67 H :   -0.006476
  68 H :   -0.006070
  69 H :   -0.002986
  70 H :    0.004124
  71 H :    0.010077
  72 H :    0.003010
  73 H :   -0.002649
  74 H :   -0.003697
  75 H :    0.003390
  76 H :    0.027301
  77 H :    0.179413
  78 H :    0.183510
  79 H :    0.005439
  80 H :    0.211097
Sum of atomic charges:   -0.0000000

LOEWDIN ATOMIC CHARGES
----------------------
   0 C :    0.071705
   1 C :   -0.159917
   2 C :   -0.019221
   3 N :   -0.072290
   4 C :   -0.020428
   5 N :   -0.072531
   6 C :   -0.017226
   7 C :   -0.048318
   8 C :    0.015935
   9 C :   -0.036674
  10 C :   -0.146104
  11 C :   -0.014910
  12 S :    0.426152
  13 C :   -0.275580
  14 C :   -0.071197
  15 Br:    0.128242
  16 C :    0.081090
  17 O :   -0.160507
  18 C :   -0.108617
  19 C :    0.042702
  20 C :   -0.068587
  21 C :   -0.108426
  22 C :   -0.043565
  23 C :   -0.013461
  24 C :   -0.192225
  25 S :    0.418335
  26 C :   -0.151791
  27 C :   -0.040717
  28 C :   -0.019333
  29 C :   -0.154973
  30 S :    0.413018
  31 C :   -0.032970
  32 C :   -0.057967
  33 C :   -0.134347
  34 C :   -0.027985
  35 C :   -0.024580
  36 C :   -0.168968
  37 S :    0.398877
  38 C :   -0.175426
  39 C :   -0.020767
  40 C :   -0.025961
  41 C :   -0.119136
  42 S :    0.411353
  43 C :   -0.077010
  44 C :    0.073997
  45 C :   -0.151478
  46 C :    0.077851
  47 O :   -0.175748
  48 O :   -0.032484
  49 C :   -0.048657
  50 N :   -0.052865
  51 O :    0.023805
  52 C :   -0.210091
  53 S :    0.482986
  54 C :   -0.226034
  55 C :    0.064096
  56 O :   -0.152976
  57 O :   -0.025289
  58 C :   -0.049268
  59 C :    0.015206
  60 O :   -0.030786
  61 H :    0.038507
  62 H :    0.039765
  63 H :    0.037263
  64 H :    0.030421
  65 H :    0.038381
  66 H :    0.038077
  67 H :    0.034505
  68 H :    0.034479
  69 H :    0.037512
  70 H :    0.032914
  71 H :    0.034011
  72 H :    0.039950
  73 H :    0.035942
  74 H :    0.035431
  75 H :    0.039932
  76 H :    0.050679
  77 H :    0.055131
  78 H :    0.083287
  79 H :    0.042624
  80 H :    0.113235

  Mayer bond orders larger than 0.100000
B(  0-C ,  1-C ) :   1.5698 B(  0-C ,  6-C ) :   0.9869 B(  0-C , 18-C ) :   1.1275
B(  1-C ,  2-C ) :   1.1519 B(  1-C ,  4-C ) :   1.1570 B(  2-C ,  3-N ) :   2.9595
B(  4-C ,  5-N ) :   2.9533 B(  6-C ,  7-C ) :   1.2792 B(  6-C , 11-C ) :   1.4219
B(  7-C ,  8-C ) :   1.4319 B(  7-C , 16-C ) :   0.9337 B(  8-C ,  9-C ) :   1.2369
B(  8-C , 61-H ) :   1.0167 B(  9-C , 10-C ) :   1.3181 B(  9-C , 14-C ) :   1.1600
B( 10-C , 11-C ) :   1.3183 B( 10-C , 12-S ) :   1.0825 B( 11-C , 62-H ) :   0.9798
B( 12-S , 13-C ) :   1.0849 B( 13-C , 14-C ) :   1.6192 B( 13-C , 15-Br) :   1.0120
B( 14-C , 63-H ) :   1.0011 B( 16-C , 17-O ) :   2.1825 B( 16-C , 18-C ) :   0.9701
B( 18-C , 19-C ) :   1.4521 B( 19-C , 20-C ) :   1.2873 B( 19-C , 64-H ) :   0.9430
B( 20-C , 21-C ) :   1.3789 B( 20-C , 65-H ) :   0.9797 B( 21-C , 22-C ) :   1.2093
B( 21-C , 25-S ) :   1.0887 B( 22-C , 23-C ) :   1.4987 B( 22-C , 66-H ) :   1.0030
B( 23-C , 24-C ) :   1.2574 B( 23-C , 67-H ) :   0.9956 B( 24-C , 25-S ) :   1.0612
B( 24-C , 26-C ) :   1.3893 B( 26-C , 27-C ) :   1.2566 B( 26-C , 30-S ) :   1.0913
B( 27-C , 28-C ) :   1.4991 B( 27-C , 68-H ) :   0.9961 B( 28-C , 29-C ) :   1.2226
B( 28-C , 69-H ) :   1.0014 B( 29-C , 30-S ) :   1.0533 B( 29-C , 31-C ) :   1.4513
B( 31-C , 32-C ) :   1.2761 B( 31-C , 70-H ) :   0.9740 B( 32-C , 33-C ) :   1.4559
B( 32-C , 71-H ) :   0.9728 B( 33-C , 34-C ) :   1.2078 B( 33-C , 37-S ) :   1.0633
B( 34-C , 35-C ) :   1.5220 B( 34-C , 72-H ) :   1.0021 B( 35-C , 36-C ) :   1.2311
B( 35-C , 73-H ) :   0.9955 B( 36-C , 37-S ) :   1.0622 B( 36-C , 38-C ) :   1.4556
B( 38-C , 39-C ) :   1.2034 B( 38-C , 42-S ) :   1.0426 B( 39-C , 40-C ) :   1.5728
B( 39-C , 74-H ) :   0.9956 B( 40-C , 41-C ) :   1.1451 B( 40-C , 75-H ) :   1.0033
B( 41-C , 42-S ) :   1.0616 B( 41-C , 43-C ) :   1.5205 B( 43-C , 44-C ) :   1.2074
B( 43-C , 76-H ) :   0.9505 B( 44-C , 45-C ) :   1.3842 B( 44-C , 51-O ) :   1.1533
B( 45-C , 46-C ) :   0.9235 B( 45-C , 49-C ) :   1.2155 B( 46-C , 47-O ) :   2.1193
B( 46-C , 48-O ) :   1.2869 B( 48-O , 77-H ) :   0.9148 B( 49-C , 50-N ) :   1.6981
B( 49-C , 52-C ) :   0.9847 B( 50-N , 51-O ) :   0.9903 B( 52-C , 53-S ) :   1.1642
B( 52-C , 54-C ) :   0.1224 B( 52-C , 59-C ) :   1.5460 B( 53-S , 54-C ) :   1.1228
B( 54-C , 55-C ) :   0.9228 B( 54-C , 58-C ) :   1.5397 B( 55-C , 56-O ) :   2.2076
B( 55-C , 57-O ) :   1.2478 B( 57-O , 78-H ) :   0.9489 B( 58-C , 59-C ) :   1.2013
B( 58-C , 79-H ) :   1.0027 B( 59-C , 60-O ) :   1.1248 B( 60-O , 77-H ) :   0.1226
B( 60-O , 80-H ) :   0.9455

-----------------------------------------------------------------------------
         ABSORPTION SPECTRUM VIA TRANSITION ELECTRIC DIPOLE MOMENTS
-----------------------------------------------------------------------------
State   Energy  Wavelength   fosc         T2         TX        TY        TZ
        (cm-1)    (nm)                  (au**2)     (au)      (au)      (au)
-----------------------------------------------------------------------------
   0    6256.7   1598.3   1.211707509  63.75659  -7.32589  -3.17015   0.19507
   1   13995.8    714.5   0.003204039   0.07537  -0.27441   0.00730  -0.00308
   2   16835.5    594.0   0.248494648   4.85923   0.01399   2.03510   0.84700
   3   20601.2    485.4   0.022607410   0.36127   0.43848  -0.40397   0.07621
   4   22431.0    445.8   0.110608264   1.62336   0.05661   1.25230  -0.22778
   5   22754.0    439.5   0.023204152   0.33573   0.29219   0.47265  -0.16419
   6   24982.1    400.3   0.030114465   0.39685  -0.29179   0.55708   0.03699
   7   25631.7    390.1   0.023286449   0.29909   0.43893  -0.32555   0.02112
   8   25755.3    388.3   0.843058935  10.77622  -2.65235   1.93269  -0.07704
   9   26248.3    381.0   0.158611266   1.98934  -0.48857   1.31462  -0.14968
  10   26640.5    375.4   0.024697151   0.30520  -0.55119   0.02417   0.02840
  11   27734.0    360.6   0.017601040   0.20893  -0.13139   0.43317  -0.06345
  12   28533.6    350.5   0.130980927   1.51122  -1.07365   0.59085   0.09689
  13   29002.0    344.8   0.033802884   0.38371  -0.26789   0.55844   0.00907
  14   29895.7    334.5   0.001894652   0.02086  -0.07279  -0.10036  -0.07413
  15   31109.9    321.4   0.025092677   0.26554   0.04116  -0.46938   0.20863
  16   31334.8    319.1   0.462644536   4.86066  -2.17993  -0.21808   0.24698
  17   31497.2    317.5   0.201981216   2.11113   1.35515   0.49289  -0.17819
  18   31930.3    313.2   0.000025282   0.00026   0.00331   0.00177  -0.01570
  19   32220.0    310.4   0.068443662   0.69933  -0.80505  -0.20849  -0.08810
  20   32721.4    305.6   0.033289275   0.33493   0.46058   0.32780  -0.12383
  21   32943.2    303.6   0.006774628   0.06770   0.19774   0.04152  -0.16393
  22   33298.3    300.3   0.004161048   0.04114  -0.19784  -0.02656   0.03598
  23   33597.7    297.6   0.100553824   0.98529  -0.65605   0.72448  -0.17327
  24   33751.0    296.3   0.042175209   0.41138   0.38960   0.47489  -0.18460
  25   34585.1    289.1   0.002139436   0.02037   0.12782  -0.01593   0.06143
  26   34912.2    286.4   0.022694934   0.21401  -0.31735  -0.33273   0.05088
  27   35179.9    284.3   0.033051689   0.30930   0.00544  -0.52060   0.19557
  28   35426.6    282.3   0.000246735   0.00229  -0.02880  -0.03339   0.01868
  29   36186.2    276.3   0.093694303   0.85240  -0.62221  -0.68059   0.04539
  30   36295.4    275.5   0.083635629   0.75860   0.46310   0.73358  -0.07747
  31   36700.6    272.5   0.029243228   0.26232  -0.40831  -0.30180  -0.06721
  32   37023.1    270.1   0.000114422   0.00102   0.01777   0.02609   0.00458
  33   37053.9    269.9   0.103085919   0.91588  -0.34147  -0.89078   0.07609
  34   37842.2    264.3   0.035552424   0.30929   0.35358   0.38931  -0.18086
  35   39430.9    253.6   0.040334535   0.33676   0.30062   0.49554   0.02868
  36   39565.3    252.7   0.027724413   0.23069   0.43113   0.19886  -0.07261
  37   39784.2    251.4   0.007255835   0.06004   0.18190  -0.11832   0.11383
  38   40218.2    248.6   0.089184279   0.73003  -0.28635   0.80370  -0.04578

FINAL SINGLE POINT ENERGY     -7338.876453530872

DIPOLE MOMENT
-------------
                                X             Y             Z
Electronic contribution:    185.52875      24.87713     -19.33080
Nuclear contribution   :   -188.31121     -24.00574      20.63459
                        -----------------------------------------
Total Dipole Moment    :     -2.78246       0.87139       1.30379
                        -----------------------------------------
Magnitude (a.u.)       :      3.19394
Magnitude (Debye)      :      8.11835

Rotational constants in cm-1:     0.002500     0.000161     0.000153
Rotational constants in MHz :    74.959954     4.812697     4.598942

                             ****ORCA TERMINATED NORMALLY****
TOTAL RUN TIME: 0 days 0 hours 7 minutes 35 seconds 982 msec
