                         Program Version 4.2.0 -  RELEASE  -
|  1> # ORCA input file
|  2> # SCF done       -162.702903507751          0.000903595389
|  3> ! CAM-B3LYP def2-SVP def2/J RIJCOSX Grid4 TightSCF
|  4> %maxcore 5000
|  5> %tddft
|  6>     Mode sTDDFT
|  7>     Ethresh 5.0
|  8>     maxcore 5000
|  9> end
| 10>
| 11> %pal
| 12>   nprocs 6
| 13>   end
| 14> * xyz 0 1
| 15>    C       -1.35003         0.43494        -0.32079
| 16>    C       -1.06418         0.49891        -1.65718
| 17>    C       -0.00676        -0.20769        -2.26997
| 18>    N        0.84024        -0.75665        -2.81523
| 19>    C       -1.81718         1.22365        -2.60800
| 20>    N       -2.40168         1.75012        -3.44299
| 21>    C       -0.68893        -0.40774         0.66300
| 22>    C       -1.40418        -0.33527         1.88508
| 23>    C       -1.02783        -1.03677         3.00572
| 24>    C        0.10781        -1.84768         2.91801
| 25>    C        0.81998        -1.90986         1.69419
| 26>    C        0.43986        -1.20184         0.56163
| 27>    S        2.19390        -2.96541         1.80802
| 28>    C        1.80063        -3.30587         3.47265
| 29>    C        0.69601        -2.66286         3.92235
| 30>   Br        2.88285        -4.47665         4.45782
| 31>    C       -2.54657         0.58682         1.74566
| 32>    O       -3.33484         0.89789         2.60400
| 33>    C       -2.44811         1.12082         0.34850
| 34>    C       -3.12338         2.19012        -0.13086
| 35>    C       -4.25391         2.82088         0.48043
| 36>    C       -4.66438         4.14842         0.37672
| 37>    C       -3.94825         5.23459        -0.29640
| 38>    O       -2.91102         5.08874        -0.89359
| 39>    O       -4.55798         6.41401        -0.16234
| 40>    C       -5.87162         4.17326         1.12726
| 41>    N       -6.13678         2.97540         1.59093
| 42>    O       -5.15492         2.15617         1.20610
| 43>    C       -6.74446         5.30170         1.39023
| 44>    C       -7.16464         5.84758         2.58626
| 45>    C       -6.63136         5.56688         3.91907
| 46>    O       -6.97863         6.10963         4.93803
| 47>    O       -5.64175         4.66415         3.88582
| 48>    C       -8.04482         6.90626         2.17096
| 49>    N       -8.08003         6.95195         0.85707
| 50>    O       -7.29666         5.96645         0.37853
| 51>    C       -8.80885         7.82796         2.96442
| 52>    C       -9.52230         7.51034         4.07362
| 53>    C      -10.27149         8.42893         4.87474
| 54>    C      -10.95072         7.85298         5.89367
| 55>    C      -10.80044         6.44053         5.95815
| 56>    S       -9.75147         5.87967         4.67964
| 57>    C      -11.36347         5.57382         6.86740
| 58>    C      -12.22018         5.87607         7.95529
| 59>    C      -12.60875         4.78810         8.66825
| 60>    C      -12.08782         3.55553         8.18591
| 61>    S      -11.07132         3.84705         6.78528
| 62>    C      -12.33654         2.32061         8.71735
| 63>    C      -11.85112         1.08174         8.25882
| 64>    S      -10.79450         0.85208         6.87537
| 65>    C      -10.73780        -0.85504         7.04364
| 66>    C      -11.49432        -1.26451         8.11727
| 67>    C      -12.11332        -0.16915         8.79188
| 68>    O      -12.84731        -0.59911         9.83885
| 69>    C      -12.70496        -1.95277         9.84063
| 70>    N      -13.37820        -2.68251        10.84955
| 71>    O      -13.23072        -3.89031        10.83255
| 72>    O      -14.04247        -2.06391        11.65223
| 73>    C      -11.90519        -2.42207         8.83359
| 74>    H       -1.59407        -0.96180         3.92075
| 75>    H        1.01683        -1.27623        -0.34497
| 76>    H        0.31151        -2.75852         4.92128
| 77>    H       -2.79670         2.68289        -1.03831
| 78>    H       -4.06890         7.10336        -0.63894
| 79>    H       -5.32280         4.48996         4.78548
| 80>    H       -8.86647         8.83781         2.58460
| 81>    H      -10.26010         9.48296         4.66160
| 82>    H      -11.55543         8.39018         6.60213
| 83>    H      -12.51965         6.88432         8.17745
| 84>    H      -13.25478         4.81877         9.52764
| 85>    H      -12.98091         2.26618         9.58513
| 86>    H      -10.16464        -1.44196         6.35664
| 87>    H      -11.66059        -3.44765         8.65021
| 88> *
| 89>
| 90>                          ****END OF INPUT****

CARTESIAN COORDINATES (ANGSTROEM)
---------------------------------
  C     -1.350030    0.434940   -0.320790
  C     -1.064180    0.498910   -1.657180
  C     -0.006760   -0.207690   -2.269970
  N      0.840240   -0.756650   -2.815230
  C     -1.817180    1.223650   -2.608000
  N     -2.401680    1.750120   -3.442990
  C     -0.688930   -0.407740    0.663000
  C     -1.404180   -0.335270    1.885080
  C     -1.027830   -1.036770    3.005720
  C      0.107810   -1.847680    2.918010
  C      0.819980   -1.909860    1.694190
  C      0.439860   -1.201840    0.561630
  S      2.193900   -2.965410    1.808020
  C      1.800630   -3.305870    3.472650
  C      0.696010   -2.662860    3.922350
  Br     2.882850   -4.476650    4.457820
  C     -2.546570    0.586820    1.745660
  O     -3.334840    0.897890    2.604000
  C     -2.448110    1.120820    0.348500
  C     -3.123380    2.190120   -0.130860
  C     -4.253910    2.820880    0.480430
  C     -4.664380    4.148420    0.376720
  C     -3.948250    5.234590   -0.296400
  O     -2.911020    5.088740   -0.893590
  O     -4.557980    6.414010   -0.162340
  C     -5.871620    4.173260    1.127260
  N     -6.136780    2.975400    1.590930
  O     -5.154920    2.156170    1.206100
  C     -6.744460    5.301700    1.390230
  C     -7.164640    5.847580    2.586260
  C     -6.631360    5.566880    3.919070
  O     -6.978630    6.109630    4.938030
  O     -5.641750    4.664150    3.885820
  C     -8.044820    6.906260    2.170960
  N     -8.080030    6.951950    0.857070
  O     -7.296660    5.966450    0.378530
  C     -8.808850    7.827960    2.964420
  C     -9.522300    7.510340    4.073620
  C    -10.271490    8.428930    4.874740
  C    -10.950720    7.852980    5.893670
  C    -10.800440    6.440530    5.958150
  S     -9.751470    5.879670    4.679640
  C    -11.363470    5.573820    6.867400
  C    -12.220180    5.876070    7.955290
  C    -12.608750    4.788100    8.668250
  C    -12.087820    3.555530    8.185910
  S    -11.071320    3.847050    6.785280
  C    -12.336540    2.320610    8.717350
  C    -11.851120    1.081740    8.258820
  S    -10.794500    0.852080    6.875370
  C    -10.737800   -0.855040    7.043640
  C    -11.494320   -1.264510    8.117270
  C    -12.113320   -0.169150    8.791880
  O    -12.847310   -0.599110    9.838850
  C    -12.704960   -1.952770    9.840630
  N    -13.378200   -2.682510   10.849550
  O    -13.230720   -3.890310   10.832550
  O    -14.042470   -2.063910   11.652230
  C    -11.905190   -2.422070    8.833590
  H     -1.594070   -0.961800    3.920750
  H      1.016830   -1.276230   -0.344970
  H      0.311510   -2.758520    4.921280
  H     -2.796700    2.682890   -1.038310
  H     -4.068900    7.103360   -0.638940
  H     -5.322800    4.489960    4.785480
  H     -8.866470    8.837810    2.584600
  H    -10.260100    9.482960    4.661600
  H    -11.555430    8.390180    6.602130
  H    -12.519650    6.884320    8.177450
  H    -13.254780    4.818770    9.527640
  H    -12.980910    2.266180    9.585130
  H    -10.164640   -1.441960    6.356640
  H    -11.660590   -3.447650    8.650210

 Total Charge           Charge          ....    0
 Multiplicity           Mult            ....    1
 Number of Electrons    NEL             ....  462
 Basis Dimension        Dim             ....  930

ORBITAL ENERGIES
----------------

  NO   OCC          E(Eh)            E(eV)
   0   2.0000    -482.894234    -13140.2201
   1   2.0000     -88.986026     -2421.4329
   2   2.0000     -88.974986     -2421.1325
   3   2.0000     -88.948443     -2420.4102
   4   2.0000     -88.941177     -2420.2125
   5   2.0000     -62.571936     -1702.6690
   6   2.0000     -56.405897     -1534.8825
   7   2.0000     -56.403158     -1534.8079
   8   2.0000     -56.403135     -1534.8073
   9   2.0000     -19.342627      -526.3396
  10   2.0000     -19.327529      -525.9288
  11   2.0000     -19.308017      -525.3979
  12   2.0000     -19.281622      -524.6796
  13   2.0000     -19.264171      -524.2047
  14   2.0000     -19.242716      -523.6209
  15   2.0000     -19.240376      -523.5572
  16   2.0000     -19.231014      -523.3025
  17   2.0000     -19.224565      -523.1270
  18   2.0000     -19.206976      -522.6484
  19   2.0000     -14.654248      -398.7624
  20   2.0000     -14.485614      -394.1736
  21   2.0000     -14.459921      -393.4745
  22   2.0000     -14.429182      -392.6380
  23   2.0000     -14.426379      -392.5617
  24   2.0000     -10.430884      -283.8388
  25   2.0000     -10.412308      -283.3333
  26   2.0000     -10.385700      -282.6093
  27   2.0000     -10.383533      -282.5503
  28   2.0000     -10.380823      -282.4766
  29   2.0000     -10.370326      -282.1909
  30   2.0000     -10.369448      -282.1670
  31   2.0000     -10.360308      -281.9183
  32   2.0000     -10.355511      -281.7878
  33   2.0000     -10.346537      -281.5436
  34   2.0000     -10.344729      -281.4944
  35   2.0000     -10.337788      -281.3055
  36   2.0000     -10.335892      -281.2539
  37   2.0000     -10.330670      -281.1118
  38   2.0000     -10.327601      -281.0283
  39   2.0000     -10.325874      -280.9813
  40   2.0000     -10.324390      -280.9409
  41   2.0000     -10.322001      -280.8759
  42   2.0000     -10.319705      -280.8134
  43   2.0000     -10.319354      -280.8039
  44   2.0000     -10.318090      -280.7695
  45   2.0000     -10.316408      -280.7237
  46   2.0000     -10.313552      -280.6460
  47   2.0000     -10.313318      -280.6396
  48   2.0000     -10.313252      -280.6379
  49   2.0000     -10.311748      -280.5969
  50   2.0000     -10.311354      -280.5862
  51   2.0000     -10.311246      -280.5833
  52   2.0000     -10.310626      -280.5664
  53   2.0000     -10.306542      -280.4553
  54   2.0000     -10.306008      -280.4407
  55   2.0000     -10.300721      -280.2969
  56   2.0000     -10.296593      -280.1846
  57   2.0000     -10.291870      -280.0560
  58   2.0000     -10.291662      -280.0504
  59   2.0000     -10.289718      -279.9975
  60   2.0000     -10.288084      -279.9530
  61   2.0000     -10.286195      -279.9016
  62   2.0000     -10.281103      -279.7630
  63   2.0000      -8.801375      -239.4976
  64   2.0000      -8.082009      -219.9226
  65   2.0000      -8.069504      -219.5824
  66   2.0000      -8.044671      -218.9066
  67   2.0000      -8.037520      -218.7120
  68   2.0000      -6.637703      -180.6211
  69   2.0000      -6.623114      -180.2241
  70   2.0000      -6.622864      -180.2173
  71   2.0000      -6.051699      -164.6751
  72   2.0000      -6.047408      -164.5583
  73   2.0000      -6.043236      -164.4448
  74   2.0000      -6.038827      -164.3248
  75   2.0000      -6.034389      -164.2041
  76   2.0000      -6.031971      -164.1383
  77   2.0000      -6.014473      -163.6621
  78   2.0000      -6.010374      -163.5506
  79   2.0000      -6.007360      -163.4686
  80   2.0000      -6.005468      -163.4171
  81   2.0000      -6.003281      -163.3576
  82   2.0000      -5.998136      -163.2176
  83   2.0000      -2.753606       -74.9294
  84   2.0000      -2.749473       -74.8170
  85   2.0000      -2.749277       -74.8116
  86   2.0000      -2.737681       -74.4961
  87   2.0000      -2.737674       -74.4959
  88   2.0000      -1.325721       -36.0747
  89   2.0000      -1.287333       -35.0301
  90   2.0000      -1.266911       -34.4744
  91   2.0000      -1.227967       -33.4147
  92   2.0000      -1.210662       -32.9438
  93   2.0000      -1.193479       -32.4762
  94   2.0000      -1.148043       -31.2398
  95   2.0000      -1.142098       -31.0781
  96   2.0000      -1.115348       -30.3502
  97   2.0000      -1.097411       -29.8621
  98   2.0000      -1.035761       -28.1845
  99   2.0000      -1.025141       -27.8955
 100   2.0000      -1.006571       -27.3902
 101   2.0000      -1.004465       -27.3329
 102   2.0000      -1.001123       -27.2420
 103   2.0000      -1.000045       -27.2126
 104   2.0000      -0.992945       -27.0194
 105   2.0000      -0.979066       -26.6417
 106   2.0000      -0.968568       -26.3561
 107   2.0000      -0.959175       -26.1005
 108   2.0000      -0.945599       -25.7311
 109   2.0000      -0.934203       -25.4210
 110   2.0000      -0.920496       -25.0480
 111   2.0000      -0.912267       -24.8240
 112   2.0000      -0.901703       -24.5366
 113   2.0000      -0.900511       -24.5042
 114   2.0000      -0.897849       -24.4317
 115   2.0000      -0.883097       -24.0303
 116   2.0000      -0.866012       -23.5654
 117   2.0000      -0.863593       -23.4996
 118   2.0000      -0.849076       -23.1045
 119   2.0000      -0.840896       -22.8819
 120   2.0000      -0.831876       -22.6365
 121   2.0000      -0.821003       -22.3406
 122   2.0000      -0.804231       -21.8842
 123   2.0000      -0.795957       -21.6591
 124   2.0000      -0.787043       -21.4165
 125   2.0000      -0.781856       -21.2754
 126   2.0000      -0.774760       -21.0823
 127   2.0000      -0.771948       -21.0058
 128   2.0000      -0.752797       -20.4847
 129   2.0000      -0.738664       -20.1001
 130   2.0000      -0.728079       -19.8120
 131   2.0000      -0.707065       -19.2402
 132   2.0000      -0.706342       -19.2205
 133   2.0000      -0.702629       -19.1195
 134   2.0000      -0.699200       -19.0262
 135   2.0000      -0.697333       -18.9754
 136   2.0000      -0.678866       -18.4729
 137   2.0000      -0.672895       -18.3104
 138   2.0000      -0.672647       -18.3037
 139   2.0000      -0.660302       -17.9677
 140   2.0000      -0.652242       -17.7484
 141   2.0000      -0.643956       -17.5229
 142   2.0000      -0.639348       -17.3975
 143   2.0000      -0.636488       -17.3197
 144   2.0000      -0.635148       -17.2833
 145   2.0000      -0.625471       -17.0199
 146   2.0000      -0.622657       -16.9434
 147   2.0000      -0.621686       -16.9169
 148   2.0000      -0.615076       -16.7371
 149   2.0000      -0.610819       -16.6212
 150   2.0000      -0.604465       -16.4483
 151   2.0000      -0.599464       -16.3122
 152   2.0000      -0.599142       -16.3035
 153   2.0000      -0.592845       -16.1321
 154   2.0000      -0.588029       -16.0011
 155   2.0000      -0.586894       -15.9702
 156   2.0000      -0.583597       -15.8805
 157   2.0000      -0.571647       -15.5553
 158   2.0000      -0.568979       -15.4827
 159   2.0000      -0.565005       -15.3746
 160   2.0000      -0.564972       -15.3737
 161   2.0000      -0.559651       -15.2289
 162   2.0000      -0.555431       -15.1140
 163   2.0000      -0.554108       -15.0780
 164   2.0000      -0.551436       -15.0053
 165   2.0000      -0.550035       -14.9672
 166   2.0000      -0.545150       -14.8343
 167   2.0000      -0.538863       -14.6632
 168   2.0000      -0.538758       -14.6603
 169   2.0000      -0.536860       -14.6087
 170   2.0000      -0.523120       -14.2348
 171   2.0000      -0.521393       -14.1878
 172   2.0000      -0.519570       -14.1382
 173   2.0000      -0.513959       -13.9855
 174   2.0000      -0.511630       -13.9222
 175   2.0000      -0.509391       -13.8612
 176   2.0000      -0.506411       -13.7801
 177   2.0000      -0.505229       -13.7480
 178   2.0000      -0.502992       -13.6871
 179   2.0000      -0.499388       -13.5890
 180   2.0000      -0.494160       -13.4468
 181   2.0000      -0.491955       -13.3868
 182   2.0000      -0.490227       -13.3398
 183   2.0000      -0.485797       -13.2192
 184   2.0000      -0.484876       -13.1941
 185   2.0000      -0.481590       -13.1047
 186   2.0000      -0.472661       -12.8618
 187   2.0000      -0.469821       -12.7845
 188   2.0000      -0.468532       -12.7494
 189   2.0000      -0.459886       -12.5141
 190   2.0000      -0.458844       -12.4858
 191   2.0000      -0.456254       -12.4153
 192   2.0000      -0.454328       -12.3629
 193   2.0000      -0.452767       -12.3204
 194   2.0000      -0.449952       -12.2438
 195   2.0000      -0.443193       -12.0599
 196   2.0000      -0.440005       -11.9731
 197   2.0000      -0.436670       -11.8824
 198   2.0000      -0.432962       -11.7815
 199   2.0000      -0.431950       -11.7540
 200   2.0000      -0.423246       -11.5171
 201   2.0000      -0.421529       -11.4704
 202   2.0000      -0.418849       -11.3975
 203   2.0000      -0.415112       -11.2958
 204   2.0000      -0.410919       -11.1817
 205   2.0000      -0.406649       -11.0655
 206   2.0000      -0.405328       -11.0295
 207   2.0000      -0.401269       -10.9191
 208   2.0000      -0.395772       -10.7695
 209   2.0000      -0.394355       -10.7310
 210   2.0000      -0.390996       -10.6395
 211   2.0000      -0.388005       -10.5581
 212   2.0000      -0.383263       -10.4291
 213   2.0000      -0.379878       -10.3370
 214   2.0000      -0.379487       -10.3264
 215   2.0000      -0.376190       -10.2367
 216   2.0000      -0.372828       -10.1452
 217   2.0000      -0.370294       -10.0762
 218   2.0000      -0.368254       -10.0207
 219   2.0000      -0.363932        -9.9031
 220   2.0000      -0.353137        -9.6093
 221   2.0000      -0.346914        -9.4400
 222   2.0000      -0.339506        -9.2384
 223   2.0000      -0.335755        -9.1363
 224   2.0000      -0.326573        -8.8865
 225   2.0000      -0.324737        -8.8365
 226   2.0000      -0.321012        -8.7352
 227   2.0000      -0.312426        -8.5015
 228   2.0000      -0.304077        -8.2744
 229   2.0000      -0.284060        -7.7297
 230   2.0000      -0.219974        -5.9858
 231   0.0000      -0.109482        -2.9792
 232   0.0000      -0.078509        -2.1363
 233   0.0000      -0.073465        -1.9991
 234   0.0000      -0.056662        -1.5418
 235   0.0000      -0.027162        -0.7391

MULLIKEN ATOMIC CHARGES
-----------------------
   0 C :    0.284278
   1 C :   -0.320531
   2 C :   -0.185555
   3 N :    0.161158
   4 C :   -0.197401
   5 N :    0.179084
   6 C :    0.026038
   7 C :   -0.026803
   8 C :   -0.064571
   9 C :    0.115816
  10 C :   -0.088471
  11 C :   -0.017988
  12 S :    0.193846
  13 C :   -0.123868
  14 C :    0.042335
  15 Br:    0.033526
  16 C :    0.144138
  17 O :   -0.120009
  18 C :   -0.045908
  19 C :   -0.051286
  20 C :    0.149260
  21 C :   -0.039998
  22 C :    0.139928
  23 O :   -0.185817
  24 O :   -0.157944
  25 C :   -0.022986
  26 N :    0.058166
  27 O :   -0.124936
  28 C :    0.153472
  29 C :   -0.084345
  30 C :    0.126914
  31 O :   -0.176441
  32 O :   -0.166775
  33 C :    0.000737
  34 N :    0.003342
  35 O :   -0.143703
  36 C :   -0.048810
  37 C :    0.016776
  38 C :    0.032382
  39 C :    0.042294
  40 C :   -0.060035
  41 S :    0.113766
  42 C :   -0.040538
  43 C :    0.031239
  44 C :    0.038945
  45 C :   -0.025987
  46 S :    0.062276
  47 C :   -0.009971
  48 C :   -0.193237
  49 S :    0.146642
  50 C :   -0.131198
  51 C :    0.124527
  52 C :    0.192896
  53 O :   -0.185249
  54 C :    0.231618
  55 N :    0.274094
  56 O :   -0.251196
  57 O :   -0.230715
  58 C :   -0.069237
  59 H :   -0.006381
  60 H :   -0.002287
  61 H :   -0.000326
  62 H :    0.064953
  63 H :    0.202008
  64 H :    0.195186
  65 H :    0.007552
  66 H :   -0.007861
  67 H :   -0.010888
  68 H :   -0.012797
  69 H :   -0.007872
  70 H :    0.005304
  71 H :    0.033542
  72 H :    0.011885
Sum of atomic charges:   -0.0000000

LOEWDIN ATOMIC CHARGES
----------------------
   0 C :    0.068760
   1 C :   -0.119007
   2 C :   -0.017247
   3 N :   -0.039324
   4 C :   -0.025847
   5 N :   -0.030748
   6 C :   -0.021152
   7 C :   -0.052566
   8 C :    0.025588
   9 C :   -0.029439
  10 C :   -0.141263
  11 C :   -0.007745
  12 S :    0.438583
  13 C :   -0.268379
  14 C :   -0.069847
  15 Br:    0.144500
  16 C :    0.078983
  17 O :   -0.119411
  18 C :   -0.049654
  19 C :    0.045409
  20 C :    0.063333
  21 C :   -0.103618
  22 C :    0.083458
  23 O :   -0.171782
  24 O :   -0.021003
  25 C :   -0.038612
  26 N :    0.008008
  27 O :    0.079624
  28 C :    0.058934
  29 C :   -0.128441
  30 C :    0.073715
  31 O :   -0.172858
  32 O :   -0.032678
  33 C :   -0.021376
  34 N :   -0.035819
  35 O :    0.057748
  36 C :   -0.078135
  37 C :   -0.112705
  38 C :   -0.028572
  39 C :   -0.022089
  40 C :   -0.175613
  41 S :    0.400229
  42 C :   -0.173618
  43 C :   -0.033822
  44 C :   -0.027768
  45 C :   -0.151383
  46 S :    0.363579
  47 C :   -0.069154
  48 C :   -0.204820
  49 S :    0.478455
  50 C :   -0.190617
  51 C :   -0.084969
  52 C :    0.019528
  53 O :    0.000773
  54 C :    0.024527
  55 N :    0.271967
  56 O :   -0.211727
  57 O :   -0.192427
  58 C :   -0.008851
  59 H :    0.042642
  60 H :    0.042143
  61 H :    0.040179
  62 H :    0.058591
  63 H :    0.110538
  64 H :    0.104629
  65 H :    0.041925
  66 H :    0.034779
  67 H :    0.033121
  68 H :    0.032439
  69 H :    0.035322
  70 H :    0.046226
  71 H :    0.029188
  72 H :    0.046661

  Mayer bond orders larger than 0.100000
B(  0-C ,  1-C ) :   1.6750 B(  0-C ,  6-C ) :   1.0189 B(  0-C , 18-C ) :   1.0263
B(  1-C ,  2-C ) :   1.1368 B(  1-C ,  4-C ) :   1.1356 B(  2-C ,  3-N ) :   2.9766
B(  4-C ,  5-N ) :   2.9976 B(  6-C ,  7-C ) :   1.2672 B(  6-C , 11-C ) :   1.4008
B(  7-C ,  8-C ) :   1.4229 B(  7-C , 16-C ) :   0.9470 B(  8-C ,  9-C ) :   1.2525
B(  8-C , 59-H ) :   1.0160 B(  9-C , 10-C ) :   1.2946 B(  9-C , 14-C ) :   1.1660
B( 10-C , 11-C ) :   1.3396 B( 10-C , 12-S ) :   1.0891 B( 11-C , 60-H ) :   0.9800
B( 12-S , 13-C ) :   1.0873 B( 13-C , 14-C ) :   1.6154 B( 13-C , 15-Br) :   1.0253
B( 14-C , 61-H ) :   1.0000 B( 16-C , 17-O ) :   2.2698 B( 16-C , 18-C ) :   0.9059
B( 18-C , 19-C ) :   1.6859 B( 19-C , 20-C ) :   1.1142 B( 19-C , 62-H ) :   0.9197
B( 20-C , 21-C ) :   1.4283 B( 20-C , 27-O ) :   1.1925 B( 21-C , 22-C ) :   0.9321
B( 21-C , 25-C ) :   1.2109 B( 22-C , 23-O ) :   2.1188 B( 22-C , 24-O ) :   1.3083
B( 24-O , 63-H ) :   0.9350 B( 25-C , 26-N ) :   1.7010 B( 25-C , 28-C ) :   0.9420
B( 26-N , 27-O ) :   1.0338 B( 28-C , 29-C ) :   1.5103 B( 28-C , 34-N ) :   0.1051
B( 28-C , 35-O ) :   1.2255 B( 29-C , 30-C ) :   0.9406 B( 29-C , 33-C ) :   1.1732
B( 30-C , 31-O ) :   2.1453 B( 30-C , 32-O ) :   1.2889 B( 32-O , 64-H ) :   0.9382
B( 33-C , 34-N ) :   1.6768 B( 33-C , 36-C ) :   1.0403 B( 34-N , 35-O ) :   0.9991
B( 36-C , 37-C ) :   1.6817 B( 36-C , 65-H ) :   0.9654 B( 37-C , 38-C ) :   1.1081
B( 37-C , 41-S ) :   1.0465 B( 38-C , 39-C ) :   1.6386 B( 38-C , 66-H ) :   0.9974
B( 39-C , 40-C ) :   1.1526 B( 39-C , 67-H ) :   0.9925 B( 40-C , 41-S ) :   1.0661
B( 40-C , 42-C ) :   1.5483 B( 42-C , 43-C ) :   1.1686 B( 42-C , 46-S ) :   1.0375
B( 43-C , 44-C ) :   1.6111 B( 43-C , 68-H ) :   0.9924 B( 44-C , 45-C ) :   1.1289
B( 44-C , 69-H ) :   1.0006 B( 45-C , 46-S ) :   1.0323 B( 45-C , 47-C ) :   1.5834
B( 47-C , 48-C ) :   1.1676 B( 47-C , 70-H ) :   0.9736 B( 48-C , 49-S ) :   1.1082
B( 48-C , 50-C ) :   0.1091 B( 48-C , 52-C ) :   1.4460 B( 49-S , 50-C ) :   1.1915
B( 50-C , 51-C ) :   1.4150 B( 50-C , 71-H ) :   0.9758 B( 51-C , 52-C ) :   1.2299
B( 51-C , 58-C ) :   1.0603 B( 52-C , 53-O ) :   1.1213 B( 53-O , 54-C ) :   1.1227
B( 54-C , 55-N ) :   0.9165 B( 54-C , 58-C ) :   1.5780 B( 55-N , 56-O ) :   1.5323
B( 55-N , 57-O ) :   1.5153 B( 56-O , 57-O ) :   0.2793 B( 58-C , 72-H ) :   1.0258

-----------------------------------------------------------------------------
         ABSORPTION SPECTRUM VIA TRANSITION ELECTRIC DIPOLE MOMENTS
-----------------------------------------------------------------------------
State   Energy  Wavelength   fosc         T2         TX        TY        TZ
        (cm-1)    (nm)                  (au**2)     (au)      (au)      (au)
-----------------------------------------------------------------------------
   0   14354.7    696.6   0.001258696   0.02887  -0.12857  -0.04204   0.10281
   1   17016.5    587.7   0.950002402  18.37931   1.38003   3.40397  -2.21084
   2   20924.5    477.9   0.362774009   5.70763  -1.20358  -1.21949   1.66489
   3   22690.6    440.7   0.000132635   0.00192  -0.00224   0.03940  -0.01916
   4   25505.5    392.1   0.115364601   1.48907   0.04402   0.03928  -1.21885
   5   25842.9    387.0   0.075289226   0.95911  -0.49396   0.73822  -0.41248
   6   26234.1    381.2   0.164121613   2.05956  -0.95573   0.99267  -0.40094
   7   27617.0    362.1   0.064418267   0.76791   0.54137  -0.09281  -0.68280
   8   28468.3    351.3   0.007153362   0.08272  -0.16983   0.20886  -0.10127
   9   28559.7    350.1   0.022981592   0.26491   0.11157  -0.24016   0.44135
  10   30134.6    331.8   0.719081850   7.85576   1.84011  -2.07296  -0.41544
  11   30771.8    325.0   0.197295590   2.11076  -0.46801   1.25560   0.56142
  12   32234.6    310.2   0.690182484   7.04882   1.24190  -1.57347   1.74089
  13   32409.3    308.6   0.276793550   2.81165  -0.57942  -0.33480   1.53748
  14   32677.7    306.0   0.020102050   0.20252   0.26092   0.01368  -0.36640
  15   32873.8    304.2   0.106502594   1.06656   0.27716  -0.19271  -0.97602
  16   32894.2    304.0   0.000007749   0.00008   0.00740  -0.00006   0.00478
  17   33055.6    302.5   0.000255103   0.00254  -0.03238   0.02985  -0.02453
  18   33563.0    297.9   0.055884086   0.54815   0.16319   0.65609  -0.30178
  19   34600.6    289.0   0.000994383   0.00946   0.08956   0.03631  -0.01098
  20   34783.7    287.5   0.004591352   0.04346   0.19506  -0.02082  -0.07052
  21   35415.0    282.4   0.168466835   1.56604  -0.49778   1.11462   0.27544
  22   35528.7    281.5   0.010368135   0.09607  -0.01604  -0.27449  -0.14307
  23   35939.1    278.2   0.171257952   1.56877   0.83188  -0.85118   0.39017
  24   36283.4    275.6   0.033460500   0.30360  -0.27445   0.45357  -0.15018
  25   36763.5    272.0   0.005851534   0.05240  -0.16270   0.15671  -0.03703
  26   37302.6    268.1   0.291866349   2.57585   0.55298   1.19649  -0.91569
  27   37877.2    264.0   0.220310680   1.91484  -1.01180   0.56322   0.75756
  28   38055.4    262.8   0.160599249   1.38932   0.52502   0.31446  -1.00737
  29   38868.0    257.3   0.027528382   0.23317  -0.35686  -0.01606   0.32490
  30   39628.6    252.3   0.114609051   0.95211   0.55674   0.24760  -0.76213
  31   39790.8    251.3   0.000145842   0.00121   0.00636  -0.01983   0.02780

FINAL SINGLE POINT ENERGY     -6683.488315363016

DIPOLE MOMENT
-------------
                                X             Y             Z
Electronic contribution:    103.57710     -76.73681      -5.97663
Nuclear contribution   :   -101.86195      77.68521       7.16942
                        -----------------------------------------
Total Dipole Moment    :      1.71514       0.94840       1.19278
                        -----------------------------------------
Magnitude (a.u.)       :      2.29432
Magnitude (Debye)      :      5.83170

Rotational constants in cm-1:     0.001021     0.000452     0.000332
Rotational constants in MHz :    30.617794    13.551280     9.962097

                             ****ORCA TERMINATED NORMALLY****
TOTAL RUN TIME: 0 days 0 hours 5 minutes 12 seconds 819 msec
