                         Program Version 4.2.0 -  RELEASE  -
|  1> # ORCA input file
|  2> # SCF done       -163.957081791317          0.000686042489
|  3> ! CAM-B3LYP def2-SVP def2/J RIJCOSX Grid4 TightSCF
|  4> %maxcore 5000
|  5> %tddft
|  6>     Mode sTDDFT
|  7>     Ethresh 5.0
|  8>     maxcore 5000
|  9> end
| 10>
| 11> %pal
| 12>   nprocs 6
| 13>   end
| 14> * xyz 0 1
| 15>    C       -5.47829        -9.30827         4.70467
| 16>    C       -5.22320        -8.21180         3.97931
| 17>    C       -6.16764        -7.36672         3.30362
| 18>    C       -5.61641        -6.32622         2.64367
| 19>    C       -4.19680        -6.25331         2.73654
| 20>    S       -3.58920        -7.58241         3.71265
| 21>    C       -3.36588        -5.32293         2.17220
| 22>    C       -3.72300        -4.19849         1.37703
| 23>    C       -2.66598        -3.46851         0.95411
| 24>    C       -1.39191        -3.95555         1.38424
| 25>    S       -1.62372        -5.38839         2.37634
| 26>    C       -0.19648        -3.43825         1.00045
| 27>    C        1.11649        -3.88461         1.36855
| 28>    C        1.43102        -4.46289         2.57227
| 29>    O        0.60619        -4.57797         3.62308
| 30>    C        1.00140        -5.43488         4.66785
| 31>    S        3.12029        -4.89015         2.68525
| 32>    C        3.40675        -4.28167         1.07997
| 33>    O        4.62646        -4.33578         0.51957
| 34>    C        5.66526        -4.89952         1.28576
| 35>    C        2.27079        -3.76657         0.49858
| 36>    C        2.18016        -3.22471        -0.82379
| 37>    C        3.18239        -3.14312        -1.72336
| 38>    C        3.09278        -2.60154        -3.03841
| 39>    S        4.44023        -2.87842        -4.10206
| 40>    C        3.70964        -2.00150        -5.41096
| 41>    C        2.46753        -1.52310        -5.02207
| 42>    C        2.12286        -1.85623        -3.69574
| 43>    S        0.67193        -1.30376        -2.86091
| 44>    C       -0.42654        -0.52688        -3.99694
| 45>    O       -1.43129        -0.04950        -3.53920
| 46>    C       -0.17265        -0.46397        -5.48227
| 47>    O       -1.05809        -0.14477        -6.22988
| 48>    S        1.42845        -0.70150        -6.18539
| 49>    C        4.41855        -1.93219        -6.64505
| 50>    C        4.18729        -1.08354        -7.66463
| 51>    C        4.93480        -1.08902        -8.89686
| 52>    C        5.18863         0.08937        -9.55418
| 53>    O        4.72453         1.29226        -9.17673
| 54>    C        5.10022         2.40050        -9.95847
| 55>    S        6.27240        -0.11258       -10.90285
| 56>    C        6.35783        -1.82592       -10.59315
| 57>    O        7.06678        -2.66187       -11.36911
| 58>    C        7.77750        -2.09793       -12.44359
| 59>    C        5.58110        -2.21520        -9.52765
| 60>    C        5.41125        -3.61380        -9.23671
| 61>    C        4.29000        -4.16247        -8.70993
| 62>    C        4.06290        -5.53082        -8.42672
| 63>    C        4.92385        -6.59217        -8.48100
| 64>    C        4.56806        -7.93364        -8.16170
| 65>    C        5.57868        -8.83206        -8.26166
| 66>    C        6.81408        -8.26539        -8.66837
| 67>    S        6.62633        -6.53791        -8.91828
| 68>    C        8.01109        -8.90614        -8.86458
| 69>    C        8.28604       -10.29392        -8.71014
| 70>    C        9.56404       -10.64375        -8.97281
| 71>    C       10.41167        -9.55203        -9.35961
| 72>    S        9.46380        -8.05600        -9.36479
| 73>    C       11.71302        -9.59654        -9.67509
| 74>    H       -6.48763        -9.65498         4.83918
| 75>    H       -4.69242        -9.87369         5.17067
| 76>    H       -7.22082        -7.58200         3.34529
| 77>    H       -6.17574        -5.59697         2.08450
| 78>    H       -4.74858        -3.97028         1.14782
| 79>    H       -2.73824        -2.58916         0.33794
| 80>    H       -0.24090        -2.60749         0.30881
| 81>    H        0.18660        -5.42539         5.38814
| 82>    H        1.92197        -5.07385         5.13963
| 83>    H        1.15848        -6.45459         4.30429
| 84>    H        6.56089        -4.83943         0.67095
| 85>    H        5.45204        -5.94510         1.52987
| 86>    H        5.81471        -4.34133         2.21573
| 87>    H        1.19807        -2.87958        -1.10204
| 88>    H        4.15456        -3.53913        -1.47185
| 89>    H        5.22999        -2.64220        -6.73155
| 90>    H        3.47578        -0.27705        -7.56674
| 91>    H        4.61475         3.26517        -9.51103
| 92>    H        4.76714         2.28380       -10.99514
| 93>    H        6.18660         2.53877        -9.94865
| 94>    H        7.09865        -1.62062       -13.15851
| 95>    H        8.30031        -2.92146       -12.92523
| 96>    H        8.50122        -1.35455       -12.09206
| 97>    H        6.22209        -4.24164        -9.57554
| 98>    H        3.45791        -3.50718        -8.48982
| 99>    H        3.05866        -5.77800        -8.10341
|100>    H        3.56336        -8.18164        -7.86575
|101>    H        5.47817        -9.88227        -8.05351
|102>    H        7.51852       -10.98457        -8.40785
|103>    H        9.95445       -11.64412        -8.90948
|104>    H       12.25024       -10.52829        -9.65773
|105>    H       12.25805        -8.71342        -9.95324
|106> *
|107>
|108>                          ****END OF INPUT****

CARTESIAN COORDINATES (ANGSTROEM)
---------------------------------
  C     -5.478290   -9.308270    4.704670
  C     -5.223200   -8.211800    3.979310
  C     -6.167640   -7.366720    3.303620
  C     -5.616410   -6.326220    2.643670
  C     -4.196800   -6.253310    2.736540
  S     -3.589200   -7.582410    3.712650
  C     -3.365880   -5.322930    2.172200
  C     -3.723000   -4.198490    1.377030
  C     -2.665980   -3.468510    0.954110
  C     -1.391910   -3.955550    1.384240
  S     -1.623720   -5.388390    2.376340
  C     -0.196480   -3.438250    1.000450
  C      1.116490   -3.884610    1.368550
  C      1.431020   -4.462890    2.572270
  O      0.606190   -4.577970    3.623080
  C      1.001400   -5.434880    4.667850
  S      3.120290   -4.890150    2.685250
  C      3.406750   -4.281670    1.079970
  O      4.626460   -4.335780    0.519570
  C      5.665260   -4.899520    1.285760
  C      2.270790   -3.766570    0.498580
  C      2.180160   -3.224710   -0.823790
  C      3.182390   -3.143120   -1.723360
  C      3.092780   -2.601540   -3.038410
  S      4.440230   -2.878420   -4.102060
  C      3.709640   -2.001500   -5.410960
  C      2.467530   -1.523100   -5.022070
  C      2.122860   -1.856230   -3.695740
  S      0.671930   -1.303760   -2.860910
  C     -0.426540   -0.526880   -3.996940
  O     -1.431290   -0.049500   -3.539200
  C     -0.172650   -0.463970   -5.482270
  O     -1.058090   -0.144770   -6.229880
  S      1.428450   -0.701500   -6.185390
  C      4.418550   -1.932190   -6.645050
  C      4.187290   -1.083540   -7.664630
  C      4.934800   -1.089020   -8.896860
  C      5.188630    0.089370   -9.554180
  O      4.724530    1.292260   -9.176730
  C      5.100220    2.400500   -9.958470
  S      6.272400   -0.112580  -10.902850
  C      6.357830   -1.825920  -10.593150
  O      7.066780   -2.661870  -11.369110
  C      7.777500   -2.097930  -12.443590
  C      5.581100   -2.215200   -9.527650
  C      5.411250   -3.613800   -9.236710
  C      4.290000   -4.162470   -8.709930
  C      4.062900   -5.530820   -8.426720
  C      4.923850   -6.592170   -8.481000
  C      4.568060   -7.933640   -8.161700
  C      5.578680   -8.832060   -8.261660
  C      6.814080   -8.265390   -8.668370
  S      6.626330   -6.537910   -8.918280
  C      8.011090   -8.906140   -8.864580
  C      8.286040  -10.293920   -8.710140
  C      9.564040  -10.643750   -8.972810
  C     10.411670   -9.552030   -9.359610
  S      9.463800   -8.056000   -9.364790
  C     11.713020   -9.596540   -9.675090
  H     -6.487630   -9.654980    4.839180
  H     -4.692420   -9.873690    5.170670
  H     -7.220820   -7.582000    3.345290
  H     -6.175740   -5.596970    2.084500
  H     -4.748580   -3.970280    1.147820
  H     -2.738240   -2.589160    0.337940
  H     -0.240900   -2.607490    0.308810
  H      0.186600   -5.425390    5.388140
  H      1.921970   -5.073850    5.139630
  H      1.158480   -6.454590    4.304290
  H      6.560890   -4.839430    0.670950
  H      5.452040   -5.945100    1.529870
  H      5.814710   -4.341330    2.215730
  H      1.198070   -2.879580   -1.102040
  H      4.154560   -3.539130   -1.471850
  H      5.229990   -2.642200   -6.731550
  H      3.475780   -0.277050   -7.566740
  H      4.614750    3.265170   -9.511030
  H      4.767140    2.283800  -10.995140
  H      6.186600    2.538770   -9.948650
  H      7.098650   -1.620620  -13.158510
  H      8.300310   -2.921460  -12.925230
  H      8.501220   -1.354550  -12.092060
  H      6.222090   -4.241640   -9.575540
  H      3.457910   -3.507180   -8.489820
  H      3.058660   -5.778000   -8.103410
  H      3.563360   -8.181640   -7.865750
  H      5.478170   -9.882270   -8.053510
  H      7.518520  -10.984570   -8.407850
  H      9.954450  -11.644120   -8.909480
  H     12.250240  -10.528290   -9.657730
  H     12.258050   -8.713420   -9.953240

 Total Charge           Charge          ....    0
 Multiplicity           Mult            ....    1
 Number of Electrons    NEL             ....  488
 Basis Dimension        Dim             .... 1022

ORBITAL ENERGIES
----------------

  NO   OCC          E(Eh)            E(eV)
   0   2.0000     -88.960759     -2420.7453
   1   2.0000     -88.959516     -2420.7115
   2   2.0000     -88.955767     -2420.6095
   3   2.0000     -88.954049     -2420.5627
   4   2.0000     -88.953016     -2420.5346
   5   2.0000     -88.932014     -2419.9631
   6   2.0000     -88.927697     -2419.8457
   7   2.0000     -88.924267     -2419.7523
   8   2.0000     -88.924203     -2419.7506
   9   2.0000     -19.265220      -524.2333
  10   2.0000     -19.259234      -524.0704
  11   2.0000     -19.257685      -524.0282
  12   2.0000     -19.255042      -523.9563
  13   2.0000     -19.226429      -523.1777
  14   2.0000     -19.226005      -523.1662
  15   2.0000     -10.390529      -282.7407
  16   2.0000     -10.389868      -282.7227
  17   2.0000     -10.349107      -281.6135
  18   2.0000     -10.346886      -281.5531
  19   2.0000     -10.345525      -281.5160
  20   2.0000     -10.343893      -281.4716
  21   2.0000     -10.334717      -281.2219
  22   2.0000     -10.331475      -281.1337
  23   2.0000     -10.330263      -281.1008
  24   2.0000     -10.326272      -280.9921
  25   2.0000     -10.310307      -280.5577
  26   2.0000     -10.310002      -280.5494
  27   2.0000     -10.304384      -280.3965
  28   2.0000     -10.302956      -280.3577
  29   2.0000     -10.297648      -280.2132
  30   2.0000     -10.297066      -280.1974
  31   2.0000     -10.296880      -280.1924
  32   2.0000     -10.293999      -280.1139
  33   2.0000     -10.293241      -280.0933
  34   2.0000     -10.291829      -280.0549
  35   2.0000     -10.290445      -280.0172
  36   2.0000     -10.289545      -279.9928
  37   2.0000     -10.280155      -279.7372
  38   2.0000     -10.276966      -279.6505
  39   2.0000     -10.274360      -279.5796
  40   2.0000     -10.272968      -279.5417
  41   2.0000     -10.272209      -279.5210
  42   2.0000     -10.270760      -279.4816
  43   2.0000     -10.270354      -279.4705
  44   2.0000     -10.269380      -279.4440
  45   2.0000     -10.269158      -279.4380
  46   2.0000     -10.268854      -279.4297
  47   2.0000     -10.268150      -279.4106
  48   2.0000     -10.267900      -279.4038
  49   2.0000     -10.267881      -279.4033
  50   2.0000     -10.266611      -279.3687
  51   2.0000     -10.266397      -279.3629
  52   2.0000     -10.265934      -279.3503
  53   2.0000     -10.265057      -279.3264
  54   2.0000     -10.263617      -279.2872
  55   2.0000     -10.260714      -279.2082
  56   2.0000     -10.259495      -279.1750
  57   2.0000     -10.256115      -279.0831
  58   2.0000     -10.253722      -279.0180
  59   2.0000      -8.057131      -219.2457
  60   2.0000      -8.055911      -219.2125
  61   2.0000      -8.051786      -219.1002
  62   2.0000      -8.050132      -219.0552
  63   2.0000      -8.048887      -219.0214
  64   2.0000      -8.027642      -218.4432
  65   2.0000      -8.024346      -218.3535
  66   2.0000      -8.020948      -218.2611
  67   2.0000      -8.019997      -218.2352
  68   2.0000      -6.026541      -163.9905
  69   2.0000      -6.025307      -163.9569
  70   2.0000      -6.022639      -163.8844
  71   2.0000      -6.021661      -163.8577
  72   2.0000      -6.021373      -163.8499
  73   2.0000      -6.020018      -163.8130
  74   2.0000      -6.018603      -163.7745
  75   2.0000      -6.018128      -163.7616
  76   2.0000      -6.017439      -163.7428
  77   2.0000      -6.016957      -163.7297
  78   2.0000      -6.015285      -163.6842
  79   2.0000      -6.014159      -163.6536
  80   2.0000      -6.012867      -163.6184
  81   2.0000      -6.011164      -163.5721
  82   2.0000      -6.010832      -163.5630
  83   2.0000      -5.997432      -163.1984
  84   2.0000      -5.994233      -163.1114
  85   2.0000      -5.993387      -163.0884
  86   2.0000      -5.990802      -163.0180
  87   2.0000      -5.990269      -163.0035
  88   2.0000      -5.989869      -162.9926
  89   2.0000      -5.988551      -162.9567
  90   2.0000      -5.986923      -162.9125
  91   2.0000      -5.985733      -162.8801
  92   2.0000      -5.984824      -162.8553
  93   2.0000      -5.981401      -162.7622
  94   2.0000      -5.980730      -162.7439
  95   2.0000      -1.171768       -31.8854
  96   2.0000      -1.167582       -31.7715
  97   2.0000      -1.164811       -31.6961
  98   2.0000      -1.164424       -31.6856
  99   2.0000      -1.163012       -31.6472
 100   2.0000      -1.131203       -30.7816
 101   2.0000      -0.998528       -27.1713
 102   2.0000      -0.979815       -26.6621
 103   2.0000      -0.976328       -26.5672
 104   2.0000      -0.970216       -26.4009
 105   2.0000      -0.969669       -26.3860
 106   2.0000      -0.956874       -26.0379
 107   2.0000      -0.952179       -25.9101
 108   2.0000      -0.917617       -24.9696
 109   2.0000      -0.911398       -24.8004
 110   2.0000      -0.892920       -24.2976
 111   2.0000      -0.883116       -24.0308
 112   2.0000      -0.878050       -23.8929
 113   2.0000      -0.873510       -23.7694
 114   2.0000      -0.865322       -23.5466
 115   2.0000      -0.853606       -23.2278
 116   2.0000      -0.845737       -23.0137
 117   2.0000      -0.842463       -22.9246
 118   2.0000      -0.833508       -22.6809
 119   2.0000      -0.830745       -22.6057
 120   2.0000      -0.829339       -22.5675
 121   2.0000      -0.818642       -22.2764
 122   2.0000      -0.815340       -22.1865
 123   2.0000      -0.814249       -22.1568
 124   2.0000      -0.811175       -22.0732
 125   2.0000      -0.807586       -21.9755
 126   2.0000      -0.802781       -21.8448
 127   2.0000      -0.798093       -21.7172
 128   2.0000      -0.782064       -21.2810
 129   2.0000      -0.768845       -20.9213
 130   2.0000      -0.758748       -20.6466
 131   2.0000      -0.744228       -20.2515
 132   2.0000      -0.736339       -20.0368
 133   2.0000      -0.734894       -19.9975
 134   2.0000      -0.711105       -19.3502
 135   2.0000      -0.704958       -19.1829
 136   2.0000      -0.700241       -19.0545
 137   2.0000      -0.693910       -18.8822
 138   2.0000      -0.674726       -18.3602
 139   2.0000      -0.669609       -18.2210
 140   2.0000      -0.658283       -17.9128
 141   2.0000      -0.653122       -17.7724
 142   2.0000      -0.649218       -17.6661
 143   2.0000      -0.643509       -17.5108
 144   2.0000      -0.636463       -17.3190
 145   2.0000      -0.634112       -17.2551
 146   2.0000      -0.624189       -16.9851
 147   2.0000      -0.617688       -16.8081
 148   2.0000      -0.616566       -16.7776
 149   2.0000      -0.611766       -16.6470
 150   2.0000      -0.609947       -16.5975
 151   2.0000      -0.603992       -16.4355
 152   2.0000      -0.597811       -16.2673
 153   2.0000      -0.597018       -16.2457
 154   2.0000      -0.588197       -16.0057
 155   2.0000      -0.584572       -15.9070
 156   2.0000      -0.582607       -15.8535
 157   2.0000      -0.581935       -15.8352
 158   2.0000      -0.576482       -15.6869
 159   2.0000      -0.571530       -15.5521
 160   2.0000      -0.568763       -15.4768
 161   2.0000      -0.568430       -15.4678
 162   2.0000      -0.560027       -15.2391
 163   2.0000      -0.559733       -15.2311
 164   2.0000      -0.558150       -15.1880
 165   2.0000      -0.554880       -15.0990
 166   2.0000      -0.545761       -14.8509
 167   2.0000      -0.545282       -14.8379
 168   2.0000      -0.540481       -14.7072
 169   2.0000      -0.537095       -14.6151
 170   2.0000      -0.536782       -14.6066
 171   2.0000      -0.534889       -14.5551
 172   2.0000      -0.532492       -14.4898
 173   2.0000      -0.522576       -14.2200
 174   2.0000      -0.514128       -13.9901
 175   2.0000      -0.513170       -13.9641
 176   2.0000      -0.510151       -13.8819
 177   2.0000      -0.503947       -13.7131
 178   2.0000      -0.499152       -13.5826
 179   2.0000      -0.496623       -13.5138
 180   2.0000      -0.494041       -13.4435
 181   2.0000      -0.492173       -13.3927
 182   2.0000      -0.489239       -13.3129
 183   2.0000      -0.483868       -13.1667
 184   2.0000      -0.483020       -13.1436
 185   2.0000      -0.482172       -13.1206
 186   2.0000      -0.480136       -13.0652
 187   2.0000      -0.476542       -12.9674
 188   2.0000      -0.474530       -12.9126
 189   2.0000      -0.472641       -12.8612
 190   2.0000      -0.471942       -12.8422
 191   2.0000      -0.470926       -12.8145
 192   2.0000      -0.468820       -12.7572
 193   2.0000      -0.465792       -12.6748
 194   2.0000      -0.463363       -12.6087
 195   2.0000      -0.461135       -12.5481
 196   2.0000      -0.458885       -12.4869
 197   2.0000      -0.453633       -12.3440
 198   2.0000      -0.450036       -12.2461
 199   2.0000      -0.445060       -12.1107
 200   2.0000      -0.444228       -12.0881
 201   2.0000      -0.442780       -12.0486
 202   2.0000      -0.441448       -12.0124
 203   2.0000      -0.436719       -11.8837
 204   2.0000      -0.434514       -11.8237
 205   2.0000      -0.433275       -11.7900
 206   2.0000      -0.426598       -11.6083
 207   2.0000      -0.421660       -11.4739
 208   2.0000      -0.416758       -11.3406
 209   2.0000      -0.414876       -11.2894
 210   2.0000      -0.414156       -11.2698
 211   2.0000      -0.409761       -11.1502
 212   2.0000      -0.408303       -11.1105
 213   2.0000      -0.405554       -11.0357
 214   2.0000      -0.404551       -11.0084
 215   2.0000      -0.400209       -10.8902
 216   2.0000      -0.397402       -10.8139
 217   2.0000      -0.394505       -10.7350
 218   2.0000      -0.393367       -10.7041
 219   2.0000      -0.388248       -10.5648
 220   2.0000      -0.385946       -10.5021
 221   2.0000      -0.380831       -10.3629
 222   2.0000      -0.379850       -10.3362
 223   2.0000      -0.377707       -10.2779
 224   2.0000      -0.374366       -10.1870
 225   2.0000      -0.369088       -10.0434
 226   2.0000      -0.359577        -9.7846
 227   2.0000      -0.358322        -9.7504
 228   2.0000      -0.352413        -9.5896
 229   2.0000      -0.332252        -9.0410
 230   2.0000      -0.326996        -8.8980
 231   2.0000      -0.324772        -8.8375
 232   2.0000      -0.322892        -8.7863
 233   2.0000      -0.321328        -8.7438
 234   2.0000      -0.311654        -8.4805
 235   2.0000      -0.305072        -8.3014
 236   2.0000      -0.296411        -8.0657
 237   2.0000      -0.286723        -7.8021
 238   2.0000      -0.277495        -7.5510
 239   2.0000      -0.261137        -7.1059
 240   2.0000      -0.249304        -6.7839
 241   2.0000      -0.223239        -6.0746
 242   2.0000      -0.208162        -5.6644
 243   2.0000      -0.204316        -5.5597
 244   0.0000      -0.054866        -1.4930
 245   0.0000      -0.047055        -1.2804
 246   0.0000      -0.044205        -1.2029
 247   0.0000      -0.026415        -0.7188
 248   0.0000       0.007500         0.2041

MULLIKEN ATOMIC CHARGES
-----------------------
   0 C :   -0.038742
   1 C :   -0.057242
   2 C :    0.044520
   3 C :    0.032880
   4 C :   -0.074666
   5 S :    0.060097
   6 C :   -0.051662
   7 C :    0.030408
   8 C :    0.030200
   9 C :   -0.010158
  10 S :    0.081856
  11 C :   -0.070109
  12 C :    0.084479
  13 C :   -0.034891
  14 O :   -0.280745
  15 C :    0.176640
  16 S :    0.015049
  17 C :   -0.031141
  18 O :   -0.289310
  19 C :    0.178168
  20 C :    0.120766
  21 C :   -0.054319
  22 C :    0.053292
  23 C :   -0.129984
  24 S :    0.149049
  25 C :   -0.134267
  26 C :   -0.035105
  27 C :   -0.033889
  28 S :    0.057986
  29 C :    0.086047
  30 O :   -0.145618
  31 C :    0.080609
  32 O :   -0.140114
  33 S :    0.066780
  34 C :    0.038057
  35 C :   -0.041384
  36 C :    0.042256
  37 C :    0.005381
  38 O :   -0.279330
  39 C :    0.172620
  40 S :    0.010423
  41 C :    0.002298
  42 O :   -0.276796
  43 C :    0.172382
  44 C :    0.057013
  45 C :   -0.040757
  46 C :    0.014727
  47 C :   -0.019006
  48 C :   -0.023516
  49 C :    0.041082
  50 C :    0.019097
  51 C :   -0.036272
  52 S :    0.054260
  53 C :   -0.070054
  54 C :    0.031436
  55 C :    0.046388
  56 C :   -0.058144
  57 S :    0.071171
  58 C :   -0.039042
  59 H :    0.014201
  60 H :    0.014662
  61 H :   -0.015598
  62 H :   -0.013318
  63 H :   -0.018772
  64 H :   -0.007595
  65 H :   -0.000488
  66 H :    0.052840
  67 H :    0.029705
  68 H :    0.028610
  69 H :    0.049607
  70 H :    0.032856
  71 H :    0.031591
  72 H :   -0.011876
  73 H :   -0.010904
  74 H :    0.006534
  75 H :    0.013013
  76 H :    0.049811
  77 H :    0.029348
  78 H :    0.030875
  79 H :    0.029533
  80 H :    0.051068
  81 H :    0.028107
  82 H :    0.006760
  83 H :   -0.001558
  84 H :   -0.018181
  85 H :   -0.015407
  86 H :   -0.019125
  87 H :   -0.013803
  88 H :   -0.015893
  89 H :    0.015404
  90 H :    0.016841
Sum of atomic charges:   -0.0000000

LOEWDIN ATOMIC CHARGES
----------------------
   0 C :   -0.090177
   1 C :   -0.137542
   2 C :   -0.039373
   3 C :   -0.024516
   4 C :   -0.184653
   5 S :    0.335137
   6 C :   -0.178533
   7 C :   -0.039928
   8 C :   -0.026023
   9 C :   -0.143162
  10 S :    0.376079
  11 C :   -0.056514
  12 C :   -0.094303
  13 C :   -0.120438
  14 O :   -0.092287
  15 C :    0.068195
  16 S :    0.382634
  17 C :   -0.099434
  18 O :   -0.087563
  19 C :    0.068851
  20 C :   -0.093605
  21 C :   -0.017369
  22 C :   -0.063517
  23 C :   -0.180047
  24 S :    0.459623
  25 C :   -0.186237
  26 C :   -0.223514
  27 C :   -0.227057
  28 S :    0.396450
  29 C :   -0.116499
  30 O :   -0.116961
  31 C :   -0.115815
  32 O :   -0.111478
  33 S :    0.395739
  34 C :   -0.057003
  35 C :   -0.016592
  36 C :   -0.097178
  37 C :   -0.102804
  38 O :   -0.094403
  39 C :    0.068845
  40 S :    0.379013
  41 C :   -0.103405
  42 O :   -0.091687
  43 C :    0.068537
  44 C :   -0.094091
  45 C :   -0.022426
  46 C :   -0.043284
  47 C :   -0.057852
  48 C :   -0.149099
  49 C :   -0.027537
  50 C :   -0.045435
  51 C :   -0.177847
  52 S :    0.376111
  53 C :   -0.182672
  54 C :   -0.025722
  55 C :   -0.037661
  56 C :   -0.138131
  57 S :    0.342626
  58 C :   -0.087499
  59 H :    0.026103
  60 H :    0.023151
  61 H :    0.031404
  62 H :    0.031689
  63 H :    0.029246
  64 H :    0.034459
  65 H :    0.032969
  66 H :    0.034279
  67 H :    0.012046
  68 H :    0.016081
  69 H :    0.033519
  70 H :    0.015936
  71 H :    0.015479
  72 H :    0.010765
  73 H :    0.024505
  74 H :    0.032481
  75 H :    0.018881
  76 H :    0.033823
  77 H :    0.014394
  78 H :    0.014158
  79 H :    0.014241
  80 H :    0.034328
  81 H :    0.013385
  82 H :    0.014196
  83 H :    0.031230
  84 H :    0.033411
  85 H :    0.032300
  86 H :    0.028995
  87 H :    0.031535
  88 H :    0.031506
  89 H :    0.026525
  90 H :    0.024014

  Mayer bond orders larger than 0.100000
B(  0-C ,  1-C ) :   1.8666 B(  0-C , 59-H ) :   0.9502 B(  0-C , 60-H ) :   0.9418
B(  1-C ,  2-C ) :   1.0773 B(  1-C ,  5-S ) :   1.0085 B(  2-C ,  3-C ) :   1.6658
B(  2-C , 61-H ) :   0.9931 B(  3-C ,  4-C ) :   1.1476 B(  3-C , 62-H ) :   0.9915
B(  4-C ,  5-S ) :   1.0294 B(  4-C ,  6-C ) :   1.5851 B(  6-C ,  7-C ) :   1.1447
B(  6-C , 10-S ) :   1.0398 B(  7-C ,  8-C ) :   1.6415 B(  7-C , 63-H ) :   0.9929
B(  8-C ,  9-C ) :   1.1022 B(  8-C , 64-H ) :   0.9981 B(  9-C , 10-S ) :   1.0302
B(  9-C , 11-C ) :   1.6839 B( 11-C , 12-C ) :   1.0629 B( 11-C , 65-H ) :   0.9472
B( 12-C , 13-C ) :   1.5207 B( 12-C , 20-C ) :   1.1592 B( 13-C , 14-O ) :   1.1529
B( 13-C , 16-S ) :   1.0456 B( 14-O , 15-C ) :   0.9363 B( 15-C , 66-H ) :   0.9803
B( 15-C , 67-H ) :   0.9655 B( 15-C , 68-H ) :   0.9669 B( 16-S , 17-C ) :   1.0703
B( 17-C , 18-O ) :   1.1350 B( 17-C , 20-C ) :   1.4848 B( 18-O , 19-C ) :   0.9437
B( 19-C , 69-H ) :   0.9813 B( 19-C , 70-H ) :   0.9666 B( 19-C , 71-H ) :   0.9646
B( 20-C , 21-C ) :   1.1491 B( 21-C , 22-C ) :   1.6906 B( 21-C , 72-H ) :   0.9452
B( 22-C , 23-C ) :   1.1088 B( 22-C , 73-H ) :   0.9475 B( 23-C , 24-S ) :   1.1328
B( 23-C , 25-C ) :   0.1045 B( 23-C , 27-C ) :   1.5535 B( 24-S , 25-C ) :   1.1298
B( 25-C , 26-C ) :   1.5596 B( 25-C , 34-C ) :   1.1269 B( 26-C , 27-C ) :   1.2674
B( 26-C , 33-S ) :   0.9654 B( 27-C , 28-S ) :   0.9570 B( 28-S , 29-C ) :   1.0654
B( 28-S , 30-O ) :   0.1402 B( 29-C , 30-O ) :   2.1442 B( 29-C , 31-C ) :   0.7735
B( 31-C , 32-O ) :   2.1491 B( 31-C , 33-S ) :   1.0584 B( 32-O , 33-S ) :   0.1377
B( 34-C , 35-C ) :   1.7121 B( 34-C , 74-H ) :   0.9449 B( 35-C , 36-C ) :   1.1047
B( 35-C , 75-H ) :   0.9545 B( 36-C , 37-C ) :   1.5269 B( 36-C , 44-C ) :   1.1432
B( 37-C , 38-O ) :   1.1662 B( 37-C , 40-S ) :   1.0571 B( 38-O , 39-C ) :   0.9498
B( 39-C , 76-H ) :   0.9818 B( 39-C , 77-H ) :   0.9659 B( 39-C , 78-H ) :   0.9656
B( 40-S , 41-C ) :   1.0576 B( 41-C , 42-O ) :   1.1602 B( 41-C , 44-C ) :   1.5144
B( 42-O , 43-C ) :   0.9515 B( 43-C , 79-H ) :   0.9660 B( 43-C , 80-H ) :   0.9818
B( 43-C , 81-H ) :   0.9649 B( 44-C , 45-C ) :   1.1241 B( 45-C , 46-C ) :   1.6599
B( 45-C , 82-H ) :   0.9423 B( 46-C , 47-C ) :   1.1916 B( 46-C , 83-H ) :   0.9562
B( 47-C , 48-C ) :   1.6032 B( 47-C , 84-H ) :   0.9622 B( 48-C , 49-C ) :   1.1311
B( 48-C , 52-S ) :   1.0293 B( 49-C , 50-C ) :   1.6148 B( 49-C , 85-H ) :   0.9981
B( 50-C , 51-C ) :   1.1628 B( 50-C , 86-H ) :   0.9920 B( 51-C , 52-S ) :   1.0297
B( 51-C , 53-C ) :   1.5666 B( 53-C , 54-C ) :   1.1532 B( 53-C , 57-S ) :   1.0352
B( 54-C , 55-C ) :   1.6609 B( 54-C , 87-H ) :   0.9905 B( 55-C , 56-C ) :   1.0802
B( 55-C , 88-H ) :   0.9930 B( 56-C , 57-S ) :   1.0091 B( 56-C , 58-C ) :   1.8619
B( 58-C , 89-H ) :   0.9509 B( 58-C , 90-H ) :   0.9418

-----------------------------------------------------------------------------
         ABSORPTION SPECTRUM VIA TRANSITION ELECTRIC DIPOLE MOMENTS
-----------------------------------------------------------------------------
State   Energy  Wavelength   fosc         T2         TX        TY        TZ
        (cm-1)    (nm)                  (au**2)     (au)      (au)      (au)
-----------------------------------------------------------------------------
   0   18583.5    538.1   1.007931190  17.85574   2.86694  -3.04368  -0.61028
   1   21071.1    474.6   0.763298823  11.92568   1.61757   2.22000  -2.09302
   2   21600.9    462.9   0.746370917  11.37520  -2.70852  -1.80936   0.87482
   3   22257.8    449.3   0.032886246   0.48642  -0.40858   0.56144   0.06532
   4   22840.0    437.8   0.003704781   0.05340   0.22771   0.01863  -0.03463
   5   23362.6    428.0   0.054997493   0.77499  -0.32747   0.03941   0.81621
   6   25586.6    390.8   0.322201718   4.14563   0.28851   0.99842  -1.75087
   7   26069.9    383.6   0.000769671   0.00972   0.02804   0.09293  -0.01725
   8   26102.3    383.1   0.004752671   0.05994  -0.21648  -0.01183  -0.11374
   9   26785.9    373.3   0.536866334   6.59835  -0.36291   0.81819  -2.40774
  10   26925.4    371.4   0.110378766   1.34958   0.07916  -0.21921   1.13810
  11   27670.4    361.4   0.128962044   1.53434   1.06826   0.26842  -0.56666
  12   27888.0    358.6   0.008476394   0.10006   0.28178   0.02478  -0.14159
  13   29061.0    344.1   0.044369100   0.50263  -0.67610   0.21259  -0.01801
  14   29860.0    334.9   0.017970574   0.19813  -0.38093   0.14578  -0.17825
  15   30744.0    325.3   0.131350139   1.40652  -0.94943  -0.33936   0.62445
  16   31055.2    322.0   0.051663585   0.54768   0.04772  -0.56297   0.47798
  17   32321.1    309.4   0.040105365   0.40850   0.13658  -0.62169  -0.05789
  18   32777.8    305.1   0.272673344   2.73866  -1.64090  -0.01591   0.21413
  19   32950.0    303.5   0.096552380   0.96468   0.40347   0.59208  -0.67181
  20   33575.9    297.8   0.009158718   0.08980   0.29073  -0.05846   0.04315
  21   33718.6    296.6   0.081294859   0.79372   0.31782  -0.49552   0.66871
  22   33880.5    295.2   0.180131731   1.75031   0.37681   0.90657  -0.88682
  23   34399.5    290.7   0.240155094   2.29834   1.49725  -0.07342  -0.22630
  24   34904.7    286.5   0.015871162   0.14969  -0.25849  -0.24448   0.15199
  25   35361.7    282.8   0.003331488   0.03102   0.02624   0.17407   0.00502
  26   35489.2    281.8   0.091859048   0.85212  -0.59750   0.57558  -0.40475
  27   35919.5    278.4   0.011559784   0.10595   0.11494   0.12345  -0.27838
  28   36081.8    277.1   0.002421237   0.02209   0.07626  -0.03297   0.12324
  29   36408.7    274.7   0.008105770   0.07329  -0.26998   0.00105   0.02007
  30   36882.1    271.1   0.125249219   1.11798  -0.84294  -0.22521   0.59725
  31   37227.3    268.6   0.043742848   0.38683  -0.26812   0.37147  -0.42066
  32   37619.5    265.8   0.010027110   0.08775   0.09638   0.25990  -0.10447
  33   37740.1    265.0   0.033743330   0.29435   0.38758   0.37881   0.02507
  34   38138.7    262.2   0.033051203   0.28530   0.17573  -0.48762   0.12901
  35   38786.2    257.8   0.012605603   0.10699   0.04700  -0.11061   0.30422
  36   39154.2    255.4   0.009114661   0.07664   0.14918  -0.23047   0.03557
  37   39369.8    254.0   0.064979182   0.54336  -0.49626  -0.49826   0.22096
  38   39581.3    252.6   0.032571965   0.27091  -0.31648   0.36637  -0.19111
  39   39859.6    250.9   0.106834257   0.88237   0.92080  -0.17082  -0.07291
  40   40283.5    248.2   0.187799200   1.53476  -1.16759   0.14045   0.38958

FINAL SINGLE POINT ENERGY     -5726.996281660417

DIPOLE MOMENT
-------------
                                X             Y             Z
Electronic contribution:    -13.02039      18.83507       2.16755
Nuclear contribution   :     15.50625     -19.48635      -2.16204
                        -----------------------------------------
Total Dipole Moment    :      2.48586      -0.65128       0.00551
                        -----------------------------------------
Magnitude (a.u.)       :      2.56977
Magnitude (Debye)      :      6.53182

Rotational constants in cm-1:     0.001258     0.000402     0.000344
Rotational constants in MHz :    37.717732    12.042668    10.324685

                             ****ORCA TERMINATED NORMALLY****
TOTAL RUN TIME: 0 days 0 hours 6 minutes 32 seconds 982 msec
