                         Program Version 4.2.0 -  RELEASE  -
|  1> # ORCA input file
|  2> # SCF done       -150.359754770401          0.001002524313
|  3> ! CAM-B3LYP def2-SVP def2/J RIJCOSX Grid4 TightSCF
|  4> %maxcore 5000
|  5> %tddft
|  6>     Mode sTDDFT
|  7>     Ethresh 5.0
|  8>     maxcore 5000
|  9> end
| 10>
| 11> %pal
| 12>   nprocs 6
| 13>   end
| 14> * xyz 0 1
| 15>    C        0.18373         2.48884        -1.51932
| 16>    O       -0.40618         1.28873        -1.45651
| 17>    C        0.53936         0.36315        -1.71946
| 18>    C        1.73715         0.95023        -1.95640
| 19>    C        1.52162         2.35991        -1.82686
| 20>    C        2.44309         3.44288        -1.96368
| 21>    C        3.74915         3.31672        -2.31275
| 22>    C        4.66893         4.38605        -2.45448
| 23>    C        4.38453         5.70385        -2.21432
| 24>    C        5.27548         6.76590        -2.37903
| 25>    C        4.90902         8.07687        -2.13785
| 26>    C        5.67191         9.25133        -2.29165
| 27>    C        4.99183        10.40276        -1.99094
| 28>    C        3.66698        10.18140        -1.58106
| 29>    S        3.29547         8.48123        -1.58120
| 30>    C        2.68218        11.09562        -1.20818
| 31>    C        2.71682        12.49614        -1.17834
| 32>    C        1.53360        13.05913        -0.77274
| 33>    C        0.52674        12.12593        -0.45855
| 34>    S        1.12372        10.50368        -0.69743
| 35>    C       -0.75431        12.44763        -0.03139
| 36>    C       -1.78651        11.59489         0.33028
| 37>    S       -3.34523        12.26513         0.80968
| 38>    C       -4.09822        10.70127         1.16357
| 39>    C       -3.14008         9.68746         0.89035
| 40>    C       -1.89824        10.20297         0.44099
| 41>    O       -1.01570         9.21550         0.22436
| 42>    C       -1.66730         8.06349         0.53200
| 43>    N       -0.96179         6.85540         0.43084
| 44>    O       -1.52024         5.85268         0.85553
| 45>    O        0.15636         6.87267        -0.04878
| 46>    C       -2.96324         8.28782         0.93891
| 47>    C       -5.38850        10.74615         1.64436
| 48>    C       -6.25512         9.72835         2.03765
| 49>    C       -7.53798         9.92294         2.57583
| 50>    C       -8.19209         8.76286         2.91859
| 51>    C       -7.44835         7.60874         2.65043
| 52>    S       -5.90501         8.02682         1.95429
| 53>    C       -7.74099         6.26055         2.85584
| 54>    C       -8.85505         5.64783         3.44830
| 55>    C       -8.76583         4.28181         3.49342
| 56>    C       -7.58398         3.75781         2.92056
| 57>    S       -6.58347         5.06637         2.33364
| 58>    C       -7.23325         2.42710         2.84862
| 59>    C       -6.09868         1.88233         2.22509
| 60>    S       -5.72806         0.17191         2.43697
| 61>    C       -4.33002         0.21172         1.43533
| 62>    C       -4.13501         1.47932         0.94100
| 63>    C       -5.12293         2.40999         1.38962
| 64>    O       -4.90921         3.62166         0.83762
| 65>    C       -3.80532         3.48447         0.05678
| 66>    N       -3.39069         4.61638        -0.67643
| 67>    O       -2.45642         4.45997        -1.44191
| 68>    O       -4.00401         5.65316        -0.52868
| 69>    C       -3.28565         2.21748         0.07038
| 70>    H       -0.42615         3.35740        -1.35710
| 71>    H        0.23364        -0.66454        -1.70776
| 72>    H        2.65652         0.45420        -2.19014
| 73>    H        2.01913         4.41666        -1.76698
| 74>    H        4.13549         2.32606        -2.51305
| 75>    H        5.66971         4.13012        -2.78003
| 76>    H        3.39253         5.96685        -1.87259
| 77>    H        6.28437         6.57206        -2.71917
| 78>    H        6.69540         9.22170        -2.62244
| 79>    H        5.41447        11.38980        -2.05376
| 80>    H        3.59053        13.05834        -1.45577
| 81>    H        1.36449        14.11857        -0.69133
| 82>    H       -0.97973        13.50474         0.02918
| 83>    H       -3.65235         7.51153         1.19115
| 84>    H       -5.79690        11.74501         1.74875
| 85>    H       -7.95157        10.90755         2.70699
| 86>    H       -9.17826         8.72782         3.34598
| 87>    H       -9.68612         6.21392         3.83034
| 88>    H       -9.51747         3.63859         3.91583
| 89>    H       -7.89243         1.71882         3.33200
| 90>    H       -3.75920        -0.67786         1.27280
| 91>    H       -2.43032         1.87009        -0.47051
| 92> *
| 93>
| 94>                          ****END OF INPUT****

CARTESIAN COORDINATES (ANGSTROEM)
---------------------------------
  C      0.183730    2.488840   -1.519320
  O     -0.406180    1.288730   -1.456510
  C      0.539360    0.363150   -1.719460
  C      1.737150    0.950230   -1.956400
  C      1.521620    2.359910   -1.826860
  C      2.443090    3.442880   -1.963680
  C      3.749150    3.316720   -2.312750
  C      4.668930    4.386050   -2.454480
  C      4.384530    5.703850   -2.214320
  C      5.275480    6.765900   -2.379030
  C      4.909020    8.076870   -2.137850
  C      5.671910    9.251330   -2.291650
  C      4.991830   10.402760   -1.990940
  C      3.666980   10.181400   -1.581060
  S      3.295470    8.481230   -1.581200
  C      2.682180   11.095620   -1.208180
  C      2.716820   12.496140   -1.178340
  C      1.533600   13.059130   -0.772740
  C      0.526740   12.125930   -0.458550
  S      1.123720   10.503680   -0.697430
  C     -0.754310   12.447630   -0.031390
  C     -1.786510   11.594890    0.330280
  S     -3.345230   12.265130    0.809680
  C     -4.098220   10.701270    1.163570
  C     -3.140080    9.687460    0.890350
  C     -1.898240   10.202970    0.440990
  O     -1.015700    9.215500    0.224360
  C     -1.667300    8.063490    0.532000
  N     -0.961790    6.855400    0.430840
  O     -1.520240    5.852680    0.855530
  O      0.156360    6.872670   -0.048780
  C     -2.963240    8.287820    0.938910
  C     -5.388500   10.746150    1.644360
  C     -6.255120    9.728350    2.037650
  C     -7.537980    9.922940    2.575830
  C     -8.192090    8.762860    2.918590
  C     -7.448350    7.608740    2.650430
  S     -5.905010    8.026820    1.954290
  C     -7.740990    6.260550    2.855840
  C     -8.855050    5.647830    3.448300
  C     -8.765830    4.281810    3.493420
  C     -7.583980    3.757810    2.920560
  S     -6.583470    5.066370    2.333640
  C     -7.233250    2.427100    2.848620
  C     -6.098680    1.882330    2.225090
  S     -5.728060    0.171910    2.436970
  C     -4.330020    0.211720    1.435330
  C     -4.135010    1.479320    0.941000
  C     -5.122930    2.409990    1.389620
  O     -4.909210    3.621660    0.837620
  C     -3.805320    3.484470    0.056780
  N     -3.390690    4.616380   -0.676430
  O     -2.456420    4.459970   -1.441910
  O     -4.004010    5.653160   -0.528680
  C     -3.285650    2.217480    0.070380
  H     -0.426150    3.357400   -1.357100
  H      0.233640   -0.664540   -1.707760
  H      2.656520    0.454200   -2.190140
  H      2.019130    4.416660   -1.766980
  H      4.135490    2.326060   -2.513050
  H      5.669710    4.130120   -2.780030
  H      3.392530    5.966850   -1.872590
  H      6.284370    6.572060   -2.719170
  H      6.695400    9.221700   -2.622440
  H      5.414470   11.389800   -2.053760
  H      3.590530   13.058340   -1.455770
  H      1.364490   14.118570   -0.691330
  H     -0.979730   13.504740    0.029180
  H     -3.652350    7.511530    1.191150
  H     -5.796900   11.745010    1.748750
  H     -7.951570   10.907550    2.706990
  H     -9.178260    8.727820    3.345980
  H     -9.686120    6.213920    3.830340
  H     -9.517470    3.638590    3.915830
  H     -7.892430    1.718820    3.332000
  H     -3.759200   -0.677860    1.272800
  H     -2.430320    1.870090   -0.470510

 Total Charge           Charge          ....    0
 Multiplicity           Mult            ....    1
 Number of Electrons    NEL             ....  428
 Basis Dimension        Dim             ....  904

ORBITAL ENERGIES
----------------

  NO   OCC          E(Eh)            E(eV)
   0   2.0000     -88.967637     -2420.9325
   1   2.0000     -88.952940     -2420.5326
   2   2.0000     -88.942355     -2420.2445
   3   2.0000     -88.934326     -2420.0260
   4   2.0000     -88.932425     -2419.9743
   5   2.0000     -88.931303     -2419.9438
   6   2.0000     -19.299478      -525.1655
   7   2.0000     -19.298595      -525.1415
   8   2.0000     -19.283743      -524.7373
   9   2.0000     -19.240125      -523.5504
  10   2.0000     -19.238018      -523.4931
  11   2.0000     -19.231125      -523.3055
  12   2.0000     -19.227865      -523.2168
  13   2.0000     -14.649953      -398.6455
  14   2.0000     -14.641678      -398.4203
  15   2.0000     -10.378369      -282.4098
  16   2.0000     -10.368718      -282.1472
  17   2.0000     -10.340222      -281.3717
  18   2.0000     -10.339934      -281.3639
  19   2.0000     -10.313210      -280.6367
  20   2.0000     -10.312012      -280.6041
  21   2.0000     -10.311577      -280.5923
  22   2.0000     -10.309765      -280.5430
  23   2.0000     -10.306631      -280.4577
  24   2.0000     -10.305407      -280.4244
  25   2.0000     -10.303659      -280.3768
  26   2.0000     -10.303629      -280.3760
  27   2.0000     -10.302094      -280.3342
  28   2.0000     -10.301319      -280.3131
  29   2.0000     -10.301144      -280.3084
  30   2.0000     -10.300029      -280.2780
  31   2.0000     -10.299856      -280.2733
  32   2.0000     -10.295455      -280.1536
  33   2.0000     -10.293208      -280.0924
  34   2.0000     -10.293158      -280.0911
  35   2.0000     -10.291036      -280.0333
  36   2.0000     -10.290987      -280.0320
  37   2.0000     -10.285635      -279.8863
  38   2.0000     -10.284550      -279.8568
  39   2.0000     -10.281047      -279.7615
  40   2.0000     -10.278988      -279.7055
  41   2.0000     -10.278760      -279.6993
  42   2.0000     -10.278499      -279.6922
  43   2.0000     -10.277872      -279.6751
  44   2.0000     -10.276999      -279.6514
  45   2.0000     -10.276480      -279.6372
  46   2.0000     -10.276212      -279.6299
  47   2.0000     -10.272810      -279.5374
  48   2.0000     -10.271696      -279.5071
  49   2.0000     -10.266820      -279.3744
  50   2.0000     -10.266374      -279.3622
  51   2.0000     -10.261352      -279.2256
  52   2.0000     -10.260652      -279.2065
  53   2.0000     -10.258987      -279.1612
  54   2.0000     -10.258794      -279.1560
  55   2.0000      -8.062664      -219.3962
  56   2.0000      -8.048038      -218.9983
  57   2.0000      -8.038375      -218.7353
  58   2.0000      -8.030847      -218.5305
  59   2.0000      -8.028748      -218.4733
  60   2.0000      -8.027468      -218.4385
  61   2.0000      -6.032039      -164.1401
  62   2.0000      -6.027745      -164.0233
  63   2.0000      -6.024876      -163.9452
  64   2.0000      -6.017631      -163.7481
  65   2.0000      -6.013716      -163.6415
  66   2.0000      -6.009384      -163.5236
  67   2.0000      -6.008044      -163.4872
  68   2.0000      -6.003762      -163.3707
  69   2.0000      -6.000547      -163.2832
  70   2.0000      -5.999666      -163.2592
  71   2.0000      -5.998406      -163.2249
  72   2.0000      -5.997118      -163.1899
  73   2.0000      -5.996350      -163.1690
  74   2.0000      -5.994276      -163.1125
  75   2.0000      -5.992891      -163.0749
  76   2.0000      -5.991711      -163.0427
  77   2.0000      -5.989842      -162.9919
  78   2.0000      -5.988534      -162.9563
  79   2.0000      -1.321059       -35.9479
  80   2.0000      -1.309734       -35.6397
  81   2.0000      -1.222202       -33.2578
  82   2.0000      -1.221299       -33.2332
  83   2.0000      -1.200422       -32.6651
  84   2.0000      -1.136844       -30.9351
  85   2.0000      -1.124991       -30.6126
  86   2.0000      -0.992858       -27.0170
  87   2.0000      -0.987824       -26.8800
  88   2.0000      -0.986082       -26.8327
  89   2.0000      -0.980468       -26.6799
  90   2.0000      -0.967053       -26.3149
  91   2.0000      -0.962509       -26.1912
  92   2.0000      -0.927666       -25.2431
  93   2.0000      -0.924014       -25.1437
  94   2.0000      -0.911552       -24.8046
  95   2.0000      -0.896867       -24.4050
  96   2.0000      -0.893540       -24.3145
  97   2.0000      -0.887840       -24.1594
  98   2.0000      -0.883470       -24.0404
  99   2.0000      -0.871269       -23.7084
 100   2.0000      -0.863980       -23.5101
 101   2.0000      -0.851162       -23.1613
 102   2.0000      -0.843760       -22.9599
 103   2.0000      -0.837482       -22.7891
 104   2.0000      -0.830853       -22.6087
 105   2.0000      -0.823459       -22.4075
 106   2.0000      -0.816217       -22.2104
 107   2.0000      -0.809612       -22.0307
 108   2.0000      -0.807558       -21.9748
 109   2.0000      -0.797466       -21.7001
 110   2.0000      -0.785000       -21.3609
 111   2.0000      -0.778241       -21.1770
 112   2.0000      -0.769536       -20.9401
 113   2.0000      -0.752019       -20.4635
 114   2.0000      -0.736449       -20.0398
 115   2.0000      -0.723758       -19.6945
 116   2.0000      -0.702326       -19.1113
 117   2.0000      -0.701269       -19.0825
 118   2.0000      -0.697229       -18.9726
 119   2.0000      -0.681456       -18.5434
 120   2.0000      -0.673205       -18.3188
 121   2.0000      -0.663761       -18.0619
 122   2.0000      -0.659065       -17.9341
 123   2.0000      -0.656147       -17.8547
 124   2.0000      -0.652324       -17.7506
 125   2.0000      -0.647576       -17.6214
 126   2.0000      -0.641300       -17.4507
 127   2.0000      -0.637435       -17.3455
 128   2.0000      -0.631650       -17.1881
 129   2.0000      -0.626884       -17.0584
 130   2.0000      -0.622607       -16.9420
 131   2.0000      -0.621012       -16.8986
 132   2.0000      -0.618947       -16.8424
 133   2.0000      -0.614392       -16.7184
 134   2.0000      -0.611527       -16.6405
 135   2.0000      -0.609535       -16.5863
 136   2.0000      -0.606157       -16.4944
 137   2.0000      -0.604524       -16.4499
 138   2.0000      -0.596228       -16.2242
 139   2.0000      -0.588779       -16.0215
 140   2.0000      -0.586043       -15.9471
 141   2.0000      -0.582843       -15.8600
 142   2.0000      -0.573726       -15.6119
 143   2.0000      -0.564933       -15.3726
 144   2.0000      -0.562013       -15.2931
 145   2.0000      -0.558752       -15.2044
 146   2.0000      -0.554914       -15.1000
 147   2.0000      -0.548245       -14.9185
 148   2.0000      -0.541344       -14.7307
 149   2.0000      -0.539073       -14.6689
 150   2.0000      -0.533507       -14.5175
 151   2.0000      -0.531962       -14.4754
 152   2.0000      -0.528291       -14.3755
 153   2.0000      -0.520268       -14.1572
 154   2.0000      -0.519224       -14.1288
 155   2.0000      -0.511666       -13.9232
 156   2.0000      -0.507023       -13.7968
 157   2.0000      -0.504554       -13.7296
 158   2.0000      -0.499875       -13.6023
 159   2.0000      -0.495387       -13.4802
 160   2.0000      -0.492247       -13.3947
 161   2.0000      -0.487847       -13.2750
 162   2.0000      -0.486739       -13.2448
 163   2.0000      -0.485182       -13.2025
 164   2.0000      -0.481830       -13.1113
 165   2.0000      -0.475889       -12.9496
 166   2.0000      -0.474580       -12.9140
 167   2.0000      -0.471161       -12.8209
 168   2.0000      -0.468791       -12.7564
 169   2.0000      -0.464785       -12.6474
 170   2.0000      -0.462465       -12.5843
 171   2.0000      -0.457317       -12.4442
 172   2.0000      -0.457048       -12.4369
 173   2.0000      -0.451950       -12.2982
 174   2.0000      -0.446711       -12.1556
 175   2.0000      -0.444235       -12.0883
 176   2.0000      -0.441151       -12.0043
 177   2.0000      -0.439778       -11.9670
 178   2.0000      -0.433680       -11.8010
 179   2.0000      -0.428707       -11.6657
 180   2.0000      -0.424992       -11.5646
 181   2.0000      -0.422543       -11.4980
 182   2.0000      -0.419772       -11.4226
 183   2.0000      -0.418683       -11.3930
 184   2.0000      -0.416312       -11.3284
 185   2.0000      -0.415506       -11.3065
 186   2.0000      -0.408365       -11.1122
 187   2.0000      -0.404234       -10.9998
 188   2.0000      -0.398785       -10.8515
 189   2.0000      -0.388406       -10.5691
 190   2.0000      -0.386562       -10.5189
 191   2.0000      -0.384107       -10.4521
 192   2.0000      -0.382793       -10.4163
 193   2.0000      -0.376593       -10.2476
 194   2.0000      -0.372233       -10.1290
 195   2.0000      -0.371659       -10.1133
 196   2.0000      -0.367650       -10.0043
 197   2.0000      -0.365929        -9.9574
 198   2.0000      -0.357980        -9.7411
 199   2.0000      -0.353795        -9.6272
 200   2.0000      -0.345558        -9.4031
 201   2.0000      -0.330271        -8.9871
 202   2.0000      -0.328009        -8.9256
 203   2.0000      -0.325289        -8.8516
 204   2.0000      -0.315446        -8.5837
 205   2.0000      -0.314272        -8.5518
 206   2.0000      -0.309502        -8.4220
 207   2.0000      -0.309239        -8.4148
 208   2.0000      -0.304837        -8.2950
 209   2.0000      -0.292317        -7.9544
 210   2.0000      -0.270547        -7.3620
 211   2.0000      -0.247925        -6.7464
 212   2.0000      -0.212789        -5.7903
 213   2.0000      -0.174010        -4.7351
 214   0.0000      -0.099096        -2.6965
 215   0.0000      -0.064631        -1.7587
 216   0.0000      -0.056214        -1.5297
 217   0.0000      -0.040457        -1.1009
 218   0.0000      -0.016812        -0.4575

MULLIKEN ATOMIC CHARGES
-----------------------
   0 C :    0.083492
   1 O :   -0.199123
   2 C :    0.140918
   3 C :   -0.046594
   4 C :    0.042931
   5 C :    0.041494
   6 C :   -0.003013
   7 C :    0.019148
   8 C :   -0.002280
   9 C :    0.015371
  10 C :   -0.037206
  11 C :    0.040916
  12 C :    0.014808
  13 C :   -0.034851
  14 S :    0.082628
  15 C :   -0.039593
  16 C :    0.031124
  17 C :    0.016782
  18 C :   -0.033176
  19 S :    0.104634
  20 C :    0.034145
  21 C :   -0.175471
  22 S :    0.114362
  23 C :   -0.131402
  24 C :    0.120807
  25 C :    0.160632
  26 O :   -0.188449
  27 C :    0.225030
  28 N :    0.295454
  29 O :   -0.277471
  30 O :   -0.243309
  31 C :   -0.087922
  32 C :    0.032674
  33 C :   -0.023360
  34 C :    0.019170
  35 C :    0.021739
  36 C :   -0.022714
  37 S :    0.052582
  38 C :   -0.035865
  39 C :    0.029283
  40 C :    0.028001
  41 C :   -0.034021
  42 S :    0.090411
  43 C :    0.046910
  44 C :   -0.225632
  45 S :    0.140119
  46 C :   -0.136452
  47 C :    0.120854
  48 C :    0.192063
  49 O :   -0.195285
  50 C :    0.257856
  51 N :    0.299526
  52 O :   -0.246586
  53 O :   -0.232414
  54 C :   -0.065185
  55 H :    0.018268
  56 H :    0.004524
  57 H :   -0.012497
  58 H :   -0.003040
  59 H :   -0.026282
  60 H :   -0.021393
  61 H :    0.023374
  62 H :   -0.019913
  63 H :   -0.016360
  64 H :   -0.017884
  65 H :   -0.018735
  66 H :   -0.018031
  67 H :   -0.025646
  68 H :    0.028079
  69 H :   -0.021570
  70 H :   -0.015633
  71 H :   -0.017408
  72 H :   -0.016822
  73 H :   -0.016502
  74 H :   -0.023687
  75 H :    0.029539
  76 H :   -0.010873
Sum of atomic charges:   -0.0000000

LOEWDIN ATOMIC CHARGES
----------------------
   0 C :    0.047952
   1 O :    0.017819
   2 C :    0.028567
   3 C :   -0.065049
   4 C :   -0.078519
   5 C :    0.010500
   6 C :   -0.049366
   7 C :   -0.014772
   8 C :   -0.035032
   9 C :   -0.037542
  10 C :   -0.155755
  11 C :   -0.031534
  12 C :   -0.042020
  13 C :   -0.170253
  14 S :    0.399995
  15 C :   -0.194199
  16 C :   -0.033842
  17 C :   -0.047368
  18 C :   -0.146501
  19 S :    0.418824
  20 C :   -0.093593
  21 C :   -0.187064
  22 S :    0.423938
  23 C :   -0.162697
  24 C :   -0.075817
  25 C :    0.015130
  26 O :    0.008679
  27 C :    0.013597
  28 N :    0.280815
  29 O :   -0.235053
  30 O :   -0.205858
  31 C :   -0.004314
  32 C :   -0.077729
  33 C :   -0.162076
  34 C :   -0.036581
  35 C :   -0.045379
  36 C :   -0.177802
  37 S :    0.422157
  38 C :   -0.185574
  39 C :   -0.035023
  40 C :   -0.040625
  41 C :   -0.146448
  42 S :    0.408477
  43 C :   -0.087898
  44 C :   -0.198590
  45 S :    0.464549
  46 C :   -0.189450
  47 C :   -0.079067
  48 C :    0.008426
  49 O :   -0.002320
  50 C :    0.027334
  51 N :    0.283665
  52 O :   -0.205025
  53 O :   -0.191377
  54 C :   -0.002123
  55 H :    0.020909
  56 H :    0.020053
  57 H :    0.028413
  58 H :    0.035164
  59 H :    0.024034
  60 H :    0.026323
  61 H :    0.022327
  62 H :    0.031281
  63 H :    0.031875
  64 H :    0.030213
  65 H :    0.029825
  66 H :    0.030048
  67 H :    0.033254
  68 H :    0.025019
  69 H :    0.034261
  70 H :    0.031601
  71 H :    0.031023
  72 H :    0.031049
  73 H :    0.030965
  74 H :    0.032600
  75 H :    0.027768
  76 H :    0.040806

  Mayer bond orders larger than 0.100000
B(  0-C ,  1-O ) :   1.1246 B(  0-C ,  4-C ) :   1.4909 B(  0-C , 55-H ) :   0.9818
B(  1-O ,  2-C ) :   1.1205 B(  2-C ,  3-C ) :   1.5990 B(  2-C , 56-H ) :   0.9992
B(  3-C ,  4-C ) :   1.1992 B(  3-C , 57-H ) :   1.0044 B(  4-C ,  5-C ) :   1.1241
B(  5-C ,  6-C ) :   1.6717 B(  5-C , 58-H ) :   0.9645 B(  6-C ,  7-C ) :   1.1531
B(  6-C , 59-H ) :   0.9750 B(  7-C ,  8-C ) :   1.6100 B(  7-C , 60-H ) :   0.9809
B(  8-C ,  9-C ) :   1.2028 B(  8-C , 61-H ) :   0.9577 B(  9-C , 10-C ) :   1.4989
B(  9-C , 62-H ) :   0.9870 B( 10-C , 11-C ) :   1.1802 B( 10-C , 14-S ) :   1.0396
B( 11-C , 12-C ) :   1.5345 B( 11-C , 63-H ) :   0.9984 B( 12-C , 13-C ) :   1.2344
B( 12-C , 64-H ) :   0.9966 B( 13-C , 14-S ) :   1.0777 B( 13-C , 15-C ) :   1.4121
B( 15-C , 16-C ) :   1.2451 B( 15-C , 19-S ) :   1.0498 B( 16-C , 17-C ) :   1.5171
B( 16-C , 65-H ) :   0.9943 B( 17-C , 18-C ) :   1.2051 B( 17-C , 66-H ) :   1.0012
B( 18-C , 19-S ) :   1.0711 B( 18-C , 20-C ) :   1.4767 B( 20-C , 21-C ) :   1.2654
B( 20-C , 67-H ) :   0.9407 B( 21-C , 22-S ) :   1.0825 B( 21-C , 25-C ) :   1.3317
B( 22-S , 23-C ) :   1.0930 B( 23-C , 24-C ) :   1.2224 B( 23-C , 32-C ) :   1.3327
B( 24-C , 25-C ) :   1.2881 B( 24-C , 31-C ) :   1.1474 B( 25-C , 26-O ) :   1.1172
B( 26-O , 27-C ) :   1.1102 B( 27-C , 28-N ) :   0.9465 B( 27-C , 31-C ) :   1.5148
B( 28-N , 29-O ) :   1.4953 B( 28-N , 30-O ) :   1.4940 B( 29-O , 30-O ) :   0.2614
B( 31-C , 68-H ) :   0.9978 B( 32-C , 33-C ) :   1.4590 B( 32-C , 69-H ) :   0.9372
B( 33-C , 34-C ) :   1.2226 B( 33-C , 37-S ) :   1.0544 B( 34-C , 35-C ) :   1.5044
B( 34-C , 70-H ) :   0.9995 B( 35-C , 36-C ) :   1.2554 B( 35-C , 71-H ) :   0.9935
B( 36-C , 37-S ) :   1.0656 B( 36-C , 38-C ) :   1.4084 B( 38-C , 39-C ) :   1.2341
B( 38-C , 42-S ) :   1.0556 B( 39-C , 40-C ) :   1.5452 B( 39-C , 72-H ) :   0.9940
B( 40-C , 41-C ) :   1.1705 B( 40-C , 73-H ) :   0.9986 B( 41-C , 42-S ) :   1.0577
B( 41-C , 43-C ) :   1.5586 B( 43-C , 44-C ) :   1.1726 B( 43-C , 74-H ) :   0.9463
B( 44-C , 45-S ) :   1.1241 B( 44-C , 46-C ) :   0.1039 B( 44-C , 48-C ) :   1.4087
B( 45-S , 46-C ) :   1.1756 B( 46-C , 47-C ) :   1.4303 B( 46-C , 75-H ) :   0.9744
B( 47-C , 48-C ) :   1.2338 B( 47-C , 54-C ) :   1.0750 B( 48-C , 49-O ) :   1.0935
B( 49-O , 50-C ) :   1.1123 B( 50-C , 51-N ) :   0.9258 B( 50-C , 54-C ) :   1.5636
B( 51-N , 52-O ) :   1.5030 B( 51-N , 53-O ) :   1.5002 B( 52-O , 53-O ) :   0.2668
B( 54-C , 76-H ) :   1.0162

-----------------------------------------------------------------------------
         ABSORPTION SPECTRUM VIA TRANSITION ELECTRIC DIPOLE MOMENTS
-----------------------------------------------------------------------------
State   Energy  Wavelength   fosc         T2         TX        TY        TZ
        (cm-1)    (nm)                  (au**2)     (au)      (au)      (au)
-----------------------------------------------------------------------------
   0    4243.1   2356.8   0.262194667  20.34310  -4.01998  -1.20328   1.65378
   1   10069.0    993.1   0.092768624   3.03313   1.41142  -0.77773  -0.66043
   2   10871.3    919.9   0.003689719   0.11173   0.17059   0.26612  -0.10871
   3   12084.2    827.5   0.261710934   7.12983  -0.90742   2.44524   0.57203
   4   14921.8    670.2   0.914244501  20.17054   0.27333  -4.47506  -0.26391
   5   18396.3    543.6   0.034814782   0.62303  -0.60252  -0.48234   0.16539
   6   18713.3    534.4   0.079854894   1.40484  -0.26873  -1.15398   0.03069
   7   19914.6    502.1   0.238945698   3.95005  -0.35891   1.95069   0.12661
   8   21984.6    454.9   0.514457183   7.70381  -2.19501  -1.57832   0.62820
   9   23065.9    433.5   0.031659771   0.45187   0.31267   0.59281  -0.05184
  10   23740.8    421.2   0.483154151   6.69985   2.43245  -0.35061  -0.81248
  11   25574.5    391.0   0.104346907   1.34322   1.04114   0.23115  -0.45367
  12   26476.5    377.7   0.107337856   1.33465   0.69062  -0.87839  -0.29349
  13   26942.5    371.2   0.195549155   2.38943   0.78297   1.33206  -0.04481
  14   27836.3    359.2   0.021077363   0.24928   0.25020  -0.40102  -0.16080
  15   29286.8    341.5   0.051114604   0.57458  -0.07617  -0.74005  -0.14525
  16   29698.3    336.7   0.020797794   0.23055  -0.41470  -0.23329   0.06441
  17   29884.5    334.6   0.058247745   0.64167  -0.70295   0.22314   0.31264
  18   30029.0    333.0   0.069935881   0.76672   0.34612  -0.80410   0.01830
  19   30480.1    328.1   0.177628832   1.91855   0.17842   1.37350  -0.01404
  20   30864.4    324.0   0.043049296   0.45918  -0.31454  -0.49113   0.34501
  21   30942.3    323.2   0.000706834   0.00752   0.05849  -0.03806  -0.05149
  22   31225.8    320.2   0.014528749   0.15318  -0.11384   0.37211   0.04190
  23   31634.3    316.1   0.002971516   0.03092  -0.08380   0.11569   0.10255
  24   31918.2    313.3   0.078049228   0.80502   0.64846  -0.45932  -0.41659
  25   32192.7    310.6   0.048390714   0.49486  -0.32836   0.57677  -0.23320
  26   32475.9    307.9   0.010921548   0.11071  -0.05566   0.29476  -0.14399
  27   32718.7    305.6   0.000759737   0.00764   0.03377   0.02447  -0.07685
  28   32993.3    303.1   0.005998699   0.05986   0.24103   0.02368  -0.03466
  29   33330.7    300.0   0.034810659   0.34383  -0.39262   0.42924   0.07366
  30   33797.6    295.9   0.014258708   0.13889  -0.19304   0.31729   0.03084
  31   34223.8    292.2   0.065016734   0.62542   0.01118  -0.75942   0.22039
  32   34533.1    289.6   0.063512145   0.60548   0.73718  -0.09810  -0.22895
  33   34907.2    286.5   0.123323008   1.16307   0.53485   0.80533  -0.47795
  34   35093.0    285.0   0.062797278   0.58911   0.56464   0.45541  -0.25078
  35   35344.2    282.9   0.072221310   0.67270   0.60010   0.42387  -0.36458
  36   35690.7    280.2   0.178563111   1.64707  -1.18849  -0.02385   0.48373
  37   36190.0    276.3   0.021035280   0.19135   0.30751   0.28703  -0.12001
  38   36584.5    273.3   0.038774470   0.34892   0.09319  -0.56018   0.16259
  39   36855.8    271.3   0.040944863   0.36574   0.32933  -0.50412  -0.05605
  40   37045.5    269.9   0.212717338   1.89035  -0.39816   1.29285  -0.24570
  41   37359.4    267.7   0.084888984   0.74804  -0.74292   0.06835   0.43754
  42   37479.8    266.8   0.326698349   2.86963  -0.75586  -1.33349   0.72119
  43   37647.9    265.6   0.098631339   0.86248   0.06151   0.79417  -0.47749
  44   37902.1    263.8   0.019908549   0.17292   0.04582   0.40928  -0.05755
  45   38295.9    261.1   0.023704119   0.20377   0.28480  -0.09363  -0.33749
  46   38641.0    258.8   0.003866090   0.03294   0.14862  -0.09741   0.03691
  47   39057.5    256.0   0.081754324   0.68910  -0.43562   0.70653   0.01254
  48   39484.3    253.3   0.060052127   0.50070   0.20901  -0.66910   0.09655
  49   39747.1    251.6   0.014529413   0.12034   0.03618  -0.33335  -0.08893
  50   40086.9    249.5   0.043963482   0.36105  -0.00928   0.60072   0.01016
  51   40129.2    249.2   0.000474562   0.00389  -0.05848   0.02062  -0.00691
  52   40304.8    248.1   0.000436876   0.00357   0.02570  -0.05381   0.00362

FINAL SINGLE POINT ENERGY     -4558.914525910926

DIPOLE MOMENT
-------------
                                X             Y             Z
Electronic contribution:    -23.00619       6.14108       9.07804
Nuclear contribution   :     22.59818      -6.40053      -8.52552
                        -----------------------------------------
Total Dipole Moment    :     -0.40801      -0.25945       0.55252
                        -----------------------------------------
Magnitude (a.u.)       :      0.73421
Magnitude (Debye)      :      1.86622

Rotational constants in cm-1:     0.001574     0.000944     0.000599
Rotational constants in MHz :    47.180250    28.293426    17.959778

                             ****ORCA TERMINATED NORMALLY****
TOTAL RUN TIME: 0 days 0 hours 7 minutes 29 seconds 785 msec
