                         Program Version 4.2.0 -  RELEASE  -
|  1> # ORCA input file
|  2> # SCF done       -122.104644026852          0.000357254867
|  3> ! CAM-B3LYP def2-SVP def2/J RIJCOSX Grid4 TightSCF
|  4> %maxcore 5000
|  5> %tddft
|  6>     Mode sTDDFT
|  7>     Ethresh 5.0
|  8>     maxcore 5000
|  9> end
| 10>
| 11> %pal
| 12>   nprocs 6
| 13>   end
| 14> * xyz 0 1
| 15>    C        0.41059       -13.29828        -6.22869
| 16>    O       -0.80000       -13.41764        -5.66552
| 17>    C       -1.13699       -12.20136        -5.19901
| 18>    C       -0.15914       -11.29676        -5.45221
| 19>    C        0.87607       -12.00850        -6.13541
| 20>    C        2.13491       -11.52373        -6.62692
| 21>    C        2.58229       -10.25920        -6.49698
| 22>    C        3.84476        -9.82027        -6.98881
| 23>    C        4.31340        -8.56134        -6.82967
| 24>    C        5.58072        -8.11682        -7.29687
| 25>    O        6.38606        -8.96820        -7.97963
| 26>    C        7.51632        -8.30391        -8.27459
| 27>    C        7.48041        -7.03445        -7.79946
| 28>    C        6.21770        -6.88071        -7.15362
| 29>    C        5.69960        -5.72413        -6.49480
| 30>    C        6.41105        -4.60108        -6.25288
| 31>    C        5.92910        -3.42650        -5.59697
| 32>    C        4.63032        -3.10972        -5.38794
| 33>    C        4.17373        -1.94422        -4.70656
| 34>    O        2.91935        -1.50120        -4.97793
| 35>    C        2.72713        -0.37352        -4.27325
| 36>    C        3.82150        -0.06477        -3.53363
| 37>    C        4.78234        -1.08787        -3.78640
| 38>    C        6.04416        -1.27439        -3.14057
| 39>    C        6.72869        -0.32222        -2.46885
| 40>    C        7.95738        -0.58761        -1.80553
| 41>    C        8.70447         0.35155        -1.17769
| 42>    C        9.92830         0.06836        -0.51356
| 43>    O       10.36869        -1.21279        -0.43361
| 44>    C       11.53576        -1.19711         0.23266
| 45>    C       11.88155         0.06352         0.59156
| 46>    C       10.84387         0.91892         0.11452
| 47>    C       10.75396         2.33811         0.22802
| 48>    C       11.70442         3.13110         0.77318
| 49>    C       11.59478         4.54492         0.85522
| 50>    C       12.56501         5.34007         1.36586
| 51>    C       12.48068         6.75661         1.44542
| 52>    O       11.36267         7.39346         1.01464
| 53>    C       11.55365         8.71054         1.19931
| 54>    C       12.77213         8.96055         1.74064
| 55>    C       13.40402         7.69483         1.91315
| 56>    C       14.70565         7.42282         2.44337
| 57>    C       15.58157         8.35456         2.86175
| 58>    C       16.88174         8.03701         3.38413
| 59>    C       17.75950         8.95160         3.79422
| 60>    H        0.84624       -14.17880        -6.65849
| 61>    H       -2.08778       -12.11028        -4.71194
| 62>    H       -0.16631       -10.25884        -5.19242
| 63>    H        2.75147       -12.25686        -7.13133
| 64>    H        1.97403        -9.52259        -5.98958
| 65>    H        4.45715       -10.54572        -7.50713
| 66>    H        3.71728        -7.82691        -6.30726
| 67>    H        8.26541        -8.83968        -8.82418
| 68>    H        8.24733        -6.29529        -7.90277
| 69>    H        4.67456        -5.78712        -6.15866
| 70>    H        7.45227        -4.57567        -6.54438
| 71>    H        6.68652        -2.71965        -5.28781
| 72>    H        3.84601        -3.72447        -5.80803
| 73>    H        1.77692         0.11187        -4.38122
| 74>    H        3.93089         0.76628        -2.86806
| 75>    H        6.45327        -2.27533        -3.18366
| 76>    H        6.35676         0.69298        -2.43759
| 77>    H        8.31042        -1.61034        -1.81208
| 78>    H        8.38297         1.38290        -1.16839
| 79>    H       12.01899        -2.14203         0.38742
| 80>    H       12.75920         0.35259         1.13116
| 81>    H        9.85745         2.79705        -0.16721
| 82>    H       12.61086         2.69018         1.16491
| 83>    H       10.68870         5.00057         0.47927
| 84>    H       13.47795         4.89884         1.73931
| 85>    H       10.75397         9.36316         0.90803
| 86>    H       13.17322         9.92131         1.98798
| 87>    H       14.98767         6.37937         2.50032
| 88>    H       15.32524         9.40362         2.81340
| 89>    H       17.13520         6.98523         3.43415
| 90>    H       17.53442        10.00486         3.75555
| 91>    H       18.72731         8.68216         4.18004
| 92> *
| 93>
| 94>                          ****END OF INPUT****

CARTESIAN COORDINATES (ANGSTROEM)
---------------------------------
  C      0.410590  -13.298280   -6.228690
  O     -0.800000  -13.417640   -5.665520
  C     -1.136990  -12.201360   -5.199010
  C     -0.159140  -11.296760   -5.452210
  C      0.876070  -12.008500   -6.135410
  C      2.134910  -11.523730   -6.626920
  C      2.582290  -10.259200   -6.496980
  C      3.844760   -9.820270   -6.988810
  C      4.313400   -8.561340   -6.829670
  C      5.580720   -8.116820   -7.296870
  O      6.386060   -8.968200   -7.979630
  C      7.516320   -8.303910   -8.274590
  C      7.480410   -7.034450   -7.799460
  C      6.217700   -6.880710   -7.153620
  C      5.699600   -5.724130   -6.494800
  C      6.411050   -4.601080   -6.252880
  C      5.929100   -3.426500   -5.596970
  C      4.630320   -3.109720   -5.387940
  C      4.173730   -1.944220   -4.706560
  O      2.919350   -1.501200   -4.977930
  C      2.727130   -0.373520   -4.273250
  C      3.821500   -0.064770   -3.533630
  C      4.782340   -1.087870   -3.786400
  C      6.044160   -1.274390   -3.140570
  C      6.728690   -0.322220   -2.468850
  C      7.957380   -0.587610   -1.805530
  C      8.704470    0.351550   -1.177690
  C      9.928300    0.068360   -0.513560
  O     10.368690   -1.212790   -0.433610
  C     11.535760   -1.197110    0.232660
  C     11.881550    0.063520    0.591560
  C     10.843870    0.918920    0.114520
  C     10.753960    2.338110    0.228020
  C     11.704420    3.131100    0.773180
  C     11.594780    4.544920    0.855220
  C     12.565010    5.340070    1.365860
  C     12.480680    6.756610    1.445420
  O     11.362670    7.393460    1.014640
  C     11.553650    8.710540    1.199310
  C     12.772130    8.960550    1.740640
  C     13.404020    7.694830    1.913150
  C     14.705650    7.422820    2.443370
  C     15.581570    8.354560    2.861750
  C     16.881740    8.037010    3.384130
  C     17.759500    8.951600    3.794220
  H      0.846240  -14.178800   -6.658490
  H     -2.087780  -12.110280   -4.711940
  H     -0.166310  -10.258840   -5.192420
  H      2.751470  -12.256860   -7.131330
  H      1.974030   -9.522590   -5.989580
  H      4.457150  -10.545720   -7.507130
  H      3.717280   -7.826910   -6.307260
  H      8.265410   -8.839680   -8.824180
  H      8.247330   -6.295290   -7.902770
  H      4.674560   -5.787120   -6.158660
  H      7.452270   -4.575670   -6.544380
  H      6.686520   -2.719650   -5.287810
  H      3.846010   -3.724470   -5.808030
  H      1.776920    0.111870   -4.381220
  H      3.930890    0.766280   -2.868060
  H      6.453270   -2.275330   -3.183660
  H      6.356760    0.692980   -2.437590
  H      8.310420   -1.610340   -1.812080
  H      8.382970    1.382900   -1.168390
  H     12.018990   -2.142030    0.387420
  H     12.759200    0.352590    1.131160
  H      9.857450    2.797050   -0.167210
  H     12.610860    2.690180    1.164910
  H     10.688700    5.000570    0.479270
  H     13.477950    4.898840    1.739310
  H     10.753970    9.363160    0.908030
  H     13.173220    9.921310    1.987980
  H     14.987670    6.379370    2.500320
  H     15.325240    9.403620    2.813400
  H     17.135200    6.985230    3.434150
  H     17.534420   10.004860    3.755550
  H     18.727310    8.682160    4.180040

 Total Charge           Charge          ....    0
 Multiplicity           Mult            ....    1
 Number of Electrons    NEL             ....  312
 Basis Dimension        Dim             ....  790

ORBITAL ENERGIES
----------------

  NO   OCC          E(Eh)            E(eV)
   0   2.0000     -19.281155      -524.6669
   1   2.0000     -19.278862      -524.6045
   2   2.0000     -19.277446      -524.5660
   3   2.0000     -19.277331      -524.5628
   4   2.0000     -19.277148      -524.5579
   5   2.0000     -10.319143      -280.7982
   6   2.0000     -10.317608      -280.7564
   7   2.0000     -10.317447      -280.7520
   8   2.0000     -10.317288      -280.7477
   9   2.0000     -10.315986      -280.7123
  10   2.0000     -10.314672      -280.6765
  11   2.0000     -10.314606      -280.6747
  12   2.0000     -10.313748      -280.6513
  13   2.0000     -10.312596      -280.6200
  14   2.0000     -10.312275      -280.6113
  15   2.0000     -10.270994      -279.4879
  16   2.0000     -10.270942      -279.4865
  17   2.0000     -10.270788      -279.4823
  18   2.0000     -10.270255      -279.4678
  19   2.0000     -10.269811      -279.4558
  20   2.0000     -10.269262      -279.4408
  21   2.0000     -10.269081      -279.4359
  22   2.0000     -10.268775      -279.4276
  23   2.0000     -10.268738      -279.4266
  24   2.0000     -10.268417      -279.4178
  25   2.0000     -10.267722      -279.3989
  26   2.0000     -10.266962      -279.3782
  27   2.0000     -10.266729      -279.3719
  28   2.0000     -10.266548      -279.3670
  29   2.0000     -10.266404      -279.3631
  30   2.0000     -10.266261      -279.3592
  31   2.0000     -10.265244      -279.3315
  32   2.0000     -10.264769      -279.3186
  33   2.0000     -10.264420      -279.3091
  34   2.0000     -10.264031      -279.2985
  35   2.0000     -10.263386      -279.2809
  36   2.0000     -10.263287      -279.2782
  37   2.0000     -10.263063      -279.2721
  38   2.0000     -10.261782      -279.2373
  39   2.0000     -10.260629      -279.2059
  40   2.0000     -10.259642      -279.1790
  41   2.0000     -10.259420      -279.1730
  42   2.0000     -10.259382      -279.1720
  43   2.0000     -10.259340      -279.1708
  44   2.0000     -10.254187      -279.0306
  45   2.0000      -1.199905       -32.6511
  46   2.0000      -1.197363       -32.5819
  47   2.0000      -1.195844       -32.5406
  48   2.0000      -1.195635       -32.5349
  49   2.0000      -1.195398       -32.5284
  50   2.0000      -0.920155       -25.0387
  51   2.0000      -0.917028       -24.9536
  52   2.0000      -0.914859       -24.8946
  53   2.0000      -0.912361       -24.8266
  54   2.0000      -0.910797       -24.7840
  55   2.0000      -0.895662       -24.3722
  56   2.0000      -0.891479       -24.2584
  57   2.0000      -0.888968       -24.1900
  58   2.0000      -0.884495       -24.0683
  59   2.0000      -0.873590       -23.7716
  60   2.0000      -0.852900       -23.2086
  61   2.0000      -0.851431       -23.1686
  62   2.0000      -0.848633       -23.0925
  63   2.0000      -0.844672       -22.9847
  64   2.0000      -0.830175       -22.5902
  65   2.0000      -0.813341       -22.1321
  66   2.0000      -0.803086       -21.8531
  67   2.0000      -0.795892       -21.6573
  68   2.0000      -0.786029       -21.3889
  69   2.0000      -0.779839       -21.2205
  70   2.0000      -0.731607       -19.9080
  71   2.0000      -0.722323       -19.6554
  72   2.0000      -0.720058       -19.5938
  73   2.0000      -0.716596       -19.4996
  74   2.0000      -0.711521       -19.3615
  75   2.0000      -0.688169       -18.7260
  76   2.0000      -0.684307       -18.6209
  77   2.0000      -0.674137       -18.3442
  78   2.0000      -0.668378       -18.1875
  79   2.0000      -0.660742       -17.9797
  80   2.0000      -0.646980       -17.6052
  81   2.0000      -0.635770       -17.3002
  82   2.0000      -0.633338       -17.2340
  83   2.0000      -0.631254       -17.1773
  84   2.0000      -0.628972       -17.1152
  85   2.0000      -0.625559       -17.0223
  86   2.0000      -0.621442       -16.9103
  87   2.0000      -0.619317       -16.8525
  88   2.0000      -0.618774       -16.8377
  89   2.0000      -0.615644       -16.7525
  90   2.0000      -0.605413       -16.4741
  91   2.0000      -0.597160       -16.2495
  92   2.0000      -0.591373       -16.0921
  93   2.0000      -0.583392       -15.8749
  94   2.0000      -0.575542       -15.6613
  95   2.0000      -0.551571       -15.0090
  96   2.0000      -0.545690       -14.8490
  97   2.0000      -0.542202       -14.7541
  98   2.0000      -0.541670       -14.7396
  99   2.0000      -0.540595       -14.7103
 100   2.0000      -0.540186       -14.6992
 101   2.0000      -0.538921       -14.6648
 102   2.0000      -0.538653       -14.6575
 103   2.0000      -0.536531       -14.5997
 104   2.0000      -0.535690       -14.5769
 105   2.0000      -0.532297       -14.4845
 106   2.0000      -0.526624       -14.3302
 107   2.0000      -0.522289       -14.2122
 108   2.0000      -0.519652       -14.1404
 109   2.0000      -0.513043       -13.9606
 110   2.0000      -0.510562       -13.8931
 111   2.0000      -0.498288       -13.5591
 112   2.0000      -0.489364       -13.3163
 113   2.0000      -0.489175       -13.3111
 114   2.0000      -0.487711       -13.2713
 115   2.0000      -0.481004       -13.0888
 116   2.0000      -0.479480       -13.0473
 117   2.0000      -0.471800       -12.8383
 118   2.0000      -0.467516       -12.7218
 119   2.0000      -0.466802       -12.7023
 120   2.0000      -0.464476       -12.6390
 121   2.0000      -0.462454       -12.5840
 122   2.0000      -0.460873       -12.5410
 123   2.0000      -0.456171       -12.4130
 124   2.0000      -0.449784       -12.2393
 125   2.0000      -0.447817       -12.1857
 126   2.0000      -0.437899       -11.9158
 127   2.0000      -0.435217       -11.8429
 128   2.0000      -0.431468       -11.7408
 129   2.0000      -0.430829       -11.7235
 130   2.0000      -0.426668       -11.6102
 131   2.0000      -0.424424       -11.5492
 132   2.0000      -0.423013       -11.5108
 133   2.0000      -0.421032       -11.4569
 134   2.0000      -0.419579       -11.4173
 135   2.0000      -0.418907       -11.3990
 136   2.0000      -0.418537       -11.3890
 137   2.0000      -0.414018       -11.2660
 138   2.0000      -0.413932       -11.2636
 139   2.0000      -0.413508       -11.2521
 140   2.0000      -0.406362       -11.0577
 141   2.0000      -0.379195       -10.3184
 142   2.0000      -0.376307       -10.2398
 143   2.0000      -0.369653       -10.0588
 144   2.0000      -0.364569        -9.9204
 145   2.0000      -0.357259        -9.7215
 146   2.0000      -0.324330        -8.8255
 147   2.0000      -0.322908        -8.7868
 148   2.0000      -0.318571        -8.6688
 149   2.0000      -0.312140        -8.4938
 150   2.0000      -0.295045        -8.0286
 151   2.0000      -0.287005        -7.8098
 152   2.0000      -0.266976        -7.2648
 153   2.0000      -0.246743        -6.7142
 154   2.0000      -0.226955        -6.1758
 155   2.0000      -0.211653        -5.7594
 156   0.0000      -0.051633        -1.4050
 157   0.0000      -0.034970        -0.9516
 158   0.0000      -0.012038        -0.3276
 159   0.0000       0.007215         0.1963
 160   0.0000       0.026558         0.7227

MULLIKEN ATOMIC CHARGES
-----------------------
   0 C :    0.073772
   1 O :   -0.181740
   2 C :    0.136599
   3 C :   -0.046558
   4 C :    0.045148
   5 C :    0.023381
   6 C :    0.012749
   7 C :    0.028210
   8 C :   -0.043611
   9 C :    0.114840
  10 O :   -0.197378
  11 C :    0.151939
  12 C :   -0.047718
  13 C :    0.062290
  14 C :    0.004587
  15 C :   -0.003108
  16 C :   -0.004441
  17 C :   -0.001039
  18 C :    0.122111
  19 O :   -0.193673
  20 C :    0.147021
  21 C :   -0.045703
  22 C :    0.039866
  23 C :   -0.024580
  24 C :    0.012072
  25 C :    0.025505
  26 C :   -0.046645
  27 C :    0.122312
  28 O :   -0.201241
  29 C :    0.153363
  30 C :   -0.045356
  31 C :    0.064271
  32 C :   -0.010609
  33 C :    0.013295
  34 C :    0.028713
  35 C :   -0.045541
  36 C :    0.121461
  37 O :   -0.198990
  38 C :    0.152374
  39 C :   -0.046797
  40 C :    0.063289
  41 C :   -0.010974
  42 C :    0.003950
  43 C :    0.006594
  44 C :   -0.021298
  45 H :    0.001680
  46 H :    0.007325
  47 H :   -0.012766
  48 H :   -0.023755
  49 H :   -0.020296
  50 H :   -0.004856
  51 H :   -0.014949
  52 H :    0.006146
  53 H :   -0.013005
  54 H :   -0.021644
  55 H :   -0.023282
  56 H :   -0.004305
  57 H :   -0.006113
  58 H :    0.005511
  59 H :   -0.015714
  60 H :   -0.007852
  61 H :   -0.019966
  62 H :   -0.004601
  63 H :   -0.014142
  64 H :    0.005359
  65 H :   -0.016183
  66 H :   -0.025463
  67 H :   -0.024315
  68 H :   -0.006991
  69 H :   -0.015587
  70 H :    0.005475
  71 H :   -0.015887
  72 H :   -0.025921
  73 H :   -0.021919
  74 H :   -0.012716
  75 H :    0.010577
  76 H :    0.017445
Sum of atomic charges:   -0.0000000

LOEWDIN ATOMIC CHARGES
----------------------
   0 C :    0.030314
   1 O :    0.021106
   2 C :    0.033138
   3 C :   -0.070082
   4 C :   -0.077064
   5 C :   -0.015680
   6 C :   -0.031575
   7 C :   -0.012593
   8 C :   -0.048913
   9 C :    0.030850
  10 O :    0.011541
  11 C :    0.042490
  12 C :   -0.067850
  13 C :   -0.065886
  14 C :   -0.009147
  15 C :   -0.038776
  16 C :   -0.025881
  17 C :   -0.034840
  18 C :    0.026999
  19 O :    0.011468
  20 C :    0.038456
  21 C :   -0.067366
  22 C :   -0.066474
  23 C :   -0.019903
  24 C :   -0.030955
  25 C :   -0.014426
  26 C :   -0.049644
  27 C :    0.031541
  28 O :    0.010094
  29 C :    0.042466
  30 C :   -0.068276
  31 C :   -0.066925
  32 C :   -0.019267
  33 C :   -0.029308
  34 C :   -0.014845
  35 C :   -0.048152
  36 C :    0.029517
  37 O :    0.010849
  38 C :    0.041785
  39 C :   -0.067558
  40 C :   -0.066204
  41 C :   -0.020222
  42 C :   -0.027740
  43 C :   -0.025154
  44 C :   -0.053099
  45 H :    0.020619
  46 H :    0.021591
  47 H :    0.027903
  48 H :    0.028163
  49 H :    0.024330
  50 H :    0.029627
  51 H :    0.031791
  52 H :    0.022220
  53 H :    0.028466
  54 H :    0.024677
  55 H :    0.025916
  56 H :    0.030379
  57 H :    0.031897
  58 H :    0.021621
  59 H :    0.028324
  60 H :    0.029290
  61 H :    0.024033
  62 H :    0.029603
  63 H :    0.031674
  64 H :    0.022005
  65 H :    0.027587
  66 H :    0.026108
  67 H :    0.023636
  68 H :    0.029140
  69 H :    0.031361
  70 H :    0.021928
  71 H :    0.028004
  72 H :    0.025616
  73 H :    0.024213
  74 H :    0.026833
  75 H :    0.020010
  76 H :    0.022623

  Mayer bond orders larger than 0.100000
B(  0-C ,  1-O ) :   1.1617 B(  0-C ,  4-C ) :   1.5036 B(  0-C , 45-H ) :   1.0064
B(  1-O ,  2-C ) :   1.1453 B(  2-C ,  3-C ) :   1.5915 B(  2-C , 46-H ) :   0.9995
B(  3-C ,  4-C ) :   1.2141 B(  3-C , 47-H ) :   1.0020 B(  4-C ,  5-C ) :   1.0728
B(  5-C ,  6-C ) :   1.6975 B(  5-C , 48-H ) :   0.9783 B(  6-C ,  7-C ) :   1.1117
B(  6-C , 49-H ) :   0.9810 B(  7-C ,  8-C ) :   1.6550 B(  7-C , 50-H ) :   0.9936
B(  8-C ,  9-C ) :   1.1472 B(  8-C , 51-H ) :   0.9603 B(  9-C , 10-O ) :   1.1560
B(  9-C , 13-C ) :   1.3911 B( 10-O , 11-C ) :   1.1299 B( 11-C , 12-C ) :   1.5767
B( 11-C , 52-H ) :   1.0025 B( 12-C , 13-C ) :   1.1989 B( 12-C , 53-H ) :   0.9979
B( 13-C , 14-C ) :   1.1231 B( 14-C , 15-C ) :   1.7134 B( 14-C , 54-H ) :   0.9580
B( 15-C , 16-C ) :   1.1270 B( 15-C , 55-H ) :   0.9748 B( 16-C , 17-C ) :   1.6886
B( 16-C , 56-H ) :   0.9696 B( 17-C , 18-C ) :   1.1413 B( 17-C , 57-H ) :   0.9492
B( 18-C , 19-O ) :   1.1409 B( 18-C , 22-C ) :   1.4248 B( 19-O , 20-C ) :   1.1376
B( 20-C , 21-C ) :   1.5645 B( 20-C , 58-H ) :   1.0023 B( 21-C , 22-C ) :   1.2108
B( 21-C , 59-H ) :   1.0015 B( 22-C , 23-C ) :   1.0839 B( 23-C , 24-C ) :   1.6749
B( 23-C , 60-H ) :   0.9680 B( 24-C , 25-C ) :   1.1161 B( 24-C , 61-H ) :   0.9867
B( 25-C , 26-C ) :   1.6423 B( 25-C , 62-H ) :   0.9927 B( 26-C , 27-C ) :   1.1539
B( 26-C , 63-H ) :   0.9617 B( 27-C , 28-O ) :   1.1490 B( 27-C , 31-C ) :   1.3923
B( 28-O , 29-C ) :   1.1291 B( 29-C , 30-C ) :   1.5752 B( 29-C , 64-H ) :   1.0028
B( 30-C , 31-C ) :   1.1991 B( 30-C , 65-H ) :   0.9977 B( 31-C , 32-C ) :   1.1010
B( 32-C , 33-C ) :   1.6734 B( 32-C , 66-H ) :   0.9714 B( 33-C , 34-C ) :   1.1143
B( 33-C , 67-H ) :   0.9858 B( 34-C , 35-C ) :   1.6444 B( 34-C , 68-H ) :   0.9954
B( 35-C , 36-C ) :   1.1473 B( 35-C , 69-H ) :   0.9608 B( 36-C , 37-O ) :   1.1511
B( 36-C , 40-C ) :   1.4037 B( 37-O , 38-C ) :   1.1326 B( 38-C , 39-C ) :   1.5729
B( 38-C , 70-H ) :   1.0024 B( 39-C , 40-C ) :   1.2032 B( 39-C , 71-H ) :   0.9987
B( 40-C , 41-C ) :   1.0923 B( 41-C , 42-C ) :   1.7322 B( 41-C , 72-H ) :   0.9692
B( 42-C , 43-C ) :   1.1033 B( 42-C , 73-H ) :   0.9773 B( 43-C , 44-C ) :   1.9046
B( 43-C , 74-H ) :   0.9757 B( 44-C , 75-H ) :   0.9578 B( 44-C , 76-H ) :   0.9514

-----------------------------------------------------------------------------
         ABSORPTION SPECTRUM VIA TRANSITION ELECTRIC DIPOLE MOMENTS
-----------------------------------------------------------------------------
State   Energy  Wavelength   fosc         T2         TX        TY        TZ
        (cm-1)    (nm)                  (au**2)     (au)      (au)      (au)
-----------------------------------------------------------------------------
   0   20609.7    485.2   2.777196496  44.36200   3.21393   5.12694   2.78338
   1   25056.9    399.1   0.184721915   2.42698   1.31333  -0.09648   0.83237
   2   26145.5    382.5   0.052799943   0.66483  -0.55859  -0.56641  -0.17886
   3   28972.5    345.2   0.285371648   3.24265   0.95961   1.48887  -0.32413
   4   29916.0    334.3   0.769460247   8.46756   1.33389   2.54427  -0.46367
   5   31697.8    315.5   0.049291860   0.51194   0.07432  -0.68145  -0.20507
   6   33153.4    301.6   0.117169842   1.16349  -0.23097  -0.51931  -0.91677
   7   34111.5    293.2   0.467561566   4.51246  -1.92157   0.56506   0.70761
   8   35961.6    278.1   0.002596175   0.02377  -0.13412  -0.07402   0.01731
   9   36263.9    275.8   0.112765148   1.02371  -0.98771   0.21939  -0.00157
  10   37096.8    269.6   0.102390021   0.90865  -0.83378   0.36239  -0.28658
  11   38291.0    261.2   0.636310087   5.47076   2.32098   0.24124  -0.15998
  12   38991.7    256.5   0.077807943   0.65694   0.75959   0.27839   0.04972
  13   39959.4    250.3   0.010918019   0.08995   0.17401   0.23263   0.07450

FINAL SINGLE POINT ENERGY     -1917.007561325961

DIPOLE MOMENT
-------------
                                X             Y             Z
Electronic contribution:    -19.76407     -20.22146     -12.43014
Nuclear contribution   :     19.84098      20.29932      12.43082
                        -----------------------------------------
Total Dipole Moment    :      0.07691       0.07786       0.00068
                        -----------------------------------------
Magnitude (a.u.)       :      0.10944
Magnitude (Debye)      :      0.27818

Rotational constants in cm-1:     0.004674     0.000355     0.000347
Rotational constants in MHz :   140.119311    10.656012    10.392705

                             ****ORCA TERMINATED NORMALLY****
TOTAL RUN TIME: 0 days 0 hours 8 minutes 13 seconds 375 msec
