                         Program Version 4.2.0 -  RELEASE  -
|  1> # ORCA input file
|  2> # SCF done       -156.373729443923          0.000989938514
|  3> ! CAM-B3LYP def2-SVP def2/J RIJCOSX Grid4 TightSCF
|  4> %maxcore 5000
|  5> %tddft
|  6>     Mode sTDDFT
|  7>     Ethresh 5.0
|  8>     maxcore 5000
|  9> end
| 10>
| 11> %pal
| 12>   nprocs 6
| 13>   end
| 14> * xyz 0 1
| 15>    C        0.35151         0.73903         4.25230
| 16>    C        0.31430         0.47519         2.85780
| 17>    C        1.05327         1.25621         1.99505
| 18>    C        1.84527         2.30498         2.49294
| 19>    C        1.88050         2.55964         3.89316
| 20>    C        1.11146         1.75121         4.75771
| 21>    N        2.63950         3.55599         4.39074
| 22>    C        3.33215         4.26353         3.53905
| 23>    C        3.29694         4.01214         2.15155
| 24>    N        2.57091         3.05723         1.63603
| 25>    C       -0.49636        -0.63311         2.40119
| 26>    N       -0.71429        -0.95540         1.08289
| 27>    C       -1.49582        -2.06065         0.97567
| 28>    C       -1.80093        -2.48188         2.25378
| 29>    C       -1.17122        -1.57393         3.14279
| 30>    S       -1.53940        -2.09775         4.79949
| 31>    O       -2.39038        -1.15278         5.47008
| 32>    O       -0.35621        -2.52458         5.49416
| 33>    C       -2.49621        -3.53110         4.22078
| 34>    C       -2.52656        -3.55445         2.87062
| 35>    C       -3.00905        -4.38411         5.22395
| 36>    C       -3.63962        -5.56904         5.03827
| 37>    C       -4.06220        -6.39815         6.10745
| 38>    S       -3.85730        -5.93177         7.76665
| 39>    C       -4.52020        -7.42977         8.33025
| 40>    C       -4.89121        -8.24972         7.26559
| 41>    C       -4.63821        -7.66173         6.01923
| 42>    S       -4.96155        -8.36692         4.44213
| 43>    C       -5.76518        -9.92511         4.65967
| 44>    O       -6.08793       -10.50867         3.66146
| 45>    C       -6.03844       -10.55115         6.01045
| 46>    O       -6.57790       -11.62443         6.05554
| 47>    S       -5.58967        -9.83230         7.55979
| 48>    C       -4.59974        -7.75346         9.70889
| 49>    O       -4.94685        -9.00815        10.06177
| 50>    C       -4.90259        -9.10992        11.41399
| 51>    C       -4.53496        -7.88353        11.94899
| 52>    C       -4.34429        -7.01698        10.86492
| 53>    C       -3.96415        -5.58422        10.97854
| 54>    F       -4.82278        -4.76539        10.34168
| 55>    F       -3.93468        -5.17956        12.25450
| 56>    F       -2.74536        -5.32049        10.47072
| 57>    C       -5.18700       -10.35425        12.02299
| 58>    C       -5.02511       -10.58839        13.35635
| 59>    C       -5.25555       -11.82298        13.98053
| 60>    C       -4.99403       -12.06182        15.30696
| 61>    C       -5.17004       -13.28147        16.01011
| 62>    C       -4.78789       -13.23815        17.31381
| 63>    C       -4.28460       -11.97863        17.72436
| 64>    S       -4.33499       -10.84530        16.38765
| 65>    C       -3.79863       -11.61994        18.95966
| 66>    C       -3.68242       -12.44275        20.11651
| 67>    C       -3.15243       -11.81925        21.19110
| 68>    C       -2.80430       -10.44453        20.96703
| 69>    S       -3.20805       -10.00798        19.29878
| 70>    C       -2.26500        -9.58173        21.83823
| 71>    H       -0.23919         0.11965         4.90902
| 72>    H        1.06860         1.09407         0.92788
| 73>    H        1.14685         1.95822         5.81532
| 74>    H        3.93819         5.06042         3.94880
| 75>    H        3.87426         4.61041         1.45891
| 76>    H       -0.34840        -0.43301         0.30295
| 77>    H       -1.77339        -2.46241         0.02168
| 78>    H       -3.03760        -4.30098         2.28335
| 79>    H       -2.82999        -4.03676         6.23462
| 80>    H       -3.82099        -5.94724         4.04167
| 81>    H       -4.42352        -7.63196        12.98277
| 82>    H       -5.51240       -11.14523        11.36283
| 83>    H       -4.67077        -9.78438        13.98773
| 84>    H       -5.64021       -12.64190        13.38794
| 85>    H       -5.57083       -14.15222        15.52176
| 86>    H       -4.84876       -14.07201        17.98994
| 87>    H       -3.99818       -13.47090        20.10581
| 88>    H       -2.98717       -12.27714        22.15027
| 89>    H       -2.03600        -9.88708        22.84394
| 90>    H       -2.04171        -8.56680        21.56399
| 91> *
| 92>
| 93>                          ****END OF INPUT****

CARTESIAN COORDINATES (ANGSTROEM)
---------------------------------
  C      0.351510    0.739030    4.252300
  C      0.314300    0.475190    2.857800
  C      1.053270    1.256210    1.995050
  C      1.845270    2.304980    2.492940
  C      1.880500    2.559640    3.893160
  C      1.111460    1.751210    4.757710
  N      2.639500    3.555990    4.390740
  C      3.332150    4.263530    3.539050
  C      3.296940    4.012140    2.151550
  N      2.570910    3.057230    1.636030
  C     -0.496360   -0.633110    2.401190
  N     -0.714290   -0.955400    1.082890
  C     -1.495820   -2.060650    0.975670
  C     -1.800930   -2.481880    2.253780
  C     -1.171220   -1.573930    3.142790
  S     -1.539400   -2.097750    4.799490
  O     -2.390380   -1.152780    5.470080
  O     -0.356210   -2.524580    5.494160
  C     -2.496210   -3.531100    4.220780
  C     -2.526560   -3.554450    2.870620
  C     -3.009050   -4.384110    5.223950
  C     -3.639620   -5.569040    5.038270
  C     -4.062200   -6.398150    6.107450
  S     -3.857300   -5.931770    7.766650
  C     -4.520200   -7.429770    8.330250
  C     -4.891210   -8.249720    7.265590
  C     -4.638210   -7.661730    6.019230
  S     -4.961550   -8.366920    4.442130
  C     -5.765180   -9.925110    4.659670
  O     -6.087930  -10.508670    3.661460
  C     -6.038440  -10.551150    6.010450
  O     -6.577900  -11.624430    6.055540
  S     -5.589670   -9.832300    7.559790
  C     -4.599740   -7.753460    9.708890
  O     -4.946850   -9.008150   10.061770
  C     -4.902590   -9.109920   11.413990
  C     -4.534960   -7.883530   11.948990
  C     -4.344290   -7.016980   10.864920
  C     -3.964150   -5.584220   10.978540
  F     -4.822780   -4.765390   10.341680
  F     -3.934680   -5.179560   12.254500
  F     -2.745360   -5.320490   10.470720
  C     -5.187000  -10.354250   12.022990
  C     -5.025110  -10.588390   13.356350
  C     -5.255550  -11.822980   13.980530
  C     -4.994030  -12.061820   15.306960
  C     -5.170040  -13.281470   16.010110
  C     -4.787890  -13.238150   17.313810
  C     -4.284600  -11.978630   17.724360
  S     -4.334990  -10.845300   16.387650
  C     -3.798630  -11.619940   18.959660
  C     -3.682420  -12.442750   20.116510
  C     -3.152430  -11.819250   21.191100
  C     -2.804300  -10.444530   20.967030
  S     -3.208050  -10.007980   19.298780
  C     -2.265000   -9.581730   21.838230
  H     -0.239190    0.119650    4.909020
  H      1.068600    1.094070    0.927880
  H      1.146850    1.958220    5.815320
  H      3.938190    5.060420    3.948800
  H      3.874260    4.610410    1.458910
  H     -0.348400   -0.433010    0.302950
  H     -1.773390   -2.462410    0.021680
  H     -3.037600   -4.300980    2.283350
  H     -2.829990   -4.036760    6.234620
  H     -3.820990   -5.947240    4.041670
  H     -4.423520   -7.631960   12.982770
  H     -5.512400  -11.145230   11.362830
  H     -4.670770   -9.784380   13.987730
  H     -5.640210  -12.641900   13.387940
  H     -5.570830  -14.152220   15.521760
  H     -4.848760  -14.072010   17.989940
  H     -3.998180  -13.470900   20.105810
  H     -2.987170  -12.277140   22.150270
  H     -2.036000   -9.887080   22.843940
  H     -2.041710   -8.566800   21.563990

 Total Charge           Charge          ....    0
 Multiplicity           Mult            ....    1
 Number of Electrons    NEL             ....  438
 Basis Dimension        Dim             ....  908

ORBITAL ENERGIES
----------------

  NO   OCC          E(Eh)            E(eV)
   0   2.0000     -89.140000     -2425.6227
   1   2.0000     -88.975280     -2421.1405
   2   2.0000     -88.968242     -2420.9489
   3   2.0000     -88.964997     -2420.8606
   4   2.0000     -88.944733     -2420.3092
   5   2.0000     -88.941527     -2420.2220
   6   2.0000     -24.799237      -674.8215
   7   2.0000     -24.795194      -674.7115
   8   2.0000     -24.795026      -674.7070
   9   2.0000     -19.308852      -525.4206
  10   2.0000     -19.237447      -523.4776
  11   2.0000     -19.234979      -523.4104
  12   2.0000     -19.190742      -522.2066
  13   2.0000     -19.189521      -522.1734
  14   2.0000     -14.487597      -394.2276
  15   2.0000     -14.420230      -392.3944
  16   2.0000     -14.418625      -392.3507
  17   2.0000     -10.520324      -286.2726
  18   2.0000     -10.402431      -283.0645
  19   2.0000     -10.398927      -282.9692
  20   2.0000     -10.359572      -281.8983
  21   2.0000     -10.343970      -281.4737
  22   2.0000     -10.332457      -281.1605
  23   2.0000     -10.331085      -281.1231
  24   2.0000     -10.330630      -281.1107
  25   2.0000     -10.329308      -281.0748
  26   2.0000     -10.323746      -280.9234
  27   2.0000     -10.323237      -280.9096
  28   2.0000     -10.314313      -280.6667
  29   2.0000     -10.314007      -280.6584
  30   2.0000     -10.313620      -280.6479
  31   2.0000     -10.312808      -280.6258
  32   2.0000     -10.311286      -280.5843
  33   2.0000     -10.310599      -280.5657
  34   2.0000     -10.310440      -280.5613
  35   2.0000     -10.309153      -280.5263
  36   2.0000     -10.307456      -280.4801
  37   2.0000     -10.305034      -280.4142
  38   2.0000     -10.301766      -280.3253
  39   2.0000     -10.300968      -280.3036
  40   2.0000     -10.300248      -280.2840
  41   2.0000     -10.297027      -280.1964
  42   2.0000     -10.292278      -280.0671
  43   2.0000     -10.291638      -280.0497
  44   2.0000     -10.288172      -279.9554
  45   2.0000     -10.287514      -279.9375
  46   2.0000     -10.286553      -279.9113
  47   2.0000     -10.285822      -279.8914
  48   2.0000     -10.285657      -279.8870
  49   2.0000     -10.285244      -279.8757
  50   2.0000     -10.283911      -279.8394
  51   2.0000     -10.283791      -279.8362
  52   2.0000     -10.281154      -279.7644
  53   2.0000     -10.278554      -279.6937
  54   2.0000     -10.276597      -279.6404
  55   2.0000     -10.273578      -279.5583
  56   2.0000      -8.204325      -223.2510
  57   2.0000      -8.070136      -219.5996
  58   2.0000      -8.064826      -219.4551
  59   2.0000      -8.061187      -219.3560
  60   2.0000      -8.041092      -218.8092
  61   2.0000      -8.038190      -218.7303
  62   2.0000      -6.173493      -167.9893
  63   2.0000      -6.173048      -167.9772
  64   2.0000      -6.172507      -167.9625
  65   2.0000      -6.039571      -164.3451
  66   2.0000      -6.035451      -164.2330
  67   2.0000      -6.034657      -164.2114
  68   2.0000      -6.031831      -164.1345
  69   2.0000      -6.031133      -164.1155
  70   2.0000      -6.030117      -164.0878
  71   2.0000      -6.026373      -163.9860
  72   2.0000      -6.025720      -163.9682
  73   2.0000      -6.021947      -163.8655
  74   2.0000      -6.010807      -163.5624
  75   2.0000      -6.008014      -163.4864
  76   2.0000      -6.006930      -163.4569
  77   2.0000      -6.004082      -163.3794
  78   2.0000      -6.001883      -163.3195
  79   2.0000      -5.998750      -163.2343
  80   2.0000      -1.386867       -37.7386
  81   2.0000      -1.290393       -35.1134
  82   2.0000      -1.286393       -35.0045
  83   2.0000      -1.228317       -33.4242
  84   2.0000      -1.195906       -32.5423
  85   2.0000      -1.174170       -31.9508
  86   2.0000      -1.141410       -31.0593
  87   2.0000      -1.102129       -29.9905
  88   2.0000      -1.074443       -29.2371
  89   2.0000      -1.072862       -29.1941
  90   2.0000      -1.020393       -27.7663
  91   2.0000      -0.997359       -27.1395
  92   2.0000      -0.995099       -27.0780
  93   2.0000      -0.972290       -26.4574
  94   2.0000      -0.965040       -26.2601
  95   2.0000      -0.955879       -26.0108
  96   2.0000      -0.937793       -25.5187
  97   2.0000      -0.934317       -25.4241
  98   2.0000      -0.927210       -25.2307
  99   2.0000      -0.914123       -24.8745
 100   2.0000      -0.898852       -24.4590
 101   2.0000      -0.887606       -24.1530
 102   2.0000      -0.882082       -24.0027
 103   2.0000      -0.868654       -23.6373
 104   2.0000      -0.858686       -23.3660
 105   2.0000      -0.847468       -23.0608
 106   2.0000      -0.846591       -23.0369
 107   2.0000      -0.838556       -22.8183
 108   2.0000      -0.830532       -22.5999
 109   2.0000      -0.827623       -22.5208
 110   2.0000      -0.820119       -22.3166
 111   2.0000      -0.808547       -22.0017
 112   2.0000      -0.797403       -21.6984
 113   2.0000      -0.782894       -21.3036
 114   2.0000      -0.780621       -21.2418
 115   2.0000      -0.755719       -20.5642
 116   2.0000      -0.752864       -20.4865
 117   2.0000      -0.747025       -20.3276
 118   2.0000      -0.735955       -20.0264
 119   2.0000      -0.733694       -19.9648
 120   2.0000      -0.720368       -19.6022
 121   2.0000      -0.707051       -19.2398
 122   2.0000      -0.703285       -19.1374
 123   2.0000      -0.695916       -18.9368
 124   2.0000      -0.686803       -18.6888
 125   2.0000      -0.671332       -18.2679
 126   2.0000      -0.669399       -18.2153
 127   2.0000      -0.668919       -18.2022
 128   2.0000      -0.665868       -18.1192
 129   2.0000      -0.659749       -17.9527
 130   2.0000      -0.657115       -17.8810
 131   2.0000      -0.639465       -17.4007
 132   2.0000      -0.637550       -17.3486
 133   2.0000      -0.632441       -17.2096
 134   2.0000      -0.624954       -17.0059
 135   2.0000      -0.621453       -16.9106
 136   2.0000      -0.618079       -16.8188
 137   2.0000      -0.614249       -16.7146
 138   2.0000      -0.604758       -16.4563
 139   2.0000      -0.600974       -16.3533
 140   2.0000      -0.598747       -16.2927
 141   2.0000      -0.597029       -16.2460
 142   2.0000      -0.589348       -16.0370
 143   2.0000      -0.586664       -15.9639
 144   2.0000      -0.576997       -15.7009
 145   2.0000      -0.571578       -15.5534
 146   2.0000      -0.562919       -15.3178
 147   2.0000      -0.556293       -15.1375
 148   2.0000      -0.548918       -14.9368
 149   2.0000      -0.546828       -14.8800
 150   2.0000      -0.546600       -14.8737
 151   2.0000      -0.545555       -14.8453
 152   2.0000      -0.544902       -14.8275
 153   2.0000      -0.544109       -14.8060
 154   2.0000      -0.541273       -14.7288
 155   2.0000      -0.540159       -14.6985
 156   2.0000      -0.535973       -14.5846
 157   2.0000      -0.527133       -14.3440
 158   2.0000      -0.523210       -14.2373
 159   2.0000      -0.522863       -14.2278
 160   2.0000      -0.521443       -14.1892
 161   2.0000      -0.519941       -14.1483
 162   2.0000      -0.515136       -14.0176
 163   2.0000      -0.512364       -13.9421
 164   2.0000      -0.510163       -13.8822
 165   2.0000      -0.509740       -13.8707
 166   2.0000      -0.508079       -13.8255
 167   2.0000      -0.507592       -13.8123
 168   2.0000      -0.503647       -13.7049
 169   2.0000      -0.503409       -13.6984
 170   2.0000      -0.497447       -13.5362
 171   2.0000      -0.497090       -13.5265
 172   2.0000      -0.491072       -13.3628
 173   2.0000      -0.482888       -13.1401
 174   2.0000      -0.482232       -13.1222
 175   2.0000      -0.478741       -13.0272
 176   2.0000      -0.476458       -12.9651
 177   2.0000      -0.475749       -12.9458
 178   2.0000      -0.473792       -12.8925
 179   2.0000      -0.471243       -12.8232
 180   2.0000      -0.465475       -12.6662
 181   2.0000      -0.459515       -12.5040
 182   2.0000      -0.455925       -12.4064
 183   2.0000      -0.455603       -12.3976
 184   2.0000      -0.453976       -12.3533
 185   2.0000      -0.452260       -12.3066
 186   2.0000      -0.443309       -12.0631
 187   2.0000      -0.439993       -11.9728
 188   2.0000      -0.430899       -11.7254
 189   2.0000      -0.430237       -11.7074
 190   2.0000      -0.424910       -11.5624
 191   2.0000      -0.421679       -11.4745
 192   2.0000      -0.420141       -11.4326
 193   2.0000      -0.418289       -11.3822
 194   2.0000      -0.410698       -11.1757
 195   2.0000      -0.402053       -10.9404
 196   2.0000      -0.398750       -10.8505
 197   2.0000      -0.398559       -10.8453
 198   2.0000      -0.394942       -10.7469
 199   2.0000      -0.385568       -10.4918
 200   2.0000      -0.384471       -10.4620
 201   2.0000      -0.382422       -10.4062
 202   2.0000      -0.374083       -10.1793
 203   2.0000      -0.367335        -9.9957
 204   2.0000      -0.364778        -9.9261
 205   2.0000      -0.357668        -9.7326
 206   2.0000      -0.348015        -9.4700
 207   2.0000      -0.343442        -9.3455
 208   2.0000      -0.340018        -9.2524
 209   2.0000      -0.336024        -9.1437
 210   2.0000      -0.327036        -8.8991
 211   2.0000      -0.318043        -8.6544
 212   2.0000      -0.317240        -8.6325
 213   2.0000      -0.315191        -8.5768
 214   2.0000      -0.300831        -8.1860
 215   2.0000      -0.292623        -7.9627
 216   2.0000      -0.277902        -7.5621
 217   2.0000      -0.250969        -6.8292
 218   2.0000      -0.214036        -5.8242
 219   0.0000      -0.083910        -2.2833
 220   0.0000      -0.064163        -1.7460
 221   0.0000      -0.051192        -1.3930
 222   0.0000      -0.044670        -1.2155
 223   0.0000      -0.020562        -0.5595

MULLIKEN ATOMIC CHARGES
-----------------------
   0 C :    0.016808
   1 C :    0.162274
   2 C :   -0.116410
   3 C :   -0.001974
   4 C :   -0.031853
   5 C :    0.017293
   6 N :   -0.013765
   7 C :    0.019644
   8 C :    0.022458
   9 N :   -0.021088
  10 C :    0.006747
  11 N :   -0.033263
  12 C :    0.002142
  13 C :    0.058412
  14 C :   -0.075567
  15 S :    0.798262
  16 O :   -0.454516
  17 O :   -0.454891
  18 C :   -0.066954
  19 C :    0.031216
  20 C :    0.065068
  21 C :   -0.005029
  22 C :   -0.076987
  23 S :    0.169686
  24 C :   -0.162301
  25 C :   -0.011240
  26 C :   -0.037923
  27 S :    0.072739
  28 C :    0.081456
  29 O :   -0.133031
  30 C :    0.074727
  31 O :   -0.138956
  32 S :    0.112933
  33 C :    0.155491
  34 O :   -0.208781
  35 C :    0.211260
  36 C :   -0.086296
  37 C :   -0.143424
  38 C :    0.534143
  39 F :   -0.164402
  40 F :   -0.151175
  41 F :   -0.163888
  42 C :   -0.008910
  43 C :    0.005666
  44 C :   -0.015740
  45 C :   -0.014299
  46 C :    0.035864
  47 C :    0.031023
  48 C :   -0.049702
  49 S :    0.065300
  50 C :   -0.063372
  51 C :    0.030785
  52 C :    0.054147
  53 C :   -0.066948
  54 S :    0.085082
  55 C :   -0.024339
  56 H :   -0.021014
  57 H :   -0.056145
  58 H :   -0.013883
  59 H :    0.011759
  60 H :    0.010523
  61 H :    0.136196
  62 H :    0.002927
  63 H :   -0.008685
  64 H :    0.015885
  65 H :    0.005446
  66 H :    0.001257
  67 H :   -0.001953
  68 H :    0.004091
  69 H :   -0.014162
  70 H :   -0.011376
  71 H :   -0.011422
  72 H :   -0.010563
  73 H :   -0.009414
  74 H :    0.021921
  75 H :    0.025014
Sum of atomic charges:    0.0000000

LOEWDIN ATOMIC CHARGES
----------------------
   0 C :    0.004395
   1 C :   -0.022520
   2 C :   -0.025416
   3 C :   -0.011749
   4 C :   -0.013190
   5 C :    0.001811
   6 N :   -0.037100
   7 C :   -0.000342
   8 C :    0.001360
   9 N :   -0.046536
  10 C :    0.007254
  11 N :    0.106228
  12 C :    0.008847
  13 C :   -0.086640
  14 C :   -0.218840
  15 S :    1.173153
  16 O :   -0.497262
  17 O :   -0.496943
  18 C :   -0.161556
  19 C :    0.004195
  20 C :   -0.034412
  21 C :   -0.031748
  22 C :   -0.184337
  23 S :    0.494022
  24 C :   -0.202950
  25 C :   -0.215101
  26 C :   -0.216248
  27 S :    0.381577
  28 C :   -0.111653
  29 O :   -0.106103
  30 C :   -0.117343
  31 O :   -0.109354
  32 S :    0.403055
  33 C :    0.020152
  34 O :    0.018715
  35 C :    0.041743
  36 C :   -0.042944
  37 C :   -0.120756
  38 C :    0.161778
  39 F :   -0.064593
  40 F :   -0.051518
  41 F :   -0.064186
  42 C :   -0.047089
  43 C :   -0.010101
  44 C :   -0.066031
  45 C :   -0.134659
  46 C :   -0.037240
  47 C :   -0.025033
  48 C :   -0.183308
  49 S :    0.365538
  50 C :   -0.172567
  51 C :   -0.027043
  52 C :   -0.027439
  53 C :   -0.139982
  54 S :    0.356173
  55 C :   -0.070070
  56 H :    0.025472
  57 H :    0.023372
  58 H :    0.041267
  59 H :    0.025872
  60 H :    0.025344
  61 H :    0.095281
  62 H :    0.026915
  63 H :    0.036231
  64 H :    0.029351
  65 H :    0.029241
  66 H :    0.037005
  67 H :    0.038599
  68 H :    0.022944
  69 H :    0.033768
  70 H :    0.034098
  71 H :    0.032360
  72 H :    0.032853
  73 H :    0.034360
  74 H :    0.029738
  75 H :    0.027832

  Mayer bond orders larger than 0.100000
B(  0-C ,  1-C ) :   1.2287 B(  0-C ,  5-C ) :   1.4938 B(  0-C , 56-H ) :   0.9725
B(  1-C ,  2-C ) :   1.3443 B(  1-C , 10-C ) :   1.0413 B(  2-C ,  3-C ) :   1.2428
B(  2-C , 57-H ) :   1.0095 B(  3-C ,  4-C ) :   1.2476 B(  3-C ,  9-N ) :   1.4311
B(  4-C ,  5-C ) :   1.2238 B(  4-C ,  6-N ) :   1.4381 B(  5-C , 58-H ) :   1.0076
B(  6-N ,  7-C ) :   1.6671 B(  7-C ,  8-C ) :   1.2310 B(  7-C , 59-H ) :   0.9741
B(  8-C ,  9-N ) :   1.6687 B(  8-C , 60-H ) :   0.9737 B( 10-C , 11-N ) :   1.2654
B( 10-C , 14-C ) :   1.5107 B( 11-N , 12-C ) :   1.2227 B( 11-N , 61-H ) :   0.9253
B( 12-C , 13-C ) :   1.4329 B( 12-C , 62-H ) :   0.9873 B( 13-C , 14-C ) :   1.3334
B( 13-C , 19-C ) :   1.0559 B( 14-C , 15-S ) :   0.8172 B( 15-S , 16-O ) :   1.6856
B( 15-S , 17-O ) :   1.7130 B( 15-S , 18-C ) :   0.8188 B( 18-C , 19-C ) :   1.6825
B( 18-C , 20-C ) :   1.1345 B( 19-C , 63-H ) :   0.9905 B( 20-C , 21-C ) :   1.6813
B( 20-C , 64-H ) :   0.9466 B( 21-C , 22-C ) :   1.1759 B( 21-C , 65-H ) :   0.9630
B( 22-C , 23-S ) :   1.1121 B( 22-C , 24-C ) :   0.1218 B( 22-C , 26-C ) :   1.5367
B( 23-S , 24-C ) :   1.1544 B( 24-C , 25-C ) :   1.5338 B( 24-C , 33-C ) :   1.1373
B( 25-C , 26-C ) :   1.3074 B( 25-C , 32-S ) :   0.9788 B( 26-C , 27-S ) :   0.9632
B( 27-S , 28-C ) :   1.0487 B( 27-S , 29-O ) :   0.1389 B( 28-C , 29-O ) :   2.1593
B( 28-C , 30-C ) :   0.7721 B( 30-C , 31-O ) :   2.1487 B( 30-C , 32-S ) :   1.0487
B( 31-O , 32-S ) :   0.1375 B( 33-C , 34-O ) :   1.1624 B( 33-C , 35-C ) :   0.1050
B( 33-C , 37-C ) :   1.4454 B( 34-O , 35-C ) :   1.0995 B( 35-C , 36-C ) :   1.4301
B( 35-C , 42-C ) :   1.1245 B( 36-C , 37-C ) :   1.2763 B( 36-C , 66-H ) :   1.0134
B( 37-C , 38-C ) :   0.9489 B( 38-C , 39-F ) :   1.1660 B( 38-C , 40-F ) :   1.1820
B( 38-C , 41-F ) :   1.1615 B( 42-C , 43-C ) :   1.6201 B( 42-C , 67-H ) :   0.9747
B( 43-C , 44-C ) :   1.1727 B( 43-C , 68-H ) :   0.9673 B( 44-C , 45-C ) :   1.5576
B( 44-C , 69-H ) :   0.9847 B( 45-C , 46-C ) :   1.1376 B( 45-C , 49-S ) :   1.0383
B( 46-C , 47-C ) :   1.6021 B( 46-C , 70-H ) :   0.9989 B( 47-C , 48-C ) :   1.1766
B( 47-C , 71-H ) :   0.9930 B( 48-C , 49-S ) :   1.0353 B( 48-C , 50-C ) :   1.5509
B( 50-C , 51-C ) :   1.1509 B( 50-C , 54-S ) :   1.0515 B( 51-C , 52-C ) :   1.6642
B( 51-C , 72-H ) :   0.9918 B( 52-C , 53-C ) :   1.0789 B( 52-C , 73-H ) :   0.9927
B( 53-C , 54-S ) :   1.0067 B( 53-C , 55-C ) :   1.8662 B( 55-C , 74-H ) :   0.9506
B( 55-C , 75-H ) :   0.9413

-----------------------------------------------------------------------------
         ABSORPTION SPECTRUM VIA TRANSITION ELECTRIC DIPOLE MOMENTS
-----------------------------------------------------------------------------
State   Energy  Wavelength   fosc         T2         TX        TY        TZ
        (cm-1)    (nm)                  (au**2)     (au)      (au)      (au)
-----------------------------------------------------------------------------
   0   15386.8    649.9   2.042626930  43.70342   0.18153  -2.12313   6.25802
   1   20883.0    478.9   0.211064452   3.32735   1.17097   0.96453   1.01284
   2   22737.6    439.8   0.006688536   0.09684  -0.15903  -0.12071  -0.23871
   3   23163.6    431.7   0.712296187  10.12348  -1.58222  -2.49145   1.18858
   4   27047.7    369.7   0.123860667   1.50757  -0.70591  -0.89956   0.44728
   5   28438.2    351.6   0.002961366   0.03428   0.15549   0.01420  -0.09951
   6   29082.3    343.9   0.057307795   0.64872   0.46759   0.64585   0.11386
   7   29345.7    340.8   0.000577875   0.00648  -0.00379   0.02988   0.07467
   8   29884.9    334.6   0.058121317   0.64026  -0.02339   0.02154   0.79953
   9   30099.6    332.2   0.013872347   0.15173   0.15017   0.27253   0.23432
  10   30691.9    325.8   0.007212531   0.07736   0.22185  -0.16656   0.02018
  11   30949.2    323.1   0.078066571   0.83041   0.32715   0.75225   0.39687
  12   31799.0    314.5   0.031977041   0.33105   0.09195   0.40741  -0.39575
  13   32905.1    303.9   0.359395469   3.59571   0.87460   1.54908   0.65661
  14   32961.7    303.4   0.035194014   0.35151   0.49182   0.32297  -0.07292
  15   33562.6    298.0   0.036231313   0.35539  -0.29998  -0.46794  -0.21547
  16   34378.2    290.9   0.001657672   0.01587  -0.06003  -0.10895  -0.02000
  17   34569.7    289.3   0.093948402   0.89468   0.33124   0.84075   0.27946
  18   35477.7    281.9   0.026964926   0.25022   0.04236   0.46430   0.18125
  19   36045.3    277.4   0.284630400   2.59961  -0.66906  -1.33613   0.60558
  20   36797.5    271.8   0.021776527   0.19483   0.07972   0.39895  -0.17120
  21   37225.0    268.6   0.127116290   1.12420  -0.51926  -0.90880  -0.16923
  22   37426.8    267.2   0.070301561   0.61838   0.47824   0.62396  -0.01839
  23   37809.7    264.5   0.002789359   0.02429  -0.13014  -0.07336  -0.04437
  24   38235.6    261.5   0.016977050   0.14617   0.03320   0.30597   0.22684
  25   38627.5    258.9   0.067876370   0.57849   0.01913   0.64090  -0.40911
  26   38930.2    256.9   0.227369431   1.92274  -0.70272  -0.95896  -0.71368
  27   39682.1    252.0   0.043486636   0.36078  -0.17563  -0.14860   0.55484
  28   40027.1    249.8   0.000610180   0.00502   0.05830   0.03655   0.01682
  29   40097.4    249.4   0.077717346   0.63808   0.49585   0.61709  -0.10681

FINAL SINGLE POINT ENERGY     -4723.520355333259

DIPOLE MOMENT
-------------
                                X             Y             Z
Electronic contribution:    -16.59194      -0.91826     -16.65501
Nuclear contribution   :     17.22195       0.45007      16.78909
                        -----------------------------------------
Total Dipole Moment    :      0.63001      -0.46820       0.13407
                        -----------------------------------------
Magnitude (a.u.)       :      0.79630
Magnitude (Debye)      :      2.02404

Rotational constants in cm-1:     0.001731     0.000360     0.000303
Rotational constants in MHz :    51.886195    10.792370     9.073216

                             ****ORCA TERMINATED NORMALLY****
TOTAL RUN TIME: 0 days 0 hours 5 minutes 28 seconds 329 msec
