                         Program Version 4.2.0 -  RELEASE  -
|  1> # ORCA input file
|  2> # SCF done       -158.157669467183          0.000336128096
|  3> ! CAM-B3LYP def2-SVP def2/J RIJCOSX Grid4 TightSCF
|  4> %maxcore 5000
|  5> %tddft
|  6>     Mode sTDDFT
|  7>     Ethresh 5.0
|  8>     maxcore 5000
|  9> end
| 10>
| 11> %pal
| 12>   nprocs 6
| 13>   end
| 14> * xyz 0 1
| 15>    C       -4.67238        -0.82060        -0.86648
| 16>    C       -3.50297        -1.53864        -0.50321
| 17>    C       -2.30558        -1.25685        -1.12465
| 18>    C       -2.24398        -0.24575        -2.09970
| 19>    C       -3.41703         0.48400        -2.44237
| 20>    C       -4.63459         0.16564        -1.80541
| 21>    N       -3.37430         1.46538        -3.36644
| 22>    C       -2.22108         1.70379        -3.93013
| 23>    C       -1.06035         0.96920        -3.60370
| 24>    N       -1.06837         0.01874        -2.71082
| 25>    C       -3.63300        -2.56524         0.51381
| 26>    O       -4.84889        -3.10385         0.71170
| 27>    C       -4.76741        -4.01351         1.71051
| 28>    C       -3.47155        -4.06115         2.18029
| 29>    C       -2.74097        -3.13279         1.41118
| 30>    C       -1.30136        -2.82348         1.61411
| 31>    F       -1.04776        -1.50311         1.64230
| 32>    F       -0.84518        -3.32127         2.77134
| 33>    F       -0.50836        -3.33655         0.65154
| 34>    C       -5.91975        -4.74488         2.11851
| 35>    C       -7.12523        -4.62124         1.51606
| 36>    C       -8.28001        -5.33999         1.91475
| 37>    S       -9.79838        -5.17517         1.05828
| 38>    C      -10.64864        -6.29429         2.08108
| 39>    C       -9.77574        -6.77692         3.06165
| 40>    C       -8.46534        -6.23718         2.94971
| 41>    O       -7.66256        -6.73205         3.91347
| 42>    C       -8.44890        -7.57910         4.63638
| 43>    N       -7.86181        -8.25010         5.73027
| 44>    O       -8.58746        -9.00103         6.35841
| 45>    O       -6.69094        -8.03683         5.96747
| 46>    C       -9.73801        -7.65096         4.17156
| 47>    C      -12.00409        -6.64960         1.92684
| 48>    O      -12.53614        -7.52361         2.80919
| 49>    C      -13.83722        -7.73350         2.48354
| 50>    C      -14.15427        -6.97647         1.36134
| 51>    C      -12.99109        -6.28651         1.00603
| 52>    C      -12.86096        -5.35082        -0.14064
| 53>    F      -11.92504        -5.73753        -1.02905
| 54>    F      -14.00552        -5.23733        -0.82502
| 55>    F      -12.52056        -4.10319         0.23799
| 56>    C      -14.60204        -8.61415         3.27691
| 57>    C      -15.91691        -8.90906         3.05380
| 58>    C      -16.66220        -9.77842         3.85974
| 59>    C      -17.98616       -10.08381         3.65395
| 60>    C      -18.78960       -10.94447         4.44412
| 61>    C      -20.07434       -11.06293         4.01557
| 62>    C      -20.36543       -10.30340         2.85598
| 63>    S      -18.93720        -9.43067         2.33287
| 64>    C      -21.56260       -10.21452         2.18389
| 65>    C      -22.78595       -10.86466         2.51579
| 66>    C      -23.80577       -10.59348         1.67291
| 67>    C      -23.46641        -9.70264         0.59970
| 68>    S      -21.76331        -9.23779         0.74721
| 69>    C      -24.26278        -9.26119        -0.38271
| 70>    H       -5.59865        -1.06723        -0.37061
| 71>    H       -1.39872        -1.79800        -0.91578
| 72>    H       -5.51647         0.72194        -2.08170
| 73>    H       -2.19523         2.49549        -4.66694
| 74>    H       -0.11478         1.17207        -4.08859
| 75>    H       -3.09173        -4.67260         2.97227
| 76>    H       -5.78216        -5.42183         2.94747
| 77>    H       -7.24159        -3.94928         0.67805
| 78>    H      -10.52696        -8.24701         4.57985
| 79>    H      -15.09789        -6.92441         0.85987
| 80>    H      -14.08449        -9.06753         4.11045
| 81>    H      -16.42608        -8.45328         2.21543
| 82>    H      -16.17253       -10.24224         4.70564
| 83>    H      -18.38654       -11.44617         5.30608
| 84>    H      -20.81804       -11.67226         4.49660
| 85>    H      -22.86225       -11.51062         3.37216
| 86>    H      -24.80145       -10.99001         1.76223
| 87>    H      -25.29207        -9.56955        -0.43533
| 88>    H      -23.90515        -8.59198        -1.14358
| 89> *
| 90>
| 91>                          ****END OF INPUT****

CARTESIAN COORDINATES (ANGSTROEM)
---------------------------------
  C     -4.672380   -0.820600   -0.866480
  C     -3.502970   -1.538640   -0.503210
  C     -2.305580   -1.256850   -1.124650
  C     -2.243980   -0.245750   -2.099700
  C     -3.417030    0.484000   -2.442370
  C     -4.634590    0.165640   -1.805410
  N     -3.374300    1.465380   -3.366440
  C     -2.221080    1.703790   -3.930130
  C     -1.060350    0.969200   -3.603700
  N     -1.068370    0.018740   -2.710820
  C     -3.633000   -2.565240    0.513810
  O     -4.848890   -3.103850    0.711700
  C     -4.767410   -4.013510    1.710510
  C     -3.471550   -4.061150    2.180290
  C     -2.740970   -3.132790    1.411180
  C     -1.301360   -2.823480    1.614110
  F     -1.047760   -1.503110    1.642300
  F     -0.845180   -3.321270    2.771340
  F     -0.508360   -3.336550    0.651540
  C     -5.919750   -4.744880    2.118510
  C     -7.125230   -4.621240    1.516060
  C     -8.280010   -5.339990    1.914750
  S     -9.798380   -5.175170    1.058280
  C    -10.648640   -6.294290    2.081080
  C     -9.775740   -6.776920    3.061650
  C     -8.465340   -6.237180    2.949710
  O     -7.662560   -6.732050    3.913470
  C     -8.448900   -7.579100    4.636380
  N     -7.861810   -8.250100    5.730270
  O     -8.587460   -9.001030    6.358410
  O     -6.690940   -8.036830    5.967470
  C     -9.738010   -7.650960    4.171560
  C    -12.004090   -6.649600    1.926840
  O    -12.536140   -7.523610    2.809190
  C    -13.837220   -7.733500    2.483540
  C    -14.154270   -6.976470    1.361340
  C    -12.991090   -6.286510    1.006030
  C    -12.860960   -5.350820   -0.140640
  F    -11.925040   -5.737530   -1.029050
  F    -14.005520   -5.237330   -0.825020
  F    -12.520560   -4.103190    0.237990
  C    -14.602040   -8.614150    3.276910
  C    -15.916910   -8.909060    3.053800
  C    -16.662200   -9.778420    3.859740
  C    -17.986160  -10.083810    3.653950
  C    -18.789600  -10.944470    4.444120
  C    -20.074340  -11.062930    4.015570
  C    -20.365430  -10.303400    2.855980
  S    -18.937200   -9.430670    2.332870
  C    -21.562600  -10.214520    2.183890
  C    -22.785950  -10.864660    2.515790
  C    -23.805770  -10.593480    1.672910
  C    -23.466410   -9.702640    0.599700
  S    -21.763310   -9.237790    0.747210
  C    -24.262780   -9.261190   -0.382710
  H     -5.598650   -1.067230   -0.370610
  H     -1.398720   -1.798000   -0.915780
  H     -5.516470    0.721940   -2.081700
  H     -2.195230    2.495490   -4.666940
  H     -0.114780    1.172070   -4.088590
  H     -3.091730   -4.672600    2.972270
  H     -5.782160   -5.421830    2.947470
  H     -7.241590   -3.949280    0.678050
  H    -10.526960   -8.247010    4.579850
  H    -15.097890   -6.924410    0.859870
  H    -14.084490   -9.067530    4.110450
  H    -16.426080   -8.453280    2.215430
  H    -16.172530  -10.242240    4.705640
  H    -18.386540  -11.446170    5.306080
  H    -20.818040  -11.672260    4.496600
  H    -22.862250  -11.510620    3.372160
  H    -24.801450  -10.990010    1.762230
  H    -25.292070   -9.569550   -0.435330
  H    -23.905150   -8.591980   -1.143580

 Total Charge           Charge          ....    0
 Multiplicity           Mult            ....    1
 Number of Electrons    NEL             ....  410
 Basis Dimension        Dim             ....  877

ORBITAL ENERGIES
----------------

  NO   OCC          E(Eh)            E(eV)
   0   2.0000     -88.981785     -2421.3175
   1   2.0000     -88.948566     -2420.4135
   2   2.0000     -88.944999     -2420.3165
   3   2.0000     -24.804607      -674.9677
   4   2.0000     -24.800367      -674.8523
   5   2.0000     -24.800012      -674.8426
   6   2.0000     -24.795880      -674.7302
   7   2.0000     -24.792429      -674.6363
   8   2.0000     -24.791775      -674.6185
   9   2.0000     -19.315418      -525.5992
  10   2.0000     -19.310935      -525.4773
  11   2.0000     -19.304981      -525.3153
  12   2.0000     -19.244873      -523.6796
  13   2.0000     -19.242577      -523.6171
  14   2.0000     -14.656584      -398.8259
  15   2.0000     -14.417731      -392.3264
  16   2.0000     -14.417291      -392.3144
  17   2.0000     -10.525117      -286.4030
  18   2.0000     -10.516635      -286.1722
  19   2.0000     -10.389605      -282.7155
  20   2.0000     -10.362467      -281.9771
  21   2.0000     -10.352011      -281.6925
  22   2.0000     -10.351515      -281.6791
  23   2.0000     -10.347542      -281.5709
  24   2.0000     -10.339751      -281.3589
  25   2.0000     -10.332825      -281.1705
  26   2.0000     -10.321545      -280.8635
  27   2.0000     -10.317762      -280.7606
  28   2.0000     -10.315752      -280.7059
  29   2.0000     -10.313978      -280.6576
  30   2.0000     -10.313953      -280.6569
  31   2.0000     -10.312476      -280.6167
  32   2.0000     -10.312462      -280.6163
  33   2.0000     -10.311833      -280.5992
  34   2.0000     -10.310708      -280.5686
  35   2.0000     -10.310388      -280.5599
  36   2.0000     -10.304868      -280.4097
  37   2.0000     -10.304075      -280.3881
  38   2.0000     -10.298969      -280.2492
  39   2.0000     -10.295555      -280.1563
  40   2.0000     -10.295386      -280.1517
  41   2.0000     -10.294558      -280.1292
  42   2.0000     -10.294117      -280.1172
  43   2.0000     -10.291358      -280.0421
  44   2.0000     -10.291307      -280.0407
  45   2.0000     -10.290772      -280.0261
  46   2.0000     -10.290030      -280.0059
  47   2.0000     -10.288689      -279.9695
  48   2.0000     -10.287883      -279.9475
  49   2.0000     -10.285229      -279.8753
  50   2.0000     -10.283258      -279.8217
  51   2.0000     -10.281986      -279.7871
  52   2.0000     -10.280010      -279.7333
  53   2.0000     -10.277055      -279.6529
  54   2.0000     -10.276950      -279.6500
  55   2.0000      -8.076033      -219.7600
  56   2.0000      -8.044982      -218.9151
  57   2.0000      -8.041755      -218.8273
  58   2.0000      -6.045519      -164.5069
  59   2.0000      -6.041193      -164.3892
  60   2.0000      -6.038016      -164.3028
  61   2.0000      -6.014712      -163.6686
  62   2.0000      -6.011558      -163.5828
  63   2.0000      -6.010796      -163.5621
  64   2.0000      -6.007653      -163.4765
  65   2.0000      -6.005762      -163.4251
  66   2.0000      -6.002293      -163.3307
  67   2.0000      -1.391844       -37.8740
  68   2.0000      -1.383396       -37.6441
  69   2.0000      -1.327002       -36.1096
  70   2.0000      -1.295675       -35.2571
  71   2.0000      -1.291019       -35.1304
  72   2.0000      -1.286755       -35.0144
  73   2.0000      -1.282898       -34.9094
  74   2.0000      -1.234257       -33.5858
  75   2.0000      -1.228958       -33.4417
  76   2.0000      -1.225823       -33.3563
  77   2.0000      -1.143303       -31.1109
  78   2.0000      -1.073017       -29.1983
  79   2.0000      -1.005886       -27.3715
  80   2.0000      -0.998513       -27.1709
  81   2.0000      -0.995838       -27.0981
  82   2.0000      -0.975735       -26.5511
  83   2.0000      -0.958008       -26.0687
  84   2.0000      -0.943243       -25.6670
  85   2.0000      -0.933767       -25.4091
  86   2.0000      -0.926770       -25.2187
  87   2.0000      -0.923641       -25.1335
  88   2.0000      -0.917161       -24.9572
  89   2.0000      -0.897589       -24.4246
  90   2.0000      -0.894953       -24.3529
  91   2.0000      -0.879830       -23.9414
  92   2.0000      -0.869364       -23.6566
  93   2.0000      -0.850862       -23.1531
  94   2.0000      -0.849775       -23.1235
  95   2.0000      -0.845425       -23.0052
  96   2.0000      -0.832371       -22.6500
  97   2.0000      -0.823332       -22.4040
  98   2.0000      -0.812025       -22.0963
  99   2.0000      -0.803750       -21.8711
 100   2.0000      -0.795183       -21.6380
 101   2.0000      -0.793118       -21.5818
 102   2.0000      -0.777015       -21.1436
 103   2.0000      -0.756595       -20.5880
 104   2.0000      -0.744406       -20.2563
 105   2.0000      -0.739453       -20.1215
 106   2.0000      -0.727314       -19.7912
 107   2.0000      -0.719536       -19.5796
 108   2.0000      -0.716783       -19.5047
 109   2.0000      -0.711743       -19.3675
 110   2.0000      -0.700619       -19.0648
 111   2.0000      -0.697437       -18.9782
 112   2.0000      -0.691085       -18.8054
 113   2.0000      -0.682636       -18.5755
 114   2.0000      -0.675688       -18.3864
 115   2.0000      -0.674199       -18.3459
 116   2.0000      -0.671382       -18.2692
 117   2.0000      -0.666218       -18.1287
 118   2.0000      -0.661830       -18.0093
 119   2.0000      -0.660757       -17.9801
 120   2.0000      -0.651290       -17.7225
 121   2.0000      -0.643399       -17.5078
 122   2.0000      -0.641848       -17.4656
 123   2.0000      -0.641119       -17.4457
 124   2.0000      -0.632976       -17.2241
 125   2.0000      -0.623916       -16.9776
 126   2.0000      -0.623628       -16.9698
 127   2.0000      -0.621416       -16.9096
 128   2.0000      -0.607936       -16.5428
 129   2.0000      -0.604568       -16.4511
 130   2.0000      -0.600492       -16.3402
 131   2.0000      -0.596214       -16.2238
 132   2.0000      -0.593246       -16.1430
 133   2.0000      -0.587251       -15.9799
 134   2.0000      -0.580181       -15.7875
 135   2.0000      -0.577152       -15.7051
 136   2.0000      -0.571801       -15.5595
 137   2.0000      -0.568346       -15.4655
 138   2.0000      -0.567584       -15.4448
 139   2.0000      -0.560348       -15.2479
 140   2.0000      -0.556698       -15.1485
 141   2.0000      -0.550789       -14.9877
 142   2.0000      -0.550258       -14.9733
 143   2.0000      -0.546373       -14.8676
 144   2.0000      -0.544520       -14.8171
 145   2.0000      -0.542034       -14.7495
 146   2.0000      -0.538372       -14.6499
 147   2.0000      -0.524850       -14.2819
 148   2.0000      -0.523629       -14.2487
 149   2.0000      -0.521228       -14.1833
 150   2.0000      -0.520214       -14.1557
 151   2.0000      -0.519069       -14.1246
 152   2.0000      -0.517443       -14.0803
 153   2.0000      -0.515037       -14.0149
 154   2.0000      -0.512133       -13.9359
 155   2.0000      -0.509242       -13.8572
 156   2.0000      -0.508304       -13.8316
 157   2.0000      -0.502797       -13.6818
 158   2.0000      -0.500958       -13.6318
 159   2.0000      -0.500803       -13.6275
 160   2.0000      -0.499416       -13.5898
 161   2.0000      -0.497415       -13.5354
 162   2.0000      -0.494996       -13.4695
 163   2.0000      -0.490237       -13.3400
 164   2.0000      -0.488873       -13.3029
 165   2.0000      -0.482669       -13.1341
 166   2.0000      -0.479675       -13.0526
 167   2.0000      -0.478705       -13.0262
 168   2.0000      -0.477761       -13.0005
 169   2.0000      -0.472753       -12.8643
 170   2.0000      -0.469123       -12.7655
 171   2.0000      -0.468797       -12.7566
 172   2.0000      -0.464354       -12.6357
 173   2.0000      -0.462488       -12.5849
 174   2.0000      -0.456128       -12.4119
 175   2.0000      -0.453384       -12.3372
 176   2.0000      -0.448442       -12.2027
 177   2.0000      -0.443724       -12.0743
 178   2.0000      -0.438381       -11.9290
 179   2.0000      -0.435788       -11.8584
 180   2.0000      -0.433987       -11.8094
 181   2.0000      -0.431416       -11.7394
 182   2.0000      -0.425336       -11.5740
 183   2.0000      -0.419254       -11.4085
 184   2.0000      -0.416470       -11.3327
 185   2.0000      -0.402955       -10.9650
 186   2.0000      -0.391201       -10.6451
 187   2.0000      -0.388794       -10.5796
 188   2.0000      -0.386556       -10.5187
 189   2.0000      -0.383050       -10.4233
 190   2.0000      -0.380198       -10.3457
 191   2.0000      -0.379692       -10.3320
 192   2.0000      -0.375058       -10.2058
 193   2.0000      -0.372527       -10.1370
 194   2.0000      -0.354568        -9.6483
 195   2.0000      -0.343219        -9.3395
 196   2.0000      -0.338997        -9.2246
 197   2.0000      -0.328176        -8.9301
 198   2.0000      -0.325818        -8.8660
 199   2.0000      -0.316942        -8.6244
 200   2.0000      -0.315670        -8.5898
 201   2.0000      -0.307636        -8.3712
 202   2.0000      -0.281782        -7.6677
 203   2.0000      -0.247454        -6.7336
 204   2.0000      -0.214651        -5.8410
 205   0.0000      -0.091812        -2.4983
 206   0.0000      -0.067186        -1.8282
 207   0.0000      -0.050209        -1.3663
 208   0.0000      -0.032882        -0.8948
 209   0.0000      -0.014313        -0.3895

MULLIKEN ATOMIC CHARGES
-----------------------
   0 C :    0.023812
   1 C :    0.051496
   2 C :   -0.051850
   3 C :    0.001667
   4 C :   -0.029074
   5 C :    0.016196
   6 N :   -0.015704
   7 C :    0.019293
   8 C :    0.021306
   9 N :   -0.012157
  10 C :    0.165223
  11 O :   -0.197074
  12 C :    0.184744
  13 C :   -0.061172
  14 C :   -0.140428
  15 C :    0.533214
  16 F :   -0.161037
  17 F :   -0.154475
  18 F :   -0.164567
  19 C :   -0.027225
  20 C :    0.054600
  21 C :   -0.175496
  22 S :    0.190722
  23 C :   -0.197052
  24 C :    0.138956
  25 C :    0.191043
  26 O :   -0.190935
  27 C :    0.242292
  28 N :    0.275183
  29 O :   -0.251298
  30 O :   -0.233666
  31 C :   -0.096118
  32 C :    0.176067
  33 O :   -0.206841
  34 C :    0.214522
  35 C :   -0.081202
  36 C :   -0.145645
  37 C :    0.528700
  38 F :   -0.165679
  39 F :   -0.151015
  40 F :   -0.166372
  41 C :   -0.017534
  42 C :    0.010267
  43 C :   -0.022973
  44 C :   -0.009642
  45 C :    0.033357
  46 C :    0.030822
  47 C :   -0.049583
  48 S :    0.071017
  49 C :   -0.064932
  50 C :    0.028587
  51 C :    0.057829
  52 C :   -0.068588
  53 S :    0.086338
  54 C :   -0.024714
  55 H :   -0.007613
  56 H :   -0.021358
  57 H :   -0.022477
  58 H :    0.012434
  59 H :    0.011470
  60 H :    0.001641
  61 H :    0.019012
  62 H :   -0.009274
  63 H :    0.013211
  64 H :   -0.000282
  65 H :   -0.007406
  66 H :    0.003589
  67 H :   -0.014548
  68 H :   -0.011233
  69 H :   -0.010953
  70 H :   -0.009508
  71 H :   -0.008972
  72 H :    0.023177
  73 H :    0.025883
Sum of atomic charges:   -0.0000000

LOEWDIN ATOMIC CHARGES
----------------------
   0 C :   -0.004363
   1 C :   -0.039541
   2 C :    0.002320
   3 C :   -0.013138
   4 C :   -0.012359
   5 C :   -0.008588
   6 N :   -0.040751
   7 C :    0.001840
   8 C :    0.001583
   9 N :   -0.037386
  10 C :    0.060885
  11 O :    0.028704
  12 C :    0.031270
  13 C :   -0.037982
  14 C :   -0.125541
  15 C :    0.170979
  16 F :   -0.059814
  17 F :   -0.053846
  18 F :   -0.064711
  19 C :   -0.031371
  20 C :   -0.037293
  21 C :   -0.197985
  22 S :    0.494161
  23 C :   -0.192374
  24 C :   -0.070160
  25 C :    0.023714
  26 O :    0.003474
  27 C :    0.024284
  28 N :    0.272163
  29 O :   -0.212705
  30 O :   -0.195755
  31 C :   -0.002246
  32 C :    0.028980
  33 O :    0.020061
  34 C :    0.040440
  35 C :   -0.042266
  36 C :   -0.122050
  37 C :    0.163165
  38 F :   -0.066087
  39 F :   -0.051428
  40 F :   -0.066809
  41 C :   -0.050680
  42 C :   -0.009184
  43 C :   -0.067365
  44 C :   -0.135728
  45 C :   -0.037428
  46 C :   -0.024764
  47 C :   -0.183563
  48 S :    0.366491
  49 C :   -0.171793
  50 C :   -0.027033
  51 C :   -0.026249
  52 C :   -0.140049
  53 S :    0.357066
  54 C :   -0.068702
  55 H :    0.031811
  56 H :    0.032065
  57 H :    0.036806
  58 H :    0.025706
  59 H :    0.025865
  60 H :    0.039113
  61 H :    0.042849
  62 H :    0.032742
  63 H :    0.046966
  64 H :    0.036917
  65 H :    0.036308
  66 H :    0.023999
  67 H :    0.033534
  68 H :    0.034163
  69 H :    0.032586
  70 H :    0.033028
  71 H :    0.034720
  72 H :    0.030255
  73 H :    0.028072

  Mayer bond orders larger than 0.100000
B(  0-C ,  1-C ) :   1.2138 B(  0-C ,  5-C ) :   1.4670 B(  0-C , 55-H ) :   0.9956
B(  1-C ,  2-C ) :   1.4116 B(  1-C , 10-C ) :   1.0375 B(  2-C ,  3-C ) :   1.2335
B(  2-C , 56-H ) :   0.9978 B(  3-C ,  4-C ) :   1.2411 B(  3-C ,  9-N ) :   1.4300
B(  4-C ,  5-C ) :   1.2314 B(  4-C ,  6-N ) :   1.4347 B(  5-C , 57-H ) :   1.0080
B(  6-N ,  7-C ) :   1.6702 B(  7-C ,  8-C ) :   1.2242 B(  7-C , 58-H ) :   0.9743
B(  8-C ,  9-N ) :   1.6789 B(  8-C , 59-H ) :   0.9741 B( 10-C , 11-O ) :   1.1771
B( 10-C , 12-C ) :   0.1050 B( 10-C , 14-C ) :   1.5077 B( 11-O , 12-C ) :   1.1311
B( 12-C , 13-C ) :   1.4362 B( 12-C , 19-C ) :   1.1461 B( 13-C , 14-C ) :   1.2333
B( 13-C , 60-H ) :   1.0230 B( 14-C , 15-C ) :   0.9467 B( 15-C , 16-F ) :   1.1719
B( 15-C , 17-F ) :   1.1799 B( 15-C , 18-F ) :   1.1373 B( 19-C , 20-C ) :   1.6562
B( 19-C , 61-H ) :   0.9610 B( 20-C , 21-C ) :   1.1193 B( 20-C , 62-H ) :   0.9652
B( 21-C , 22-S ) :   1.0984 B( 21-C , 23-C ) :   0.1218 B( 21-C , 25-C ) :   1.4483
B( 22-S , 23-C ) :   1.1699 B( 23-C , 24-C ) :   1.3307 B( 23-C , 32-C ) :   1.1782
B( 24-C , 25-C ) :   1.2320 B( 24-C , 31-C ) :   1.0985 B( 25-C , 26-O ) :   1.1056
B( 26-O , 27-C ) :   1.1144 B( 27-C , 28-N ) :   0.9245 B( 27-C , 31-C ) :   1.5349
B( 28-N , 29-O ) :   1.5286 B( 28-N , 30-O ) :   1.5069 B( 29-O , 30-O ) :   0.2779
B( 31-C , 63-H ) :   1.0285 B( 32-C , 33-O ) :   1.1831 B( 32-C , 34-C ) :   0.1045
B( 32-C , 36-C ) :   1.4251 B( 33-O , 34-C ) :   1.0987 B( 34-C , 35-C ) :   1.4212
B( 34-C , 41-C ) :   1.1291 B( 35-C , 36-C ) :   1.2815 B( 35-C , 64-H ) :   1.0119
B( 36-C , 37-C ) :   0.9474 B( 37-C , 38-F ) :   1.1663 B( 37-C , 39-F ) :   1.1844
B( 37-C , 40-F ) :   1.1651 B( 41-C , 42-C ) :   1.6067 B( 41-C , 65-H ) :   0.9741
B( 42-C , 43-C ) :   1.1816 B( 42-C , 66-H ) :   0.9698 B( 43-C , 44-C ) :   1.5455
B( 43-C , 67-H ) :   0.9853 B( 44-C , 45-C ) :   1.1407 B( 44-C , 48-S ) :   1.0400
B( 45-C , 46-C ) :   1.5979 B( 45-C , 68-H ) :   1.0002 B( 46-C , 47-C ) :   1.1771
B( 46-C , 69-H ) :   0.9933 B( 47-C , 48-S ) :   1.0344 B( 47-C , 49-C ) :   1.5488
B( 49-C , 50-C ) :   1.1510 B( 49-C , 53-S ) :   1.0526 B( 50-C , 51-C ) :   1.6631
B( 50-C , 70-H ) :   0.9921 B( 51-C , 52-C ) :   1.0793 B( 51-C , 71-H ) :   0.9926
B( 52-C , 53-S ) :   1.0062 B( 52-C , 54-C ) :   1.8656 B( 54-C , 72-H ) :   0.9506
B( 54-C , 73-H ) :   0.9418

-----------------------------------------------------------------------------
         ABSORPTION SPECTRUM VIA TRANSITION ELECTRIC DIPOLE MOMENTS
-----------------------------------------------------------------------------
State   Energy  Wavelength   fosc         T2         TX        TY        TZ
        (cm-1)    (nm)                  (au**2)     (au)      (au)      (au)
-----------------------------------------------------------------------------
   0   13660.2    732.1   1.951825528  47.03904   6.56647   1.91679   0.49636
   1   19551.8    511.5   0.300263341   5.05581   2.16114   0.46636   0.40965
   2   20719.0    482.6   0.099641064   1.58324  -0.91585  -0.70086   0.50324
   3   23987.8    416.9   0.704787683   9.67260  -1.64006  -1.95315   1.77989
   4   26364.3    379.3   0.005902330   0.07370  -0.19377   0.05110  -0.18315
   5   28044.1    356.6   0.044598319   0.52354   0.36414  -0.31065   0.54262
   6   29115.6    343.5   0.075136483   0.84957  -0.17726   0.50290  -0.75182
   7   29915.6    334.3   0.012642657   0.13913   0.30652   0.00745   0.21241
   8   30798.0    324.7   0.254793190   2.72358   1.31787   0.85653  -0.50314
   9   30882.5    323.8   0.006935842   0.07394  -0.05791  -0.15983  -0.21222
  10   32769.5    305.2   0.143951143   1.44618  -0.20755   0.62731  -1.00478
  11   33720.1    296.6   0.012565303   0.12268  -0.21701   0.20483  -0.18337
  12   34328.7    291.3   0.000104084   0.00100   0.00908   0.03020   0.00195
  13   34756.9    287.7   0.016048585   0.15201   0.35473  -0.00392   0.16175
  14   35097.9    284.9   0.682069918   6.39768  -0.30688   1.49408  -2.01773
  15   35658.4    280.4   0.024508293   0.22627  -0.40095   0.06304  -0.24805
  16   35931.9    278.3   0.041455085   0.37982  -0.06189  -0.35682   0.49866
  17   36871.0    271.2   0.006486689   0.05792  -0.08889  -0.08951   0.20495
  18   37659.8    265.5   0.052085788   0.45532   0.65493   0.15504  -0.04848
  19   37815.9    264.4   0.110428714   0.96135   0.21026   0.74692  -0.59938
  20   38307.2    261.0   0.069581047   0.59798   0.55827  -0.12820   0.51950
  21   39326.3    254.3   0.166747961   1.39590   0.73983  -0.49330   0.77795
  22   39482.1    253.3   0.115213602   0.96068   0.21109   0.57319  -0.76654

FINAL SINGLE POINT ENERGY     -3789.887403409682

DIPOLE MOMENT
-------------
                                X             Y             Z
Electronic contribution:     53.99886      19.22079      -2.53536
Nuclear contribution   :    -57.78010     -20.15914       2.19736
                        -----------------------------------------
Total Dipole Moment    :     -3.78123      -0.93835      -0.33800
                        -----------------------------------------
Magnitude (a.u.)       :      3.91056
Magnitude (Debye)      :      9.93985

Rotational constants in cm-1:     0.002831     0.000341     0.000306
Rotational constants in MHz :    84.884287    10.217610     9.163508

                             ****ORCA TERMINATED NORMALLY****
TOTAL RUN TIME: 0 days 0 hours 5 minutes 39 seconds 90 msec
