                         Program Version 4.2.0 -  RELEASE  -
|  1> # ORCA input file
|  2> # SCF done       -155.949710067790          0.000932641451
|  3> ! CAM-B3LYP def2-SVP def2/J RIJCOSX Grid4 TightSCF
|  4> %maxcore 5000
|  5> %tddft
|  6>     Mode sTDDFT
|  7>     Ethresh 5.0
|  8>     maxcore 5000
|  9> end
| 10>
| 11> %pal
| 12>   nprocs 6
| 13>   end
| 14> * xyz 0 1
| 15>    C        0.89033        -7.64201        -7.49438
| 16>    S       -0.60461        -7.48590        -6.68878
| 17>    C        0.15801        -7.11462        -5.15486
| 18>    C        1.55329        -7.20876        -5.29358
| 19>    C        1.96023        -7.46687        -6.64097
| 20>    C        3.33448        -7.51785        -6.94983
| 21>    C        4.28950        -7.36531        -5.97671
| 22>    O        5.57272        -7.42204        -6.42337
| 23>    C        6.66137        -7.00498        -5.62802
| 24>    C        3.87513        -7.23069        -4.60661
| 25>    O        4.85602        -7.18261        -3.65718
| 26>    C        4.48470        -7.05419        -2.30424
| 27>    C        2.53971        -7.17872        -4.29501
| 28>    C       -0.69354        -6.72047        -4.10874
| 29>    C       -0.44618        -5.92891        -3.01120
| 30>    C       -1.41536        -5.54869        -2.04937
| 31>    C       -0.97030        -4.67516        -1.09998
| 32>    C        0.38348        -4.31663        -1.24817
| 33>    S        1.06598        -5.11240        -2.64909
| 34>    C        1.18281        -3.49749        -0.47204
| 35>    C        0.84197        -2.71902         0.65023
| 36>    C        1.88978        -2.01066         1.16366
| 37>    C        3.11352        -2.19584         0.47801
| 38>    S        2.88707        -3.32177        -0.84291
| 39>    C        4.31026        -1.57999         0.76284
| 40>    C        5.51328        -1.82171         0.06988
| 41>    C        6.70474        -1.15240         0.27955
| 42>    O        7.86836        -1.48514        -0.39612
| 43>    C        7.74862        -2.44799        -1.34966
| 44>    C        6.51050        -3.10691        -1.60172
| 45>    C        6.59026        -4.01795        -2.60221
| 46>    S        8.18783        -4.09447        -3.24937
| 47>    C        8.74750        -2.87856        -2.16082
| 48>    O        5.39730        -2.82780        -0.87891
| 49>    C        6.86395        -0.04240         1.15724
| 50>    C        8.04142         0.60411         1.32082
| 51>    N        8.17300         1.73378         2.06875
| 52>    C        9.37401         2.35157         2.38046
| 53>    C       10.59764         1.74869         2.41455
| 54>    S       11.84840         2.84375         2.84204
| 55>    C       10.72903         4.14003         2.98287
| 56>    C        9.45141         3.75169         2.70090
| 57>    N        8.32488         4.55354         2.68276
| 58>    C        8.28622         5.88546         2.95725
| 59>    C        7.18381         6.64629         2.79873
| 60>    C        7.17708         8.04025         3.09825
| 61>    S        5.74303         9.02685         2.93848
| 62>    C        6.52372        10.47717         3.43907
| 63>    C        7.84226        10.23014         3.72516
| 64>    C        8.19474         8.85609         3.53013
| 65>    O        9.50485         8.64910         3.81739
| 66>    C        9.98161         9.86985         4.18911
| 67>    N       11.34416         9.94320         4.54699
| 68>    O       11.76879        11.03873         4.87432
| 69>    O       11.99674         8.91719         4.50519
| 70>    C        9.04079        10.86328         4.15939
| 71>    H        0.91185        -7.85051        -8.54516
| 72>    H        3.65471        -7.67742        -7.96682
| 73>    H        7.51694        -7.00064        -6.30326
| 74>    H        6.85350        -7.69406        -4.80383
| 75>    H        6.51417        -5.99797        -5.23129
| 76>    H        3.90235        -6.14371        -2.12666
| 77>    H        5.42194        -6.99921        -1.75180
| 78>    H        3.91449        -7.92327        -1.96198
| 79>    H        2.22990        -7.14448        -3.26736
| 80>    H       -1.73356        -6.99747        -4.24178
| 81>    H       -2.41894        -5.93489        -2.09175
| 82>    H       -1.57563        -4.29095        -0.29825
| 83>    H       -0.15846        -2.69225         1.04447
| 84>    H        1.82160        -1.35820         2.01692
| 85>    H        4.32144        -0.87993         1.58115
| 86>    H        5.81278        -4.63945        -2.99131
| 87>    H        9.76717        -2.55631        -2.18322
| 88>    H        5.98831         0.30684         1.67951
| 89>    H        8.93330         0.27376         0.81420
| 90>    H        7.34166         2.06979         2.53499
| 91>    H       10.83208         0.72163         2.22525
| 92>    H       11.09332         5.11074         3.24824
| 93>    H        7.49307         4.15387         2.27054
| 94>    H        9.19947         6.31493         3.33524
| 95>    H        6.26092         6.22217         2.43005
| 96>    H        5.97274        11.39248         3.48687
| 97>    H        9.20317        11.89041         4.41227
| 98> *
| 99>
|100>                          ****END OF INPUT****

CARTESIAN COORDINATES (ANGSTROEM)
---------------------------------
  C      0.890330   -7.642010   -7.494380
  S     -0.604610   -7.485900   -6.688780
  C      0.158010   -7.114620   -5.154860
  C      1.553290   -7.208760   -5.293580
  C      1.960230   -7.466870   -6.640970
  C      3.334480   -7.517850   -6.949830
  C      4.289500   -7.365310   -5.976710
  O      5.572720   -7.422040   -6.423370
  C      6.661370   -7.004980   -5.628020
  C      3.875130   -7.230690   -4.606610
  O      4.856020   -7.182610   -3.657180
  C      4.484700   -7.054190   -2.304240
  C      2.539710   -7.178720   -4.295010
  C     -0.693540   -6.720470   -4.108740
  C     -0.446180   -5.928910   -3.011200
  C     -1.415360   -5.548690   -2.049370
  C     -0.970300   -4.675160   -1.099980
  C      0.383480   -4.316630   -1.248170
  S      1.065980   -5.112400   -2.649090
  C      1.182810   -3.497490   -0.472040
  C      0.841970   -2.719020    0.650230
  C      1.889780   -2.010660    1.163660
  C      3.113520   -2.195840    0.478010
  S      2.887070   -3.321770   -0.842910
  C      4.310260   -1.579990    0.762840
  C      5.513280   -1.821710    0.069880
  C      6.704740   -1.152400    0.279550
  O      7.868360   -1.485140   -0.396120
  C      7.748620   -2.447990   -1.349660
  C      6.510500   -3.106910   -1.601720
  C      6.590260   -4.017950   -2.602210
  S      8.187830   -4.094470   -3.249370
  C      8.747500   -2.878560   -2.160820
  O      5.397300   -2.827800   -0.878910
  C      6.863950   -0.042400    1.157240
  C      8.041420    0.604110    1.320820
  N      8.173000    1.733780    2.068750
  C      9.374010    2.351570    2.380460
  C     10.597640    1.748690    2.414550
  S     11.848400    2.843750    2.842040
  C     10.729030    4.140030    2.982870
  C      9.451410    3.751690    2.700900
  N      8.324880    4.553540    2.682760
  C      8.286220    5.885460    2.957250
  C      7.183810    6.646290    2.798730
  C      7.177080    8.040250    3.098250
  S      5.743030    9.026850    2.938480
  C      6.523720   10.477170    3.439070
  C      7.842260   10.230140    3.725160
  C      8.194740    8.856090    3.530130
  O      9.504850    8.649100    3.817390
  C      9.981610    9.869850    4.189110
  N     11.344160    9.943200    4.546990
  O     11.768790   11.038730    4.874320
  O     11.996740    8.917190    4.505190
  C      9.040790   10.863280    4.159390
  H      0.911850   -7.850510   -8.545160
  H      3.654710   -7.677420   -7.966820
  H      7.516940   -7.000640   -6.303260
  H      6.853500   -7.694060   -4.803830
  H      6.514170   -5.997970   -5.231290
  H      3.902350   -6.143710   -2.126660
  H      5.421940   -6.999210   -1.751800
  H      3.914490   -7.923270   -1.961980
  H      2.229900   -7.144480   -3.267360
  H     -1.733560   -6.997470   -4.241780
  H     -2.418940   -5.934890   -2.091750
  H     -1.575630   -4.290950   -0.298250
  H     -0.158460   -2.692250    1.044470
  H      1.821600   -1.358200    2.016920
  H      4.321440   -0.879930    1.581150
  H      5.812780   -4.639450   -2.991310
  H      9.767170   -2.556310   -2.183220
  H      5.988310    0.306840    1.679510
  H      8.933300    0.273760    0.814200
  H      7.341660    2.069790    2.534990
  H     10.832080    0.721630    2.225250
  H     11.093320    5.110740    3.248240
  H      7.493070    4.153870    2.270540
  H      9.199470    6.314930    3.335240
  H      6.260920    6.222170    2.430050
  H      5.972740   11.392480    3.486870
  H      9.203170   11.890410    4.412270

 Total Charge           Charge          ....    0
 Multiplicity           Mult            ....    1
 Number of Electrons    NEL             ....  440
 Basis Dimension        Dim             ....  943

ORBITAL ENERGIES
----------------

  NO   OCC          E(Eh)            E(eV)
   0   2.0000     -88.971530     -2421.0384
   1   2.0000     -88.952703     -2420.5261
   2   2.0000     -88.950388     -2420.4631
   3   2.0000     -88.948132     -2420.4017
   4   2.0000     -88.931741     -2419.9557
   5   2.0000     -88.929173     -2419.8858
   6   2.0000     -19.306372      -525.3531
   7   2.0000     -19.270212      -524.3691
   8   2.0000     -19.266473      -524.2674
   9   2.0000     -19.244216      -523.6617
  10   2.0000     -19.244048      -523.6572
  11   2.0000     -19.242264      -523.6086
  12   2.0000     -19.227046      -523.1945
  13   2.0000     -14.655001      -398.7829
  14   2.0000     -14.457631      -393.4121
  15   2.0000     -14.456970      -393.3942
  16   2.0000     -10.386285      -282.6252
  17   2.0000     -10.339326      -281.3474
  18   2.0000     -10.336829      -281.2794
  19   2.0000     -10.335765      -281.2505
  20   2.0000     -10.334950      -281.2283
  21   2.0000     -10.332436      -281.1599
  22   2.0000     -10.329389      -281.0770
  23   2.0000     -10.323226      -280.9093
  24   2.0000     -10.323124      -280.9065
  25   2.0000     -10.321248      -280.8554
  26   2.0000     -10.320102      -280.8242
  27   2.0000     -10.319158      -280.7986
  28   2.0000     -10.314575      -280.6739
  29   2.0000     -10.313905      -280.6556
  30   2.0000     -10.311969      -280.6029
  31   2.0000     -10.304968      -280.4124
  32   2.0000     -10.302615      -280.3484
  33   2.0000     -10.297134      -280.1993
  34   2.0000     -10.295079      -280.1433
  35   2.0000     -10.294463      -280.1266
  36   2.0000     -10.294017      -280.1145
  37   2.0000     -10.289556      -279.9931
  38   2.0000     -10.289063      -279.9796
  39   2.0000     -10.288642      -279.9682
  40   2.0000     -10.288454      -279.9631
  41   2.0000     -10.286683      -279.9149
  42   2.0000     -10.284952      -279.8678
  43   2.0000     -10.280330      -279.7420
  44   2.0000     -10.277317      -279.6600
  45   2.0000     -10.277158      -279.6557
  46   2.0000     -10.275652      -279.6147
  47   2.0000     -10.275190      -279.6021
  48   2.0000     -10.273374      -279.5527
  49   2.0000     -10.272955      -279.5413
  50   2.0000     -10.272852      -279.5385
  51   2.0000     -10.269374      -279.4439
  52   2.0000     -10.267766      -279.4001
  53   2.0000     -10.265307      -279.3332
  54   2.0000     -10.256936      -279.1054
  55   2.0000     -10.252695      -278.9900
  56   2.0000      -8.066475      -219.4999
  57   2.0000      -8.048253      -219.0041
  58   2.0000      -8.046268      -218.9501
  59   2.0000      -8.043650      -218.8788
  60   2.0000      -8.027542      -218.4405
  61   2.0000      -8.024376      -218.3544
  62   2.0000      -6.035851      -164.2439
  63   2.0000      -6.031476      -164.1248
  64   2.0000      -6.028826      -164.0527
  65   2.0000      -6.017767      -163.7518
  66   2.0000      -6.015786      -163.6979
  67   2.0000      -6.013620      -163.6389
  68   2.0000      -6.012671      -163.6131
  69   2.0000      -6.011446      -163.5798
  70   2.0000      -6.009944      -163.5389
  71   2.0000      -6.008523      -163.5002
  72   2.0000      -6.008143      -163.4899
  73   2.0000      -6.006428      -163.4432
  74   2.0000      -5.997315      -163.1952
  75   2.0000      -5.994293      -163.1130
  76   2.0000      -5.993129      -163.0813
  77   2.0000      -5.989967      -162.9953
  78   2.0000      -5.988521      -162.9559
  79   2.0000      -5.985267      -162.8674
  80   2.0000      -1.324335       -36.0370
  81   2.0000      -1.224024       -33.3074
  82   2.0000      -1.194340       -32.4996
  83   2.0000      -1.157912       -31.5084
  84   2.0000      -1.150178       -31.2979
  85   2.0000      -1.140737       -31.0410
  86   2.0000      -1.124760       -30.6063
  87   2.0000      -1.072221       -29.1766
  88   2.0000      -1.045101       -28.4386
  89   2.0000      -0.992185       -26.9987
  90   2.0000      -0.983633       -26.7660
  91   2.0000      -0.980086       -26.6695
  92   2.0000      -0.975740       -26.5512
  93   2.0000      -0.967870       -26.3371
  94   2.0000      -0.958505       -26.0822
  95   2.0000      -0.934465       -25.4281
  96   2.0000      -0.913117       -24.8472
  97   2.0000      -0.909638       -24.7525
  98   2.0000      -0.895763       -24.3750
  99   2.0000      -0.883249       -24.0344
 100   2.0000      -0.876049       -23.8385
 101   2.0000      -0.869683       -23.6653
 102   2.0000      -0.847737       -23.0681
 103   2.0000      -0.837518       -22.7900
 104   2.0000      -0.832129       -22.6434
 105   2.0000      -0.828936       -22.5565
 106   2.0000      -0.823910       -22.4197
 107   2.0000      -0.821136       -22.3443
 108   2.0000      -0.811624       -22.0854
 109   2.0000      -0.807787       -21.9810
 110   2.0000      -0.801501       -21.8100
 111   2.0000      -0.794458       -21.6183
 112   2.0000      -0.791255       -21.5311
 113   2.0000      -0.780567       -21.2403
 114   2.0000      -0.776763       -21.1368
 115   2.0000      -0.759997       -20.6806
 116   2.0000      -0.748934       -20.3795
 117   2.0000      -0.734627       -19.9902
 118   2.0000      -0.725863       -19.7517
 119   2.0000      -0.710805       -19.3420
 120   2.0000      -0.703011       -19.1299
 121   2.0000      -0.695713       -18.9313
 122   2.0000      -0.687296       -18.7023
 123   2.0000      -0.684698       -18.6316
 124   2.0000      -0.679499       -18.4901
 125   2.0000      -0.672923       -18.3112
 126   2.0000      -0.665225       -18.1017
 127   2.0000      -0.660939       -17.9851
 128   2.0000      -0.652834       -17.7645
 129   2.0000      -0.650928       -17.7126
 130   2.0000      -0.646090       -17.5810
 131   2.0000      -0.641743       -17.4627
 132   2.0000      -0.639268       -17.3954
 133   2.0000      -0.634793       -17.2736
 134   2.0000      -0.625895       -17.0315
 135   2.0000      -0.620542       -16.8858
 136   2.0000      -0.613014       -16.6810
 137   2.0000      -0.602532       -16.3957
 138   2.0000      -0.600329       -16.3358
 139   2.0000      -0.596128       -16.2215
 140   2.0000      -0.590758       -16.0753
 141   2.0000      -0.585830       -15.9412
 142   2.0000      -0.584875       -15.9153
 143   2.0000      -0.582637       -15.8544
 144   2.0000      -0.579252       -15.7623
 145   2.0000      -0.572053       -15.5664
 146   2.0000      -0.571520       -15.5518
 147   2.0000      -0.562284       -15.3005
 148   2.0000      -0.561601       -15.2819
 149   2.0000      -0.560432       -15.2501
 150   2.0000      -0.553344       -15.0572
 151   2.0000      -0.550526       -14.9806
 152   2.0000      -0.541103       -14.7242
 153   2.0000      -0.537284       -14.6202
 154   2.0000      -0.529510       -14.4087
 155   2.0000      -0.527716       -14.3599
 156   2.0000      -0.521174       -14.1819
 157   2.0000      -0.518369       -14.1055
 158   2.0000      -0.517531       -14.0827
 159   2.0000      -0.512908       -13.9569
 160   2.0000      -0.509929       -13.8759
 161   2.0000      -0.508418       -13.8347
 162   2.0000      -0.504792       -13.7361
 163   2.0000      -0.502566       -13.6755
 164   2.0000      -0.500673       -13.6240
 165   2.0000      -0.496984       -13.5236
 166   2.0000      -0.489876       -13.3302
 167   2.0000      -0.488693       -13.2980
 168   2.0000      -0.485680       -13.2160
 169   2.0000      -0.484058       -13.1719
 170   2.0000      -0.482798       -13.1376
 171   2.0000      -0.479327       -13.0431
 172   2.0000      -0.477012       -12.9802
 173   2.0000      -0.476297       -12.9607
 174   2.0000      -0.474020       -12.8987
 175   2.0000      -0.472277       -12.8513
 176   2.0000      -0.468982       -12.7616
 177   2.0000      -0.466827       -12.7030
 178   2.0000      -0.463704       -12.6180
 179   2.0000      -0.456800       -12.4302
 180   2.0000      -0.450578       -12.2609
 181   2.0000      -0.446688       -12.1550
 182   2.0000      -0.445289       -12.1169
 183   2.0000      -0.444040       -12.0829
 184   2.0000      -0.436663       -11.8822
 185   2.0000      -0.433529       -11.7969
 186   2.0000      -0.431952       -11.7540
 187   2.0000      -0.430816       -11.7231
 188   2.0000      -0.425481       -11.5779
 189   2.0000      -0.424151       -11.5417
 190   2.0000      -0.421775       -11.4771
 191   2.0000      -0.417941       -11.3728
 192   2.0000      -0.415303       -11.3010
 193   2.0000      -0.408175       -11.1070
 194   2.0000      -0.404762       -11.0141
 195   2.0000      -0.402510       -10.9529
 196   2.0000      -0.401919       -10.9368
 197   2.0000      -0.390177       -10.6173
 198   2.0000      -0.388438       -10.5699
 199   2.0000      -0.379936       -10.3386
 200   2.0000      -0.375408       -10.2154
 201   2.0000      -0.372503       -10.1363
 202   2.0000      -0.371406       -10.1065
 203   2.0000      -0.370110       -10.0712
 204   2.0000      -0.354009        -9.6331
 205   2.0000      -0.352802        -9.6002
 206   2.0000      -0.346972        -9.4416
 207   2.0000      -0.326403        -8.8819
 208   2.0000      -0.323031        -8.7901
 209   2.0000      -0.318259        -8.6603
 210   2.0000      -0.312246        -8.4967
 211   2.0000      -0.302285        -8.2256
 212   2.0000      -0.297658        -8.0997
 213   2.0000      -0.295602        -8.0437
 214   2.0000      -0.277213        -7.5433
 215   2.0000      -0.268274        -7.3001
 216   2.0000      -0.260526        -7.0893
 217   2.0000      -0.240268        -6.5380
 218   2.0000      -0.230381        -6.2690
 219   2.0000      -0.185658        -5.0520
 220   0.0000      -0.067709        -1.8425
 221   0.0000      -0.064503        -1.7552
 222   0.0000      -0.017653        -0.4804
 223   0.0000      -0.007008        -0.1907
 224   0.0000       0.012016         0.3270

MULLIKEN ATOMIC CHARGES
-----------------------
   0 C :   -0.130577
   1 S :    0.130276
   2 C :   -0.167930
   3 C :    0.149448
   4 C :    0.117260
   5 C :   -0.097734
   6 C :    0.181447
   7 O :   -0.315953
   8 C :    0.208641
   9 C :    0.168389
  10 O :   -0.336862
  11 C :    0.172803
  12 C :   -0.160451
  13 C :    0.005778
  14 C :   -0.035984
  15 C :    0.031551
  16 C :    0.025601
  17 C :   -0.050636
  18 S :    0.053411
  19 C :   -0.042771
  20 C :    0.028670
  21 C :    0.014951
  22 C :   -0.000183
  23 S :    0.087623
  24 C :   -0.089713
  25 C :    0.171831
  26 C :    0.166767
  27 O :   -0.265477
  28 C :    0.212843
  29 C :    0.244708
  30 C :   -0.188990
  31 S :    0.096792
  32 C :   -0.170290
  33 O :   -0.284978
  34 C :   -0.087639
  35 C :    0.081291
  36 N :   -0.075002
  37 C :    0.125749
  38 C :   -0.193009
  39 S :    0.122388
  40 C :   -0.230346
  41 C :    0.130497
  42 N :   -0.046890
  43 C :    0.061012
  44 C :    0.018223
  45 C :   -0.206659
  46 S :    0.140567
  47 C :   -0.161455
  48 C :    0.145169
  49 C :    0.176519
  50 O :   -0.206926
  51 C :    0.244679
  52 N :    0.274144
  53 O :   -0.249530
  54 O :   -0.238567
  55 C :   -0.079194
  56 H :    0.013216
  57 H :   -0.033543
  58 H :    0.023296
  59 H :    0.025555
  60 H :    0.003602
  61 H :    0.032379
  62 H :    0.037508
  63 H :    0.030566
  64 H :   -0.022045
  65 H :   -0.017518
  66 H :   -0.018565
  67 H :   -0.021321
  68 H :   -0.021135
  69 H :   -0.022632
  70 H :   -0.023772
  71 H :    0.021819
  72 H :    0.020636
  73 H :   -0.028290
  74 H :    0.022784
  75 H :    0.119069
  76 H :    0.015096
  77 H :    0.031022
  78 H :    0.106158
  79 H :    0.031127
  80 H :   -0.039224
  81 H :    0.026797
  82 H :    0.012131
Sum of atomic charges:   -0.0000000

LOEWDIN ATOMIC CHARGES
----------------------
   0 C :   -0.200482
   1 S :    0.459987
   2 C :   -0.189343
   3 C :   -0.050796
   4 C :   -0.052697
   5 C :   -0.046732
   6 C :    0.041258
   7 O :   -0.108269
   8 C :    0.075370
   9 C :    0.034254
  10 O :   -0.101061
  11 C :    0.073069
  12 C :   -0.081866
  13 C :   -0.075848
  14 C :   -0.163029
  15 C :   -0.034453
  16 C :   -0.046504
  17 C :   -0.182147
  18 S :    0.394648
  19 C :   -0.194014
  20 C :   -0.034596
  21 C :   -0.045385
  22 C :   -0.146073
  23 S :    0.382604
  24 C :   -0.081376
  25 C :    0.002713
  26 C :    0.032474
  27 O :   -0.057954
  28 C :   -0.007031
  29 C :   -0.005007
  30 C :   -0.212138
  31 S :    0.430118
  32 C :   -0.214832
  33 O :   -0.064794
  34 C :   -0.117452
  35 C :    0.047305
  36 N :    0.018481
  37 C :   -0.036595
  38 C :   -0.224624
  39 S :    0.441632
  40 C :   -0.234920
  41 C :   -0.027809
  42 N :    0.022694
  43 C :    0.052193
  44 C :   -0.123672
  45 C :   -0.190664
  46 S :    0.465940
  47 C :   -0.203425
  48 C :   -0.079548
  49 C :    0.001891
  50 O :   -0.012103
  51 C :    0.024574
  52 N :    0.274067
  53 O :   -0.211218
  54 O :   -0.200933
  55 C :   -0.006627
  56 H :    0.021681
  57 H :    0.032764
  58 H :    0.021347
  59 H :    0.013392
  60 H :    0.006737
  61 H :    0.008342
  62 H :    0.027377
  63 H :    0.018348
  64 H :    0.015639
  65 H :    0.031740
  66 H :    0.030420
  67 H :    0.029108
  68 H :    0.028884
  69 H :    0.028139
  70 H :    0.032445
  71 H :    0.026975
  72 H :    0.027236
  73 H :    0.024699
  74 H :    0.032816
  75 H :    0.078023
  76 H :    0.022820
  77 H :    0.025649
  78 H :    0.077087
  79 H :    0.034139
  80 H :    0.022044
  81 H :    0.026136
  82 H :    0.046760

  Mayer bond orders larger than 0.100000
B(  0-C ,  1-S ) :   1.1889 B(  0-C ,  2-C ) :   0.1003 B(  0-C ,  4-C ) :   1.4092
B(  0-C , 56-H ) :   0.9696 B(  1-S ,  2-C ) :   1.1430 B(  2-C ,  3-C ) :   1.3275
B(  2-C , 13-C ) :   1.1795 B(  3-C ,  4-C ) :   1.2122 B(  3-C , 12-C ) :   1.1693
B(  4-C ,  5-C ) :   1.1319 B(  5-C ,  6-C ) :   1.5470 B(  5-C , 57-H ) :   1.0121
B(  6-C ,  7-O ) :   1.1597 B(  6-C ,  9-C ) :   1.1563 B(  7-O ,  8-C ) :   0.9452
B(  8-C , 58-H ) :   0.9765 B(  8-C , 59-H ) :   0.9724 B(  8-C , 60-H ) :   0.9751
B(  9-C , 10-O ) :   1.1236 B(  9-C , 12-C ) :   1.4728 B( 10-O , 11-C ) :   0.9419
B( 11-C , 61-H ) :   0.9588 B( 11-C , 62-H ) :   0.9747 B( 11-C , 63-H ) :   0.9678
B( 12-C , 64-H ) :   0.9675 B( 13-C , 14-C ) :   1.5943 B( 13-C , 65-H ) :   0.9426
B( 14-C , 15-C ) :   1.1549 B( 14-C , 18-S ) :   1.0229 B( 15-C , 16-C ) :   1.5777
B( 15-C , 66-H ) :   0.9960 B( 16-C , 17-C ) :   1.1971 B( 16-C , 67-H ) :   0.9927
B( 17-C , 18-S ) :   1.0389 B( 17-C , 19-C ) :   1.4905 B( 19-C , 20-C ) :   1.2027
B( 19-C , 23-S ) :   1.0168 B( 20-C , 21-C ) :   1.5738 B( 20-C , 68-H ) :   0.9955
B( 21-C , 22-C ) :   1.1516 B( 21-C , 69-H ) :   0.9995 B( 22-C , 23-S ) :   1.0399
B( 22-C , 24-C ) :   1.5674 B( 24-C , 25-C ) :   1.1971 B( 24-C , 70-H ) :   0.9557
B( 25-C , 26-C ) :   1.4473 B( 25-C , 33-O ) :   1.0129 B( 26-C , 27-O ) :   1.0451
B( 26-C , 34-C ) :   1.2119 B( 27-O , 28-C ) :   1.0569 B( 28-C , 29-C ) :   1.2068
B( 28-C , 32-C ) :   1.5729 B( 29-C , 30-C ) :   1.5704 B( 29-C , 33-O ) :   1.0431
B( 30-C , 31-S ) :   1.1345 B( 30-C , 71-H ) :   0.9721 B( 31-S , 32-C ) :   1.1362
B( 32-C , 72-H ) :   0.9727 B( 34-C , 35-C ) :   1.6303 B( 34-C , 73-H ) :   0.9426
B( 35-C , 36-N ) :   1.1588 B( 35-C , 74-H ) :   0.9634 B( 36-N , 37-C ) :   1.0727
B( 36-N , 75-H ) :   0.9224 B( 37-C , 38-C ) :   1.5323 B( 37-C , 41-C ) :   1.2468
B( 38-C , 39-S ) :   1.1545 B( 38-C , 76-H ) :   0.9761 B( 39-S , 40-C ) :   1.1435
B( 40-C , 41-C ) :   1.5169 B( 40-C , 77-H ) :   0.9775 B( 41-C , 42-N ) :   1.1178
B( 42-N , 43-C ) :   1.1643 B( 42-N , 78-H ) :   0.9175 B( 43-C , 44-C ) :   1.6636
B( 43-C , 79-H ) :   0.9615 B( 44-C , 45-C ) :   1.1271 B( 44-C , 80-H ) :   0.9552
B( 45-C , 46-S ) :   1.1347 B( 45-C , 47-C ) :   0.1107 B( 45-C , 49-C ) :   1.4832
B( 46-S , 47-C ) :   1.1718 B( 47-C , 48-C ) :   1.4367 B( 47-C , 81-H ) :   0.9776
B( 48-C , 49-C ) :   1.2231 B( 48-C , 55-C ) :   1.0569 B( 49-C , 50-O ) :   1.0688
B( 50-O , 51-C ) :   1.1185 B( 51-C , 52-N ) :   0.9204 B( 51-C , 55-C ) :   1.5744
B( 52-N , 53-O ) :   1.5307 B( 52-N , 54-O ) :   1.5054 B( 53-O , 54-O ) :   0.2797
B( 55-C , 82-H ) :   1.0255

-----------------------------------------------------------------------------
         ABSORPTION SPECTRUM VIA TRANSITION ELECTRIC DIPOLE MOMENTS
-----------------------------------------------------------------------------
State   Energy  Wavelength   fosc         T2         TX        TY        TZ
        (cm-1)    (nm)                  (au**2)     (au)      (au)      (au)
-----------------------------------------------------------------------------
   0   12520.9    798.7   1.160236895  30.50605  -2.81561  -3.50135  -3.21231
   1   18823.7    531.2   0.014854494   0.25979   0.21787  -0.46064   0.01152
   2   19988.0    500.3   0.037266686   0.61380  -0.49807   0.19363   0.57291
   3   20469.5    488.5   0.062190637   1.00021  -0.45178   0.89209   0.01689
   4   22754.5    439.5   0.594486558   8.60102  -2.70374  -0.41883   1.05612
   5   25960.2    385.2   0.167522781   2.12442  -1.37413  -0.42362   0.23821
   6   27594.5    362.4   0.032297257   0.38532  -0.11233   0.51918   0.32117
   7   28272.8    353.7   0.138744187   1.61555   1.10877   0.19839   0.58893
   8   28739.0    348.0   0.025706048   0.29447   0.00663  -0.51533  -0.16987
   9   28937.3    345.6   0.002200225   0.02503  -0.08435   0.09483   0.09447
  10   29387.1    340.3   0.025193159   0.28223   0.15439  -0.50815  -0.01347
  11   30263.2    330.4   0.046729967   0.50834  -0.26952   0.44375   0.48865
  12   31226.5    320.2   0.134565569   1.41868  -0.54435  -0.92349  -0.51917
  13   31940.4    313.1   0.179989153   1.85516  -0.45668  -1.28177  -0.06062
  14   32100.0    311.5   0.209421736   2.14779   0.05876   1.26680   0.73455
  15   32362.2    309.0   0.140206208   1.42628   0.43079  -1.08875  -0.23521
  16   32532.0    307.4   0.000711346   0.00720  -0.02378   0.07847   0.02179
  17   32822.5    304.7   0.023676304   0.23748  -0.40453   0.23322  -0.13942
  18   33547.8    298.1   0.013974625   0.13714   0.23987  -0.03432  -0.28003
  19   34534.1    289.6   0.121202133   1.15541   0.82377  -0.42136  -0.54706
  20   34575.1    289.2   0.164568989   1.56697  -0.62326   1.08466   0.04500
  21   34983.9    285.8   0.164525947   1.54825  -0.94652   0.80760  -0.01215
  22   36237.2    276.0   0.069128107   0.62802   0.60484  -0.45576  -0.23340
  23   36788.8    271.8   0.765964435   6.85439  -2.54055   0.21144  -0.59605
  24   37047.9    269.9   0.048636674   0.43219  -0.11821   0.46600   0.44839
  25   37091.1    269.6   0.000852758   0.00757   0.08695   0.00269  -0.00094
  26   37312.5    268.0   0.029070622   0.25649   0.36988  -0.07382   0.33798
  27   37582.2    266.1   0.000145851   0.00128   0.03400   0.01070  -0.00265
  28   37836.3    264.3   0.001382710   0.01203  -0.02495   0.05005  -0.09436
  29   38046.5    262.8   0.172894084   1.49603   0.83060   0.73318   0.51825
  30   38396.5    260.4   0.046917228   0.40227   0.29215  -0.12286  -0.54938
  31   38883.9    257.2   0.030484078   0.25809   0.46154  -0.20776  -0.04374
  32   39047.0    256.1   0.036107280   0.30443  -0.46671   0.23116   0.18214
  33   39208.4    255.0   0.000277018   0.00233  -0.02196   0.00205   0.04289
  34   39337.6    254.2   0.017116617   0.14325  -0.22098   0.23361  -0.19959
  35   39667.4    252.1   0.004706207   0.03906   0.09807  -0.13386  -0.10734

FINAL SINGLE POINT ENERGY     -4616.726421011126

DIPOLE MOMENT
-------------
                                X             Y             Z
Electronic contribution:      8.81682      29.21617       8.05989
Nuclear contribution   :    -10.43632     -28.65492      -7.18357
                        -----------------------------------------
Total Dipole Moment    :     -1.61949       0.56126       0.87632
                        -----------------------------------------
Magnitude (a.u.)       :      1.92502
Magnitude (Debye)      :      4.89301

Rotational constants in cm-1:     0.002497     0.000333     0.000308
Rotational constants in MHz :    74.865968     9.983930     9.235722

                             ****ORCA TERMINATED NORMALLY****
TOTAL RUN TIME: 0 days 0 hours 6 minutes 21 seconds 619 msec
