                         Program Version 4.2.0 -  RELEASE  -
|  1> # ORCA input file
|  2> # SCF done       -177.660142556834          0.000550384341
|  3> ! CAM-B3LYP def2-SVP def2/J RIJCOSX Grid4 TightSCF
|  4> %maxcore 5000
|  5> %tddft
|  6>     Mode sTDDFT
|  7>     Ethresh 5.0
|  8>     maxcore 5000
|  9> end
| 10>
| 11> %pal
| 12>   nprocs 6
| 13>   end
| 14> * xyz 0 1
| 15>    C       12.98203        -1.65713         4.12938
| 16>    S       12.21464        -2.51460         2.86559
| 17>    C       13.53808        -3.64313         2.72543
| 18>    C       14.54200        -3.32593         3.66364
| 19>    C       14.21157        -2.18803         4.45878
| 20>    C       15.11311        -1.72908         5.44911
| 21>    C       16.29810        -2.37952         5.63817
| 22>    O       17.24928        -2.04279         6.54739
| 23>    C       17.01410        -0.92913         7.37122
| 24>    C       16.63136        -3.52876         4.83724
| 25>    O       17.83758        -4.07759         5.13195
| 26>    C       18.25565        -5.20539         4.40602
| 27>    C       15.76681        -3.98287         3.87571
| 28>    C       13.55343        -4.68891         1.80116
| 29>    C       12.59625        -5.01178         0.86483
| 30>    C       12.67123        -6.08388        -0.05282
| 31>    C       11.59621        -6.18698        -0.88824
| 32>    C       10.61514        -5.20122        -0.67460
| 33>    S       11.09557        -4.13639         0.62958
| 34>    C        9.42046        -5.01683        -1.35522
| 35>    C        8.90178        -5.76436        -2.42697
| 36>    C        7.70022        -5.30246        -2.88862
| 37>    C        7.21362        -4.16944        -2.20671
| 38>    S        8.32952        -3.71149        -0.93936
| 39>    C        6.03922        -3.49753        -2.49747
| 40>    C        5.54696        -2.35337        -1.88727
| 41>    S        6.40744        -1.50505        -0.64055
| 42>    C        5.27937        -0.17904        -0.60995
| 43>    C        4.25849        -0.37639        -1.57373
| 44>    C        4.36341        -1.63986        -2.22457
| 45>    C        3.34997        -2.06276        -3.10575
| 46>    C        3.24074        -3.45579        -3.62940
| 47>    O        3.28455        -3.73351        -4.80331
| 48>    C        2.91935        -4.46931        -2.55513
| 49>    C        2.33328        -1.18906        -3.42813
| 50>    C        2.27967         0.08610        -2.86139
| 51>    C        3.20774         0.48334        -1.93503
| 52>    C        5.47605         0.76476         0.41018
| 53>    C        4.70518         1.85210         0.69647
| 54>    C        4.83561         2.66830         1.83675
| 55>    S        6.30255         2.67425         2.79148
| 56>    C        5.70181         3.97245         3.77744
| 57>    O        6.43219         4.46475         4.78340
| 58>    C        7.69232         3.87780         5.01987
| 59>    C        4.43226         4.37771         3.41777
| 60>    C        3.64852         5.41688         4.09802
| 61>    O        2.47113         5.59923         3.86206
| 62>    C        4.37484         6.25842         5.11634
| 63>    C        3.92197         3.60548         2.31500
| 64>    C        2.61652         3.76867         1.75352
| 65>    C        1.90526         2.75980         1.19235
| 66>    C        0.69576         2.90386         0.47302
| 67>    S        0.02963         4.45918         0.10940
| 68>    C       -1.15912         3.80982        -0.96909
| 69>    C       -1.07247         2.41569        -1.01815
| 70>    C       -0.03370         1.89516        -0.17585
| 71>    C        0.17190         0.49400        -0.11321
| 72>    C        1.08338        -0.17310         0.86022
| 73>    O        2.00112        -0.88408         0.52500
| 74>    C        0.65422        -0.01785         2.30223
| 75>    C       -0.57861        -0.32581        -0.92012
| 76>    C       -1.61222         0.18496        -1.72379
| 77>    C       -1.88203         1.52236        -1.75288
| 78>    C       -2.00750         4.74342        -1.65374
| 79>    C       -2.61890         4.57187        -2.82592
| 80>    H       12.49437        -0.80859         4.56588
| 81>    H       14.83612        -0.86685         6.03315
| 82>    H       16.12585        -1.07141         7.99585
| 83>    H       16.89988        -0.01172         6.78405
| 84>    H       17.89294        -0.84292         8.00794
| 85>    H       19.23305        -5.46778         4.80749
| 86>    H       18.35088        -4.98415         3.33754
| 87>    H       17.57017        -6.04880         4.54201
| 88>    H       16.01355        -4.84214         3.27441
| 89>    H       14.42806        -5.32618         1.81729
| 90>    H       13.51884        -6.74660        -0.07100
| 91>    H       11.49077        -6.94154        -1.64691
| 92>    H        9.41898        -6.61401        -2.83510
| 93>    H        7.15360        -5.74084        -3.70510
| 94>    H        5.46790        -3.89410        -3.32547
| 95>    H        3.07561        -5.48027        -2.92331
| 96>    H        1.86693        -4.34881        -2.29879
| 97>    H        3.50349        -4.29205        -1.65711
| 98>    H        1.56081        -1.50760        -4.11231
| 99>    H        1.47802         0.75406        -3.13952
|100>    H        3.12303         1.46555        -1.50424
|101>    H        6.29647         0.54114         1.08443
|102>    H        3.90366         2.13013         0.03583
|103>    H        8.11783         4.41059         5.86775
|104>    H        8.34458         3.98376         4.14760
|105>    H        7.59189         2.81486         5.25970
|106>    H        4.66940         5.63877         5.96012
|107>    H        3.71146         7.04790         5.46080
|108>    H        5.27548         6.68886         4.68690
|109>    H        2.17694         4.75406         1.82139
|110>    H        2.27816         1.74766         1.26324
|111>    H        1.48197        -0.24250         2.97039
|112>    H       -0.13959        -0.74359         2.48202
|113>    H        0.25907         0.97333         2.50263
|114>    H       -0.40239        -1.39098        -0.89311
|115>    H       -2.21241        -0.50248        -2.30075
|116>    H       -2.71582         1.90154        -2.31995
|117>    H       -2.09717         5.70191        -1.15567
|118>    H       -2.51345         3.67881        -3.41481
|119>    H       -3.22634         5.35326        -3.24787
|120> *
|121>
|122>                          ****END OF INPUT****

CARTESIAN COORDINATES (ANGSTROEM)
---------------------------------
  C     12.982030   -1.657130    4.129380
  S     12.214640   -2.514600    2.865590
  C     13.538080   -3.643130    2.725430
  C     14.542000   -3.325930    3.663640
  C     14.211570   -2.188030    4.458780
  C     15.113110   -1.729080    5.449110
  C     16.298100   -2.379520    5.638170
  O     17.249280   -2.042790    6.547390
  C     17.014100   -0.929130    7.371220
  C     16.631360   -3.528760    4.837240
  O     17.837580   -4.077590    5.131950
  C     18.255650   -5.205390    4.406020
  C     15.766810   -3.982870    3.875710
  C     13.553430   -4.688910    1.801160
  C     12.596250   -5.011780    0.864830
  C     12.671230   -6.083880   -0.052820
  C     11.596210   -6.186980   -0.888240
  C     10.615140   -5.201220   -0.674600
  S     11.095570   -4.136390    0.629580
  C      9.420460   -5.016830   -1.355220
  C      8.901780   -5.764360   -2.426970
  C      7.700220   -5.302460   -2.888620
  C      7.213620   -4.169440   -2.206710
  S      8.329520   -3.711490   -0.939360
  C      6.039220   -3.497530   -2.497470
  C      5.546960   -2.353370   -1.887270
  S      6.407440   -1.505050   -0.640550
  C      5.279370   -0.179040   -0.609950
  C      4.258490   -0.376390   -1.573730
  C      4.363410   -1.639860   -2.224570
  C      3.349970   -2.062760   -3.105750
  C      3.240740   -3.455790   -3.629400
  O      3.284550   -3.733510   -4.803310
  C      2.919350   -4.469310   -2.555130
  C      2.333280   -1.189060   -3.428130
  C      2.279670    0.086100   -2.861390
  C      3.207740    0.483340   -1.935030
  C      5.476050    0.764760    0.410180
  C      4.705180    1.852100    0.696470
  C      4.835610    2.668300    1.836750
  S      6.302550    2.674250    2.791480
  C      5.701810    3.972450    3.777440
  O      6.432190    4.464750    4.783400
  C      7.692320    3.877800    5.019870
  C      4.432260    4.377710    3.417770
  C      3.648520    5.416880    4.098020
  O      2.471130    5.599230    3.862060
  C      4.374840    6.258420    5.116340
  C      3.921970    3.605480    2.315000
  C      2.616520    3.768670    1.753520
  C      1.905260    2.759800    1.192350
  C      0.695760    2.903860    0.473020
  S      0.029630    4.459180    0.109400
  C     -1.159120    3.809820   -0.969090
  C     -1.072470    2.415690   -1.018150
  C     -0.033700    1.895160   -0.175850
  C      0.171900    0.494000   -0.113210
  C      1.083380   -0.173100    0.860220
  O      2.001120   -0.884080    0.525000
  C      0.654220   -0.017850    2.302230
  C     -0.578610   -0.325810   -0.920120
  C     -1.612220    0.184960   -1.723790
  C     -1.882030    1.522360   -1.752880
  C     -2.007500    4.743420   -1.653740
  C     -2.618900    4.571870   -2.825920
  H     12.494370   -0.808590    4.565880
  H     14.836120   -0.866850    6.033150
  H     16.125850   -1.071410    7.995850
  H     16.899880   -0.011720    6.784050
  H     17.892940   -0.842920    8.007940
  H     19.233050   -5.467780    4.807490
  H     18.350880   -4.984150    3.337540
  H     17.570170   -6.048800    4.542010
  H     16.013550   -4.842140    3.274410
  H     14.428060   -5.326180    1.817290
  H     13.518840   -6.746600   -0.071000
  H     11.490770   -6.941540   -1.646910
  H      9.418980   -6.614010   -2.835100
  H      7.153600   -5.740840   -3.705100
  H      5.467900   -3.894100   -3.325470
  H      3.075610   -5.480270   -2.923310
  H      1.866930   -4.348810   -2.298790
  H      3.503490   -4.292050   -1.657110
  H      1.560810   -1.507600   -4.112310
  H      1.478020    0.754060   -3.139520
  H      3.123030    1.465550   -1.504240
  H      6.296470    0.541140    1.084430
  H      3.903660    2.130130    0.035830
  H      8.117830    4.410590    5.867750
  H      8.344580    3.983760    4.147600
  H      7.591890    2.814860    5.259700
  H      4.669400    5.638770    5.960120
  H      3.711460    7.047900    5.460800
  H      5.275480    6.688860    4.686900
  H      2.176940    4.754060    1.821390
  H      2.278160    1.747660    1.263240
  H      1.481970   -0.242500    2.970390
  H     -0.139590   -0.743590    2.482020
  H      0.259070    0.973330    2.502630
  H     -0.402390   -1.390980   -0.893110
  H     -2.212410   -0.502480   -2.300750
  H     -2.715820    1.901540   -2.319950
  H     -2.097170    5.701910   -1.155670
  H     -2.513450    3.678810   -3.414810
  H     -3.226340    5.353260   -3.247870

 Total Charge           Charge          ....    0
 Multiplicity           Mult            ....    1
 Number of Electrons    NEL             ....  502
 Basis Dimension        Dim             .... 1134

ORBITAL ENERGIES
----------------

  NO   OCC          E(Eh)            E(eV)
   0   2.0000     -88.960982     -2420.7514
   1   2.0000     -88.957263     -2420.6502
   2   2.0000     -88.951049     -2420.4811
   3   2.0000     -88.948928     -2420.4234
   4   2.0000     -88.937095     -2420.1014
   5   2.0000     -88.936766     -2420.0924
   6   2.0000     -19.278395      -524.5918
   7   2.0000     -19.241401      -523.5851
   8   2.0000     -19.239741      -523.5400
   9   2.0000     -19.199490      -522.4447
  10   2.0000     -19.193723      -522.2878
  11   2.0000     -19.186648      -522.0952
  12   2.0000     -10.369735      -282.1748
  13   2.0000     -10.352253      -281.6991
  14   2.0000     -10.346648      -281.5466
  15   2.0000     -10.345819      -281.5240
  16   2.0000     -10.342700      -281.4392
  17   2.0000     -10.330328      -281.1025
  18   2.0000     -10.328865      -281.0627
  19   2.0000     -10.319626      -280.8113
  20   2.0000     -10.318725      -280.7868
  21   2.0000     -10.299458      -280.2625
  22   2.0000     -10.297257      -280.2026
  23   2.0000     -10.297012      -280.1959
  24   2.0000     -10.296878      -280.1923
  25   2.0000     -10.295704      -280.1603
  26   2.0000     -10.295196      -280.1465
  27   2.0000     -10.294461      -280.1265
  28   2.0000     -10.293011      -280.0871
  29   2.0000     -10.290394      -280.0159
  30   2.0000     -10.289628      -279.9950
  31   2.0000     -10.282141      -279.7913
  32   2.0000     -10.280602      -279.7494
  33   2.0000     -10.279906      -279.7305
  34   2.0000     -10.278987      -279.7055
  35   2.0000     -10.278727      -279.6984
  36   2.0000     -10.277498      -279.6649
  37   2.0000     -10.275407      -279.6081
  38   2.0000     -10.275219      -279.6029
  39   2.0000     -10.273947      -279.5683
  40   2.0000     -10.273366      -279.5525
  41   2.0000     -10.272470      -279.5281
  42   2.0000     -10.272443      -279.5274
  43   2.0000     -10.272305      -279.5236
  44   2.0000     -10.272305      -279.5236
  45   2.0000     -10.272288      -279.5232
  46   2.0000     -10.271839      -279.5109
  47   2.0000     -10.271156      -279.4924
  48   2.0000     -10.271075      -279.4902
  49   2.0000     -10.270150      -279.4650
  50   2.0000     -10.269471      -279.4465
  51   2.0000     -10.268729      -279.4263
  52   2.0000     -10.268509      -279.4203
  53   2.0000     -10.267185      -279.3843
  54   2.0000     -10.266157      -279.3563
  55   2.0000     -10.265980      -279.3515
  56   2.0000     -10.264987      -279.3245
  57   2.0000     -10.263716      -279.2899
  58   2.0000     -10.262662      -279.2612
  59   2.0000     -10.262336      -279.2523
  60   2.0000     -10.260376      -279.1990
  61   2.0000     -10.258815      -279.1565
  62   2.0000     -10.257072      -279.1091
  63   2.0000     -10.253516      -279.0124
  64   2.0000     -10.250648      -278.9343
  65   2.0000      -8.057109      -219.2451
  66   2.0000      -8.052581      -219.1219
  67   2.0000      -8.046070      -218.9447
  68   2.0000      -8.043897      -218.8856
  69   2.0000      -8.032980      -218.5885
  70   2.0000      -8.032778      -218.5830
  71   2.0000      -6.026487      -163.9891
  72   2.0000      -6.022393      -163.8777
  73   2.0000      -6.021402      -163.8507
  74   2.0000      -6.018842      -163.7810
  75   2.0000      -6.017416      -163.7422
  76   2.0000      -6.015540      -163.6912
  77   2.0000      -6.015189      -163.6816
  78   2.0000      -6.012922      -163.6199
  79   2.0000      -6.010873      -163.5642
  80   2.0000      -6.008840      -163.5089
  81   2.0000      -6.008822      -163.5084
  82   2.0000      -6.006569      -163.4471
  83   2.0000      -6.002698      -163.3417
  84   2.0000      -6.002516      -163.3368
  85   2.0000      -5.998506      -163.2276
  86   2.0000      -5.998389      -163.2245
  87   2.0000      -5.994123      -163.1084
  88   2.0000      -5.993790      -163.0993
  89   2.0000      -1.186644       -32.2902
  90   2.0000      -1.156424       -31.4679
  91   2.0000      -1.134577       -30.8734
  92   2.0000      -1.115959       -30.3668
  93   2.0000      -1.111002       -30.2319
  94   2.0000      -1.105311       -30.0771
  95   2.0000      -0.991146       -26.9705
  96   2.0000      -0.987960       -26.8838
  97   2.0000      -0.983483       -26.7619
  98   2.0000      -0.980411       -26.6783
  99   2.0000      -0.977262       -26.5926
 100   2.0000      -0.960745       -26.1432
 101   2.0000      -0.928976       -25.2787
 102   2.0000      -0.920321       -25.0432
 103   2.0000      -0.917209       -24.9585
 104   2.0000      -0.904028       -24.5999
 105   2.0000      -0.898841       -24.4587
 106   2.0000      -0.882985       -24.0272
 107   2.0000      -0.874842       -23.8057
 108   2.0000      -0.871031       -23.7020
 109   2.0000      -0.855432       -23.2775
 110   2.0000      -0.854833       -23.2612
 111   2.0000      -0.847929       -23.0733
 112   2.0000      -0.842372       -22.9221
 113   2.0000      -0.838112       -22.8062
 114   2.0000      -0.832830       -22.6625
 115   2.0000      -0.829853       -22.5814
 116   2.0000      -0.823132       -22.3986
 117   2.0000      -0.818615       -22.2756
 118   2.0000      -0.812779       -22.1168
 119   2.0000      -0.812289       -22.1035
 120   2.0000      -0.810501       -22.0549
 121   2.0000      -0.808913       -22.0116
 122   2.0000      -0.802677       -21.8420
 123   2.0000      -0.792205       -21.5570
 124   2.0000      -0.784668       -21.3519
 125   2.0000      -0.774773       -21.0827
 126   2.0000      -0.771911       -21.0048
 127   2.0000      -0.762862       -20.7585
 128   2.0000      -0.742597       -20.2071
 129   2.0000      -0.723561       -19.6891
 130   2.0000      -0.712277       -19.3821
 131   2.0000      -0.709235       -19.2993
 132   2.0000      -0.704122       -19.1601
 133   2.0000      -0.696207       -18.9448
 134   2.0000      -0.685825       -18.6622
 135   2.0000      -0.684390       -18.6232
 136   2.0000      -0.678483       -18.4625
 137   2.0000      -0.675963       -18.3939
 138   2.0000      -0.662591       -18.0300
 139   2.0000      -0.658112       -17.9081
 140   2.0000      -0.655544       -17.8383
 141   2.0000      -0.646681       -17.5971
 142   2.0000      -0.644846       -17.5471
 143   2.0000      -0.632133       -17.2012
 144   2.0000      -0.629872       -17.1397
 145   2.0000      -0.621819       -16.9205
 146   2.0000      -0.620281       -16.8787
 147   2.0000      -0.607987       -16.5442
 148   2.0000      -0.607319       -16.5260
 149   2.0000      -0.602511       -16.3952
 150   2.0000      -0.594854       -16.1868
 151   2.0000      -0.592556       -16.1243
 152   2.0000      -0.587091       -15.9756
 153   2.0000      -0.583158       -15.8685
 154   2.0000      -0.581022       -15.8104
 155   2.0000      -0.579052       -15.7568
 156   2.0000      -0.576789       -15.6952
 157   2.0000      -0.573713       -15.6115
 158   2.0000      -0.565358       -15.3842
 159   2.0000      -0.557824       -15.1792
 160   2.0000      -0.556828       -15.1521
 161   2.0000      -0.550054       -14.9677
 162   2.0000      -0.548600       -14.9282
 163   2.0000      -0.547595       -14.9008
 164   2.0000      -0.543607       -14.7923
 165   2.0000      -0.542794       -14.7702
 166   2.0000      -0.541748       -14.7417
 167   2.0000      -0.537126       -14.6160
 168   2.0000      -0.533321       -14.5124
 169   2.0000      -0.531897       -14.4736
 170   2.0000      -0.524699       -14.2778
 171   2.0000      -0.523336       -14.2407
 172   2.0000      -0.521970       -14.2035
 173   2.0000      -0.518584       -14.1114
 174   2.0000      -0.517473       -14.0811
 175   2.0000      -0.515773       -14.0349
 176   2.0000      -0.512486       -13.9454
 177   2.0000      -0.510354       -13.8874
 178   2.0000      -0.508020       -13.8239
 179   2.0000      -0.504850       -13.7377
 180   2.0000      -0.501702       -13.6520
 181   2.0000      -0.499999       -13.6057
 182   2.0000      -0.495893       -13.4939
 183   2.0000      -0.492256       -13.3950
 184   2.0000      -0.491476       -13.3738
 185   2.0000      -0.490481       -13.3467
 186   2.0000      -0.486986       -13.2516
 187   2.0000      -0.484847       -13.1934
 188   2.0000      -0.483980       -13.1698
 189   2.0000      -0.481101       -13.0914
 190   2.0000      -0.479970       -13.0606
 191   2.0000      -0.479333       -13.0433
 192   2.0000      -0.474074       -12.9002
 193   2.0000      -0.472477       -12.8567
 194   2.0000      -0.469414       -12.7734
 195   2.0000      -0.468875       -12.7587
 196   2.0000      -0.466712       -12.6999
 197   2.0000      -0.464460       -12.6386
 198   2.0000      -0.461507       -12.5583
 199   2.0000      -0.459813       -12.5121
 200   2.0000      -0.456947       -12.4342
 201   2.0000      -0.456160       -12.4128
 202   2.0000      -0.455470       -12.3940
 203   2.0000      -0.446343       -12.1456
 204   2.0000      -0.444685       -12.1005
 205   2.0000      -0.442139       -12.0312
 206   2.0000      -0.437307       -11.8997
 207   2.0000      -0.436109       -11.8671
 208   2.0000      -0.434174       -11.8145
 209   2.0000      -0.433988       -11.8094
 210   2.0000      -0.431553       -11.7432
 211   2.0000      -0.429298       -11.6818
 212   2.0000      -0.424980       -11.5643
 213   2.0000      -0.424016       -11.5381
 214   2.0000      -0.419584       -11.4175
 215   2.0000      -0.417891       -11.3714
 216   2.0000      -0.413378       -11.2486
 217   2.0000      -0.411981       -11.2106
 218   2.0000      -0.411103       -11.1867
 219   2.0000      -0.408898       -11.1267
 220   2.0000      -0.406885       -11.0719
 221   2.0000      -0.405240       -11.0272
 222   2.0000      -0.401846       -10.9348
 223   2.0000      -0.400259       -10.8916
 224   2.0000      -0.397848       -10.8260
 225   2.0000      -0.397103       -10.8057
 226   2.0000      -0.396476       -10.7887
 227   2.0000      -0.392402       -10.6778
 228   2.0000      -0.390839       -10.6353
 229   2.0000      -0.376164       -10.2359
 230   2.0000      -0.373021       -10.1504
 231   2.0000      -0.361564        -9.8387
 232   2.0000      -0.354029        -9.6336
 233   2.0000      -0.347322        -9.4511
 234   2.0000      -0.333562        -9.0767
 235   2.0000      -0.330319        -8.9884
 236   2.0000      -0.325900        -8.8682
 237   2.0000      -0.317706        -8.6452
 238   2.0000      -0.315741        -8.5918
 239   2.0000      -0.312252        -8.4968
 240   2.0000      -0.311544        -8.4775
 241   2.0000      -0.309568        -8.4238
 242   2.0000      -0.308868        -8.4047
 243   2.0000      -0.305970        -8.3259
 244   2.0000      -0.298509        -8.1228
 245   2.0000      -0.282173        -7.6783
 246   2.0000      -0.271891        -7.3985
 247   2.0000      -0.263894        -7.1809
 248   2.0000      -0.237716        -6.4686
 249   2.0000      -0.219433        -5.9711
 250   2.0000      -0.178552        -4.8587
 251   0.0000      -0.082732        -2.2513
 252   0.0000      -0.051963        -1.4140
 253   0.0000      -0.029859        -0.8125
 254   0.0000      -0.003229        -0.0879
 255   0.0000       0.004196         0.1142

MULLIKEN ATOMIC CHARGES
-----------------------
   0 C :   -0.122941
   1 S :    0.124821
   2 C :   -0.124819
   3 C :    0.159988
   4 C :    0.106060
   5 C :   -0.162275
   6 C :    0.215871
   7 O :   -0.296637
   8 C :    0.179776
   9 C :    0.218347
  10 O :   -0.293964
  11 C :    0.181592
  12 C :   -0.178522
  13 C :   -0.018979
  14 C :   -0.042313
  15 C :    0.026840
  16 C :    0.019562
  17 C :   -0.034650
  18 S :    0.064322
  19 C :   -0.035815
  20 C :    0.022844
  21 C :    0.025655
  22 C :   -0.050264
  23 S :    0.066728
  24 C :   -0.033397
  25 C :   -0.121284
  26 S :    0.114757
  27 C :   -0.108879
  28 C :    0.156883
  29 C :    0.138112
  30 C :   -0.034194
  31 C :   -0.044294
  32 O :   -0.186110
  33 C :    0.066451
  34 C :   -0.015325
  35 C :    0.054224
  36 C :   -0.037136
  37 C :    0.036681
  38 C :   -0.022856
  39 C :   -0.109460
  40 S :    0.068268
  41 C :    0.005962
  42 O :   -0.284940
  43 C :    0.168976
  44 C :    0.054532
  45 C :   -0.038676
  46 O :   -0.200566
  47 C :    0.082474
  48 C :    0.074153
  49 C :   -0.020762
  50 C :   -0.059461
  51 C :   -0.151490
  52 S :    0.163198
  53 C :   -0.155140
  54 C :    0.111145
  55 C :    0.142492
  56 C :   -0.030941
  57 C :   -0.041060
  58 O :   -0.178379
  59 C :    0.060456
  60 C :   -0.006451
  61 C :    0.024907
  62 C :   -0.034901
  63 C :    0.021711
  64 C :   -0.032801
  65 H :    0.004455
  66 H :   -0.047839
  67 H :    0.019852
  68 H :    0.019297
  69 H :    0.037489
  70 H :    0.036731
  71 H :    0.020976
  72 H :    0.020969
  73 H :   -0.048978
  74 H :   -0.023445
  75 H :   -0.017352
  76 H :   -0.017905
  77 H :   -0.019451
  78 H :   -0.010137
  79 H :    0.003964
  80 H :    0.024903
  81 H :    0.033514
  82 H :    0.049107
  83 H :   -0.020828
  84 H :   -0.016530
  85 H :   -0.041246
  86 H :   -0.023816
  87 H :    0.002802
  88 H :    0.051671
  89 H :    0.040556
  90 H :    0.039135
  91 H :    0.031837
  92 H :    0.019010
  93 H :    0.025250
  94 H :    0.016112
  95 H :    0.030891
  96 H :    0.035272
  97 H :    0.037763
  98 H :    0.045576
  99 H :   -0.015632
 100 H :   -0.014926
 101 H :   -0.025482
 102 H :   -0.001177
 103 H :    0.023736
 104 H :    0.025770
Sum of atomic charges:   -0.0000000

LOEWDIN ATOMIC CHARGES
----------------------
   0 C :   -0.207193
   1 S :    0.458607
   2 C :   -0.191141
   3 C :   -0.042185
   4 C :   -0.052260
   5 C :   -0.081044
   6 C :    0.043893
   7 O :   -0.091699
   8 C :    0.076362
   9 C :    0.047239
  10 O :   -0.088489
  11 C :    0.076094
  12 C :   -0.081398
  13 C :   -0.065806
  14 C :   -0.165440
  15 C :   -0.034280
  16 C :   -0.046473
  17 C :   -0.176560
  18 S :    0.368028
  19 C :   -0.183337
  20 C :   -0.044890
  21 C :   -0.035546
  22 C :   -0.160531
  23 S :    0.373733
  24 C :   -0.076933
  25 C :   -0.181855
  26 S :    0.465258
  27 C :   -0.169804
  28 C :   -0.030309
  29 C :   -0.033359
  30 C :   -0.045628
  31 C :    0.077892
  32 O :   -0.142798
  33 C :   -0.075647
  34 C :   -0.011717
  35 C :   -0.017458
  36 C :   -0.006502
  37 C :   -0.058408
  38 C :   -0.054887
  39 C :   -0.168409
  40 S :    0.412095
  41 C :   -0.070677
  42 O :   -0.076671
  43 C :    0.069179
  44 C :   -0.147572
  45 C :    0.084369
  46 O :   -0.161254
  47 C :   -0.076974
  48 C :   -0.033652
  49 C :   -0.014090
  50 C :   -0.052949
  51 C :   -0.184876
  52 S :    0.492631
  53 C :   -0.179559
  54 C :   -0.045712
  55 C :   -0.044678
  56 C :   -0.047831
  57 C :    0.077811
  58 O :   -0.133476
  59 C :   -0.075208
  60 C :   -0.008706
  61 C :   -0.031695
  62 C :   -0.009759
  63 C :   -0.043494
  64 C :   -0.049483
  65 H :    0.018482
  66 H :    0.027270
  67 H :    0.013981
  68 H :    0.013885
  69 H :    0.028758
  70 H :    0.029169
  71 H :    0.014397
  72 H :    0.014347
  73 H :    0.024884
  74 H :    0.035558
  75 H :    0.030755
  76 H :    0.030164
  77 H :    0.029734
  78 H :    0.034022
  79 H :    0.043305
  80 H :    0.033609
  81 H :    0.048416
  82 H :    0.041755
  83 H :    0.029433
  84 H :    0.030324
  85 H :    0.025367
  86 H :    0.017131
  87 H :    0.033200
  88 H :    0.034197
  89 H :    0.018834
  90 H :    0.018751
  91 H :    0.039732
  92 H :    0.032652
  93 H :    0.035744
  94 H :    0.026652
  95 H :    0.037378
  96 H :    0.038420
  97 H :    0.049834
  98 H :    0.039219
  99 H :    0.030791
 100 H :    0.029617
 101 H :    0.029013
 102 H :    0.030768
 103 H :    0.021031
 104 H :    0.026530

  Mayer bond orders larger than 0.100000
B(  0-C ,  1-S ) :   1.1758 B(  0-C ,  4-C ) :   1.4249 B(  0-C , 65-H ) :   0.9676
B(  1-S ,  2-C ) :   1.1222 B(  2-C ,  3-C ) :   1.3073 B(  2-C , 13-C ) :   1.2335
B(  3-C ,  4-C ) :   1.2244 B(  3-C , 12-C ) :   1.1610 B(  4-C ,  5-C ) :   1.1079
B(  5-C ,  6-C ) :   1.4900 B(  5-C , 66-H ) :   1.0142 B(  6-C ,  7-O ) :   1.1823
B(  6-C ,  9-C ) :   1.1921 B(  7-O ,  8-C ) :   0.9739 B(  8-C , 67-H ) :   0.9678
B(  8-C , 68-H ) :   0.9675 B(  8-C , 69-H ) :   0.9790 B(  9-C , 10-O ) :   1.1815
B(  9-C , 12-C ) :   1.4785 B( 10-O , 11-C ) :   0.9723 B( 11-C , 70-H ) :   0.9778
B( 11-C , 71-H ) :   0.9671 B( 11-C , 72-H ) :   0.9671 B( 12-C , 73-H ) :   0.9981
B( 13-C , 14-C ) :   1.5389 B( 13-C , 74-H ) :   0.9590 B( 14-C , 15-C ) :   1.1672
B( 14-C , 18-S ) :   1.0326 B( 15-C , 16-C ) :   1.5573 B( 15-C , 75-H ) :   0.9988
B( 16-C , 17-C ) :   1.2130 B( 16-C , 76-H ) :   0.9936 B( 17-C , 18-S ) :   1.0477
B( 17-C , 19-C ) :   1.4646 B( 19-C , 20-C ) :   1.2209 B( 19-C , 23-S ) :   1.0433
B( 20-C , 21-C ) :   1.5370 B( 20-C , 77-H ) :   0.9930 B( 21-C , 22-C ) :   1.1939
B( 21-C , 78-H ) :   0.9998 B( 22-C , 23-S ) :   1.0462 B( 22-C , 24-C ) :   1.4851
B( 24-C , 25-C ) :   1.2714 B( 24-C , 79-H ) :   0.9468 B( 25-C , 26-S ) :   1.1083
B( 25-C , 29-C ) :   1.2506 B( 26-S , 27-C ) :   1.1352 B( 27-C , 28-C ) :   1.2614
B( 27-C , 37-C ) :   1.2243 B( 28-C , 29-C ) :   1.2539 B( 28-C , 36-C ) :   1.2120
B( 29-C , 30-C ) :   1.2785 B( 30-C , 31-C ) :   0.8784 B( 30-C , 34-C ) :   1.5254
B( 31-C , 32-O ) :   2.1899 B( 31-C , 33-C ) :   1.0267 B( 33-C , 80-H ) :   0.9513
B( 33-C , 81-H ) :   0.9376 B( 33-C , 82-H ) :   0.9503 B( 34-C , 35-C ) :   1.2348
B( 34-C , 83-H ) :   0.9931 B( 35-C , 36-C ) :   1.5170 B( 35-C , 84-H ) :   0.9793
B( 36-C , 85-H ) :   1.0008 B( 37-C , 38-C ) :   1.5861 B( 37-C , 86-H ) :   0.9434
B( 38-C , 39-C ) :   1.2083 B( 38-C , 87-H ) :   0.9684 B( 39-C , 40-S ) :   1.0351
B( 39-C , 48-C ) :   1.4628 B( 40-S , 41-C ) :   1.1303 B( 41-C , 42-O ) :   1.1658
B( 41-C , 44-C ) :   1.4412 B( 42-O , 43-C ) :   0.9372 B( 43-C , 88-H ) :   0.9806
B( 43-C , 89-H ) :   0.9665 B( 43-C , 90-H ) :   0.9667 B( 44-C , 45-C ) :   0.9474
B( 44-C , 48-C ) :   1.1760 B( 45-C , 46-O ) :   2.1271 B( 45-C , 47-C ) :   1.0882
B( 47-C , 91-H ) :   0.9345 B( 47-C , 92-H ) :   0.9416 B( 47-C , 93-H ) :   0.9491
B( 48-C , 49-C ) :   1.1415 B( 49-C , 50-C ) :   1.6450 B( 49-C , 94-H ) :   0.9436
B( 50-C , 51-C ) :   1.1668 B( 50-C , 95-H ) :   0.9570 B( 51-C , 52-S ) :   1.1516
B( 51-C , 53-C ) :   0.1066 B( 51-C , 55-C ) :   1.3375 B( 52-S , 53-C ) :   1.1626
B( 53-C , 54-C ) :   1.3689 B( 53-C , 63-C ) :   1.0981 B( 54-C , 55-C ) :   1.2016
B( 54-C , 62-C ) :   1.1941 B( 55-C , 56-C ) :   1.2183 B( 56-C , 57-C ) :   0.8818
B( 56-C , 60-C ) :   1.5758 B( 57-C , 58-O ) :   2.1762 B( 57-C , 59-C ) :   1.0251
B( 59-C , 96-H ) :   0.9513 B( 59-C , 97-H ) :   0.9381 B( 59-C , 98-H ) :   0.9535
B( 60-C , 61-C ) :   1.1945 B( 60-C , 99-H ) :   0.9895 B( 61-C , 62-C ) :   1.5366
B( 61-C ,100-H ) :   0.9888 B( 62-C ,101-H ) :   0.9933 B( 63-C , 64-C ) :   1.9275
B( 63-C ,102-H ) :   0.9480 B( 64-C ,103-H ) :   0.9596 B( 64-C ,104-H ) :   0.9474

-----------------------------------------------------------------------------
         ABSORPTION SPECTRUM VIA TRANSITION ELECTRIC DIPOLE MOMENTS
-----------------------------------------------------------------------------
State   Energy  Wavelength   fosc         T2         TX        TY        TZ
        (cm-1)    (nm)                  (au**2)     (au)      (au)      (au)
-----------------------------------------------------------------------------
   0    8406.1   1189.6   0.939719032  36.80256  -5.22729   2.82550  -1.22255
   1   14666.8    681.8   0.031496836   0.70698  -0.26809  -0.33559  -0.72284
   2   16186.2    617.8   0.138686008   2.82075  -0.00788  -1.12381  -1.24809
   3   18542.1    539.3   0.265315345   4.71063   0.50825   1.32442   1.64263
   4   21530.1    464.5   0.896385409  13.70642  -1.57653  -1.95019  -2.72355
   5   23427.3    426.9   0.096910728   1.36184  -0.75523  -0.48875  -0.74336
   6   23781.1    420.5   0.271766972   3.76219   1.28003   0.23864   1.43762
   7   24113.2    414.7   0.112102659   1.53051   0.22524   0.71603   0.98340
   8   26501.8    377.3   0.173020490   2.14930   0.89042  -1.15714   0.13224
   9   26973.3    370.7   0.237332882   2.89667   1.43711  -0.66797   0.62065
  10   27105.5    368.9   0.026627463   0.32341  -0.52730  -0.08658  -0.19458
  11   27732.2    360.6   0.039855538   0.47313   0.04625   0.43266   0.53272
  12   27960.8    357.6   0.015379062   0.18107  -0.32401   0.10152  -0.25649
  13   28342.1    352.8   0.032758489   0.38051   0.04571  -0.49381  -0.36685
  14   29025.1    344.5   0.015931306   0.18070   0.04007  -0.22513  -0.35834
  15   29623.8    337.6   0.094451080   1.04964   0.77948   0.05986   0.66217
  16   30167.1    331.5   0.041355285   0.45131  -0.03167  -0.32162  -0.58895
  17   31018.8    322.4   0.023824343   0.25285  -0.30096   0.25724  -0.31001
  18   31306.7    319.4   0.161815672   1.70160  -1.15085  -0.10352  -0.60534
  19   32535.0    307.4   0.001804205   0.01826   0.13247  -0.02490   0.00936
  20   32591.0    306.8   0.003566312   0.03602   0.07915  -0.09793   0.14202
  21   32954.1    303.5   0.015016601   0.15002   0.31180   0.20199   0.10954
  22   33392.1    299.5   0.003271363   0.03225  -0.14601   0.07694  -0.07080
  23   33624.3    297.4   0.016091651   0.15755  -0.01904   0.35283   0.18084
  24   33893.3    295.0   0.024326632   0.23629   0.00480   0.38338   0.29881
  25   34046.0    293.7   0.043853472   0.42405   0.38190   0.40570   0.33706
  26   34202.4    292.4   0.026007578   0.25033   0.27774   0.14452   0.39026
  27   34560.4    289.3   0.006673183   0.06357   0.12929  -0.07716  -0.20223
  28   34916.1    286.4   0.019790314   0.18660  -0.41967   0.03377  -0.09659
  29   35111.7    284.8   0.049051934   0.45992  -0.60011   0.24769  -0.19605
  30   35412.6    282.4   0.000696573   0.00648  -0.04377   0.02002  -0.06449
  31   35774.8    279.5   0.041904037   0.38562  -0.14165   0.56757  -0.20836
  32   35841.0    279.0   0.048755619   0.44784  -0.36029  -0.37156  -0.42423
  33   36017.8    277.6   0.093969687   0.85891   0.69324   0.10411   0.60620
  34   36257.1    275.8   0.020292668   0.18426  -0.26669   0.32525   0.08570
  35   36381.1    274.9   0.076511217   0.69235   0.29000   0.47630   0.61757
  36   36724.6    272.3   0.021891201   0.19624   0.19556   0.35389   0.18099
  37   36883.8    271.1   0.011913174   0.10633  -0.05271   0.31792   0.04980
  38   37512.2    266.6   0.021701620   0.19046   0.22075  -0.25958  -0.27266
  39   37642.9    265.7   0.027226759   0.23812   0.36725  -0.24669   0.20588
  40   37833.6    264.3   0.099335292   0.86437   0.17474   0.76343   0.50101
  41   37965.3    263.4   0.063715925   0.55251  -0.35936  -0.54289  -0.35866
  42   38229.4    261.6   0.015272984   0.13152  -0.27844  -0.17547  -0.15233
  43   38576.4    259.2   0.100543011   0.85804   0.82861  -0.05080   0.41093
  44   39094.6    255.8   0.030227591   0.25454   0.37987  -0.22302   0.24598
  45   39253.3    254.8   0.010346971   0.08678   0.01680  -0.28740  -0.06242
  46   39658.3    252.2   0.015535752   0.12897  -0.12733  -0.32255  -0.09333
  47   40037.9    249.8   0.030471387   0.25055  -0.44279   0.22551  -0.06032
  48   40258.3    248.4   0.017121303   0.14001   0.02331  -0.33956  -0.15546

FINAL SINGLE POINT ENERGY     -4880.203877439858

DIPOLE MOMENT
-------------
                                X             Y             Z
Electronic contribution:      3.31245      -4.82040     -14.89676
Nuclear contribution   :     -1.76226       4.74902      16.75124
                        -----------------------------------------
Total Dipole Moment    :      1.55018      -0.07138       1.85448
                        -----------------------------------------
Magnitude (a.u.)       :      2.41811
Magnitude (Debye)      :      6.14635

Rotational constants in cm-1:     0.001375     0.000428     0.000334
Rotational constants in MHz :    41.228425    12.837720    10.023107

                             ****ORCA TERMINATED NORMALLY****
TOTAL RUN TIME: 0 days 0 hours 9 minutes 38 seconds 567 msec
