                         Program Version 4.2.0 -  RELEASE  -
|  1> # ORCA input file
|  2> # SCF done       -179.049245338583          0.000421600993
|  3> ! CAM-B3LYP def2-SVP def2/J RIJCOSX Grid4 TightSCF
|  4> %maxcore 5000
|  5> %tddft
|  6>     Mode sTDDFT
|  7>     Ethresh 5.0
|  8>     maxcore 5000
|  9> end
| 10>
| 11> %pal
| 12>   nprocs 6
| 13>   end
| 14> * xyz 0 1
| 15>    C       11.74679        -3.61206         0.08829
| 16>    C       10.76440        -2.78691        -0.35094
| 17>    C       10.37514        -3.06912        -1.70140
| 18>    C       11.07950        -4.07553        -2.26856
| 19>    S       12.22832        -4.72340        -1.14940
| 20>    C        9.25434        -2.18790        -2.06536
| 21>    O        8.67825        -2.13065        -3.13895
| 22>    C        9.00262        -1.37636        -0.86759
| 23>    C        9.88703        -1.73768         0.16437
| 24>    C        9.85917        -1.28677         1.49169
| 25>    N       10.97255        -1.44547         2.34531
| 26>    O       10.77363        -1.58678         3.53939
| 27>    O       12.08185        -1.47789         1.83113
| 28>    N        8.69216        -0.76104         2.08382
| 29>    O        8.79493         0.06925         2.96304
| 30>    O        7.61069        -1.18608         1.67259
| 31>    C        8.10558        -0.27790        -0.85623
| 32>    C        7.00248        -0.07474        -1.64975
| 33>    C        6.25265        -1.07969        -2.34711
| 34>    O        5.50598        -0.77264        -3.43890
| 35>    C        5.33239         0.55572        -3.69231
| 36>    C        5.82721         1.55738        -2.80637
| 37>    C        5.47262         2.81138        -3.18790
| 38>    S        4.53657         2.78317        -4.63451
| 39>    C        4.62068         1.06857        -4.72968
| 40>    O        6.59670         1.25087        -1.73230
| 41>    C        6.24058        -2.40817        -1.96292
| 42>    C        6.69370        -2.79478        -0.69920
| 43>    C        7.33754        -3.93824        -0.29470
| 44>    S        7.84549        -4.00830         1.38173
| 45>    C        8.84770        -5.39354         1.13032
| 46>    C        8.80966        -5.80303        -0.23055
| 47>    C        7.93659        -5.00905        -1.02513
| 48>    C        7.81107        -5.24595        -2.39217
| 49>    C        8.54382        -6.25162        -2.99172
| 50>    S        8.50903        -6.62166        -4.70147
| 51>    C        7.34462        -5.43072        -5.44791
| 52>    C        7.96776        -4.07180        -5.70103
| 53>    C        9.42216        -7.03073        -2.20548
| 54>    S       10.43372        -8.27292        -2.97641
| 55>    C        9.16536        -9.56546        -3.31776
| 56>    C        9.38121       -10.17518        -4.68709
| 57>    C        9.56940        -6.79740        -0.86212
| 58>    C        9.54806        -5.88581         2.24295
| 59>    C       10.17374        -7.09785         2.36363
| 60>    C       10.86905        -7.52880         3.50274
| 61>    S       11.51129        -9.17638         3.51930
| 62>    C       12.13262        -8.94961         5.09173
| 63>    C       11.86221        -7.65718         5.58014
| 64>    C       11.15963        -6.86254         4.69644
| 65>    C       12.43442        -7.58133         6.93638
| 66>    O       12.42880        -6.66602         7.71931
| 67>    C       13.04805        -8.95024         7.16511
| 68>    C       12.84076        -9.72116         6.03726
| 69>    C       13.67839        -9.23843         8.38371
| 70>    C       14.23734       -10.43970         8.72639
| 71>    C       14.85305       -10.70924         9.95699
| 72>    S       14.99497        -9.48474        11.20382
| 73>    C       15.78695       -10.58607        12.24590
| 74>    C       15.94755       -11.82166        11.70411
| 75>    C       15.42101       -11.92046        10.39194
| 76>    N       15.42568       -13.05445         9.65371
| 77>    C       16.09634       -14.27292        10.04274
| 78>    C       15.78766       -15.37540         9.04233
| 79>    H       12.26191        -3.63274         1.02669
| 80>    H       11.00467        -4.49515        -3.25143
| 81>    H        8.39567         0.58302        -0.26271
| 82>    H        5.70434         3.73699        -2.70481
| 83>    H        4.14270         0.53894        -5.52685
| 84>    H        5.83829        -3.11325        -2.67309
| 85>    H        6.61420        -2.03719         0.07345
| 86>    H        7.18220        -4.60248        -2.97721
| 87>    H        6.45775        -5.38031        -4.81748
| 88>    H        7.07141        -5.91104        -6.38893
| 89>    H        8.26406        -3.57636        -4.77907
| 90>    H        7.24922        -3.43438        -6.21296
| 91>    H        8.84682        -4.17569        -6.33338
| 92>    H        8.19204        -9.08478        -3.24542
| 93>    H        9.26268       -10.31269        -2.52993
| 94>    H        9.29548        -9.41059        -5.45495
| 95>    H        8.63525       -10.94597        -4.87035
| 96>    H       10.37010       -10.62233        -4.75130
| 97>    H       10.30754        -7.36876        -0.32769
| 98>    H        9.53606        -5.23373         3.10623
| 99>    H       10.10764        -7.81688         1.56158
|100>    H       10.86976        -5.84620         4.89019
|101>    H       13.15517       -10.73702         5.88411
|102>    H       13.70250        -8.42586         9.09926
|103>    H       14.19934       -11.24825         8.00710
|104>    H       16.09968       -10.25730        13.21744
|105>    H       16.42852       -12.63218        12.21912
|106>    H       15.15970       -12.98174         8.68508
|107>    H       15.74263       -14.56643        11.03649
|108>    H       17.18270       -14.11416        10.10055
|109>    H       14.71521       -15.54600         8.98459
|110>    H       16.26795       -16.30002         9.34895
|111>    H       16.15554       -15.11063         8.05316
|112> *
|113>
|114>                          ****END OF INPUT****

CARTESIAN COORDINATES (ANGSTROEM)
---------------------------------
  C     11.746790   -3.612060    0.088290
  C     10.764400   -2.786910   -0.350940
  C     10.375140   -3.069120   -1.701400
  C     11.079500   -4.075530   -2.268560
  S     12.228320   -4.723400   -1.149400
  C      9.254340   -2.187900   -2.065360
  O      8.678250   -2.130650   -3.138950
  C      9.002620   -1.376360   -0.867590
  C      9.887030   -1.737680    0.164370
  C      9.859170   -1.286770    1.491690
  N     10.972550   -1.445470    2.345310
  O     10.773630   -1.586780    3.539390
  O     12.081850   -1.477890    1.831130
  N      8.692160   -0.761040    2.083820
  O      8.794930    0.069250    2.963040
  O      7.610690   -1.186080    1.672590
  C      8.105580   -0.277900   -0.856230
  C      7.002480   -0.074740   -1.649750
  C      6.252650   -1.079690   -2.347110
  O      5.505980   -0.772640   -3.438900
  C      5.332390    0.555720   -3.692310
  C      5.827210    1.557380   -2.806370
  C      5.472620    2.811380   -3.187900
  S      4.536570    2.783170   -4.634510
  C      4.620680    1.068570   -4.729680
  O      6.596700    1.250870   -1.732300
  C      6.240580   -2.408170   -1.962920
  C      6.693700   -2.794780   -0.699200
  C      7.337540   -3.938240   -0.294700
  S      7.845490   -4.008300    1.381730
  C      8.847700   -5.393540    1.130320
  C      8.809660   -5.803030   -0.230550
  C      7.936590   -5.009050   -1.025130
  C      7.811070   -5.245950   -2.392170
  C      8.543820   -6.251620   -2.991720
  S      8.509030   -6.621660   -4.701470
  C      7.344620   -5.430720   -5.447910
  C      7.967760   -4.071800   -5.701030
  C      9.422160   -7.030730   -2.205480
  S     10.433720   -8.272920   -2.976410
  C      9.165360   -9.565460   -3.317760
  C      9.381210  -10.175180   -4.687090
  C      9.569400   -6.797400   -0.862120
  C      9.548060   -5.885810    2.242950
  C     10.173740   -7.097850    2.363630
  C     10.869050   -7.528800    3.502740
  S     11.511290   -9.176380    3.519300
  C     12.132620   -8.949610    5.091730
  C     11.862210   -7.657180    5.580140
  C     11.159630   -6.862540    4.696440
  C     12.434420   -7.581330    6.936380
  O     12.428800   -6.666020    7.719310
  C     13.048050   -8.950240    7.165110
  C     12.840760   -9.721160    6.037260
  C     13.678390   -9.238430    8.383710
  C     14.237340  -10.439700    8.726390
  C     14.853050  -10.709240    9.956990
  S     14.994970   -9.484740   11.203820
  C     15.786950  -10.586070   12.245900
  C     15.947550  -11.821660   11.704110
  C     15.421010  -11.920460   10.391940
  N     15.425680  -13.054450    9.653710
  C     16.096340  -14.272920   10.042740
  C     15.787660  -15.375400    9.042330
  H     12.261910   -3.632740    1.026690
  H     11.004670   -4.495150   -3.251430
  H      8.395670    0.583020   -0.262710
  H      5.704340    3.736990   -2.704810
  H      4.142700    0.538940   -5.526850
  H      5.838290   -3.113250   -2.673090
  H      6.614200   -2.037190    0.073450
  H      7.182200   -4.602480   -2.977210
  H      6.457750   -5.380310   -4.817480
  H      7.071410   -5.911040   -6.388930
  H      8.264060   -3.576360   -4.779070
  H      7.249220   -3.434380   -6.212960
  H      8.846820   -4.175690   -6.333380
  H      8.192040   -9.084780   -3.245420
  H      9.262680  -10.312690   -2.529930
  H      9.295480   -9.410590   -5.454950
  H      8.635250  -10.945970   -4.870350
  H     10.370100  -10.622330   -4.751300
  H     10.307540   -7.368760   -0.327690
  H      9.536060   -5.233730    3.106230
  H     10.107640   -7.816880    1.561580
  H     10.869760   -5.846200    4.890190
  H     13.155170  -10.737020    5.884110
  H     13.702500   -8.425860    9.099260
  H     14.199340  -11.248250    8.007100
  H     16.099680  -10.257300   13.217440
  H     16.428520  -12.632180   12.219120
  H     15.159700  -12.981740    8.685080
  H     15.742630  -14.566430   11.036490
  H     17.182700  -14.114160   10.100550
  H     14.715210  -15.546000    8.984590
  H     16.267950  -16.300020    9.348950
  H     16.155540  -15.110630    8.053160

 Total Charge           Charge          ....    0
 Multiplicity           Mult            ....    1
 Number of Electrons    NEL             ....  506
 Basis Dimension        Dim             .... 1089

ORBITAL ENERGIES
----------------

  NO   OCC          E(Eh)            E(eV)
   0   2.0000     -88.981068     -2421.2980
   1   2.0000     -88.967048     -2420.9165
   2   2.0000     -88.960324     -2420.7335
   3   2.0000     -88.950501     -2420.4662
   4   2.0000     -88.945687     -2420.3352
   5   2.0000     -88.932303     -2419.9710
   6   2.0000     -88.916109     -2419.5303
   7   2.0000     -19.281265      -524.6699
   8   2.0000     -19.257282      -524.0173
   9   2.0000     -19.228478      -523.2335
  10   2.0000     -19.206293      -522.6298
  11   2.0000     -19.204379      -522.5777
  12   2.0000     -19.197512      -522.3909
  13   2.0000     -19.197232      -522.3832
  14   2.0000     -19.185920      -522.0754
  15   2.0000     -14.614722      -397.6868
  16   2.0000     -14.609764      -397.5519
  17   2.0000     -14.446618      -393.1125
  18   2.0000     -10.370636      -282.1993
  19   2.0000     -10.362046      -281.9656
  20   2.0000     -10.337946      -281.3098
  21   2.0000     -10.337441      -281.2961
  22   2.0000     -10.335919      -281.2547
  23   2.0000     -10.334634      -281.2197
  24   2.0000     -10.333273      -281.1827
  25   2.0000     -10.331710      -281.1401
  26   2.0000     -10.327076      -281.0140
  27   2.0000     -10.324397      -280.9411
  28   2.0000     -10.318079      -280.7692
  29   2.0000     -10.314546      -280.6731
  30   2.0000     -10.314124      -280.6616
  31   2.0000     -10.313551      -280.6460
  32   2.0000     -10.307307      -280.4761
  33   2.0000     -10.305862      -280.4368
  34   2.0000     -10.304850      -280.4092
  35   2.0000     -10.303472      -280.3717
  36   2.0000     -10.303413      -280.3701
  37   2.0000     -10.302124      -280.3350
  38   2.0000     -10.301239      -280.3110
  39   2.0000     -10.299292      -280.2580
  40   2.0000     -10.298239      -280.2293
  41   2.0000     -10.297313      -280.2041
  42   2.0000     -10.295901      -280.1657
  43   2.0000     -10.294392      -280.1247
  44   2.0000     -10.293185      -280.0918
  45   2.0000     -10.292785      -280.0809
  46   2.0000     -10.291780      -280.0536
  47   2.0000     -10.290654      -280.0229
  48   2.0000     -10.288903      -279.9753
  49   2.0000     -10.288181      -279.9556
  50   2.0000     -10.285988      -279.8959
  51   2.0000     -10.285740      -279.8892
  52   2.0000     -10.285269      -279.8764
  53   2.0000     -10.282927      -279.8127
  54   2.0000     -10.282617      -279.8042
  55   2.0000     -10.280535      -279.7476
  56   2.0000     -10.280300      -279.7412
  57   2.0000     -10.276802      -279.6460
  58   2.0000     -10.272914      -279.5402
  59   2.0000     -10.267596      -279.3955
  60   2.0000     -10.258797      -279.1561
  61   2.0000     -10.257687      -279.1259
  62   2.0000     -10.253779      -279.0195
  63   2.0000     -10.247020      -278.8356
  64   2.0000      -8.076331      -219.7681
  65   2.0000      -8.061185      -219.3560
  66   2.0000      -8.055972      -219.2141
  67   2.0000      -8.046314      -218.9513
  68   2.0000      -8.041164      -218.8112
  69   2.0000      -8.027030      -218.4266
  70   2.0000      -8.011155      -217.9946
  71   2.0000      -6.045375      -164.5030
  72   2.0000      -6.041494      -164.3974
  73   2.0000      -6.038740      -164.3225
  74   2.0000      -6.030368      -164.0947
  75   2.0000      -6.026027      -163.9765
  76   2.0000      -6.025400      -163.9595
  77   2.0000      -6.023727      -163.9139
  78   2.0000      -6.021218      -163.8457
  79   2.0000      -6.017854      -163.7541
  80   2.0000      -6.015776      -163.6976
  81   2.0000      -6.011613      -163.5843
  82   2.0000      -6.010645      -163.5580
  83   2.0000      -6.008087      -163.4883
  84   2.0000      -6.006049      -163.4329
  85   2.0000      -6.003394      -163.3607
  86   2.0000      -5.997272      -163.1941
  87   2.0000      -5.992829      -163.0732
  88   2.0000      -5.987455      -162.9269
  89   2.0000      -5.981567      -162.7667
  90   2.0000      -5.977936      -162.6679
  91   2.0000      -5.970527      -162.4663
  92   2.0000      -1.289698       -35.0945
  93   2.0000      -1.271546       -34.6005
  94   2.0000      -1.201633       -32.6981
  95   2.0000      -1.158173       -31.5155
  96   2.0000      -1.139601       -31.0101
  97   2.0000      -1.102096       -29.9896
  98   2.0000      -1.099337       -29.9145
  99   2.0000      -1.092400       -29.7257
 100   2.0000      -1.055215       -28.7138
 101   2.0000      -1.013474       -27.5780
 102   2.0000      -1.007956       -27.4279
 103   2.0000      -0.982220       -26.7276
 104   2.0000      -0.980861       -26.6906
 105   2.0000      -0.979282       -26.6476
 106   2.0000      -0.963966       -26.2309
 107   2.0000      -0.950899       -25.8753
 108   2.0000      -0.940467       -25.5914
 109   2.0000      -0.927895       -25.2493
 110   2.0000      -0.912391       -24.8274
 111   2.0000      -0.902843       -24.5676
 112   2.0000      -0.898628       -24.4529
 113   2.0000      -0.895630       -24.3713
 114   2.0000      -0.890899       -24.2426
 115   2.0000      -0.875867       -23.8336
 116   2.0000      -0.871578       -23.7168
 117   2.0000      -0.857405       -23.3312
 118   2.0000      -0.855789       -23.2872
 119   2.0000      -0.847485       -23.0612
 120   2.0000      -0.841893       -22.9091
 121   2.0000      -0.832581       -22.6557
 122   2.0000      -0.817490       -22.2450
 123   2.0000      -0.814827       -22.1726
 124   2.0000      -0.812068       -22.0975
 125   2.0000      -0.808999       -22.0140
 126   2.0000      -0.791233       -21.5306
 127   2.0000      -0.788293       -21.4505
 128   2.0000      -0.777219       -21.1492
 129   2.0000      -0.775901       -21.1133
 130   2.0000      -0.767861       -20.8945
 131   2.0000      -0.760047       -20.6819
 132   2.0000      -0.756179       -20.5767
 133   2.0000      -0.738286       -20.0898
 134   2.0000      -0.736458       -20.0400
 135   2.0000      -0.732905       -19.9434
 136   2.0000      -0.718773       -19.5588
 137   2.0000      -0.715550       -19.4711
 138   2.0000      -0.700037       -19.0490
 139   2.0000      -0.696871       -18.9628
 140   2.0000      -0.682678       -18.5766
 141   2.0000      -0.677488       -18.4354
 142   2.0000      -0.669618       -18.2212
 143   2.0000      -0.664904       -18.0930
 144   2.0000      -0.663775       -18.0622
 145   2.0000      -0.656596       -17.8669
 146   2.0000      -0.654018       -17.7967
 147   2.0000      -0.647897       -17.6302
 148   2.0000      -0.641697       -17.4615
 149   2.0000      -0.636888       -17.3306
 150   2.0000      -0.627521       -17.0757
 151   2.0000      -0.623742       -16.9729
 152   2.0000      -0.621900       -16.9228
 153   2.0000      -0.617551       -16.8044
 154   2.0000      -0.609690       -16.5905
 155   2.0000      -0.599728       -16.3194
 156   2.0000      -0.596755       -16.2385
 157   2.0000      -0.589753       -16.0480
 158   2.0000      -0.587778       -15.9943
 159   2.0000      -0.584994       -15.9185
 160   2.0000      -0.582611       -15.8536
 161   2.0000      -0.581085       -15.8121
 162   2.0000      -0.573400       -15.6030
 163   2.0000      -0.572384       -15.5754
 164   2.0000      -0.569846       -15.5063
 165   2.0000      -0.566233       -15.4080
 166   2.0000      -0.564575       -15.3629
 167   2.0000      -0.562216       -15.2987
 168   2.0000      -0.557470       -15.1695
 169   2.0000      -0.552623       -15.0376
 170   2.0000      -0.548251       -14.9187
 171   2.0000      -0.547470       -14.8974
 172   2.0000      -0.539850       -14.6901
 173   2.0000      -0.537490       -14.6258
 174   2.0000      -0.535568       -14.5736
 175   2.0000      -0.534097       -14.5335
 176   2.0000      -0.530747       -14.4424
 177   2.0000      -0.529947       -14.4206
 178   2.0000      -0.528324       -14.3764
 179   2.0000      -0.526366       -14.3232
 180   2.0000      -0.521445       -14.1892
 181   2.0000      -0.517090       -14.0707
 182   2.0000      -0.509886       -13.8747
 183   2.0000      -0.506832       -13.7916
 184   2.0000      -0.503661       -13.7053
 185   2.0000      -0.502922       -13.6852
 186   2.0000      -0.500033       -13.6066
 187   2.0000      -0.497858       -13.5474
 188   2.0000      -0.494849       -13.4655
 189   2.0000      -0.493310       -13.4236
 190   2.0000      -0.491604       -13.3772
 191   2.0000      -0.490357       -13.3433
 192   2.0000      -0.486780       -13.2460
 193   2.0000      -0.485196       -13.2029
 194   2.0000      -0.483725       -13.1628
 195   2.0000      -0.479363       -13.0441
 196   2.0000      -0.476760       -12.9733
 197   2.0000      -0.473250       -12.8778
 198   2.0000      -0.471791       -12.8381
 199   2.0000      -0.471080       -12.8188
 200   2.0000      -0.470238       -12.7958
 201   2.0000      -0.465813       -12.6754
 202   2.0000      -0.462411       -12.5828
 203   2.0000      -0.461915       -12.5694
 204   2.0000      -0.460631       -12.5344
 205   2.0000      -0.456977       -12.4350
 206   2.0000      -0.454626       -12.3710
 207   2.0000      -0.451713       -12.2917
 208   2.0000      -0.449104       -12.2207
 209   2.0000      -0.448404       -12.2017
 210   2.0000      -0.445605       -12.1255
 211   2.0000      -0.444735       -12.1019
 212   2.0000      -0.438894       -11.9429
 213   2.0000      -0.433716       -11.8020
 214   2.0000      -0.429434       -11.6855
 215   2.0000      -0.426145       -11.5960
 216   2.0000      -0.425305       -11.5731
 217   2.0000      -0.424833       -11.5603
 218   2.0000      -0.419855       -11.4248
 219   2.0000      -0.416780       -11.3412
 220   2.0000      -0.414015       -11.2659
 221   2.0000      -0.413482       -11.2514
 222   2.0000      -0.406912       -11.0726
 223   2.0000      -0.405843       -11.0436
 224   2.0000      -0.398601       -10.8465
 225   2.0000      -0.393930       -10.7194
 226   2.0000      -0.390734       -10.6324
 227   2.0000      -0.384070       -10.4511
 228   2.0000      -0.379351       -10.3227
 229   2.0000      -0.370914       -10.0931
 230   2.0000      -0.363492        -9.8911
 231   2.0000      -0.358316        -9.7503
 232   2.0000      -0.354171        -9.6375
 233   2.0000      -0.347823        -9.4647
 234   2.0000      -0.345973        -9.4144
 235   2.0000      -0.345403        -9.3989
 236   2.0000      -0.341308        -9.2875
 237   2.0000      -0.339949        -9.2505
 238   2.0000      -0.333845        -9.0844
 239   2.0000      -0.331787        -9.0284
 240   2.0000      -0.321758        -8.7555
 241   2.0000      -0.315150        -8.5757
 242   2.0000      -0.310248        -8.4423
 243   2.0000      -0.303266        -8.2523
 244   2.0000      -0.300074        -8.1654
 245   2.0000      -0.292404        -7.9567
 246   2.0000      -0.290064        -7.8930
 247   2.0000      -0.285150        -7.7593
 248   2.0000      -0.278947        -7.5905
 249   2.0000      -0.272975        -7.4280
 250   2.0000      -0.255304        -6.9472
 251   2.0000      -0.231320        -6.2945
 252   2.0000      -0.225413        -6.1338
 253   0.0000      -0.104632        -2.8472
 254   0.0000      -0.079951        -2.1756
 255   0.0000      -0.052372        -1.4251
 256   0.0000      -0.028008        -0.7621
 257   0.0000      -0.015187        -0.4133

MULLIKEN ATOMIC CHARGES
-----------------------
   0 C :   -0.145769
   1 C :    0.067631
   2 C :    0.053459
   3 C :   -0.172854
   4 S :    0.091939
   5 C :    0.182013
   6 O :   -0.177119
   7 C :   -0.163398
   8 C :    0.215292
   9 C :   -0.023442
  10 N :    0.256315
  11 O :   -0.268350
  12 O :   -0.277668
  13 N :    0.251734
  14 O :   -0.233568
  15 O :   -0.299974
  16 C :   -0.037010
  17 C :    0.108931
  18 C :    0.222430
  19 O :   -0.214289
  20 C :    0.197973
  21 C :    0.221532
  22 C :   -0.172622
  23 S :    0.111163
  24 C :   -0.166024
  25 O :   -0.246590
  26 C :   -0.079676
  27 C :    0.118483
  28 C :   -0.186812
  29 S :    0.213818
  30 C :   -0.060548
  31 C :    0.103138
  32 C :    0.184852
  33 C :   -0.083296
  34 C :    0.034792
  35 S :    0.014247
  36 C :   -0.125802
  37 C :    0.031233
  38 C :   -0.140600
  39 S :   -0.029724
  40 C :   -0.105534
  41 C :    0.025397
  42 C :   -0.013130
  43 C :    0.004251
  44 C :    0.068612
  45 C :   -0.123679
  46 S :    0.164513
  47 C :   -0.020368
  48 C :   -0.018660
  49 C :    0.015453
  50 C :    0.158273
  51 O :   -0.102468
  52 C :   -0.007508
  53 C :   -0.066470
  54 C :   -0.043070
  55 C :    0.021362
  56 C :   -0.141166
  57 S :    0.125167
  58 C :   -0.025420
  59 C :   -0.040262
  60 C :    0.129845
  61 N :   -0.145667
  62 C :    0.101065
  63 C :   -0.026863
  64 H :    0.031892
  65 H :    0.028056
  66 H :    0.021726
  67 H :    0.026473
  68 H :    0.023482
  69 H :    0.005706
  70 H :    0.052470
  71 H :   -0.054652
  72 H :    0.051759
  73 H :    0.049122
  74 H :    0.042853
  75 H :    0.018512
  76 H :    0.015828
  77 H :    0.055171
  78 H :    0.047377
  79 H :    0.030534
  80 H :    0.021426
  81 H :    0.020984
  82 H :   -0.035878
  83 H :    0.002195
  84 H :   -0.004166
  85 H :    0.018643
  86 H :   -0.021759
  87 H :    0.004541
  88 H :   -0.029525
  89 H :    0.037979
  90 H :   -0.016159
  91 H :    0.114168
  92 H :    0.025359
  93 H :    0.021073
  94 H :    0.030733
  95 H :    0.031200
  96 H :    0.023366
Sum of atomic charges:   -0.0000000

LOEWDIN ATOMIC CHARGES
----------------------
   0 C :   -0.158299
   1 C :   -0.059949
   2 C :   -0.086570
   3 C :   -0.151209
   4 S :    0.435437
   5 C :    0.078163
   6 O :   -0.168273
   7 C :   -0.139749
   8 C :    0.041801
   9 C :   -0.150841
  10 N :    0.277916
  11 O :   -0.233821
  12 O :   -0.237780
  13 N :    0.281702
  14 O :   -0.200527
  15 O :   -0.265006
  16 C :    0.026409
  17 C :    0.006656
  18 C :    0.101552
  19 O :   -0.020839
  20 C :   -0.013607
  21 C :   -0.006000
  22 C :   -0.214970
  23 S :    0.440347
  24 C :   -0.210118
  25 O :   -0.057141
  26 C :   -0.076143
  27 C :    0.039727
  28 C :   -0.192464
  29 S :    0.537239
  30 C :   -0.095164
  31 C :   -0.067705
  32 C :    0.001322
  33 C :   -0.049382
  34 C :   -0.140935
  35 S :    0.335012
  36 C :   -0.138183
  37 C :   -0.077365
  38 C :   -0.190685
  39 S :    0.250316
  40 C :   -0.126177
  41 C :   -0.071197
  42 C :   -0.007568
  43 C :   -0.076788
  44 C :    0.007841
  45 C :   -0.192534
  46 S :    0.458440
  47 C :   -0.135891
  48 C :   -0.116728
  49 C :    0.016167
  50 C :    0.097662
  51 O :   -0.095047
  52 C :   -0.023043
  53 C :   -0.058428
  54 C :   -0.064751
  55 C :    0.006820
  56 C :   -0.233577
  57 S :    0.438653
  58 C :   -0.142221
  59 C :   -0.099248
  60 C :    0.024073
  61 N :   -0.015102
  62 C :    0.036184
  63 C :   -0.058500
  64 H :    0.023592
  65 H :    0.027104
  66 H :    0.043802
  67 H :    0.029860
  68 H :    0.028633
  69 H :    0.033858
  70 H :    0.043574
  71 H :    0.027126
  72 H :    0.021290
  73 H :    0.028948
  74 H :    0.024932
  75 H :    0.028649
  76 H :    0.025019
  77 H :    0.020927
  78 H :    0.018679
  79 H :    0.022842
  80 H :    0.028344
  81 H :    0.024163
  82 H :    0.024597
  83 H :    0.034458
  84 H :    0.031439
  85 H :    0.046841
  86 H :    0.023581
  87 H :    0.027893
  88 H :    0.025305
  89 H :    0.029966
  90 H :    0.030126
  91 H :    0.072687
  92 H :    0.023663
  93 H :    0.017409
  94 H :    0.028818
  95 H :    0.036505
  96 H :    0.025456

  Mayer bond orders larger than 0.100000
B(  0-C ,  1-C ) :   1.5848 B(  0-C ,  4-S ) :   1.1395 B(  0-C , 64-H ) :   0.9531
B(  1-C ,  2-C ) :   1.2242 B(  1-C ,  8-C ) :   0.9791 B(  2-C ,  3-C ) :   1.5685
B(  2-C ,  5-C ) :   0.9393 B(  3-C ,  4-S ) :   1.1461 B(  3-C , 65-H ) :   0.9660
B(  5-C ,  6-O ) :   2.0590 B(  5-C ,  7-C ) :   1.0255 B(  7-C ,  8-C ) :   1.3869
B(  7-C , 16-C ) :   1.1352 B(  8-C ,  9-C ) :   1.2981 B(  9-C , 10-N ) :   0.9894
B(  9-C , 13-N ) :   1.0001 B( 10-N , 11-O ) :   1.4941 B( 10-N , 12-O ) :   1.4748
B( 11-O , 12-O ) :   0.2380 B( 13-N , 14-O ) :   1.5153 B( 13-N , 15-O ) :   1.4165
B( 14-O , 15-O ) :   0.2265 B( 16-C , 17-C ) :   1.5771 B( 16-C , 66-H ) :   0.9475
B( 17-C , 18-C ) :   1.1084 B( 17-C , 25-O ) :   1.0172 B( 18-C , 19-O ) :   1.1197
B( 18-C , 26-C ) :   1.4841 B( 19-O , 20-C ) :   1.0430 B( 20-C , 21-C ) :   1.1982
B( 20-C , 24-C ) :   1.5609 B( 21-C , 22-C ) :   1.5645 B( 21-C , 25-O ) :   1.0872
B( 22-C , 23-S ) :   1.1400 B( 22-C , 67-H ) :   0.9712 B( 23-S , 24-C ) :   1.1541
B( 24-C , 68-H ) :   0.9729 B( 26-C , 27-C ) :   1.3172 B( 26-C , 69-H ) :   0.9507
B( 27-C , 28-C ) :   1.4769 B( 27-C , 70-H ) :   0.8935 B( 28-C , 29-S ) :   1.0711
B( 28-C , 32-C ) :   1.1409 B( 29-S , 30-C ) :   1.2289 B( 30-C , 31-C ) :   1.1871
B( 30-C , 43-C ) :   1.2440 B( 31-C , 32-C ) :   1.2780 B( 31-C , 42-C ) :   1.2293
B( 32-C , 33-C ) :   1.3078 B( 33-C , 34-C ) :   1.4060 B( 33-C , 71-H ) :   0.9922
B( 34-C , 35-S ) :   1.0585 B( 34-C , 38-C ) :   1.2906 B( 35-S , 36-C ) :   0.9985
B( 36-C , 37-C ) :   1.0559 B( 36-C , 72-H ) :   0.9435 B( 36-C , 73-H ) :   0.9512
B( 37-C , 74-H ) :   0.9545 B( 37-C , 75-H ) :   0.9568 B( 37-C , 76-H ) :   0.9625
B( 38-C , 39-S ) :   1.0428 B( 38-C , 42-C ) :   1.5195 B( 39-S , 40-C ) :   0.9617
B( 40-C , 41-C ) :   1.0732 B( 40-C , 77-H ) :   0.9537 B( 40-C , 78-H ) :   0.9553
B( 41-C , 79-H ) :   0.9726 B( 41-C , 80-H ) :   0.9650 B( 41-C , 81-H ) :   0.9714
B( 42-C , 82-H ) :   0.9862 B( 43-C , 44-C ) :   1.5618 B( 43-C , 83-H ) :   0.9448
B( 44-C , 45-C ) :   1.2260 B( 44-C , 84-H ) :   0.9534 B( 45-C , 46-S ) :   1.0643
B( 45-C , 49-C ) :   1.3749 B( 46-S , 47-C ) :   1.1649 B( 47-C , 48-C ) :   1.3726
B( 47-C , 53-C ) :   1.1190 B( 48-C , 49-C ) :   1.3751 B( 48-C , 50-C ) :   0.9235
B( 49-C , 85-H ) :   0.9975 B( 50-C , 51-O ) :   2.2805 B( 50-C , 52-C ) :   0.9077
B( 52-C , 53-C ) :   1.5272 B( 52-C , 54-C ) :   1.2214 B( 53-C , 86-H ) :   1.0132
B( 54-C , 55-C ) :   1.5236 B( 54-C , 87-H ) :   0.9701 B( 55-C , 56-C ) :   1.2530
B( 55-C , 88-H ) :   0.9690 B( 56-C , 57-S ) :   1.0642 B( 56-C , 60-C ) :   1.3440
B( 57-S , 58-C ) :   1.1977 B( 58-C , 59-C ) :   1.5421 B( 58-C , 89-H ) :   0.9663
B( 59-C , 60-C ) :   1.2292 B( 59-C , 90-H ) :   1.0007 B( 60-C , 61-N ) :   1.2733
B( 61-N , 62-C ) :   0.9898 B( 61-N , 91-H ) :   0.9239 B( 62-C , 63-C ) :   1.1024
B( 62-C , 92-H ) :   0.9466 B( 62-C , 93-H ) :   0.9489 B( 63-C , 94-H ) :   0.9727
B( 63-C , 95-H ) :   0.9649 B( 63-C , 96-H ) :   0.9693

-----------------------------------------------------------------------------
         ABSORPTION SPECTRUM VIA TRANSITION ELECTRIC DIPOLE MOMENTS
-----------------------------------------------------------------------------
State   Energy  Wavelength   fosc         T2         TX        TY        TZ
        (cm-1)    (nm)                  (au**2)     (au)      (au)      (au)
-----------------------------------------------------------------------------
   0   10116.9    988.4   0.186408214   6.06585   0.65646  -1.77613   1.57488
   1   11838.4    844.7   1.339718192  37.25609  -2.93649   3.28286  -4.22563
   2   15925.7    627.9   0.104399502   2.15811   0.16717  -1.45695   0.08640
   3   18708.7    534.5   0.502334522   8.83947  -1.47253   0.27542  -2.56812
   4   19728.7    506.9   0.108203959   1.80559  -0.79054   0.89887  -0.61048
   5   20650.0    484.3   0.039349164   0.62732   0.43503   0.39291   0.53263
   6   21684.6    461.2   0.038619828   0.58632  -0.35318   0.05169  -0.67743
   7   21986.9    454.8   0.015931040   0.23854  -0.03837   0.48643  -0.02119
   8   23218.7    430.7   0.090450814   1.28248   0.12762  -0.62991  -0.93242
   9   23800.9    420.2   0.002768702   0.03830   0.05820   0.06367   0.17566
  10   24477.8    408.5   0.004140918   0.05569  -0.18130   0.00917   0.15079
  11   24852.6    402.4   0.003189317   0.04225   0.20099  -0.03993  -0.01603
  12   25144.9    397.7   0.046898247   0.61402   0.27369   0.03068  -0.73360
  13   26109.4    383.0   0.006442197   0.08123  -0.13701  -0.24368   0.05548
  14   26393.0    378.9   0.000040842   0.00051   0.01646  -0.01467   0.00484
  15   26894.6    371.8   0.037638181   0.46072  -0.52336   0.22257  -0.37051
  16   27079.4    369.3   0.104031214   1.26474  -0.44856   0.35955  -0.96657
  17   27945.3    357.8   0.015751126   0.18556   0.35901  -0.01688  -0.23746
  18   28179.6    354.9   0.147534951   1.72360   0.09044  -0.95934  -0.89168
  19   28461.8    351.3   0.083297201   0.96348   0.94231  -0.24476   0.12501
  20   29268.6    341.7   0.036827051   0.41423  -0.44121   0.27748  -0.37758
  21   29510.1    338.9   0.089311379   0.99635   0.17358  -0.90816  -0.37611
  22   29751.7    336.1   0.009468167   0.10477  -0.01872   0.29652  -0.12844
  23   30241.1    330.7   0.135600930   1.47619   0.53832  -0.54681   0.94202
  24   30406.0    328.9   0.224967857   2.43578  -0.63623   0.89982  -1.10513
  25   30744.0    325.3   0.023115599   0.24753   0.21360  -0.33185   0.30295
  26   30994.4    322.6   0.066812001   0.70965  -0.62494   0.56422   0.02756
  27   31265.1    319.8   0.071986217   0.75799   0.78654  -0.29650   0.22679
  28   31552.7    316.9   0.023929116   0.24967  -0.12300   0.16951  -0.45366
  29   32037.3    312.1   0.075102232   0.77174   0.29455  -0.66429  -0.49366
  30   32210.0    310.5   0.009901555   0.10120  -0.28243   0.13248  -0.06234
  31   32567.0    307.1   0.015491035   0.15659   0.17234  -0.33588   0.11866
  32   32683.8    306.0   0.019574676   0.19717   0.27521   0.02625   0.34748
  33   32865.1    304.3   0.025644453   0.25688  -0.31015  -0.18241  -0.35695
  34   33198.7    301.2   0.003583573   0.03554  -0.13186   0.04543   0.12682
  35   33368.3    299.7   0.030427953   0.30020  -0.34645  -0.15334  -0.39581
  36   33731.9    296.5   0.044344776   0.43279  -0.48254   0.43913   0.08435
  37   33785.2    296.0   0.007958173   0.07755   0.15103  -0.23396   0.00034
  38   33920.0    294.8   0.081576704   0.79175  -0.58499   0.66560   0.08064
  39   34138.8    292.9   0.014454128   0.13939  -0.22376   0.28872  -0.07721
  40   34439.9    290.4   0.066707235   0.63766   0.16878   0.38745   0.67753
  41   34544.6    289.5   0.100881819   0.96141  -0.69999   0.63050   0.27182
  42   34716.2    288.1   0.096535026   0.91544  -0.46928   0.54228   0.63336
  43   34843.2    287.0   0.167037898   1.57824  -0.80214   0.22941  -0.93925
  44   35183.4    284.2   0.035232401   0.32967   0.30707  -0.45572   0.16642
  45   35453.2    282.1   0.024312515   0.22576  -0.10627   0.19779   0.41875
  46   35728.6    279.9   0.001137632   0.01048   0.09878   0.02575   0.00779
  47   36068.4    277.3   0.060664697   0.55371   0.07877   0.48382   0.55985
  48   36153.6    276.6   0.013478618   0.12274   0.06362  -0.28999   0.18600
  49   36696.9    272.5   0.006277499   0.05632  -0.12133  -0.07867  -0.18816
  50   36767.5    272.0   0.015347213   0.13742   0.18400  -0.23755   0.21710
  51   36867.3    271.2   0.036110951   0.32246  -0.37679   0.23629  -0.35306
  52   36951.0    270.6   0.000624122   0.00556  -0.07129  -0.01049  -0.01919
  53   37043.2    270.0   0.016268568   0.14458   0.33036  -0.18350  -0.04212
  54   37482.1    266.8   0.005594798   0.04914  -0.19552   0.08043  -0.06667
  55   37640.3    265.7   0.064174867   0.56129   0.26482   0.39032   0.58207
  56   38093.8    262.5   0.161475624   1.39549  -0.42425   0.73780   0.81924
  57   38342.8    260.8   0.067673409   0.58104   0.63095  -0.42397   0.05659
  58   38549.7    259.4   0.023260865   0.19865  -0.42544   0.05589   0.12052
  59   38935.0    256.8   0.047560410   0.40214   0.37906  -0.48781  -0.14316
  60   39074.9    255.9   0.033045821   0.27842  -0.31566   0.34784  -0.24038
  61   39187.2    255.2   0.002965403   0.02491   0.00760  -0.07860  -0.13666
  62   39213.1    255.0   0.012239135   0.10275   0.07403   0.30023  -0.08446
  63   39450.4    253.5   0.047157414   0.39353   0.12780   0.23553   0.56720
  64   39530.8    253.0   0.024120835   0.20088  -0.02062   0.00371  -0.44770
  65   39674.6    252.1   0.017921155   0.14871  -0.26945   0.18652  -0.20325
  66   39868.7    250.8   0.010966080   0.09055   0.20779  -0.03641  -0.21459
  67   39963.2    250.2   0.053415198   0.44003   0.23137  -0.61679  -0.07791
  68   40267.8    248.3   0.048870994   0.39955  -0.51015   0.37287  -0.01616

FINAL SINGLE POINT ENERGY     -5321.788709617814

DIPOLE MOMENT
-------------
                                X             Y             Z
Electronic contribution:    -20.42022      70.62035      -3.27373
Nuclear contribution   :     21.44402     -78.00144       4.19769
                        -----------------------------------------
Total Dipole Moment    :      1.02379      -7.38109       0.92397
                        -----------------------------------------
Magnitude (a.u.)       :      7.50882
Magnitude (Debye)      :     19.08591

Rotational constants in cm-1:     0.001933     0.000382     0.000334
Rotational constants in MHz :    57.936326    11.437374    10.004710

                             ****ORCA TERMINATED NORMALLY****
TOTAL RUN TIME: 0 days 0 hours 10 minutes 27 seconds 34 msec
