                         Program Version 4.2.0 -  RELEASE  -
|  1> # ORCA input file
|  2> # SCF done       -193.816603467579          0.000977223237
|  3> ! CAM-B3LYP def2-SVP def2/J RIJCOSX Grid4 TightSCF
|  4> %maxcore 5000
|  5> %tddft
|  6>     Mode sTDDFT
|  7>     Ethresh 5.0
|  8>     maxcore 5000
|  9> end
| 10>
| 11> %pal
| 12>   nprocs 6
| 13>   end
| 14> * xyz 0 1
| 15>    C       -5.32103        -3.43060        -0.00452
| 16>    C       -4.05527        -3.03474         0.32707
| 17>    C       -3.06335        -3.62477        -0.53350
| 18>    C       -3.58606        -4.45385        -1.47019
| 19>    S       -5.30238        -4.50665        -1.33947
| 20>    C       -1.73228        -3.14851        -0.15703
| 21>    O       -0.65005        -3.57641        -0.46772
| 22>    C       -2.01925        -2.04159         0.82265
| 23>    C       -3.39039        -2.21388         1.31799
| 24>    C       -3.85576        -1.75464         2.51184
| 25>    N       -5.21617        -1.83017         2.96258
| 26>    O       -6.08821        -1.86883         2.12175
| 27>    O       -5.39170        -1.85778         4.15858
| 28>    N       -2.95534        -1.19616         3.51741
| 29>    O       -1.96750        -1.83857         3.78041
| 30>    O       -3.26522        -0.13338         3.99299
| 31>    C       -1.19873        -0.99335         1.05189
| 32>    C       -0.02389        -0.72304         0.27737
| 33>    C        0.11912        -0.84828        -1.09754
| 34>    C       -0.97260        -1.19117        -1.91440
| 35>    N       -1.91332        -1.42477        -2.52697
| 36>    C        1.40453        -0.45347        -1.54385
| 37>    C        2.19358        -0.01532        -0.48053
| 38>    S        1.39662        -0.06188         1.04063
| 39>    S        3.79068         0.49433        -0.91500
| 40>    C        3.40360         0.11232        -2.56260
| 41>    C        2.12343        -0.38230        -2.77135
| 42>    C        1.90035        -0.67954        -4.14463
| 43>    C        0.70255        -1.19067        -4.67455
| 44>    N       -0.26269        -1.61409        -5.12471
| 45>    C        2.99224        -0.37673        -4.93645
| 46>    S        4.33560         0.24193        -3.99922
| 47>    C        3.09882        -0.55598        -6.35628
| 48>    S        2.45765        -1.97836        -7.10743
| 49>    C        2.93464        -1.41690        -8.68573
| 50>    C        3.58746        -0.19868        -8.60922
| 51>    C        3.67719         0.28438        -7.28754
| 52>    C        4.27923         1.62154        -6.93388
| 53>    C        3.37362         2.34035        -6.06269
| 54>    N        2.63983         2.91065        -5.39761
| 55>    C        4.55345         2.45494        -8.19442
| 56>    C        5.21963         1.57618        -9.24226
| 57>    C        4.21519         0.54083        -9.76987
| 58>    O        4.76239        -0.30225       -10.75933
| 59>    C        5.81424        -1.15284       -10.36151
| 60>    C        2.60532        -2.25957        -9.79423
| 61>    C        2.41814        -1.85855       -11.06634
| 62>    C        2.12973        -2.73990       -12.16463
| 63>    C        2.33928        -4.13585       -12.14234
| 64>    N        2.24657        -4.85960       -13.22500
| 65>    C        1.86364        -4.27954       -14.37304
| 66>    C        1.52988        -2.91283       -14.35941
| 67>    N        1.70181        -2.16662       -13.29656
| 68>    C        1.75677        -5.06417       -15.56577
| 69>    C        2.00085        -6.38437       -15.74622
| 70>    C        2.54614        -7.41257       -14.86531
| 71>    C        3.50694        -7.25009       -13.91295
| 72>    N        3.94564        -8.33157       -13.06642
| 73>    O        5.13168        -8.43295       -12.86292
| 74>    O        3.09272        -9.07700       -12.63236
| 75>    N        4.27935        -6.03926       -13.73475
| 76>    O        4.45967        -5.34403       -14.71022
| 77>    O        4.74436        -5.83923       -12.63594
| 78>    C        2.03176        -8.67845       -15.36398
| 79>    C        2.00138        -9.99181       -14.99621
| 80>    S        1.28716       -10.96537       -16.21967
| 81>    C        1.00912        -9.61020       -17.24643
| 82>    C        1.44501        -8.46747       -16.65918
| 83>    C        1.45462        -7.03769       -16.98197
| 84>    O        1.05854        -6.47811       -17.97340
| 85>    H       -6.25504        -3.13390         0.42941
| 86>    H       -3.07678        -5.01004        -2.23113
| 87>    H       -1.42053        -0.26041         1.81745
| 88>    H        5.22136         1.46379        -6.39041
| 89>    H        5.19348         3.29997        -7.93655
| 90>    H        3.61270         2.84961        -8.58559
| 91>    H        6.07838         1.06715        -8.79994
| 92>    H        5.57200         2.17665       -10.08139
| 93>    H        3.42034         1.08067       -10.30608
| 94>    H        5.91893        -1.88569       -11.15925
| 95>    H        5.58657        -1.67418        -9.42684
| 96>    H        6.75784        -0.60823       -10.25302
| 97>    H        2.44551        -3.29702        -9.52914
| 98>    H        2.47196        -0.81685       -11.33864
| 99>    H        2.67150        -4.66046       -11.25793
|100>    H        1.13441        -2.42176       -15.23825
|101>    H        1.34178        -4.55037       -16.42602
|102>    H        2.31383       -10.44829       -14.07788
|103>    H        0.54858        -9.74017       -18.20514
|104> *
|105>
|106>                          ****END OF INPUT****

CARTESIAN COORDINATES (ANGSTROEM)
---------------------------------
  C     -5.321030   -3.430600   -0.004520
  C     -4.055270   -3.034740    0.327070
  C     -3.063350   -3.624770   -0.533500
  C     -3.586060   -4.453850   -1.470190
  S     -5.302380   -4.506650   -1.339470
  C     -1.732280   -3.148510   -0.157030
  O     -0.650050   -3.576410   -0.467720
  C     -2.019250   -2.041590    0.822650
  C     -3.390390   -2.213880    1.317990
  C     -3.855760   -1.754640    2.511840
  N     -5.216170   -1.830170    2.962580
  O     -6.088210   -1.868830    2.121750
  O     -5.391700   -1.857780    4.158580
  N     -2.955340   -1.196160    3.517410
  O     -1.967500   -1.838570    3.780410
  O     -3.265220   -0.133380    3.992990
  C     -1.198730   -0.993350    1.051890
  C     -0.023890   -0.723040    0.277370
  C      0.119120   -0.848280   -1.097540
  C     -0.972600   -1.191170   -1.914400
  N     -1.913320   -1.424770   -2.526970
  C      1.404530   -0.453470   -1.543850
  C      2.193580   -0.015320   -0.480530
  S      1.396620   -0.061880    1.040630
  S      3.790680    0.494330   -0.915000
  C      3.403600    0.112320   -2.562600
  C      2.123430   -0.382300   -2.771350
  C      1.900350   -0.679540   -4.144630
  C      0.702550   -1.190670   -4.674550
  N     -0.262690   -1.614090   -5.124710
  C      2.992240   -0.376730   -4.936450
  S      4.335600    0.241930   -3.999220
  C      3.098820   -0.555980   -6.356280
  S      2.457650   -1.978360   -7.107430
  C      2.934640   -1.416900   -8.685730
  C      3.587460   -0.198680   -8.609220
  C      3.677190    0.284380   -7.287540
  C      4.279230    1.621540   -6.933880
  C      3.373620    2.340350   -6.062690
  N      2.639830    2.910650   -5.397610
  C      4.553450    2.454940   -8.194420
  C      5.219630    1.576180   -9.242260
  C      4.215190    0.540830   -9.769870
  O      4.762390   -0.302250  -10.759330
  C      5.814240   -1.152840  -10.361510
  C      2.605320   -2.259570   -9.794230
  C      2.418140   -1.858550  -11.066340
  C      2.129730   -2.739900  -12.164630
  C      2.339280   -4.135850  -12.142340
  N      2.246570   -4.859600  -13.225000
  C      1.863640   -4.279540  -14.373040
  C      1.529880   -2.912830  -14.359410
  N      1.701810   -2.166620  -13.296560
  C      1.756770   -5.064170  -15.565770
  C      2.000850   -6.384370  -15.746220
  C      2.546140   -7.412570  -14.865310
  C      3.506940   -7.250090  -13.912950
  N      3.945640   -8.331570  -13.066420
  O      5.131680   -8.432950  -12.862920
  O      3.092720   -9.077000  -12.632360
  N      4.279350   -6.039260  -13.734750
  O      4.459670   -5.344030  -14.710220
  O      4.744360   -5.839230  -12.635940
  C      2.031760   -8.678450  -15.363980
  C      2.001380   -9.991810  -14.996210
  S      1.287160  -10.965370  -16.219670
  C      1.009120   -9.610200  -17.246430
  C      1.445010   -8.467470  -16.659180
  C      1.454620   -7.037690  -16.981970
  O      1.058540   -6.478110  -17.973400
  H     -6.255040   -3.133900    0.429410
  H     -3.076780   -5.010040   -2.231130
  H     -1.420530   -0.260410    1.817450
  H      5.221360    1.463790   -6.390410
  H      5.193480    3.299970   -7.936550
  H      3.612700    2.849610   -8.585590
  H      6.078380    1.067150   -8.799940
  H      5.572000    2.176650  -10.081390
  H      3.420340    1.080670  -10.306080
  H      5.918930   -1.885690  -11.159250
  H      5.586570   -1.674180   -9.426840
  H      6.757840   -0.608230  -10.253020
  H      2.445510   -3.297020   -9.529140
  H      2.471960   -0.816850  -11.338640
  H      2.671500   -4.660460  -11.257930
  H      1.134410   -2.421760  -15.238250
  H      1.341780   -4.550370  -16.426020
  H      2.313830  -10.448290  -14.077880
  H      0.548580   -9.740170  -18.205140

 Total Charge           Charge          ....    0
 Multiplicity           Mult            ....    1
 Number of Electrons    NEL             ....  530
 Basis Dimension        Dim             .... 1099

ORBITAL ENERGIES
----------------

  NO   OCC          E(Eh)            E(eV)
   0   2.0000     -88.996900     -2421.7288
   1   2.0000     -88.996789     -2421.7257
   2   2.0000     -88.996339     -2421.7135
   3   2.0000     -88.986140     -2421.4360
   4   2.0000     -88.985944     -2421.4306
   5   2.0000     -88.976461     -2421.1726
   6   2.0000     -19.263515      -524.1869
   7   2.0000     -19.262322      -524.1544
   8   2.0000     -19.258086      -524.0392
   9   2.0000     -19.256669      -524.0006
  10   2.0000     -19.256145      -523.9863
  11   2.0000     -19.255837      -523.9780
  12   2.0000     -19.252109      -523.8765
  13   2.0000     -19.251688      -523.8651
  14   2.0000     -19.225192      -523.1441
  15   2.0000     -19.221260      -523.0371
  16   2.0000     -19.219149      -522.9796
  17   2.0000     -14.669965      -399.1900
  18   2.0000     -14.669220      -399.1698
  19   2.0000     -14.664395      -399.0385
  20   2.0000     -14.662480      -398.9864
  21   2.0000     -14.438347      -392.8874
  22   2.0000     -14.431023      -392.6881
  23   2.0000     -14.414197      -392.2302
  24   2.0000     -14.409958      -392.1149
  25   2.0000     -14.408897      -392.0860
  26   2.0000     -10.378699      -282.4188
  27   2.0000     -10.378043      -282.4009
  28   2.0000     -10.373554      -282.2788
  29   2.0000     -10.373078      -282.2658
  30   2.0000     -10.361415      -281.9484
  31   2.0000     -10.351594      -281.6812
  32   2.0000     -10.349500      -281.6242
  33   2.0000     -10.347623      -281.5731
  34   2.0000     -10.347311      -281.5646
  35   2.0000     -10.343409      -281.4585
  36   2.0000     -10.341534      -281.4074
  37   2.0000     -10.337426      -281.2957
  38   2.0000     -10.337112      -281.2871
  39   2.0000     -10.335320      -281.2384
  40   2.0000     -10.334208      -281.2081
  41   2.0000     -10.333576      -281.1909
  42   2.0000     -10.332097      -281.1507
  43   2.0000     -10.330500      -281.1072
  44   2.0000     -10.329665      -281.0845
  45   2.0000     -10.328834      -281.0619
  46   2.0000     -10.324695      -280.9492
  47   2.0000     -10.322891      -280.9002
  48   2.0000     -10.322091      -280.8784
  49   2.0000     -10.321991      -280.8757
  50   2.0000     -10.321916      -280.8736
  51   2.0000     -10.320334      -280.8306
  52   2.0000     -10.319745      -280.8145
  53   2.0000     -10.318265      -280.7743
  54   2.0000     -10.317030      -280.7407
  55   2.0000     -10.314280      -280.6658
  56   2.0000     -10.313568      -280.6465
  57   2.0000     -10.312042      -280.6049
  58   2.0000     -10.310612      -280.5660
  59   2.0000     -10.310336      -280.5585
  60   2.0000     -10.309774      -280.5432
  61   2.0000     -10.309216      -280.5280
  62   2.0000     -10.307767      -280.4886
  63   2.0000     -10.303404      -280.3699
  64   2.0000     -10.300001      -280.2773
  65   2.0000     -10.298478      -280.2358
  66   2.0000     -10.295395      -280.1519
  67   2.0000     -10.294594      -280.1301
  68   2.0000     -10.290376      -280.0154
  69   2.0000     -10.286335      -279.9054
  70   2.0000      -8.092201      -220.2000
  71   2.0000      -8.091907      -220.1920
  72   2.0000      -8.091184      -220.1723
  73   2.0000      -8.082022      -219.9230
  74   2.0000      -8.081923      -219.9203
  75   2.0000      -8.071669      -219.6413
  76   2.0000      -6.061905      -164.9528
  77   2.0000      -6.061767      -164.9491
  78   2.0000      -6.060812      -164.9231
  79   2.0000      -6.057643      -164.8369
  80   2.0000      -6.057451      -164.8316
  81   2.0000      -6.056588      -164.8081
  82   2.0000      -6.053838      -164.7333
  83   2.0000      -6.052734      -164.7033
  84   2.0000      -6.052727      -164.7031
  85   2.0000      -6.051088      -164.6585
  86   2.0000      -6.051069      -164.6580
  87   2.0000      -6.046408      -164.5311
  88   2.0000      -6.046389      -164.5306
  89   2.0000      -6.045052      -164.4942
  90   2.0000      -6.044763      -164.4864
  91   2.0000      -6.040852      -164.3799
  92   2.0000      -6.036720      -164.2675
  93   2.0000      -6.033928      -164.1915
  94   2.0000      -1.352725       -36.8095
  95   2.0000      -1.345623       -36.6163
  96   2.0000      -1.335589       -36.3432
  97   2.0000      -1.328072       -36.1387
  98   2.0000      -1.167881       -31.7797
  99   2.0000      -1.160142       -31.5691
 100   2.0000      -1.159762       -31.5587
 101   2.0000      -1.151421       -31.3318
 102   2.0000      -1.140745       -31.0413
 103   2.0000      -1.136460       -30.9246
 104   2.0000      -1.128198       -30.6998
 105   2.0000      -1.094137       -29.7730
 106   2.0000      -1.052377       -28.6366
 107   2.0000      -1.028182       -27.9783
 108   2.0000      -1.025137       -27.8954
 109   2.0000      -1.023845       -27.8603
 110   2.0000      -1.015238       -27.6260
 111   2.0000      -1.010600       -27.4998
 112   2.0000      -0.999618       -27.2010
 113   2.0000      -0.995292       -27.0833
 114   2.0000      -0.989335       -26.9212
 115   2.0000      -0.987394       -26.8684
 116   2.0000      -0.982284       -26.7293
 117   2.0000      -0.961426       -26.1617
 118   2.0000      -0.947427       -25.7808
 119   2.0000      -0.942463       -25.6457
 120   2.0000      -0.941106       -25.6088
 121   2.0000      -0.924079       -25.1455
 122   2.0000      -0.907420       -24.6922
 123   2.0000      -0.903847       -24.5949
 124   2.0000      -0.893531       -24.3142
 125   2.0000      -0.882139       -24.0042
 126   2.0000      -0.876750       -23.8576
 127   2.0000      -0.857804       -23.3420
 128   2.0000      -0.852489       -23.1974
 129   2.0000      -0.851819       -23.1792
 130   2.0000      -0.851306       -23.1652
 131   2.0000      -0.839554       -22.8454
 132   2.0000      -0.831468       -22.6254
 133   2.0000      -0.816961       -22.2306
 134   2.0000      -0.812230       -22.1019
 135   2.0000      -0.807152       -21.9637
 136   2.0000      -0.798834       -21.7374
 137   2.0000      -0.793914       -21.6035
 138   2.0000      -0.790446       -21.5091
 139   2.0000      -0.780303       -21.2331
 140   2.0000      -0.768449       -20.9106
 141   2.0000      -0.761852       -20.7311
 142   2.0000      -0.746012       -20.3000
 143   2.0000      -0.731826       -19.9140
 144   2.0000      -0.728645       -19.8274
 145   2.0000      -0.718029       -19.5386
 146   2.0000      -0.710789       -19.3416
 147   2.0000      -0.694533       -18.8992
 148   2.0000      -0.690302       -18.7841
 149   2.0000      -0.687570       -18.7097
 150   2.0000      -0.686317       -18.6756
 151   2.0000      -0.675502       -18.3813
 152   2.0000      -0.675099       -18.3704
 153   2.0000      -0.670152       -18.2358
 154   2.0000      -0.662011       -18.0142
 155   2.0000      -0.658595       -17.9213
 156   2.0000      -0.657101       -17.8806
 157   2.0000      -0.655476       -17.8364
 158   2.0000      -0.651999       -17.7418
 159   2.0000      -0.646814       -17.6007
 160   2.0000      -0.644062       -17.5258
 161   2.0000      -0.643279       -17.5045
 162   2.0000      -0.639104       -17.3909
 163   2.0000      -0.634482       -17.2651
 164   2.0000      -0.631511       -17.1843
 165   2.0000      -0.628749       -17.1091
 166   2.0000      -0.625476       -17.0201
 167   2.0000      -0.624531       -16.9944
 168   2.0000      -0.619109       -16.8468
 169   2.0000      -0.613481       -16.6937
 170   2.0000      -0.607608       -16.5339
 171   2.0000      -0.601036       -16.3550
 172   2.0000      -0.599306       -16.3079
 173   2.0000      -0.597959       -16.2713
 174   2.0000      -0.593671       -16.1546
 175   2.0000      -0.592888       -16.1333
 176   2.0000      -0.590217       -16.0606
 177   2.0000      -0.578473       -15.7410
 178   2.0000      -0.573771       -15.6131
 179   2.0000      -0.569537       -15.4979
 180   2.0000      -0.567163       -15.4333
 181   2.0000      -0.557857       -15.1801
 182   2.0000      -0.553337       -15.0571
 183   2.0000      -0.550015       -14.9667
 184   2.0000      -0.548277       -14.9194
 185   2.0000      -0.544457       -14.8154
 186   2.0000      -0.541988       -14.7483
 187   2.0000      -0.541598       -14.7376
 188   2.0000      -0.537149       -14.6166
 189   2.0000      -0.534588       -14.5469
 190   2.0000      -0.531376       -14.4595
 191   2.0000      -0.530831       -14.4447
 192   2.0000      -0.529275       -14.4023
 193   2.0000      -0.527519       -14.3545
 194   2.0000      -0.526541       -14.3279
 195   2.0000      -0.522598       -14.2206
 196   2.0000      -0.520201       -14.1554
 197   2.0000      -0.513172       -13.9641
 198   2.0000      -0.506620       -13.7858
 199   2.0000      -0.504542       -13.7293
 200   2.0000      -0.500917       -13.6306
 201   2.0000      -0.499170       -13.5831
 202   2.0000      -0.490700       -13.3526
 203   2.0000      -0.487248       -13.2587
 204   2.0000      -0.485099       -13.2002
 205   2.0000      -0.483421       -13.1546
 206   2.0000      -0.480706       -13.0807
 207   2.0000      -0.477778       -13.0010
 208   2.0000      -0.476426       -12.9642
 209   2.0000      -0.475683       -12.9440
 210   2.0000      -0.473245       -12.8776
 211   2.0000      -0.472058       -12.8454
 212   2.0000      -0.467364       -12.7176
 213   2.0000      -0.465732       -12.6732
 214   2.0000      -0.459998       -12.5172
 215   2.0000      -0.454919       -12.3790
 216   2.0000      -0.453602       -12.3431
 217   2.0000      -0.450636       -12.2624
 218   2.0000      -0.450125       -12.2485
 219   2.0000      -0.448639       -12.2081
 220   2.0000      -0.448039       -12.1918
 221   2.0000      -0.445895       -12.1334
 222   2.0000      -0.444121       -12.0851
 223   2.0000      -0.441211       -12.0060
 224   2.0000      -0.438150       -11.9227
 225   2.0000      -0.435982       -11.8637
 226   2.0000      -0.431378       -11.7384
 227   2.0000      -0.429026       -11.6744
 228   2.0000      -0.425227       -11.5710
 229   2.0000      -0.418574       -11.3900
 230   2.0000      -0.418144       -11.3783
 231   2.0000      -0.417813       -11.3693
 232   2.0000      -0.410250       -11.1635
 233   2.0000      -0.407234       -11.0814
 234   2.0000      -0.404799       -11.0152
 235   2.0000      -0.401935       -10.9372
 236   2.0000      -0.400733       -10.9045
 237   2.0000      -0.398869       -10.8538
 238   2.0000      -0.396895       -10.8001
 239   2.0000      -0.396255       -10.7826
 240   2.0000      -0.393469       -10.7068
 241   2.0000      -0.392451       -10.6791
 242   2.0000      -0.390609       -10.6290
 243   2.0000      -0.387381       -10.5412
 244   2.0000      -0.386515       -10.5176
 245   2.0000      -0.384227       -10.4553
 246   2.0000      -0.381955       -10.3935
 247   2.0000      -0.380068       -10.3422
 248   2.0000      -0.374881       -10.2010
 249   2.0000      -0.369727       -10.0608
 250   2.0000      -0.364493        -9.9184
 251   2.0000      -0.345758        -9.4086
 252   2.0000      -0.345102        -9.3907
 253   2.0000      -0.344312        -9.3692
 254   2.0000      -0.340425        -9.2634
 255   2.0000      -0.338688        -9.2162
 256   2.0000      -0.337454        -9.1826
 257   2.0000      -0.335787        -9.1372
 258   2.0000      -0.331463        -9.0196
 259   2.0000      -0.326858        -8.8943
 260   2.0000      -0.323578        -8.8050
 261   2.0000      -0.316807        -8.6208
 262   2.0000      -0.303825        -8.2675
 263   2.0000      -0.294815        -8.0223
 264   2.0000      -0.272438        -7.4134
 265   0.0000      -0.105919        -2.8822
 266   0.0000      -0.101417        -2.7597
 267   0.0000      -0.066458        -1.8084
 268   0.0000      -0.059961        -1.6316
 269   0.0000      -0.049452        -1.3457

MULLIKEN ATOMIC CHARGES
-----------------------
   0 C :   -0.124777
   1 C :    0.060092
   2 C :    0.044759
   3 C :   -0.108345
   4 S :    0.168401
   5 C :    0.118688
   6 O :   -0.124385
   7 C :   -0.069982
   8 C :    0.191446
   9 C :    0.069060
  10 N :    0.257499
  11 O :   -0.241244
  12 O :   -0.219404
  13 N :    0.201354
  14 O :   -0.207520
  15 O :   -0.202755
  16 C :    0.029154
  17 C :   -0.145517
  18 C :    0.056633
  19 C :   -0.328154
  20 N :    0.213251
  21 C :    0.127631
  22 C :   -0.229554
  23 S :    0.204741
  24 S :    0.202600
  25 C :   -0.219861
  26 C :    0.132444
  27 C :    0.035563
  28 C :   -0.341718
  29 N :    0.235966
  30 C :   -0.143843
  31 S :    0.179166
  32 C :   -0.174110
  33 S :    0.201961
  34 C :   -0.134435
  35 C :   -0.073792
  36 C :   -0.000561
  37 C :    0.057593
  38 C :   -0.304494
  39 N :    0.132574
  40 C :    0.034444
  41 C :    0.082824
  42 C :    0.192363
  43 O :   -0.375509
  44 C :    0.186913
  45 C :    0.041293
  46 C :    0.072310
  47 C :   -0.020882
  48 C :    0.045088
  49 N :   -0.088274
  50 C :   -0.008214
  51 C :    0.028077
  52 N :   -0.028500
  53 C :    0.049756
  54 C :   -0.091957
  55 C :    0.197171
  56 C :    0.120337
  57 N :    0.240740
  58 O :   -0.208641
  59 O :   -0.239179
  60 N :    0.230640
  61 O :   -0.220814
  62 O :   -0.223854
  63 C :    0.045782
  64 C :   -0.140551
  65 S :    0.158235
  66 C :   -0.125191
  67 C :    0.012184
  68 C :    0.153030
  69 O :   -0.133588
  70 H :    0.061437
  71 H :    0.047585
  72 H :    0.031208
  73 H :    0.047191
  74 H :    0.025604
  75 H :    0.029148
  76 H :   -0.001036
  77 H :    0.020186
  78 H :    0.021147
  79 H :    0.040254
  80 H :    0.013981
  81 H :    0.012458
  82 H :    0.000042
  83 H :    0.002149
  84 H :    0.010948
  85 H :    0.009922
  86 H :    0.015561
  87 H :    0.058485
  88 H :    0.041574
Sum of atomic charges:   -0.0000000

LOEWDIN ATOMIC CHARGES
----------------------
   0 C :   -0.146843
   1 C :   -0.061098
   2 C :   -0.082396
   3 C :   -0.129007
   4 S :    0.506828
   5 C :    0.083702
   6 O :   -0.122323
   7 C :   -0.048189
   8 C :    0.058585
   9 C :   -0.055404
  10 N :    0.278793
  11 O :   -0.193797
  12 O :   -0.184998
  13 N :    0.266999
  14 O :   -0.181133
  15 O :   -0.173341
  16 C :    0.027823
  17 C :   -0.143606
  18 C :   -0.072314
  19 C :   -0.031412
  20 N :   -0.031306
  21 C :   -0.057568
  22 C :   -0.325274
  23 S :    0.477121
  24 S :    0.434103
  25 C :   -0.326172
  26 C :   -0.058360
  27 C :   -0.088775
  28 C :   -0.051790
  29 N :   -0.026645
  30 C :   -0.146582
  31 S :    0.471538
  32 C :   -0.198160
  33 S :    0.499214
  34 C :   -0.160563
  35 C :   -0.070370
  36 C :   -0.047397
  37 C :   -0.052282
  38 C :   -0.045296
  39 N :   -0.062252
  40 C :   -0.004974
  41 C :   -0.034566
  42 C :    0.064838
  43 O :   -0.156708
  44 C :    0.066761
  45 C :   -0.028556
  46 C :   -0.002344
  47 C :    0.007303
  48 C :    0.026770
  49 N :   -0.039189
  50 C :   -0.033687
  51 C :    0.031435
  52 N :   -0.042332
  53 C :    0.061640
  54 C :   -0.060993
  55 C :    0.051814
  56 C :   -0.045777
  57 N :    0.275544
  58 O :   -0.176350
  59 O :   -0.195306
  60 N :    0.282628
  61 O :   -0.187279
  62 O :   -0.188582
  63 C :   -0.060557
  64 C :   -0.156004
  65 S :    0.491917
  66 C :   -0.140789
  67 C :   -0.092831
  68 C :    0.082583
  69 O :   -0.133924
  70 H :    0.032111
  71 H :    0.040058
  72 H :    0.039733
  73 H :    0.049544
  74 H :    0.036094
  75 H :    0.035129
  76 H :    0.023807
  77 H :    0.035021
  78 H :    0.031634
  79 H :    0.029810
  80 H :    0.008544
  81 H :    0.007857
  82 H :    0.029451
  83 H :    0.039477
  84 H :    0.025840
  85 H :    0.029909
  86 H :    0.047119
  87 H :    0.029758
  88 H :    0.036570

  Mayer bond orders larger than 0.100000
B(  0-C ,  1-C ) :   1.5311 B(  0-C ,  4-S ) :   1.1999 B(  0-C , 70-H ) :   0.9485
B(  1-C ,  2-C ) :   1.2188 B(  1-C ,  8-C ) :   1.0279 B(  2-C ,  3-C ) :   1.5548
B(  2-C ,  5-C ) :   0.9384 B(  3-C ,  4-S ) :   1.1896 B(  3-C , 71-H ) :   0.9688
B(  5-C ,  6-O ) :   2.2627 B(  5-C ,  7-C ) :   0.9028 B(  7-C ,  8-C ) :   1.0311
B(  7-C , 16-C ) :   1.7510 B(  8-C ,  9-C ) :   1.6466 B(  9-C , 10-N ) :   0.9352
B(  9-C , 13-N ) :   0.8689 B( 10-N , 11-O ) :   1.5014 B( 10-N , 12-O ) :   1.5382
B( 11-O , 12-O ) :   0.2674 B( 13-N , 14-O ) :   1.5425 B( 13-N , 15-O ) :   1.5308
B( 14-O , 15-O ) :   0.2905 B( 16-C , 17-C ) :   1.1063 B( 16-C , 72-H ) :   0.9369
B( 17-C , 18-C ) :   1.4999 B( 17-C , 23-S ) :   1.1343 B( 18-C , 19-C ) :   1.1601
B( 18-C , 21-C ) :   1.2776 B( 19-C , 20-N ) :   2.9721 B( 21-C , 22-C ) :   1.3916
B( 21-C , 26-C ) :   1.0718 B( 22-C , 23-S ) :   1.1081 B( 22-C , 24-S ) :   1.0907
B( 24-S , 25-C ) :   1.0814 B( 25-C , 26-C ) :   1.4251 B( 25-C , 31-S ) :   1.0945
B( 26-C , 27-C ) :   1.2511 B( 27-C , 28-C ) :   1.1626 B( 27-C , 30-C ) :   1.5261
B( 28-C , 29-N ) :   2.9929 B( 30-C , 31-S ) :   1.1551 B( 30-C , 32-C ) :   1.0607
B( 32-C , 33-S ) :   1.1703 B( 32-C , 34-C ) :   0.1185 B( 32-C , 36-C ) :   1.5178
B( 33-S , 34-C ) :   1.1426 B( 34-C , 35-C ) :   1.5208 B( 34-C , 45-C ) :   1.0951
B( 35-C , 36-C ) :   1.3415 B( 35-C , 42-C ) :   0.9476 B( 36-C , 37-C ) :   0.9878
B( 37-C , 38-C ) :   1.0324 B( 37-C , 40-C ) :   1.0882 B( 37-C , 73-H ) :   0.8351
B( 38-C , 39-N ) :   3.1185 B( 40-C , 41-C ) :   1.0822 B( 40-C , 74-H ) :   0.9280
B( 40-C , 75-H ) :   0.9328 B( 41-C , 42-C ) :   1.0737 B( 41-C , 76-H ) :   0.9192
B( 41-C , 77-H ) :   0.9259 B( 42-C , 43-O ) :   1.0551 B( 42-C , 78-H ) :   0.8891
B( 43-O , 44-C ) :   0.9672 B( 44-C , 79-H ) :   0.9813 B( 44-C , 80-H ) :   0.9615
B( 44-C , 81-H ) :   0.9673 B( 45-C , 46-C ) :   1.7075 B( 45-C , 82-H ) :   0.9410
B( 46-C , 47-C ) :   1.0808 B( 46-C , 83-H ) :   0.9712 B( 47-C , 48-C ) :   1.2624
B( 47-C , 52-N ) :   1.5082 B( 48-C , 49-N ) :   1.5965 B( 48-C , 84-H ) :   0.9679
B( 49-N , 50-C ) :   1.4346 B( 50-C , 51-C ) :   1.2960 B( 50-C , 53-C ) :   1.0667
B( 51-C , 52-N ) :   1.5831 B( 51-C , 85-H ) :   0.9813 B( 53-C , 54-C ) :   1.7065
B( 53-C , 86-H ) :   0.9433 B( 54-C , 55-C ) :   1.0279 B( 54-C , 68-C ) :   0.9360
B( 55-C , 56-C ) :   1.6622 B( 55-C , 63-C ) :   1.0168 B( 56-C , 57-N ) :   0.9069
B( 56-C , 60-N ) :   0.8905 B( 57-N , 58-O ) :   1.5490 B( 57-N , 59-O ) :   1.4948
B( 58-O , 59-O ) :   0.2742 B( 60-N , 61-O ) :   1.5375 B( 60-N , 62-O ) :   1.5306
B( 61-O , 62-O ) :   0.2642 B( 63-C , 64-C ) :   1.5487 B( 63-C , 67-C ) :   1.2193
B( 64-C , 65-S ) :   1.1851 B( 64-C , 87-H ) :   0.9491 B( 65-S , 66-C ) :   1.1913
B( 66-C , 67-C ) :   1.5529 B( 66-C , 88-H ) :   0.9709 B( 67-C , 68-C ) :   0.9358
B( 68-C , 69-O ) :   2.2631

-----------------------------------------------------------------------------
         ABSORPTION SPECTRUM VIA TRANSITION ELECTRIC DIPOLE MOMENTS
-----------------------------------------------------------------------------
State   Energy  Wavelength   fosc         T2         TX        TY        TZ
        (cm-1)    (nm)                  (au**2)     (au)      (au)      (au)
-----------------------------------------------------------------------------
   0   20727.9    482.4   0.728431752  11.56933  -0.38833   2.13302   2.62084
   1   23589.8    423.9   0.386647638   5.39593  -1.64611  -0.69352   1.48502
   2   24021.4    416.3   0.159504315   2.18600  -0.62188  -0.96184  -0.93495
   3   25685.4    389.3   0.073648161   0.94396   0.85769   0.40173  -0.21664
   4   27368.3    365.4   0.293013118   3.52464  -0.62563   0.06758   1.76880
   5   28006.5    357.1   0.437172796   5.13890   0.75385   0.20516   2.12803
   6   28212.6    354.5   0.038171542   0.44542  -0.56298  -0.14137   0.32937
   7   28953.6    345.4   0.030685609   0.34891   0.29174   0.40355   0.31771
   8   29119.4    343.4   0.104939649   1.18640  -0.51421  -0.60461  -0.74595
   9   30139.6    331.8   0.394841653   4.31282  -0.13753   0.98654   1.82227
  10   30740.0    325.3   0.221122064   2.36812   0.59495   0.88208   1.11180
  11   31192.4    320.6   0.009898947   0.10448  -0.02510   0.07485   0.31344
  12   31408.4    318.4   0.024347668   0.25520  -0.38357  -0.32823   0.01855
  13   31824.8    314.2   0.048411819   0.50080   0.41096   0.55218   0.16431
  14   32244.3    310.1   0.060623822   0.61897   0.48737   0.18893   0.58800
  15   32470.9    308.0   0.039023912   0.39565  -0.11846   0.37115  -0.49383
  16   32760.4    305.2   0.019037647   0.19131  -0.16516   0.31273   0.25736
  17   32927.0    303.7   0.049801899   0.49793  -0.20407  -0.67345   0.05252
  18   33050.7    302.6   0.017176900   0.17110  -0.38141   0.13405   0.08746
  19   33553.0    298.0   0.044342733   0.43508  -0.30667  -0.58377  -0.01551
  20   33883.1    295.1   0.003595248   0.03493  -0.18499   0.02311   0.01324
  21   34292.9    291.6   0.087799676   0.84288  -0.35264  -0.79351  -0.29808
  22   34360.2    291.0   0.166324249   1.59359   0.35602   1.19154   0.21693
  23   34595.9    289.1   0.018743678   0.17836  -0.29951  -0.27753  -0.10784
  24   34948.1    286.1   0.038448817   0.36219   0.31588   0.24603   0.44931
  25   35311.2    283.2   0.003485857   0.03250   0.04717   0.14936  -0.08925
  26   35334.4    283.0   0.007167706   0.06678   0.25669   0.01605  -0.02523
  27   35687.3    280.2   0.133641489   1.23283   0.17483   0.79408   0.75611
  28   35807.0    279.3   0.007098738   0.06527   0.22012   0.02311  -0.12759
  29   36253.3    275.8   0.027914622   0.25349  -0.42004  -0.19621   0.19637
  30   36625.8    273.0   0.113464317   1.01988   0.60062  -0.23492  -0.77714
  31   36745.9    272.1   0.021798618   0.19530  -0.31815  -0.24702  -0.18182
  32   36951.0    270.6   0.037270031   0.33205   0.06321  -0.30247   0.48638
  33   37140.2    269.2   0.026612950   0.23590   0.02926  -0.28639  -0.39118
  34   37510.9    266.6   0.030426999   0.26704   0.10080   0.50061   0.07917
  35   37602.7    265.9   0.001991855   0.01744   0.12557   0.00742  -0.04021
  36   37844.8    264.2   0.064955122   0.56504   0.56786   0.01119   0.49240
  37   38115.9    262.4   0.021891198   0.18908  -0.01912   0.33253   0.27952
  38   38187.8    261.9   0.027272553   0.23511   0.37570   0.17304   0.25303
  39   39240.0    254.8   0.031091519   0.26085  -0.04425  -0.31693  -0.39805
  40   39457.6    253.4   0.039808191   0.33214  -0.12761  -0.43987   0.34980
  41   39729.6    251.7   0.044766153   0.37095  -0.22107  -0.42931  -0.37117
  42   39829.4    251.1   0.019844919   0.16403  -0.20368  -0.11187  -0.33170
  43   39886.4    250.7   0.019971764   0.16484   0.37609   0.09153  -0.12255
  44   40069.5    249.6   0.006383734   0.05245  -0.08279  -0.20709   0.05206
  45   40158.0    249.0   0.072703282   0.59602   0.68563   0.35201   0.04494
  46   40222.5    248.6   0.079178448   0.64806   0.18261  -0.71128  -0.32982

FINAL SINGLE POINT ENERGY     -5392.526809545094

DIPOLE MOMENT
-------------
                                X             Y             Z
Electronic contribution:    -24.85492     -16.91311      49.65787
Nuclear contribution   :     26.69542      16.67496     -51.41646
                        -----------------------------------------
Total Dipole Moment    :      1.84049      -0.23815      -1.75858
                        -----------------------------------------
Magnitude (a.u.)       :      2.55671
Magnitude (Debye)      :      6.49863

Rotational constants in cm-1:     0.001274     0.000300     0.000257
Rotational constants in MHz :    38.193314     8.992978     7.719256

                             ****ORCA TERMINATED NORMALLY****
TOTAL RUN TIME: 0 days 0 hours 8 minutes 37 seconds 414 msec
