                         Program Version 4.2.0 -  RELEASE  -
|  1> # ORCA input file
|  2> # SCF done       -164.628192136503          0.000696035351
|  3> ! CAM-B3LYP def2-SVP def2/J RIJCOSX Grid4 TightSCF
|  4> %maxcore 5000
|  5> %tddft
|  6>     Mode sTDDFT
|  7>     Ethresh 5.0
|  8>     maxcore 5000
|  9> end
| 10>
| 11> %pal
| 12>   nprocs 6
| 13>   end
| 14> * xyz 0 1
| 15>    C        4.55101        -0.99331        -3.53917
| 16>    S        4.64401        -2.47631        -4.36889
| 17>    C        6.33176        -2.56628        -3.99467
| 18>    N        7.07014        -3.67878        -4.44600
| 19>    O        8.25131        -3.71535        -4.16697
| 20>    O        6.46610        -4.51880        -5.08277
| 21>    C        6.78363        -1.49936        -3.26829
| 22>    C        5.75024        -0.57119        -2.99467
| 23>    C        5.87535         0.65732        -2.25577
| 24>    C        7.02331         1.11734        -1.72098
| 25>    C        7.15074         2.33355        -0.98837
| 26>    C        6.18746         3.26622        -0.64827
| 27>    C        6.72009         4.32863         0.08193
| 28>    C        8.10384         4.20663         0.29746
| 29>    S        8.74051         2.78486        -0.39432
| 30>    C        8.54968         5.33577         1.03327
| 31>    C        7.44104         6.15868         1.29505
| 32>    C        6.25772         5.56305         0.69784
| 33>    C        4.99371         6.07456         0.68949
| 34>    C        3.92298         5.41754         0.04673
| 35>    N        3.05082         4.87921        -0.46688
| 36>    C        4.66932         7.29548         1.31541
| 37>    N        4.39875         8.28980         1.82030
| 38>    C        7.77458         7.30904         2.00639
| 39>    C        9.13249         7.38804         2.26485
| 40>    S        9.99930         5.97891         1.66216
| 41>    C        9.82282         8.45524         2.90347
| 42>    S       11.28661         8.19369         3.79027
| 43>    C       11.31096         9.86554         4.23667
| 44>    N       12.37247        10.32170         5.03393
| 45>    O       12.37581        11.49582         5.34941
| 46>    O       13.21248         9.49902         5.35062
| 47>    C       10.25993        10.58458         3.73034
| 48>    C        9.40309         9.79427         2.94463
| 49>    C        8.27307        10.26013         2.18839
| 50>    C        7.49226        11.31732         2.48389
| 51>    C        6.31139        11.62556         1.74561
| 52>    C        5.71579        10.89007         0.73605
| 53>    C        4.51103        11.44907         0.31757
| 54>    C        4.19017        12.63358         1.00058
| 55>    S        5.36543        13.04194         2.16706
| 56>    C        2.94985        13.11340         0.50595
| 57>    C        2.48660        12.22888        -0.48426
| 58>    C        3.44578        11.14297        -0.62274
| 59>    C        3.35112        10.04875        -1.43207
| 60>    C        4.32403         9.02977        -1.44072
| 61>    N        5.10244         8.18607        -1.44664
| 62>    C        2.25954         9.85298        -2.30607
| 63>    N        1.37870         9.69714        -3.02268
| 64>    C        1.26530        12.62060        -1.02792
| 65>    C        0.79542        13.80106        -0.47486
| 66>    S        1.88808        14.42163         0.75684
| 67>    C       -0.43350        14.43945        -0.79525
| 68>    S       -1.57548        13.57453        -1.78377
| 69>    C       -2.69290        14.88461        -1.64323
| 70>    N       -3.92915        14.78512        -2.29984
| 71>    O       -4.70407        15.71548        -2.18407
| 72>    O       -4.13307        13.76837        -2.93773
| 73>    C       -2.21939        15.92040        -0.88109
| 74>    C       -0.92413        15.68529        -0.39068
| 75>    C       -0.18829        16.66147         0.39513
| 76>    C       -0.75849        17.54426         1.20587
| 77>    H        3.61159        -0.47814        -3.48022
| 78>    H        7.80749        -1.40843        -2.95687
| 79>    H        4.96295         1.22512        -2.14484
| 80>    H        7.93702         0.55172        -1.83705
| 81>    H        5.15243         3.17426        -0.91951
| 82>    H        7.06310         8.02833         2.36699
| 83>    H       10.14455        11.64002         3.89627
| 84>    H        8.03692         9.66791         1.31645
| 85>    H        7.70451        11.93772         3.34303
| 86>    H        6.12710         9.98237         0.33809
| 87>    H        0.73208        12.08807        -1.79499
| 88>    H       -2.78251        16.81968        -0.71167
| 89>    H        0.88686        16.65762         0.27570
| 90>    H       -1.82216        17.56653         1.37095
| 91>    H       -0.17326        18.26548         1.74821
| 92> *
| 93>
| 94>                          ****END OF INPUT****

CARTESIAN COORDINATES (ANGSTROEM)
---------------------------------
  C      4.551010   -0.993310   -3.539170
  S      4.644010   -2.476310   -4.368890
  C      6.331760   -2.566280   -3.994670
  N      7.070140   -3.678780   -4.446000
  O      8.251310   -3.715350   -4.166970
  O      6.466100   -4.518800   -5.082770
  C      6.783630   -1.499360   -3.268290
  C      5.750240   -0.571190   -2.994670
  C      5.875350    0.657320   -2.255770
  C      7.023310    1.117340   -1.720980
  C      7.150740    2.333550   -0.988370
  C      6.187460    3.266220   -0.648270
  C      6.720090    4.328630    0.081930
  C      8.103840    4.206630    0.297460
  S      8.740510    2.784860   -0.394320
  C      8.549680    5.335770    1.033270
  C      7.441040    6.158680    1.295050
  C      6.257720    5.563050    0.697840
  C      4.993710    6.074560    0.689490
  C      3.922980    5.417540    0.046730
  N      3.050820    4.879210   -0.466880
  C      4.669320    7.295480    1.315410
  N      4.398750    8.289800    1.820300
  C      7.774580    7.309040    2.006390
  C      9.132490    7.388040    2.264850
  S      9.999300    5.978910    1.662160
  C      9.822820    8.455240    2.903470
  S     11.286610    8.193690    3.790270
  C     11.310960    9.865540    4.236670
  N     12.372470   10.321700    5.033930
  O     12.375810   11.495820    5.349410
  O     13.212480    9.499020    5.350620
  C     10.259930   10.584580    3.730340
  C      9.403090    9.794270    2.944630
  C      8.273070   10.260130    2.188390
  C      7.492260   11.317320    2.483890
  C      6.311390   11.625560    1.745610
  C      5.715790   10.890070    0.736050
  C      4.511030   11.449070    0.317570
  C      4.190170   12.633580    1.000580
  S      5.365430   13.041940    2.167060
  C      2.949850   13.113400    0.505950
  C      2.486600   12.228880   -0.484260
  C      3.445780   11.142970   -0.622740
  C      3.351120   10.048750   -1.432070
  C      4.324030    9.029770   -1.440720
  N      5.102440    8.186070   -1.446640
  C      2.259540    9.852980   -2.306070
  N      1.378700    9.697140   -3.022680
  C      1.265300   12.620600   -1.027920
  C      0.795420   13.801060   -0.474860
  S      1.888080   14.421630    0.756840
  C     -0.433500   14.439450   -0.795250
  S     -1.575480   13.574530   -1.783770
  C     -2.692900   14.884610   -1.643230
  N     -3.929150   14.785120   -2.299840
  O     -4.704070   15.715480   -2.184070
  O     -4.133070   13.768370   -2.937730
  C     -2.219390   15.920400   -0.881090
  C     -0.924130   15.685290   -0.390680
  C     -0.188290   16.661470    0.395130
  C     -0.758490   17.544260    1.205870
  H      3.611590   -0.478140   -3.480220
  H      7.807490   -1.408430   -2.956870
  H      4.962950    1.225120   -2.144840
  H      7.937020    0.551720   -1.837050
  H      5.152430    3.174260   -0.919510
  H      7.063100    8.028330    2.366990
  H     10.144550   11.640020    3.896270
  H      8.036920    9.667910    1.316450
  H      7.704510   11.937720    3.343030
  H      6.127100    9.982370    0.338090
  H      0.732080   12.088070   -1.794990
  H     -2.782510   16.819680   -0.711670
  H      0.886860   16.657620    0.275700
  H     -1.822160   17.566530    1.370950
  H     -0.173260   18.265480    1.748210

 Total Charge           Charge          ....    0
 Multiplicity           Mult            ....    1
 Number of Electrons    NEL             ....  476
 Basis Dimension        Dim             ....  971

ORBITAL ENERGIES
----------------

  NO   OCC          E(Eh)            E(eV)
   0   2.0000     -89.001542     -2421.8551
   1   2.0000     -89.000676     -2421.8315
   2   2.0000     -88.995525     -2421.6913
   3   2.0000     -88.994666     -2421.6680
   4   2.0000     -88.992582     -2421.6113
   5   2.0000     -88.989027     -2421.5145
   6   2.0000     -88.984134     -2421.3814
   7   2.0000     -19.246866      -523.7338
   8   2.0000     -19.246639      -523.7277
   9   2.0000     -19.246525      -523.7246
  10   2.0000     -19.246058      -523.7119
  11   2.0000     -19.239340      -523.5291
  12   2.0000     -19.238677      -523.5110
  13   2.0000     -14.658073      -398.8664
  14   2.0000     -14.657459      -398.8497
  15   2.0000     -14.650379      -398.6571
  16   2.0000     -14.442066      -392.9886
  17   2.0000     -14.439616      -392.9219
  18   2.0000     -14.435253      -392.8032
  19   2.0000     -14.434915      -392.7940
  20   2.0000     -10.371038      -282.2103
  21   2.0000     -10.370550      -282.1970
  22   2.0000     -10.359505      -281.8965
  23   2.0000     -10.356928      -281.8263
  24   2.0000     -10.355105      -281.7767
  25   2.0000     -10.352084      -281.6945
  26   2.0000     -10.346399      -281.5398
  27   2.0000     -10.344387      -281.4851
  28   2.0000     -10.344158      -281.4788
  29   2.0000     -10.343284      -281.4551
  30   2.0000     -10.341284      -281.4006
  31   2.0000     -10.340596      -281.3819
  32   2.0000     -10.339181      -281.3434
  33   2.0000     -10.338558      -281.3265
  34   2.0000     -10.336811      -281.2789
  35   2.0000     -10.336544      -281.2717
  36   2.0000     -10.335850      -281.2528
  37   2.0000     -10.335545      -281.2445
  38   2.0000     -10.335031      -281.2305
  39   2.0000     -10.330189      -281.0987
  40   2.0000     -10.327804      -281.0338
  41   2.0000     -10.324135      -280.9340
  42   2.0000     -10.316634      -280.7299
  43   2.0000     -10.314160      -280.6625
  44   2.0000     -10.314091      -280.6607
  45   2.0000     -10.312330      -280.6128
  46   2.0000     -10.311307      -280.5849
  47   2.0000     -10.310884      -280.5734
  48   2.0000     -10.310824      -280.5718
  49   2.0000     -10.310384      -280.5598
  50   2.0000     -10.309402      -280.5331
  51   2.0000     -10.307922      -280.4928
  52   2.0000     -10.307455      -280.4801
  53   2.0000     -10.306913      -280.4654
  54   2.0000     -10.306280      -280.4481
  55   2.0000     -10.305279      -280.4209
  56   2.0000     -10.305072      -280.4153
  57   2.0000     -10.303920      -280.3839
  58   2.0000     -10.302169      -280.3363
  59   2.0000     -10.300847      -280.3003
  60   2.0000     -10.295114      -280.1443
  61   2.0000     -10.284527      -279.8562
  62   2.0000      -8.096220      -220.3093
  63   2.0000      -8.094671      -220.2672
  64   2.0000      -8.090271      -220.1475
  65   2.0000      -8.089400      -220.1238
  66   2.0000      -8.088072      -220.0876
  67   2.0000      -8.084823      -219.9992
  68   2.0000      -8.079170      -219.8454
  69   2.0000      -6.065469      -165.0498
  70   2.0000      -6.063999      -165.0098
  71   2.0000      -6.061312      -164.9367
  72   2.0000      -6.059630      -164.8909
  73   2.0000      -6.059440      -164.8857
  74   2.0000      -6.058571      -164.8621
  75   2.0000      -6.058548      -164.8615
  76   2.0000      -6.057499      -164.8329
  77   2.0000      -6.057115      -164.8225
  78   2.0000      -6.055289      -164.7728
  79   2.0000      -6.054434      -164.7495
  80   2.0000      -6.054145      -164.7417
  81   2.0000      -6.053155      -164.7147
  82   2.0000      -6.052790      -164.7048
  83   2.0000      -6.051888      -164.6803
  84   2.0000      -6.049940      -164.6272
  85   2.0000      -6.049576      -164.6173
  86   2.0000      -6.048708      -164.5937
  87   2.0000      -6.047097      -164.5499
  88   2.0000      -6.044300      -164.4738
  89   2.0000      -6.040980      -164.3834
  90   2.0000      -1.328883       -36.1607
  91   2.0000      -1.328351       -36.1463
  92   2.0000      -1.320549       -35.9340
  93   2.0000      -1.148005       -31.2388
  94   2.0000      -1.147547       -31.2263
  95   2.0000      -1.139567       -31.0092
  96   2.0000      -1.052915       -28.6513
  97   2.0000      -1.051580       -28.6149
  98   2.0000      -1.033374       -28.1195
  99   2.0000      -1.029704       -28.0197
 100   2.0000      -1.026472       -27.9317
 101   2.0000      -1.020716       -27.7751
 102   2.0000      -1.019600       -27.7447
 103   2.0000      -1.015897       -27.6440
 104   2.0000      -1.014580       -27.6081
 105   2.0000      -1.003255       -27.2999
 106   2.0000      -1.000518       -27.2255
 107   2.0000      -0.967003       -26.3135
 108   2.0000      -0.966656       -26.3041
 109   2.0000      -0.936805       -25.4918
 110   2.0000      -0.932374       -25.3712
 111   2.0000      -0.924890       -25.1675
 112   2.0000      -0.917993       -24.9799
 113   2.0000      -0.911162       -24.7940
 114   2.0000      -0.899617       -24.4798
 115   2.0000      -0.892908       -24.2973
 116   2.0000      -0.890383       -24.2285
 117   2.0000      -0.876532       -23.8516
 118   2.0000      -0.874099       -23.7855
 119   2.0000      -0.862810       -23.4783
 120   2.0000      -0.861381       -23.4394
 121   2.0000      -0.858784       -23.3687
 122   2.0000      -0.854720       -23.2581
 123   2.0000      -0.838401       -22.8140
 124   2.0000      -0.824990       -22.4491
 125   2.0000      -0.814924       -22.1752
 126   2.0000      -0.799396       -21.7527
 127   2.0000      -0.790433       -21.5088
 128   2.0000      -0.783925       -21.3317
 129   2.0000      -0.775888       -21.1130
 130   2.0000      -0.763403       -20.7732
 131   2.0000      -0.746860       -20.3231
 132   2.0000      -0.726607       -19.7720
 133   2.0000      -0.717057       -19.5121
 134   2.0000      -0.711644       -19.3648
 135   2.0000      -0.700027       -19.0487
 136   2.0000      -0.691968       -18.8294
 137   2.0000      -0.690535       -18.7904
 138   2.0000      -0.684992       -18.6396
 139   2.0000      -0.672016       -18.2865
 140   2.0000      -0.664165       -18.0728
 141   2.0000      -0.656508       -17.8645
 142   2.0000      -0.655690       -17.8422
 143   2.0000      -0.651363       -17.7245
 144   2.0000      -0.643720       -17.5165
 145   2.0000      -0.641003       -17.4426
 146   2.0000      -0.639367       -17.3981
 147   2.0000      -0.638797       -17.3826
 148   2.0000      -0.638464       -17.3735
 149   2.0000      -0.636595       -17.3226
 150   2.0000      -0.634791       -17.2735
 151   2.0000      -0.633066       -17.2266
 152   2.0000      -0.631545       -17.1852
 153   2.0000      -0.627628       -17.0786
 154   2.0000      -0.624329       -16.9888
 155   2.0000      -0.618920       -16.8417
 156   2.0000      -0.615870       -16.7587
 157   2.0000      -0.613118       -16.6838
 158   2.0000      -0.591241       -16.0885
 159   2.0000      -0.588897       -16.0247
 160   2.0000      -0.585048       -15.9200
 161   2.0000      -0.579645       -15.7730
 162   2.0000      -0.574399       -15.6302
 163   2.0000      -0.570371       -15.5206
 164   2.0000      -0.567011       -15.4291
 165   2.0000      -0.557666       -15.1749
 166   2.0000      -0.556619       -15.1464
 167   2.0000      -0.552927       -15.0459
 168   2.0000      -0.549219       -14.9450
 169   2.0000      -0.541642       -14.7388
 170   2.0000      -0.538320       -14.6484
 171   2.0000      -0.528285       -14.3754
 172   2.0000      -0.525479       -14.2990
 173   2.0000      -0.522861       -14.2278
 174   2.0000      -0.520122       -14.1532
 175   2.0000      -0.515807       -14.0358
 176   2.0000      -0.512587       -13.9482
 177   2.0000      -0.509897       -13.8750
 178   2.0000      -0.507971       -13.8226
 179   2.0000      -0.505466       -13.7544
 180   2.0000      -0.504116       -13.7177
 181   2.0000      -0.501472       -13.6457
 182   2.0000      -0.499012       -13.5788
 183   2.0000      -0.498112       -13.5543
 184   2.0000      -0.495143       -13.4735
 185   2.0000      -0.490124       -13.3370
 186   2.0000      -0.485776       -13.2186
 187   2.0000      -0.483703       -13.1622
 188   2.0000      -0.481735       -13.1087
 189   2.0000      -0.479899       -13.0587
 190   2.0000      -0.473288       -12.8788
 191   2.0000      -0.471861       -12.8400
 192   2.0000      -0.470477       -12.8023
 193   2.0000      -0.467667       -12.7259
 194   2.0000      -0.466238       -12.6870
 195   2.0000      -0.465838       -12.6761
 196   2.0000      -0.463979       -12.6255
 197   2.0000      -0.460189       -12.5224
 198   2.0000      -0.455439       -12.3931
 199   2.0000      -0.455070       -12.3831
 200   2.0000      -0.452310       -12.3080
 201   2.0000      -0.449873       -12.2417
 202   2.0000      -0.447920       -12.1885
 203   2.0000      -0.447355       -12.1732
 204   2.0000      -0.446210       -12.1420
 205   2.0000      -0.444976       -12.1084
 206   2.0000      -0.440054       -11.9745
 207   2.0000      -0.438821       -11.9409
 208   2.0000      -0.434062       -11.8114
 209   2.0000      -0.433325       -11.7914
 210   2.0000      -0.431844       -11.7511
 211   2.0000      -0.430087       -11.7033
 212   2.0000      -0.408998       -11.1294
 213   2.0000      -0.406923       -11.0729
 214   2.0000      -0.393516       -10.7081
 215   2.0000      -0.392389       -10.6774
 216   2.0000      -0.392367       -10.6768
 217   2.0000      -0.388609       -10.5746
 218   2.0000      -0.388021       -10.5586
 219   2.0000      -0.385781       -10.4976
 220   2.0000      -0.384684       -10.4678
 221   2.0000      -0.383906       -10.4466
 222   2.0000      -0.377882       -10.2827
 223   2.0000      -0.374298       -10.1852
 224   2.0000      -0.373806       -10.1718
 225   2.0000      -0.366593        -9.9755
 226   2.0000      -0.357649        -9.7321
 227   2.0000      -0.356699        -9.7063
 228   2.0000      -0.354010        -9.6331
 229   2.0000      -0.350797        -9.5457
 230   2.0000      -0.346551        -9.4301
 231   2.0000      -0.330196        -8.9851
 232   2.0000      -0.329116        -8.9557
 233   2.0000      -0.328331        -8.9343
 234   2.0000      -0.316934        -8.6242
 235   2.0000      -0.300456        -8.1758
 236   2.0000      -0.266098        -7.2409
 237   2.0000      -0.250690        -6.8216
 238   0.0000      -0.115864        -3.1528
 239   0.0000      -0.107362        -2.9215
 240   0.0000      -0.078628        -2.1396
 241   0.0000      -0.071770        -1.9530
 242   0.0000      -0.061037        -1.6609

MULLIKEN ATOMIC CHARGES
-----------------------
   0 C :   -0.112132
   1 S :    0.206893
   2 C :   -0.048515
   3 N :    0.273464
   4 O :   -0.241242
   5 O :   -0.250260
   6 C :    0.037723
   7 C :    0.093103
   8 C :    0.008827
   9 C :    0.056021
  10 C :   -0.075515
  11 C :   -0.031318
  12 C :    0.006366
  13 C :   -0.110647
  14 S :    0.192049
  15 C :   -0.087891
  16 C :    0.005558
  17 C :    0.321425
  18 C :   -0.291663
  19 C :   -0.189964
  20 N :    0.179061
  21 C :   -0.186185
  22 N :    0.164292
  23 C :   -0.062592
  24 C :   -0.104389
  25 S :    0.202278
  26 C :   -0.098870
  27 S :    0.204238
  28 C :    0.002716
  29 N :    0.275415
  30 O :   -0.243843
  31 O :   -0.255683
  32 C :   -0.008664
  33 C :    0.122006
  34 C :   -0.060442
  35 C :    0.054786
  36 C :   -0.091284
  37 C :    0.001376
  38 C :    0.008771
  39 C :   -0.100990
  40 S :    0.193509
  41 C :   -0.098910
  42 C :    0.027854
  43 C :    0.312611
  44 C :   -0.308015
  45 C :   -0.144084
  46 N :    0.141556
  47 C :   -0.193370
  48 N :    0.182369
  49 C :   -0.060481
  50 C :   -0.082673
  51 S :    0.183171
  52 C :   -0.075868
  53 S :    0.192173
  54 C :    0.009757
  55 N :    0.271917
  56 O :   -0.245715
  57 O :   -0.255721
  58 C :   -0.001418
  59 C :    0.067597
  60 C :   -0.060886
  61 C :   -0.004957
  62 H :    0.038358
  63 H :    0.012985
  64 H :   -0.008283
  65 H :   -0.017769
  66 H :    0.005748
  67 H :    0.028769
  68 H :    0.010662
  69 H :    0.026074
  70 H :   -0.012836
  71 H :   -0.009104
  72 H :    0.022984
  73 H :    0.009233
  74 H :    0.017201
  75 H :    0.028687
  76 H :    0.032593
Sum of atomic charges:   -0.0000000

LOEWDIN ATOMIC CHARGES
----------------------
   0 C :   -0.160380
   1 S :    0.502175
   2 C :   -0.196926
   3 N :    0.273197
   4 O :   -0.207266
   5 O :   -0.215441
   6 C :   -0.009889
   7 C :   -0.065868
   8 C :   -0.007382
   9 C :   -0.044166
  10 C :   -0.158622
  11 C :   -0.027049
  12 C :   -0.058808
  13 C :   -0.191846
  14 S :    0.481068
  15 C :   -0.169399
  16 C :   -0.071584
  17 C :    0.084455
  18 C :   -0.093500
  19 C :   -0.013838
  20 N :   -0.032437
  21 C :   -0.008067
  22 N :   -0.044644
  23 C :   -0.022012
  24 C :   -0.193246
  25 S :    0.476648
  26 C :   -0.170458
  27 S :    0.480066
  28 C :   -0.196155
  29 N :    0.272830
  30 O :   -0.209826
  31 O :   -0.221630
  32 C :   -0.005407
  33 C :   -0.058236
  34 C :   -0.018964
  35 C :   -0.037667
  36 C :   -0.163779
  37 C :   -0.018469
  38 C :   -0.060211
  39 C :   -0.187319
  40 S :    0.480247
  41 C :   -0.174918
  42 C :   -0.070111
  43 C :    0.089758
  44 C :   -0.102901
  45 C :    0.003840
  46 N :   -0.049936
  47 C :   -0.018692
  48 N :   -0.026093
  49 C :   -0.025966
  50 C :   -0.188170
  51 S :    0.502209
  52 C :   -0.159776
  53 S :    0.490506
  54 C :   -0.198220
  55 N :    0.272640
  56 O :   -0.212378
  57 O :   -0.221343
  58 C :   -0.004588
  59 C :   -0.068211
  60 C :   -0.042537
  61 C :   -0.023258
  62 H :    0.030976
  63 H :    0.041828
  64 H :    0.034693
  65 H :    0.027728
  66 H :    0.039364
  67 H :    0.043158
  68 H :    0.044990
  69 H :    0.035077
  70 H :    0.029368
  71 H :    0.033312
  72 H :    0.037631
  73 H :    0.044574
  74 H :    0.019033
  75 H :    0.026258
  76 H :    0.029962

  Mayer bond orders larger than 0.100000
B(  0-C ,  1-S ) :   1.1917 B(  0-C ,  7-C ) :   1.4796 B(  0-C , 62-H ) :   0.9725
B(  1-S ,  2-C ) :   1.1488 B(  2-C ,  3-N ) :   0.9436 B(  2-C ,  6-C ) :   1.5084
B(  3-N ,  4-O ) :   1.5451 B(  3-N ,  5-O ) :   1.5291 B(  4-O ,  5-O ) :   0.2703
B(  6-C ,  7-C ) :   1.2159 B(  6-C , 63-H ) :   0.9941 B(  7-C ,  8-C ) :   1.0888
B(  8-C ,  9-C ) :   1.7252 B(  8-C , 64-H ) :   0.9822 B(  9-C , 10-C ) :   1.1025
B(  9-C , 65-H ) :   0.9547 B( 10-C , 11-C ) :   1.4675 B( 10-C , 14-S ) :   1.1155
B( 11-C , 12-C ) :   1.3006 B( 11-C , 66-H ) :   0.9909 B( 12-C , 13-C ) :   1.4422
B( 12-C , 17-C ) :   0.9983 B( 13-C , 14-S ) :   1.1188 B( 13-C , 15-C ) :   1.1900
B( 15-C , 16-C ) :   1.4449 B( 15-C , 25-S ) :   1.1303 B( 16-C , 17-C ) :   0.9967
B( 16-C , 23-C ) :   1.2836 B( 17-C , 18-C ) :   1.7211 B( 18-C , 19-C ) :   1.1359
B( 18-C , 21-C ) :   1.1419 B( 19-C , 20-N ) :   2.9945 B( 21-C , 22-N ) :   2.9496
B( 23-C , 24-C ) :   1.4631 B( 23-C , 67-H ) :   0.9949 B( 24-C , 25-S ) :   1.0993
B( 24-C , 26-C ) :   1.1256 B( 26-C , 27-S ) :   1.1388 B( 26-C , 33-C ) :   1.4400
B( 27-S , 28-C ) :   1.1126 B( 28-C , 29-N ) :   0.9533 B( 28-C , 32-C ) :   1.4895
B( 29-N , 30-O ) :   1.5413 B( 29-N , 31-O ) :   1.5183 B( 30-O , 31-O ) :   0.2660
B( 32-C , 33-C ) :   1.2271 B( 32-C , 68-H ) :   1.0028 B( 33-C , 34-C ) :   1.0768
B( 34-C , 35-C ) :   1.7402 B( 34-C , 69-H ) :   0.9565 B( 35-C , 36-C ) :   1.1044
B( 35-C , 70-H ) :   0.9664 B( 36-C , 37-C ) :   1.4699 B( 36-C , 40-S ) :   1.1058
B( 37-C , 38-C ) :   1.3075 B( 37-C , 71-H ) :   0.9810 B( 38-C , 39-C ) :   1.4417
B( 38-C , 43-C ) :   1.0023 B( 39-C , 40-S ) :   1.1213 B( 39-C , 41-C ) :   1.1847
B( 41-C , 42-C ) :   1.4318 B( 41-C , 51-S ) :   1.1340 B( 42-C , 43-C ) :   0.9924
B( 42-C , 49-C ) :   1.3101 B( 43-C , 44-C ) :   1.7081 B( 44-C , 45-C ) :   1.1517
B( 44-C , 47-C ) :   1.1305 B( 45-C , 46-N ) :   2.9197 B( 47-C , 48-N ) :   2.9955
B( 49-C , 50-C ) :   1.4468 B( 49-C , 72-H ) :   0.9849 B( 50-C , 51-S ) :   1.0974
B( 50-C , 52-C ) :   1.1662 B( 52-C , 53-S ) :   1.1463 B( 52-C , 59-C ) :   1.4453
B( 53-S , 54-C ) :   1.1121 B( 54-C , 55-N ) :   0.9542 B( 54-C , 58-C ) :   1.4881
B( 55-N , 56-O ) :   1.5401 B( 55-N , 57-O ) :   1.5191 B( 56-O , 57-O ) :   0.2653
B( 58-C , 59-C ) :   1.2385 B( 58-C , 73-H ) :   1.0008 B( 59-C , 60-C ) :   1.0466
B( 60-C , 61-C ) :   1.9745 B( 60-C , 74-H ) :   0.9418 B( 61-C , 75-H ) :   0.9611
B( 61-C , 76-H ) :   0.9496

-----------------------------------------------------------------------------
         ABSORPTION SPECTRUM VIA TRANSITION ELECTRIC DIPOLE MOMENTS
-----------------------------------------------------------------------------
State   Energy  Wavelength   fosc         T2         TX        TY        TZ
        (cm-1)    (nm)                  (au**2)     (au)      (au)      (au)
-----------------------------------------------------------------------------
   0   11783.7    848.6   0.129174264   3.60885  -1.07347   1.56729   0.01086
   1   13078.3    764.6   0.111052554   2.79545   1.05884   0.90593   0.92391
   2   18332.8    545.5   0.004703056   0.08446   0.19694   0.05419   0.20672
   3   20217.6    494.6   0.040462155   0.65886  -0.27782   0.76249   0.01696
   4   21989.1    454.8   0.835859355  12.51413   0.75439  -3.37466  -0.74612
   5   24237.9    412.6   1.404086887  19.07105  -3.97916   0.59124  -1.69934
   6   25279.3    395.6   0.039620533   0.51598  -0.66093  -0.02247  -0.28044
   7   26439.0    378.2   0.122909116   1.53043  -0.67474  -0.75100  -0.71495
   8   26943.4    371.1   0.313931634   3.83582   1.04328   1.30029   1.02793
   9   28574.5    350.0   0.074514949   0.85850  -0.58237   0.63454   0.34162
  10   28677.2    348.7   0.183831170   2.11037  -0.69435  -0.54705  -1.15281
  11   30103.3    332.2   0.504647372   5.51886   0.78543  -2.06175  -0.80693
  12   30138.7    331.8   0.055317200   0.60424  -0.66031   0.04501  -0.40768
  13   30487.9    328.0   0.520818791   5.62387   0.78090  -1.95868  -1.08519
  14   31146.6    321.1   0.002394542   0.02531  -0.14118  -0.01945   0.07071
  15   31398.9    318.5   0.130464339   1.36789   0.65009   0.76279   0.60285
  16   31630.4    316.2   0.295235812   3.07284   1.39004   0.36429   1.00396
  17   32597.9    306.8   0.047833909   0.48308  -0.52683  -0.40900  -0.19558
  18   32882.9    304.1   0.229202408   2.29469   0.09607   1.06727   1.07070
  19   33243.9    300.8   0.589633309   5.83910   2.27392  -0.19214   0.79466
  20   33480.1    298.7   0.000017740   0.00017  -0.00872   0.00066   0.00990
  21   33507.1    298.4   0.248542856   2.44197  -1.52451   0.15047  -0.30854
  22   33960.3    294.5   0.431336055   4.18139   0.11475   1.76751   1.02183
  23   34046.7    293.7   0.027265382   0.26364  -0.39035   0.33357  -0.00204
  24   34885.5    286.7   0.047039162   0.44390   0.02988  -0.60061  -0.28684
  25   35265.8    283.6   0.033202326   0.30995  -0.29168  -0.40238  -0.25092
  26   35676.5    280.3   0.008816559   0.08136  -0.23710   0.15552   0.03090
  27   36422.7    274.6   0.138755782   1.25416   0.03271  -1.01028  -0.48210
  28   36660.7    272.8   0.020950808   0.18814   0.05153  -0.42919  -0.03576
  29   36718.5    272.3   0.093948699   0.84233  -0.68118  -0.26892  -0.55318
  30   37120.2    269.4   0.008555749   0.07588  -0.25644  -0.04520  -0.08985
  31   37768.7    264.8   0.063910661   0.55708   0.47036  -0.57951   0.00153
  32   37970.8    263.4   0.000004677   0.00004   0.00362   0.00486  -0.00195
  33   38062.2    262.7   0.083468208   0.72194  -0.79308   0.12872  -0.27639
  34   38416.2    260.3   0.024273259   0.20801  -0.17225   0.41141   0.09530
  35   39094.0    255.8   0.001046754   0.00881   0.05953   0.02780   0.06707
  36   39483.4    253.3   0.023068783   0.19235  -0.38482  -0.05527  -0.20300
  37   39721.8    251.8   0.059456550   0.49277  -0.10511  -0.61300  -0.32551
  38   39909.4    250.6   0.005386578   0.04443   0.20478  -0.03619  -0.03449
  39   39983.3    250.1   0.007137095   0.05876  -0.17418   0.12826   0.10943
  40   40235.5    248.5   0.106537241   0.87170   0.77581   0.20771   0.47610

FINAL SINGLE POINT ENERGY     -5227.094482185797

DIPOLE MOMENT
-------------
                                X             Y             Z
Electronic contribution:     11.55668     -12.04625       0.32797
Nuclear contribution   :    -10.45639      13.41285       1.04888
                        -----------------------------------------
Total Dipole Moment    :      1.10029       1.36661       1.37685
                        -----------------------------------------
Magnitude (a.u.)       :      2.23024
Magnitude (Debye)      :      5.66883

Rotational constants in cm-1:     0.000980     0.000441     0.000308
Rotational constants in MHz :    29.383989    13.234295     9.241129

                             ****ORCA TERMINATED NORMALLY****
TOTAL RUN TIME: 0 days 0 hours 6 minutes 40 seconds 421 msec
