                         Program Version 4.2.0 -  RELEASE  -
|  1> # ORCA input file
|  2> # SCF done       -194.455199405163          0.000791080722
|  3> ! CAM-B3LYP def2-SVP def2/J RIJCOSX Grid4 TightSCF
|  4> %maxcore 5000
|  5> %tddft
|  6>     Mode sTDDFT
|  7>     Ethresh 5.0
|  8>     maxcore 5000
|  9> end
| 10>
| 11> %pal
| 12>   nprocs 6
| 13>   end
| 14> * xyz 0 1
| 15>    C       -9.50119         0.21233         1.79521
| 16>    C       -9.99635         1.16266         2.67303
| 17>    C      -11.21300         0.90641         3.30591
| 18>    C      -11.73846         1.85419         4.21959
| 19>    N      -12.15726         2.62302         4.95702
| 20>    C      -11.93103        -0.28020         3.05521
| 21>    C      -13.16868        -0.50499         3.70492
| 22>    N      -14.17263        -0.70295         4.21887
| 23>    C      -11.42534        -1.23559         2.17164
| 24>    C      -10.21441        -0.98086         1.56437
| 25>    C       -9.46064        -1.83284         0.61068
| 26>    O       -9.87181        -2.80029         0.02080
| 27>    C       -8.14272        -1.15581         0.45737
| 28>    C       -8.28932         0.19420         0.98463
| 29>    C       -7.52640         1.27755         0.65518
| 30>    C       -7.75701         2.58036         1.14882
| 31>    N       -7.89287         3.66363         1.50111
| 32>    C       -6.47368         1.27426        -0.28501
| 33>    N       -5.63042         1.39148        -1.05675
| 34>    C       -6.99278        -1.65366        -0.05192
| 35>    C       -6.72596        -2.96014        -0.57302
| 36>    C       -7.30836        -4.16358        -0.25937
| 37>    F       -8.11628        -4.41090         0.75846
| 38>    S       -6.76169        -5.49235        -1.21181
| 39>    C       -5.70098        -4.40018        -2.05988
| 40>    F       -4.92098        -4.87959        -3.02365
| 41>    C       -5.74190        -3.12298        -1.61617
| 42>    C       -4.86288        -2.03490        -2.07940
| 43>    C       -4.98906        -1.48211        -3.31961
| 44>    C       -4.10406        -0.44645        -3.70448
| 45>    C       -4.00791         0.27016        -4.88614
| 46>    C       -4.87583         0.11575        -6.08841
| 47>    C       -5.43690         1.45626        -6.59809
| 48>    N       -6.75149         1.23703        -7.17072
| 49>    C       -4.12216        -0.64257        -7.19910
| 50>    N       -3.96889        -2.02944        -6.80765
| 51>    C       -2.85983         1.14114        -4.75077
| 52>    C       -2.27943         2.00520        -5.60355
| 53>    C       -1.01967         2.72323        -5.26573
| 54>    C       -0.52371         2.49410        -3.86983
| 55>    C       -1.12484         1.63607        -3.02267
| 56>    C       -2.28529         0.93068        -3.41360
| 57>    C       -3.05999        -0.02598        -2.78176
| 58>    C       -2.97602        -0.61309        -1.50100
| 59>    C       -3.86343        -1.58446        -1.16122
| 60>    C       -1.10920         4.19325        -5.59465
| 61>    C       -2.20683         4.91914        -5.39599
| 62>    C       -2.35063         6.30972        -5.79823
| 63>    C       -1.77750         6.85181        -6.91002
| 64>    F       -0.95959         6.22850        -7.75524
| 65>    S       -2.23908         8.48477        -7.25771
| 66>    C       -3.27644         8.43272        -5.88520
| 67>    F       -3.98079         9.50585        -5.55340
| 68>    C       -3.23148         7.26318        -5.17105
| 69>    C       -3.99349         7.07036        -3.96810
| 70>    C       -3.66580         6.35759        -2.86716
| 71>    C       -4.72749         6.01312        -1.87146
| 72>    O       -5.84493         6.46104        -1.82444
| 73>    C       -4.12279         4.96868        -1.01508
| 74>    C       -4.71205         4.23923        -0.00465
| 75>    C       -3.94920         3.25213         0.62215
| 76>    C       -2.61136         3.03716         0.23452
| 77>    C       -2.00978         3.81568        -0.75230
| 78>    C       -2.77535         4.77919        -1.38712
| 79>    C       -2.42878         5.73424        -2.43233
| 80>    C       -1.15733         6.13073        -2.75150
| 81>    C       -0.85305         7.25523        -3.54519
| 82>    N       -0.53897         8.18964        -4.13258
| 83>    C        0.00940         5.52430        -2.24264
| 84>    N        0.99246         5.05485        -1.88153
| 85>    C       -1.87061         1.99637         0.84419
| 86>    N       -1.26733         1.14118         1.30963
| 87>    C       -4.52319         2.43636         1.62285
| 88>    N       -5.01178         1.75956         2.40857
| 89>    H       -9.46648         2.07743         2.88809
| 90>    H      -11.96298        -2.15063         1.97489
| 91>    H       -6.14479        -0.98249        -0.12566
| 92>    H       -5.74662        -1.83041        -4.00464
| 93>    H       -5.73753        -0.49800        -5.81360
| 94>    H       -4.72655         1.91585        -7.30697
| 95>    H       -5.56000         2.13956        -5.75247
| 96>    H       -6.69471         0.61467        -7.96942
| 97>    H       -7.16260         2.10989        -7.48098
| 98>    H       -3.16473        -0.12983        -7.40093
| 99>    H       -4.71496        -0.62731        -8.11858
|100>    H       -3.42594        -2.09956        -5.95344
|101>    H       -3.49682        -2.56209        -7.52881
|102>    H       -2.67818         2.19893        -6.58898
|103>    H       -0.24944         2.30949        -5.93953
|104>    H        0.37178         3.02729        -3.59037
|105>    H       -0.71330         1.45365        -2.04020
|106>    H       -2.21074        -0.29852        -0.80774
|107>    H       -3.81087        -2.05639        -0.19072
|108>    H       -0.21717         4.65117        -5.99607
|109>    H       -3.08181         4.47310        -4.93816
|110>    H       -4.97255         7.53962        -3.94806
|111>    H       -5.73531         4.42263         0.28688
|112>    H       -0.97767         3.64588        -1.01124
|113> *
|114>
|115>                          ****END OF INPUT****

CARTESIAN COORDINATES (ANGSTROEM)
---------------------------------
  C     -9.501190    0.212330    1.795210
  C     -9.996350    1.162660    2.673030
  C    -11.213000    0.906410    3.305910
  C    -11.738460    1.854190    4.219590
  N    -12.157260    2.623020    4.957020
  C    -11.931030   -0.280200    3.055210
  C    -13.168680   -0.504990    3.704920
  N    -14.172630   -0.702950    4.218870
  C    -11.425340   -1.235590    2.171640
  C    -10.214410   -0.980860    1.564370
  C     -9.460640   -1.832840    0.610680
  O     -9.871810   -2.800290    0.020800
  C     -8.142720   -1.155810    0.457370
  C     -8.289320    0.194200    0.984630
  C     -7.526400    1.277550    0.655180
  C     -7.757010    2.580360    1.148820
  N     -7.892870    3.663630    1.501110
  C     -6.473680    1.274260   -0.285010
  N     -5.630420    1.391480   -1.056750
  C     -6.992780   -1.653660   -0.051920
  C     -6.725960   -2.960140   -0.573020
  C     -7.308360   -4.163580   -0.259370
  F     -8.116280   -4.410900    0.758460
  S     -6.761690   -5.492350   -1.211810
  C     -5.700980   -4.400180   -2.059880
  F     -4.920980   -4.879590   -3.023650
  C     -5.741900   -3.122980   -1.616170
  C     -4.862880   -2.034900   -2.079400
  C     -4.989060   -1.482110   -3.319610
  C     -4.104060   -0.446450   -3.704480
  C     -4.007910    0.270160   -4.886140
  C     -4.875830    0.115750   -6.088410
  C     -5.436900    1.456260   -6.598090
  N     -6.751490    1.237030   -7.170720
  C     -4.122160   -0.642570   -7.199100
  N     -3.968890   -2.029440   -6.807650
  C     -2.859830    1.141140   -4.750770
  C     -2.279430    2.005200   -5.603550
  C     -1.019670    2.723230   -5.265730
  C     -0.523710    2.494100   -3.869830
  C     -1.124840    1.636070   -3.022670
  C     -2.285290    0.930680   -3.413600
  C     -3.059990   -0.025980   -2.781760
  C     -2.976020   -0.613090   -1.501000
  C     -3.863430   -1.584460   -1.161220
  C     -1.109200    4.193250   -5.594650
  C     -2.206830    4.919140   -5.395990
  C     -2.350630    6.309720   -5.798230
  C     -1.777500    6.851810   -6.910020
  F     -0.959590    6.228500   -7.755240
  S     -2.239080    8.484770   -7.257710
  C     -3.276440    8.432720   -5.885200
  F     -3.980790    9.505850   -5.553400
  C     -3.231480    7.263180   -5.171050
  C     -3.993490    7.070360   -3.968100
  C     -3.665800    6.357590   -2.867160
  C     -4.727490    6.013120   -1.871460
  O     -5.844930    6.461040   -1.824440
  C     -4.122790    4.968680   -1.015080
  C     -4.712050    4.239230   -0.004650
  C     -3.949200    3.252130    0.622150
  C     -2.611360    3.037160    0.234520
  C     -2.009780    3.815680   -0.752300
  C     -2.775350    4.779190   -1.387120
  C     -2.428780    5.734240   -2.432330
  C     -1.157330    6.130730   -2.751500
  C     -0.853050    7.255230   -3.545190
  N     -0.538970    8.189640   -4.132580
  C      0.009400    5.524300   -2.242640
  N      0.992460    5.054850   -1.881530
  C     -1.870610    1.996370    0.844190
  N     -1.267330    1.141180    1.309630
  C     -4.523190    2.436360    1.622850
  N     -5.011780    1.759560    2.408570
  H     -9.466480    2.077430    2.888090
  H    -11.962980   -2.150630    1.974890
  H     -6.144790   -0.982490   -0.125660
  H     -5.746620   -1.830410   -4.004640
  H     -5.737530   -0.498000   -5.813600
  H     -4.726550    1.915850   -7.306970
  H     -5.560000    2.139560   -5.752470
  H     -6.694710    0.614670   -7.969420
  H     -7.162600    2.109890   -7.480980
  H     -3.164730   -0.129830   -7.400930
  H     -4.714960   -0.627310   -8.118580
  H     -3.425940   -2.099560   -5.953440
  H     -3.496820   -2.562090   -7.528810
  H     -2.678180    2.198930   -6.588980
  H     -0.249440    2.309490   -5.939530
  H      0.371780    3.027290   -3.590370
  H     -0.713300    1.453650   -2.040200
  H     -2.210740   -0.298520   -0.807740
  H     -3.810870   -2.056390   -0.190720
  H     -0.217170    4.651170   -5.996070
  H     -3.081810    4.473100   -4.938160
  H     -4.972550    7.539620   -3.948060
  H     -5.735310    4.422630    0.286880
  H     -0.977670    3.645880   -1.011240

 Total Charge           Charge          ....    0
 Multiplicity           Mult            ....    1
 Number of Electrons    NEL             ....  514
 Basis Dimension        Dim             .... 1164

ORBITAL ENERGIES
----------------

  NO   OCC          E(Eh)            E(eV)
   0   2.0000     -89.001131     -2421.8439
   1   2.0000     -88.991971     -2421.5946
   2   2.0000     -24.831488      -675.6992
   3   2.0000     -24.824475      -675.5083
   4   2.0000     -24.824049      -675.4967
   5   2.0000     -24.809821      -675.1096
   6   2.0000     -19.240305      -523.5553
   7   2.0000     -19.239317      -523.5284
   8   2.0000     -14.439759      -392.9258
   9   2.0000     -14.439463      -392.9178
  10   2.0000     -14.438789      -392.8994
  11   2.0000     -14.436169      -392.8281
  12   2.0000     -14.435504      -392.8100
  13   2.0000     -14.435231      -392.8026
  14   2.0000     -14.429592      -392.6492
  15   2.0000     -14.428385      -392.6163
  16   2.0000     -14.382072      -391.3561
  17   2.0000     -14.377913      -391.2429
  18   2.0000     -10.413207      -283.3578
  19   2.0000     -10.409565      -283.2587
  20   2.0000     -10.401684      -283.0442
  21   2.0000     -10.391237      -282.7599
  22   2.0000     -10.390757      -282.7469
  23   2.0000     -10.389968      -282.7254
  24   2.0000     -10.370319      -282.1907
  25   2.0000     -10.367647      -282.1180
  26   2.0000     -10.364855      -282.0421
  27   2.0000     -10.363618      -282.0084
  28   2.0000     -10.361685      -281.9558
  29   2.0000     -10.361331      -281.9462
  30   2.0000     -10.361273      -281.9446
  31   2.0000     -10.359871      -281.9064
  32   2.0000     -10.341706      -281.4121
  33   2.0000     -10.341558      -281.4081
  34   2.0000     -10.341310      -281.4013
  35   2.0000     -10.341255      -281.3999
  36   2.0000     -10.341082      -281.3951
  37   2.0000     -10.340870      -281.3894
  38   2.0000     -10.336845      -281.2799
  39   2.0000     -10.336586      -281.2728
  40   2.0000     -10.336441      -281.2689
  41   2.0000     -10.335511      -281.2436
  42   2.0000     -10.334785      -281.2238
  43   2.0000     -10.334209      -281.2081
  44   2.0000     -10.332423      -281.1595
  45   2.0000     -10.332071      -281.1499
  46   2.0000     -10.327263      -281.0191
  47   2.0000     -10.326039      -280.9858
  48   2.0000     -10.326008      -280.9850
  49   2.0000     -10.324690      -280.9491
  50   2.0000     -10.321213      -280.8545
  51   2.0000     -10.320385      -280.8320
  52   2.0000     -10.317534      -280.7544
  53   2.0000     -10.315588      -280.7014
  54   2.0000     -10.312498      -280.6173
  55   2.0000     -10.308971      -280.5214
  56   2.0000     -10.305883      -280.4373
  57   2.0000     -10.302377      -280.3419
  58   2.0000     -10.301658      -280.3224
  59   2.0000     -10.299838      -280.2728
  60   2.0000     -10.288655      -279.9685
  61   2.0000     -10.288092      -279.9532
  62   2.0000     -10.287505      -279.9373
  63   2.0000     -10.281582      -279.7761
  64   2.0000     -10.280665      -279.7511
  65   2.0000     -10.278955      -279.7046
  66   2.0000     -10.275098      -279.5996
  67   2.0000     -10.272925      -279.5405
  68   2.0000     -10.272341      -279.5246
  69   2.0000     -10.268756      -279.4271
  70   2.0000     -10.268452      -279.4188
  71   2.0000     -10.267544      -279.3941
  72   2.0000     -10.265478      -279.3379
  73   2.0000     -10.264994      -279.3247
  74   2.0000      -8.098213      -220.3636
  75   2.0000      -8.089152      -220.1170
  76   2.0000      -6.067337      -165.1006
  77   2.0000      -6.063672      -165.0009
  78   2.0000      -6.059730      -164.8936
  79   2.0000      -6.058286      -164.8543
  80   2.0000      -6.054620      -164.7546
  81   2.0000      -6.050636      -164.6462
  82   2.0000      -1.348803       -36.7028
  83   2.0000      -1.342784       -36.5390
  84   2.0000      -1.339717       -36.4555
  85   2.0000      -1.326212       -36.0881
  86   2.0000      -1.156465       -31.4690
  87   2.0000      -1.155332       -31.4382
  88   2.0000      -1.048246       -28.5242
  89   2.0000      -1.046205       -28.4687
  90   2.0000      -1.036288       -28.1988
  91   2.0000      -1.032513       -28.0961
  92   2.0000      -1.023947       -27.8630
  93   2.0000      -1.018284       -27.7089
  94   2.0000      -1.017478       -27.6870
  95   2.0000      -1.016349       -27.6563
  96   2.0000      -1.014843       -27.6153
  97   2.0000      -1.013482       -27.5782
  98   2.0000      -1.012631       -27.5551
  99   2.0000      -1.008163       -27.4335
 100   2.0000      -0.989837       -26.9348
 101   2.0000      -0.983421       -26.7602
 102   2.0000      -0.981423       -26.7059
 103   2.0000      -0.969897       -26.3923
 104   2.0000      -0.955167       -25.9914
 105   2.0000      -0.953211       -25.9382
 106   2.0000      -0.931755       -25.3543
 107   2.0000      -0.931093       -25.3363
 108   2.0000      -0.929918       -25.3043
 109   2.0000      -0.926274       -25.2052
 110   2.0000      -0.918682       -24.9986
 111   2.0000      -0.906533       -24.6680
 112   2.0000      -0.906166       -24.6580
 113   2.0000      -0.900612       -24.5069
 114   2.0000      -0.880118       -23.9492
 115   2.0000      -0.874424       -23.7943
 116   2.0000      -0.865911       -23.5626
 117   2.0000      -0.852417       -23.1954
 118   2.0000      -0.841660       -22.9027
 119   2.0000      -0.835729       -22.7413
 120   2.0000      -0.826776       -22.4977
 121   2.0000      -0.818978       -22.2855
 122   2.0000      -0.813345       -22.1322
 123   2.0000      -0.810516       -22.0553
 124   2.0000      -0.809386       -22.0245
 125   2.0000      -0.795244       -21.6397
 126   2.0000      -0.762704       -20.7542
 127   2.0000      -0.758590       -20.6423
 128   2.0000      -0.755647       -20.5622
 129   2.0000      -0.747891       -20.3512
 130   2.0000      -0.739639       -20.1266
 131   2.0000      -0.736559       -20.0428
 132   2.0000      -0.726293       -19.7634
 133   2.0000      -0.721216       -19.6253
 134   2.0000      -0.715448       -19.4683
 135   2.0000      -0.712989       -19.4014
 136   2.0000      -0.704412       -19.1680
 137   2.0000      -0.702299       -19.1105
 138   2.0000      -0.694922       -18.9098
 139   2.0000      -0.691730       -18.8229
 140   2.0000      -0.689292       -18.7566
 141   2.0000      -0.684410       -18.6237
 142   2.0000      -0.677430       -18.4338
 143   2.0000      -0.669928       -18.2297
 144   2.0000      -0.665321       -18.1043
 145   2.0000      -0.661670       -18.0050
 146   2.0000      -0.660265       -17.9667
 147   2.0000      -0.648535       -17.6475
 148   2.0000      -0.643200       -17.5024
 149   2.0000      -0.634383       -17.2625
 150   2.0000      -0.628404       -17.0997
 151   2.0000      -0.622327       -16.9344
 152   2.0000      -0.620220       -16.8770
 153   2.0000      -0.613982       -16.7073
 154   2.0000      -0.611741       -16.6463
 155   2.0000      -0.604960       -16.4618
 156   2.0000      -0.603994       -16.4355
 157   2.0000      -0.601824       -16.3765
 158   2.0000      -0.599261       -16.3067
 159   2.0000      -0.597545       -16.2600
 160   2.0000      -0.594227       -16.1697
 161   2.0000      -0.594087       -16.1659
 162   2.0000      -0.587841       -15.9960
 163   2.0000      -0.584913       -15.9163
 164   2.0000      -0.584239       -15.8980
 165   2.0000      -0.576229       -15.6800
 166   2.0000      -0.571411       -15.5489
 167   2.0000      -0.570360       -15.5203
 168   2.0000      -0.568620       -15.4729
 169   2.0000      -0.567417       -15.4402
 170   2.0000      -0.565847       -15.3975
 171   2.0000      -0.563304       -15.3283
 172   2.0000      -0.562691       -15.3116
 173   2.0000      -0.558878       -15.2079
 174   2.0000      -0.553601       -15.0643
 175   2.0000      -0.550810       -14.9883
 176   2.0000      -0.547857       -14.9079
 177   2.0000      -0.542872       -14.7723
 178   2.0000      -0.537855       -14.6358
 179   2.0000      -0.536568       -14.6008
 180   2.0000      -0.533792       -14.5252
 181   2.0000      -0.531275       -14.4567
 182   2.0000      -0.529674       -14.4132
 183   2.0000      -0.525430       -14.2977
 184   2.0000      -0.524985       -14.2856
 185   2.0000      -0.521599       -14.1934
 186   2.0000      -0.517433       -14.0801
 187   2.0000      -0.515474       -14.0268
 188   2.0000      -0.514986       -14.0135
 189   2.0000      -0.513470       -13.9722
 190   2.0000      -0.512053       -13.9337
 191   2.0000      -0.507193       -13.8014
 192   2.0000      -0.503939       -13.7129
 193   2.0000      -0.499627       -13.5955
 194   2.0000      -0.498068       -13.5531
 195   2.0000      -0.492868       -13.4116
 196   2.0000      -0.490695       -13.3525
 197   2.0000      -0.489768       -13.3273
 198   2.0000      -0.483956       -13.1691
 199   2.0000      -0.482951       -13.1418
 200   2.0000      -0.476528       -12.9670
 201   2.0000      -0.475185       -12.9304
 202   2.0000      -0.472816       -12.8660
 203   2.0000      -0.470863       -12.8128
 204   2.0000      -0.469980       -12.7888
 205   2.0000      -0.469409       -12.7733
 206   2.0000      -0.467665       -12.7258
 207   2.0000      -0.464742       -12.6463
 208   2.0000      -0.463361       -12.6087
 209   2.0000      -0.462533       -12.5862
 210   2.0000      -0.461380       -12.5548
 211   2.0000      -0.460274       -12.5247
 212   2.0000      -0.458813       -12.4849
 213   2.0000      -0.457416       -12.4469
 214   2.0000      -0.456860       -12.4318
 215   2.0000      -0.454948       -12.3798
 216   2.0000      -0.453651       -12.3445
 217   2.0000      -0.452552       -12.3146
 218   2.0000      -0.451165       -12.2768
 219   2.0000      -0.450260       -12.2522
 220   2.0000      -0.447376       -12.1737
 221   2.0000      -0.444535       -12.0964
 222   2.0000      -0.443991       -12.0816
 223   2.0000      -0.438132       -11.9222
 224   2.0000      -0.437506       -11.9052
 225   2.0000      -0.436457       -11.8766
 226   2.0000      -0.435309       -11.8454
 227   2.0000      -0.434259       -11.8168
 228   2.0000      -0.431986       -11.7549
 229   2.0000      -0.430592       -11.7170
 230   2.0000      -0.428697       -11.6654
 231   2.0000      -0.423502       -11.5241
 232   2.0000      -0.423411       -11.5216
 233   2.0000      -0.418583       -11.3902
 234   2.0000      -0.414617       -11.2823
 235   2.0000      -0.409824       -11.1519
 236   2.0000      -0.401054       -10.9132
 237   2.0000      -0.397798       -10.8246
 238   2.0000      -0.391838       -10.6624
 239   2.0000      -0.387725       -10.5505
 240   2.0000      -0.381980       -10.3942
 241   2.0000      -0.376061       -10.2331
 242   2.0000      -0.370452       -10.0805
 243   2.0000      -0.364448        -9.9171
 244   2.0000      -0.361292        -9.8313
 245   2.0000      -0.358548        -9.7566
 246   2.0000      -0.346459        -9.4276
 247   2.0000      -0.339222        -9.2307
 248   2.0000      -0.336871        -9.1667
 249   2.0000      -0.331814        -9.0291
 250   2.0000      -0.324225        -8.8226
 251   2.0000      -0.312169        -8.4945
 252   2.0000      -0.307839        -8.3767
 253   2.0000      -0.302768        -8.2387
 254   2.0000      -0.300027        -8.1642
 255   2.0000      -0.297941        -8.1074
 256   2.0000      -0.230199        -6.2640
 257   0.0000      -0.113369        -3.0849
 258   0.0000      -0.106973        -2.9109
 259   0.0000      -0.092031        -2.5043
 260   0.0000      -0.088885        -2.4187
 261   0.0000      -0.073726        -2.0062

MULLIKEN ATOMIC CHARGES
-----------------------
   0 C :    0.049103
   1 C :   -0.033154
   2 C :   -0.062841
   3 C :   -0.172307
   4 N :    0.203025
   5 C :   -0.069393
   6 C :   -0.171461
   7 N :    0.198426
   8 C :   -0.032904
   9 C :    0.004592
  10 C :    0.135344
  11 O :   -0.116506
  12 C :   -0.056109
  13 C :    0.271405
  14 C :   -0.294257
  15 C :   -0.172037
  16 N :    0.153307
  17 C :   -0.210322
  18 N :    0.180252
  19 C :   -0.011720
  20 C :    0.072808
  21 C :    0.072982
  22 F :   -0.133372
  23 S :    0.117110
  24 C :    0.071365
  25 F :   -0.149147
  26 C :    0.031631
  27 C :   -0.031760
  28 C :   -0.023456
  29 C :    0.043941
  30 C :   -0.074535
  31 C :   -0.036304
  32 C :    0.124415
  33 N :   -0.209090
  34 C :    0.166770
  35 N :   -0.228897
  36 C :    0.109503
  37 C :   -0.169966
  38 C :    0.176907
  39 C :   -0.070487
  40 C :    0.012440
  41 C :    0.004602
  42 C :    0.068516
  43 C :   -0.023791
  44 C :    0.034966
  45 C :   -0.085891
  46 C :    0.021242
  47 C :    0.075703
  48 C :    0.049772
  49 F :   -0.154411
  50 S :    0.145628
  51 C :    0.103565
  52 F :   -0.139429
  53 C :    0.011020
  54 C :    0.026845
  55 C :   -0.141020
  56 C :    0.147086
  57 O :   -0.112887
  58 C :    0.014830
  59 C :   -0.026374
  60 C :   -0.048795
  61 C :   -0.057983
  62 C :   -0.007921
  63 C :    0.023360
  64 C :    0.278380
  65 C :   -0.305281
  66 C :   -0.189149
  67 N :    0.186367
  68 C :   -0.176108
  69 N :    0.165357
  70 C :   -0.156483
  71 N :    0.180613
  72 C :   -0.154674
  73 N :    0.167431
  74 H :    0.028004
  75 H :    0.019499
  76 H :    0.036373
  77 H :   -0.024720
  78 H :   -0.006914
  79 H :   -0.019498
  80 H :    0.000088
  81 H :    0.087740
  82 H :    0.089602
  83 H :   -0.028550
  84 H :   -0.019838
  85 H :    0.100623
  86 H :    0.091475
  87 H :   -0.007981
  88 H :    0.047145
  89 H :   -0.001410
  90 H :   -0.024975
  91 H :   -0.033411
  92 H :   -0.015736
  93 H :    0.012884
  94 H :    0.019126
  95 H :    0.039027
  96 H :    0.008312
  97 H :    0.012745
Sum of atomic charges:   -0.0000000

LOEWDIN ATOMIC CHARGES
----------------------
   0 C :    0.002210
   1 C :    0.037111
   2 C :   -0.023610
   3 C :   -0.031395
   4 N :   -0.010353
   5 C :   -0.026570
   6 C :   -0.031901
   7 N :   -0.012430
   8 C :    0.048174
   9 C :   -0.025982
  10 C :    0.076882
  11 O :   -0.112768
  12 C :   -0.086237
  13 C :    0.079257
  14 C :   -0.118633
  15 C :   -0.014362
  16 N :   -0.044639
  17 C :   -0.016088
  18 N :   -0.037249
  19 C :    0.085707
  20 C :   -0.105270
  21 C :   -0.051599
  22 F :   -0.022607
  23 S :    0.439393
  24 C :   -0.078814
  25 F :   -0.044936
  26 C :   -0.072216
  27 C :   -0.039485
  28 C :    0.001615
  29 C :   -0.017052
  30 C :   -0.036630
  31 C :   -0.039049
  32 C :    0.025075
  33 N :   -0.114931
  34 C :    0.027252
  35 N :   -0.118505
  36 C :   -0.018515
  37 C :    0.059099
  38 C :   -0.032599
  39 C :   -0.038258
  40 C :   -0.021488
  41 C :   -0.038854
  42 C :   -0.022819
  43 C :   -0.001734
  44 C :   -0.034473
  45 C :    0.001161
  46 C :   -0.031779
  47 C :   -0.088920
  48 C :   -0.072733
  49 F :   -0.043498
  50 S :    0.459910
  51 C :   -0.054095
  52 F :   -0.033184
  53 C :   -0.111002
  54 C :    0.084748
  55 C :   -0.088640
  56 C :    0.086467
  57 O :   -0.114760
  58 C :   -0.028030
  59 C :    0.057757
  60 C :   -0.025608
  61 C :   -0.021560
  62 C :    0.040136
  63 C :    0.008137
  64 C :    0.065533
  65 C :   -0.109925
  66 C :   -0.013911
  67 N :   -0.035359
  68 C :   -0.014271
  69 N :   -0.037600
  70 C :   -0.022925
  71 N :   -0.022857
  72 C :   -0.015513
  73 N :   -0.034998
  74 H :    0.053925
  75 H :    0.054824
  76 H :    0.051859
  77 H :    0.031933
  78 H :    0.032223
  79 H :   -0.005513
  80 H :    0.018835
  81 H :    0.049498
  82 H :    0.054179
  83 H :   -0.005253
  84 H :    0.009532
  85 H :    0.053586
  86 H :    0.054810
  87 H :    0.026267
  88 H :    0.068668
  89 H :    0.025490
  90 H :    0.029792
  91 H :    0.029386
  92 H :    0.028466
  93 H :    0.028241
  94 H :    0.033445
  95 H :    0.053650
  96 H :    0.051758
  97 H :    0.047994

  Mayer bond orders larger than 0.100000
B(  0-C ,  1-C ) :   1.3561 B(  0-C ,  9-C ) :   1.3303 B(  0-C , 13-C ) :   0.9673
B(  1-C ,  2-C ) :   1.3945 B(  1-C , 74-H ) :   0.9904 B(  2-C ,  3-C ) :   1.0850
B(  2-C ,  5-C ) :   1.3980 B(  3-C ,  4-N ) :   3.0447 B(  5-C ,  6-C ) :   1.0896
B(  5-C ,  8-C ) :   1.3703 B(  6-C ,  7-N ) :   3.0436 B(  8-C ,  9-C ) :   1.3663
B(  8-C , 75-H ) :   1.0137 B(  9-C , 10-C ) :   0.9041 B( 10-C , 11-O ) :   2.2721
B( 10-C , 12-C ) :   0.9210 B( 12-C , 13-C ) :   1.0509 B( 12-C , 19-C ) :   1.6835
B( 13-C , 14-C ) :   1.6858 B( 14-C , 15-C ) :   1.1522 B( 14-C , 17-C ) :   1.1438
B( 15-C , 16-N ) :   2.8870 B( 17-C , 18-N ) :   2.9383 B( 19-C , 20-C ) :   1.1135
B( 19-C , 76-H ) :   0.9204 B( 20-C , 21-C ) :   1.3852 B( 20-C , 26-C ) :   1.1866
B( 21-C , 22-F ) :   1.1515 B( 21-C , 23-S ) :   1.1600 B( 23-S , 24-C ) :   1.0824
B( 24-C , 25-F ) :   1.1556 B( 24-C , 26-C ) :   1.5701 B( 26-C , 27-C ) :   0.9272
B( 27-C , 28-C ) :   1.6011 B( 27-C , 44-C ) :   1.1407 B( 28-C , 29-C ) :   1.1157
B( 28-C , 77-H ) :   0.9990 B( 29-C , 30-C ) :   1.5151 B( 29-C , 42-C ) :   1.1154
B( 30-C , 31-C ) :   1.0498 B( 30-C , 36-C ) :   1.0686 B( 31-C , 32-C ) :   1.0318
B( 31-C , 34-C ) :   1.0348 B( 31-C , 78-H ) :   0.8745 B( 32-C , 33-N ) :   1.1055
B( 32-C , 79-H ) :   0.9245 B( 32-C , 80-H ) :   0.9459 B( 33-N , 81-H ) :   0.9704
B( 33-N , 82-H ) :   0.9674 B( 34-C , 35-N ) :   1.0953 B( 34-C , 83-H ) :   0.9281
B( 34-C , 84-H ) :   0.9332 B( 35-N , 85-H ) :   0.9674 B( 35-N , 86-H ) :   0.9662
B( 36-C , 37-C ) :   1.6223 B( 36-C , 41-C ) :   1.0651 B( 37-C , 38-C ) :   0.9631
B( 37-C , 87-H ) :   0.9809 B( 38-C , 39-C ) :   0.9900 B( 38-C , 45-C ) :   0.9739
B( 38-C , 88-H ) :   0.8443 B( 39-C , 40-C ) :   1.7020 B( 39-C , 89-H ) :   0.9672
B( 40-C , 41-C ) :   1.1368 B( 40-C , 90-H ) :   0.9782 B( 41-C , 42-C ) :   1.4313
B( 42-C , 43-C ) :   1.1350 B( 43-C , 44-C ) :   1.6067 B( 43-C , 91-H ) :   0.9919
B( 44-C , 92-H ) :   0.9778 B( 45-C , 46-C ) :   1.8549 B( 45-C , 93-H ) :   0.9760
B( 46-C , 47-C ) :   1.0650 B( 46-C , 94-H ) :   0.9409 B( 47-C , 48-C ) :   1.4964
B( 47-C , 53-C ) :   1.1516 B( 48-C , 49-F ) :   1.1286 B( 48-C , 50-S ) :   1.1135
B( 50-S , 51-C ) :   1.1537 B( 51-C , 52-F ) :   1.1659 B( 51-C , 53-C ) :   1.4381
B( 53-C , 54-C ) :   1.0363 B( 54-C , 55-C ) :   1.7237 B( 54-C , 95-H ) :   0.9444
B( 55-C , 56-C ) :   0.9333 B( 55-C , 64-C ) :   1.0179 B( 56-C , 57-O ) :   2.2932
B( 56-C , 58-C ) :   0.8997 B( 58-C , 59-C ) :   1.3722 B( 58-C , 63-C ) :   1.3304
B( 59-C , 60-C ) :   1.3592 B( 59-C , 96-H ) :   1.0021 B( 60-C , 61-C ) :   1.3984
B( 60-C , 72-C ) :   1.1089 B( 61-C , 62-C ) :   1.3984 B( 61-C , 70-C ) :   1.0942
B( 62-C , 63-C ) :   1.3755 B( 62-C , 97-H ) :   0.9746 B( 63-C , 64-C ) :   0.9888
B( 64-C , 65-C ) :   1.6729 B( 65-C , 66-C ) :   1.1706 B( 65-C , 68-C ) :   1.1467
B( 66-C , 67-N ) :   3.0083 B( 68-C , 69-N ) :   2.9202 B( 70-C , 71-N ) :   2.9607
B( 72-C , 73-N ) :   2.9592

-----------------------------------------------------------------------------
         ABSORPTION SPECTRUM VIA TRANSITION ELECTRIC DIPOLE MOMENTS
-----------------------------------------------------------------------------
State   Energy  Wavelength   fosc         T2         TX        TY        TZ
        (cm-1)    (nm)                  (au**2)     (au)      (au)      (au)
-----------------------------------------------------------------------------
   0    9466.9   1056.3   0.000175624   0.00611   0.05473  -0.01115  -0.05466
   1   11955.2    836.5   0.000722280   0.01989   0.00881   0.08788   0.10995
   2   13859.5    721.5   0.003271011   0.07770  -0.10695  -0.18828  -0.17553
   3   14744.4    678.2   0.062317466   1.39142  -0.91653  -0.52918  -0.52092
   4   18048.4    554.1   0.000976908   0.01782   0.10048   0.02477  -0.08432
   5   21769.7    459.4   0.034698029   0.52472  -0.53727   0.34846  -0.33857
   6   24626.4    406.1   0.218420303   2.91990  -0.20594   1.67825   0.24688
   7   26116.5    382.9   0.108169434   1.36353  -0.39092   0.19776  -1.08241
   8   26762.7    373.7   0.018195672   0.22383  -0.02117  -0.46395   0.09019
   9   27272.5    366.7   0.006532548   0.07886  -0.11185  -0.11083  -0.23251
  10   27382.4    365.2   0.060276550   0.72469  -0.66262   0.38595   0.36968
  11   27801.5    359.7   0.111274281   1.31766   0.23059  -1.04443   0.41671
  12   28044.1    356.6   0.099603991   1.16926   0.32470   0.00640  -1.03140
  13   28725.2    348.1   0.032827030   0.37622  -0.00828   0.27045  -0.55046
  14   28924.1    345.7   0.013014365   0.14813  -0.03931   0.31841  -0.21260
  15   29455.0    339.5   0.008030398   0.08975   0.03317   0.16844   0.24552
  16   29681.6    336.9   0.009940595   0.11026   0.04797  -0.15999   0.28698
  17   29871.2    334.8   0.004673900   0.05151   0.20848  -0.08290   0.03429
  18   30070.3    332.6   0.039546320   0.43296   0.08712   0.63352   0.15499
  19   30195.9    331.2   0.031613188   0.34466  -0.46755  -0.12252   0.33324
  20   30269.4    330.4   0.016758495   0.18227   0.40032   0.08772  -0.11964
  21   30609.7    326.7   0.054410342   0.58519   0.54722   0.26405  -0.46477
  22   30862.4    324.0   0.053859987   0.57453  -0.58038  -0.45981  -0.16204
  23   31015.2    322.4   0.068326208   0.72525  -0.15606  -0.83593  -0.04610
  24   31252.0    320.0   0.003792405   0.03995  -0.17948   0.02272   0.08496
  25   31362.5    318.9   0.060247497   0.63242   0.47245  -0.07537  -0.63523
  26   31521.6    317.2   0.143666541   1.50046   0.24010   1.08285  -0.51984
  27   31589.6    316.6   0.000987524   0.01029  -0.08395   0.05693  -0.00161
  28   31719.0    315.3   0.008562416   0.08887  -0.21291  -0.12049   0.17035
  29   31957.1    312.9   0.018651491   0.19214   0.03620  -0.34117   0.27283
  30   32138.3    311.2   0.079776343   0.81720   0.34870   0.49905  -0.66825
  31   32289.3    309.7   0.052552583   0.53581  -0.09355  -0.23296   0.68760
  32   32449.9    308.2   0.011047717   0.11208  -0.10873  -0.13156   0.28801
  33   32491.9    307.8   0.058044848   0.58812   0.44852   0.39763  -0.47837
  34   32660.3    306.2   0.019650904   0.19808   0.03354   0.19688   0.39773
  35   32845.5    304.5   0.251589492   2.52169   0.94546   0.88622  -0.91784
  36   33302.8    300.3   0.011272275   0.11143   0.04457  -0.27777   0.17969
  37   33543.0    298.1   0.506387487   4.97000  -1.88667  -0.18071   1.17381
  38   33898.5    295.0   0.021338437   0.20723   0.16959   0.42222   0.01432
  39   34028.5    293.9   0.028721785   0.27787  -0.25489  -0.26826   0.37542
  40   34174.1    292.6   0.007876477   0.07588   0.06630   0.25114   0.09172
  41   34618.8    288.9   0.242822755   2.30915  -1.11605  -0.59392   0.84311
  42   34814.0    287.2   0.013421007   0.12691  -0.21190  -0.24645   0.14586
  43   34979.7    285.9   0.011303178   0.10638   0.12493   0.24747  -0.17184
  44   35156.2    284.4   0.051233020   0.47976  -0.60918  -0.01244   0.32941
  45   35310.5    283.2   0.053405130   0.49791  -0.50268  -0.30732   0.38832
  46   35757.4    279.7   0.228349611   2.10237  -1.30546  -0.35388   0.52241
  47   36347.0    275.1   0.022495345   0.20375  -0.07518  -0.24171   0.37373
  48   36571.3    273.4   0.080934395   0.72857  -0.60028  -0.44403   0.41361
  49   36738.5    272.2   0.151649143   1.35892   0.80439   0.58319  -0.60973
  50   36844.4    271.4   0.032406469   0.28956   0.34895  -0.34683  -0.21794
  51   36917.4    270.9   0.027387714   0.24423   0.10298   0.20121  -0.43948
  52   37065.3    269.8   0.000797892   0.00709  -0.01237  -0.07251   0.04095
  53   37461.2    266.9   0.020777666   0.18260  -0.33255   0.01896  -0.26767
  54   37652.5    265.6   0.062196815   0.54381   0.65090  -0.34652  -0.00797
  55   37989.8    263.2   0.122198407   1.05895   0.58634   0.43383  -0.72591
  56   38084.0    262.6   0.248161822   2.14520  -0.79918  -1.04232   0.64813
  57   38371.9    260.6   0.091465625   0.78473  -0.49655  -0.69792   0.22599
  58   38434.6    260.2   0.003487307   0.02987   0.12846  -0.10402   0.05050
  59   38801.8    257.7   0.001304959   0.01107  -0.07743  -0.01430  -0.06980
  60   39046.0    256.1   0.272213651   2.29514  -0.44454   1.17493   0.84680
  61   39473.0    253.3   0.041408121   0.34535   0.43488   0.19001   0.34659
  62   39518.9    253.0   0.136166810   1.13434   0.41252   0.91252  -0.36258
  63   39710.2    251.8   0.075955827   0.62970   0.19327   0.42828  -0.63947
  64   40227.4    248.6   0.014565448   0.11920   0.11513   0.21694  -0.24265

FINAL SINGLE POINT ENERGY     -4037.553831279151

DIPOLE MOMENT
-------------
                                X             Y             Z
Electronic contribution:    -14.63163      12.69178      36.03775
Nuclear contribution   :     16.11931     -13.16286     -40.04462
                        -----------------------------------------
Total Dipole Moment    :      1.48767      -0.47108      -4.00686
                        -----------------------------------------
Magnitude (a.u.)       :      4.30001
Magnitude (Debye)      :     10.92974

Rotational constants in cm-1:     0.001383     0.000583     0.000491
Rotational constants in MHz :    41.472927    17.491356    14.732563

                             ****ORCA TERMINATED NORMALLY****
TOTAL RUN TIME: 0 days 0 hours 12 minutes 55 seconds 708 msec
