                         Program Version 4.2.0 -  RELEASE  -
|  1> # ORCA input file
|  2> # SCF done       -196.293065156399          0.000815910656
|  3> ! CAM-B3LYP def2-SVP def2/J RIJCOSX Grid4 TightSCF
|  4> %maxcore 5000
|  5> %tddft
|  6>     Mode sTDDFT
|  7>     Ethresh 5.0
|  8>     maxcore 5000
|  9> end
| 10>
| 11> %pal
| 12>   nprocs 6
| 13>   end
| 14> * xyz 0 1
| 15>    C       -4.56045        -6.13600         0.07406
| 16>    C       -3.81776        -6.57817         1.12997
| 17>    C       -4.17702        -7.68872         1.92451
| 18>    N       -4.42914        -8.58618         2.59253
| 19>    C       -2.70274        -5.88251         1.65698
| 20>    N       -1.92515        -5.28947         2.25991
| 21>    C       -5.90886        -6.57714        -0.27510
| 22>    C       -6.52138        -5.59836        -1.08356
| 23>    C       -7.82616        -5.73016        -1.51974
| 24>    C       -8.53055        -6.87149        -1.15931
| 25>    C       -7.91880        -7.86016        -0.37575
| 26>    C       -6.61120        -7.71712         0.07604
| 27>   Cl       -8.78956        -9.27770         0.03239
| 28>   Cl      -10.14360        -7.07904        -1.69845
| 29>    C       -5.55559        -4.52804        -1.37840
| 30>    O       -5.72317        -3.51330        -2.01438
| 31>    C       -4.27105        -4.99000        -0.76570
| 32>    C       -3.10957        -4.42958        -1.18615
| 33>    C       -1.78619        -4.90607        -0.99807
| 34>    N       -1.50103        -6.04891        -0.39553
| 35>    C       -0.16276        -6.19071        -0.46545
| 36>    C        0.45314        -5.06528        -1.17938
| 37>    C        1.91606        -5.22941        -1.24453
| 38>    O        2.72763        -4.50712        -1.78080
| 39>    C        2.12950        -6.49092        -0.51186
| 40>    C        0.83044        -7.05188        -0.06701
| 41>    N        1.01625        -8.21552         0.59899
| 42>    C        2.31222        -8.40376         0.60844
| 43>    C        3.06852        -7.36256        -0.06786
| 44>    C       -0.57518        -4.22574        -1.52344
| 45>    C       -0.59272        -3.02190        -2.27701
| 46>    C        0.47305        -2.52386        -2.95291
| 47>    C        0.37327        -1.43035        -3.87623
| 48>    S        1.82633        -0.45866        -3.88878
| 49>    C        1.66913         0.52991        -5.33525
| 50>    C        2.74331         1.11699        -5.93279
| 51>    S        2.28980         2.07119        -7.28429
| 52>    C        0.63560         1.66934        -7.05662
| 53>    C        0.44981         0.84925        -5.98603
| 54>    S       -1.14169         0.28311        -5.50480
| 55>    C       -0.77612        -1.21017        -4.61517
| 56>    C       -1.78284        -2.20408        -4.67841
| 57>    C       -3.08352        -2.05612        -5.06902
| 58>    C       -3.96003        -3.15277        -4.93409
| 59>    N       -3.56893        -4.26528        -4.29944
| 60>    C       -4.63074        -5.07526        -4.28698
| 61>    C       -5.78271        -4.47457        -4.97690
| 62>    C       -6.95049        -5.37693        -4.90391
| 63>    O       -8.08194        -5.17600        -5.28150
| 64>    C       -6.40712        -6.54978        -4.19654
| 65>    C       -5.01200        -6.30724        -3.79546
| 66>    N       -4.52375        -7.35392        -3.09257
| 67>    C       -5.50729        -8.23143        -3.05936
| 68>    C       -6.70563        -7.79421        -3.72754
| 69>    C       -5.36762        -3.23331        -5.39152
| 70>    C       -6.04452        -2.21707        -6.11713
| 71>    C       -7.23642        -2.38594        -6.74651
| 72>    C       -7.82282        -1.31442        -7.46479
| 73>    C       -8.92792        -1.40270        -8.25847
| 74>    C       -9.58736        -0.31176        -8.95521
| 75>    C       -9.12803         0.97006        -9.10358
| 76>    C       -9.81652         1.98206        -9.80747
| 77>    N      -10.32057         2.84993       -10.36390
| 78>    C       -7.89882         1.46177        -8.61434
| 79>    N       -6.90968         1.93298        -8.27020
| 80>    C      -10.82619        -0.83928        -9.52128
| 81>    C      -10.89252        -2.22108        -9.27162
| 82>    C       -9.68945        -2.65337        -8.52461
| 83>    O       -9.38530        -3.78612        -8.23829
| 84>    C      -11.95437        -2.98930        -9.70277
| 85>    C      -12.98285        -2.36299       -10.39548
| 86>    C      -12.92817        -0.98596       -10.64487
| 87>    C      -11.85360        -0.21704       -10.21326
| 88>   Cl      -14.20708        -0.22373       -11.49942
| 89>   Cl      -14.32362        -3.28114       -10.94637
| 90>    H       -8.28366        -4.97103        -2.13517
| 91>    H       -6.16917        -8.49670         0.67504
| 92>    H       -3.23012        -3.56743        -1.83049
| 93>    H        2.73207        -9.27111         1.08745
| 94>    H        4.13541        -7.33407        -0.16827
| 95>    H       -1.53619        -2.49615        -2.32053
| 96>    H        1.45930        -2.93838        -2.78092
| 97>    H        3.77060         1.03915        -5.64019
| 98>    H       -0.11534         2.06197        -7.71144
| 99>    H       -1.50187        -3.20830        -4.38974
|100>    H       -3.46398        -1.10824        -5.41909
|101>    H       -5.37011        -9.17544        -2.56181
|102>    H       -7.61273        -8.35795        -3.81761
|103>    H       -5.54498        -1.25855        -6.19544
|104>    H       -7.74561        -3.33923        -6.72035
|105>    H       -7.34550        -0.34839        -7.35111
|106>    H      -11.98147        -4.04879        -9.50248
|107>    H      -11.84748         0.83986       -10.42348
|108> *
|109>
|110>                          ****END OF INPUT****

CARTESIAN COORDINATES (ANGSTROEM)
---------------------------------
  C     -4.560450   -6.136000    0.074060
  C     -3.817760   -6.578170    1.129970
  C     -4.177020   -7.688720    1.924510
  N     -4.429140   -8.586180    2.592530
  C     -2.702740   -5.882510    1.656980
  N     -1.925150   -5.289470    2.259910
  C     -5.908860   -6.577140   -0.275100
  C     -6.521380   -5.598360   -1.083560
  C     -7.826160   -5.730160   -1.519740
  C     -8.530550   -6.871490   -1.159310
  C     -7.918800   -7.860160   -0.375750
  C     -6.611200   -7.717120    0.076040
  Cl    -8.789560   -9.277700    0.032390
  Cl   -10.143600   -7.079040   -1.698450
  C     -5.555590   -4.528040   -1.378400
  O     -5.723170   -3.513300   -2.014380
  C     -4.271050   -4.990000   -0.765700
  C     -3.109570   -4.429580   -1.186150
  C     -1.786190   -4.906070   -0.998070
  N     -1.501030   -6.048910   -0.395530
  C     -0.162760   -6.190710   -0.465450
  C      0.453140   -5.065280   -1.179380
  C      1.916060   -5.229410   -1.244530
  O      2.727630   -4.507120   -1.780800
  C      2.129500   -6.490920   -0.511860
  C      0.830440   -7.051880   -0.067010
  N      1.016250   -8.215520    0.598990
  C      2.312220   -8.403760    0.608440
  C      3.068520   -7.362560   -0.067860
  C     -0.575180   -4.225740   -1.523440
  C     -0.592720   -3.021900   -2.277010
  C      0.473050   -2.523860   -2.952910
  C      0.373270   -1.430350   -3.876230
  S      1.826330   -0.458660   -3.888780
  C      1.669130    0.529910   -5.335250
  C      2.743310    1.116990   -5.932790
  S      2.289800    2.071190   -7.284290
  C      0.635600    1.669340   -7.056620
  C      0.449810    0.849250   -5.986030
  S     -1.141690    0.283110   -5.504800
  C     -0.776120   -1.210170   -4.615170
  C     -1.782840   -2.204080   -4.678410
  C     -3.083520   -2.056120   -5.069020
  C     -3.960030   -3.152770   -4.934090
  N     -3.568930   -4.265280   -4.299440
  C     -4.630740   -5.075260   -4.286980
  C     -5.782710   -4.474570   -4.976900
  C     -6.950490   -5.376930   -4.903910
  O     -8.081940   -5.176000   -5.281500
  C     -6.407120   -6.549780   -4.196540
  C     -5.012000   -6.307240   -3.795460
  N     -4.523750   -7.353920   -3.092570
  C     -5.507290   -8.231430   -3.059360
  C     -6.705630   -7.794210   -3.727540
  C     -5.367620   -3.233310   -5.391520
  C     -6.044520   -2.217070   -6.117130
  C     -7.236420   -2.385940   -6.746510
  C     -7.822820   -1.314420   -7.464790
  C     -8.927920   -1.402700   -8.258470
  C     -9.587360   -0.311760   -8.955210
  C     -9.128030    0.970060   -9.103580
  C     -9.816520    1.982060   -9.807470
  N    -10.320570    2.849930  -10.363900
  C     -7.898820    1.461770   -8.614340
  N     -6.909680    1.932980   -8.270200
  C    -10.826190   -0.839280   -9.521280
  C    -10.892520   -2.221080   -9.271620
  C     -9.689450   -2.653370   -8.524610
  O     -9.385300   -3.786120   -8.238290
  C    -11.954370   -2.989300   -9.702770
  C    -12.982850   -2.362990  -10.395480
  C    -12.928170   -0.985960  -10.644870
  C    -11.853600   -0.217040  -10.213260
  Cl   -14.207080   -0.223730  -11.499420
  Cl   -14.323620   -3.281140  -10.946370
  H     -8.283660   -4.971030   -2.135170
  H     -6.169170   -8.496700    0.675040
  H     -3.230120   -3.567430   -1.830490
  H      2.732070   -9.271110    1.087450
  H      4.135410   -7.334070   -0.168270
  H     -1.536190   -2.496150   -2.320530
  H      1.459300   -2.938380   -2.780920
  H      3.770600    1.039150   -5.640190
  H     -0.115340    2.061970   -7.711440
  H     -1.501870   -3.208300   -4.389740
  H     -3.463980   -1.108240   -5.419090
  H     -5.370110   -9.175440   -2.561810
  H     -7.612730   -8.357950   -3.817610
  H     -5.544980   -1.258550   -6.195440
  H     -7.745610   -3.339230   -6.720350
  H     -7.345500   -0.348390   -7.351110
  H    -11.981470   -4.048790   -9.502480
  H    -11.847480    0.839860  -10.423480

 Total Charge           Charge          ....    0
 Multiplicity           Mult            ....    1
 Number of Electrons    NEL             ....  558
 Basis Dimension        Dim             .... 1168

ORBITAL ENERGIES
----------------

  NO   OCC          E(Eh)            E(eV)
   0   2.0000    -101.606289     -2764.8477
   1   2.0000    -101.603728     -2764.7780
   2   2.0000    -101.602296     -2764.7390
   3   2.0000    -101.600793     -2764.6981
   4   2.0000     -88.976885     -2421.1841
   5   2.0000     -88.972428     -2421.0629
   6   2.0000     -88.960058     -2420.7263
   7   2.0000     -19.237096      -523.4680
   8   2.0000     -19.228482      -523.2336
   9   2.0000     -19.223430      -523.0961
  10   2.0000     -19.215526      -522.8811
  11   2.0000     -14.431679      -392.7060
  12   2.0000     -14.425570      -392.5397
  13   2.0000     -14.424732      -392.5169
  14   2.0000     -14.421490      -392.4287
  15   2.0000     -14.419975      -392.3875
  16   2.0000     -14.414679      -392.2434
  17   2.0000     -14.412322      -392.1792
  18   2.0000     -14.408247      -392.0683
  19   2.0000     -10.387844      -282.6676
  20   2.0000     -10.386319      -282.6261
  21   2.0000     -10.375783      -282.3394
  22   2.0000     -10.374196      -282.2962
  23   2.0000     -10.363596      -282.0078
  24   2.0000     -10.359238      -281.8892
  25   2.0000     -10.358904      -281.8801
  26   2.0000     -10.358407      -281.8666
  27   2.0000     -10.358243      -281.8621
  28   2.0000     -10.357490      -281.8416
  29   2.0000     -10.351824      -281.6875
  30   2.0000     -10.351023      -281.6657
  31   2.0000     -10.350780      -281.6590
  32   2.0000     -10.349811      -281.6327
  33   2.0000     -10.347977      -281.5828
  34   2.0000     -10.347856      -281.5795
  35   2.0000     -10.342656      -281.4380
  36   2.0000     -10.341577      -281.4086
  37   2.0000     -10.339073      -281.3405
  38   2.0000     -10.336803      -281.2787
  39   2.0000     -10.327232      -281.0183
  40   2.0000     -10.325700      -280.9766
  41   2.0000     -10.325179      -280.9624
  42   2.0000     -10.325143      -280.9614
  43   2.0000     -10.324630      -280.9475
  44   2.0000     -10.324605      -280.9468
  45   2.0000     -10.323769      -280.9240
  46   2.0000     -10.323296      -280.9112
  47   2.0000     -10.322739      -280.8960
  48   2.0000     -10.321367      -280.8587
  49   2.0000     -10.321234      -280.8551
  50   2.0000     -10.320916      -280.8464
  51   2.0000     -10.319711      -280.8136
  52   2.0000     -10.319270      -280.8016
  53   2.0000     -10.318950      -280.7929
  54   2.0000     -10.316979      -280.7393
  55   2.0000     -10.316861      -280.7360
  56   2.0000     -10.316690      -280.7314
  57   2.0000     -10.313933      -280.6564
  58   2.0000     -10.313840      -280.6539
  59   2.0000     -10.312420      -280.6152
  60   2.0000     -10.311763      -280.5973
  61   2.0000     -10.311289      -280.5844
  62   2.0000     -10.311247      -280.5833
  63   2.0000     -10.309695      -280.5411
  64   2.0000     -10.309230      -280.5284
  65   2.0000     -10.307799      -280.4895
  66   2.0000     -10.305970      -280.4397
  67   2.0000     -10.305347      -280.4227
  68   2.0000     -10.304114      -280.3892
  69   2.0000     -10.304083      -280.3883
  70   2.0000     -10.303272      -280.3663
  71   2.0000     -10.296969      -280.1948
  72   2.0000     -10.291793      -280.0539
  73   2.0000     -10.289997      -280.0051
  74   2.0000     -10.288236      -279.9571
  75   2.0000      -9.561330      -260.1770
  76   2.0000      -9.558731      -260.1063
  77   2.0000      -9.557389      -260.0698
  78   2.0000      -9.555871      -260.0285
  79   2.0000      -8.072978      -219.6769
  80   2.0000      -8.067904      -219.5388
  81   2.0000      -8.055409      -219.1988
  82   2.0000      -7.331694      -199.5055
  83   2.0000      -7.329114      -199.4353
  84   2.0000      -7.327777      -199.3990
  85   2.0000      -7.326279      -199.3582
  86   2.0000      -7.321649      -199.2322
  87   2.0000      -7.320806      -199.2093
  88   2.0000      -7.319010      -199.1604
  89   2.0000      -7.318236      -199.1393
  90   2.0000      -7.317653      -199.1235
  91   2.0000      -7.316894      -199.1028
  92   2.0000      -7.316105      -199.0814
  93   2.0000      -7.315380      -199.0616
  94   2.0000      -6.042307      -164.4195
  95   2.0000      -6.038121      -164.3056
  96   2.0000      -6.037964      -164.3014
  97   2.0000      -6.035107      -164.2236
  98   2.0000      -6.033636      -164.1836
  99   2.0000      -6.028265      -164.0374
 100   2.0000      -6.025844      -163.9715
 101   2.0000      -6.021829      -163.8623
 102   2.0000      -6.014943      -163.6749
 103   2.0000      -1.151853       -31.3435
 104   2.0000      -1.142602       -31.0918
 105   2.0000      -1.139650       -31.0115
 106   2.0000      -1.131036       -30.7771
 107   2.0000      -1.096432       -29.8354
 108   2.0000      -1.082881       -29.4667
 109   2.0000      -1.076123       -29.2828
 110   2.0000      -1.061379       -28.8816
 111   2.0000      -1.037583       -28.2341
 112   2.0000      -1.034164       -28.1410
 113   2.0000      -1.021574       -27.7984
 114   2.0000      -1.020983       -27.7823
 115   2.0000      -1.019012       -27.7287
 116   2.0000      -1.001423       -27.2501
 117   2.0000      -1.000861       -27.2348
 118   2.0000      -0.995962       -27.1015
 119   2.0000      -0.995065       -27.0771
 120   2.0000      -0.986219       -26.8364
 121   2.0000      -0.967967       -26.3397
 122   2.0000      -0.963972       -26.2310
 123   2.0000      -0.955052       -25.9883
 124   2.0000      -0.945686       -25.7334
 125   2.0000      -0.943709       -25.6796
 126   2.0000      -0.939805       -25.5734
 127   2.0000      -0.933829       -25.4108
 128   2.0000      -0.930843       -25.3295
 129   2.0000      -0.922865       -25.1124
 130   2.0000      -0.912615       -24.8335
 131   2.0000      -0.904784       -24.6204
 132   2.0000      -0.897457       -24.4210
 133   2.0000      -0.886060       -24.1109
 134   2.0000      -0.881487       -23.9865
 135   2.0000      -0.876450       -23.8494
 136   2.0000      -0.867679       -23.6107
 137   2.0000      -0.866679       -23.5835
 138   2.0000      -0.863549       -23.4984
 139   2.0000      -0.858684       -23.3660
 140   2.0000      -0.841512       -22.8987
 141   2.0000      -0.832221       -22.6459
 142   2.0000      -0.824341       -22.4315
 143   2.0000      -0.810021       -22.0418
 144   2.0000      -0.792266       -21.5586
 145   2.0000      -0.786172       -21.3928
 146   2.0000      -0.780635       -21.2422
 147   2.0000      -0.777641       -21.1607
 148   2.0000      -0.770702       -20.9719
 149   2.0000      -0.762493       -20.7485
 150   2.0000      -0.761994       -20.7349
 151   2.0000      -0.754664       -20.5354
 152   2.0000      -0.738565       -20.0974
 153   2.0000      -0.731937       -19.9170
 154   2.0000      -0.723386       -19.6843
 155   2.0000      -0.714774       -19.4500
 156   2.0000      -0.710705       -19.3393
 157   2.0000      -0.699491       -19.0341
 158   2.0000      -0.694479       -18.8977
 159   2.0000      -0.693042       -18.8586
 160   2.0000      -0.681636       -18.5482
 161   2.0000      -0.679086       -18.4789
 162   2.0000      -0.674878       -18.3644
 163   2.0000      -0.669756       -18.2250
 164   2.0000      -0.664203       -18.0739
 165   2.0000      -0.658020       -17.9056
 166   2.0000      -0.651421       -17.7261
 167   2.0000      -0.643964       -17.5232
 168   2.0000      -0.640970       -17.4417
 169   2.0000      -0.636320       -17.3152
 170   2.0000      -0.632010       -17.1979
 171   2.0000      -0.626333       -17.0434
 172   2.0000      -0.622974       -16.9520
 173   2.0000      -0.621658       -16.9162
 174   2.0000      -0.613305       -16.6889
 175   2.0000      -0.609617       -16.5885
 176   2.0000      -0.605500       -16.4765
 177   2.0000      -0.600577       -16.3425
 178   2.0000      -0.593073       -16.1383
 179   2.0000      -0.589179       -16.0324
 180   2.0000      -0.586171       -15.9505
 181   2.0000      -0.578271       -15.7356
 182   2.0000      -0.574618       -15.6362
 183   2.0000      -0.572670       -15.5832
 184   2.0000      -0.569469       -15.4960
 185   2.0000      -0.565827       -15.3969
 186   2.0000      -0.562740       -15.3129
 187   2.0000      -0.561463       -15.2782
 188   2.0000      -0.559324       -15.2200
 189   2.0000      -0.553469       -15.0606
 190   2.0000      -0.552576       -15.0363
 191   2.0000      -0.548787       -14.9333
 192   2.0000      -0.546155       -14.8616
 193   2.0000      -0.544804       -14.8249
 194   2.0000      -0.543857       -14.7991
 195   2.0000      -0.542556       -14.7637
 196   2.0000      -0.536845       -14.6083
 197   2.0000      -0.532134       -14.4801
 198   2.0000      -0.529942       -14.4204
 199   2.0000      -0.529376       -14.4050
 200   2.0000      -0.524513       -14.2727
 201   2.0000      -0.520629       -14.1670
 202   2.0000      -0.517735       -14.0883
 203   2.0000      -0.516593       -14.0572
 204   2.0000      -0.514259       -13.9937
 205   2.0000      -0.513680       -13.9779
 206   2.0000      -0.511611       -13.9216
 207   2.0000      -0.509909       -13.8753
 208   2.0000      -0.508456       -13.8358
 209   2.0000      -0.507141       -13.8000
 210   2.0000      -0.500706       -13.6249
 211   2.0000      -0.500072       -13.6077
 212   2.0000      -0.499230       -13.5847
 213   2.0000      -0.498247       -13.5580
 214   2.0000      -0.495976       -13.4962
 215   2.0000      -0.495353       -13.4792
 216   2.0000      -0.489064       -13.3081
 217   2.0000      -0.487524       -13.2662
 218   2.0000      -0.487187       -13.2570
 219   2.0000      -0.480777       -13.0826
 220   2.0000      -0.478727       -13.0268
 221   2.0000      -0.477904       -13.0044
 222   2.0000      -0.475318       -12.9341
 223   2.0000      -0.471476       -12.8295
 224   2.0000      -0.471209       -12.8222
 225   2.0000      -0.470875       -12.8131
 226   2.0000      -0.464710       -12.6454
 227   2.0000      -0.463292       -12.6068
 228   2.0000      -0.461004       -12.5446
 229   2.0000      -0.456183       -12.4134
 230   2.0000      -0.455154       -12.3854
 231   2.0000      -0.449914       -12.2428
 232   2.0000      -0.447878       -12.1874
 233   2.0000      -0.447002       -12.1636
 234   2.0000      -0.443314       -12.0632
 235   2.0000      -0.441291       -12.0081
 236   2.0000      -0.440249       -11.9798
 237   2.0000      -0.438185       -11.9236
 238   2.0000      -0.437854       -11.9146
 239   2.0000      -0.434491       -11.8231
 240   2.0000      -0.433997       -11.8097
 241   2.0000      -0.433072       -11.7845
 242   2.0000      -0.431634       -11.7453
 243   2.0000      -0.430354       -11.7105
 244   2.0000      -0.427333       -11.6283
 245   2.0000      -0.420127       -11.4322
 246   2.0000      -0.416605       -11.3364
 247   2.0000      -0.415105       -11.2956
 248   2.0000      -0.414117       -11.2687
 249   2.0000      -0.410285       -11.1644
 250   2.0000      -0.409606       -11.1460
 251   2.0000      -0.396181       -10.7806
 252   2.0000      -0.395303       -10.7567
 253   2.0000      -0.386739       -10.5237
 254   2.0000      -0.385084       -10.4787
 255   2.0000      -0.383447       -10.4341
 256   2.0000      -0.376291       -10.2394
 257   2.0000      -0.371308       -10.1038
 258   2.0000      -0.367382        -9.9970
 259   2.0000      -0.365840        -9.9550
 260   2.0000      -0.361476        -9.8363
 261   2.0000      -0.360172        -9.8008
 262   2.0000      -0.357707        -9.7337
 263   2.0000      -0.356215        -9.6931
 264   2.0000      -0.350071        -9.5259
 265   2.0000      -0.349518        -9.5109
 266   2.0000      -0.345583        -9.4038
 267   2.0000      -0.343561        -9.3488
 268   2.0000      -0.339524        -9.2389
 269   2.0000      -0.333731        -9.0813
 270   2.0000      -0.331765        -9.0278
 271   2.0000      -0.329350        -8.9621
 272   2.0000      -0.320587        -8.7236
 273   2.0000      -0.315104        -8.5744
 274   2.0000      -0.311549        -8.4777
 275   2.0000      -0.304844        -8.2952
 276   2.0000      -0.299524        -8.1505
 277   2.0000      -0.287915        -7.8346
 278   2.0000      -0.262962        -7.1556
 279   0.0000      -0.139303        -3.7906
 280   0.0000      -0.128931        -3.5084
 281   0.0000      -0.100580        -2.7369
 282   0.0000      -0.084132        -2.2894
 283   0.0000      -0.073895        -2.0108

MULLIKEN ATOMIC CHARGES
-----------------------
   0 C :    0.261208
   1 C :   -0.232905
   2 C :   -0.202110
   3 N :    0.167801
   4 C :   -0.172791
   5 N :    0.152860
   6 C :    0.054372
   7 C :   -0.019338
   8 C :   -0.005815
   9 C :    0.043051
  10 C :    0.054653
  11 C :   -0.039209
  12 Cl:   -0.030677
  13 Cl:   -0.034100
  14 C :    0.134235
  15 O :   -0.138993
  16 C :   -0.038822
  17 C :    0.001177
  18 C :    0.079926
  19 N :   -0.062431
  20 C :    0.102285
  21 C :   -0.159964
  22 C :    0.226737
  23 O :   -0.132016
  24 C :   -0.018260
  25 C :   -0.017625
  26 N :   -0.048129
  27 C :    0.101549
  28 C :   -0.091388
  29 C :    0.059347
  30 C :   -0.047058
  31 C :    0.018465
  32 C :   -0.038023
  33 S :    0.146808
  34 C :   -0.015118
  35 C :   -0.114588
  36 S :    0.143587
  37 C :   -0.115563
  38 C :    0.002677
  39 S :    0.092086
  40 C :   -0.044215
  41 C :   -0.014602
  42 C :   -0.073765
  43 C :    0.077464
  44 N :   -0.092030
  45 C :    0.057827
  46 C :   -0.122285
  47 C :    0.187457
  48 O :   -0.122663
  49 C :   -0.006326
  50 C :   -0.073731
  51 N :   -0.069576
  52 C :    0.089398
  53 C :   -0.098061
  54 C :    0.073676
  55 C :   -0.020944
  56 C :    0.015879
  57 C :   -0.044427
  58 C :   -0.056475
  59 C :    0.318878
  60 C :   -0.342177
  61 C :   -0.190509
  62 N :    0.160352
  63 C :   -0.191600
  64 N :    0.152717
  65 C :    0.027683
  66 C :   -0.012107
  67 C :    0.142039
  68 O :   -0.119157
  69 C :   -0.029378
  70 C :    0.060894
  71 C :    0.049903
  72 C :   -0.013497
  73 Cl:   -0.033971
  74 Cl:   -0.040245
  75 H :    0.009624
  76 H :    0.003098
  77 H :    0.006590
  78 H :    0.019301
  79 H :    0.003861
  80 H :    0.035686
  81 H :    0.037640
  82 H :    0.035118
  83 H :    0.036307
  84 H :    0.070473
  85 H :    0.010018
  86 H :    0.006368
  87 H :   -0.009118
  88 H :   -0.004229
  89 H :    0.051690
  90 H :    0.013773
  91 H :    0.002584
  92 H :    0.000883
Sum of atomic charges:   -0.0000000

LOEWDIN ATOMIC CHARGES
----------------------
   0 C :    0.060750
   1 C :   -0.083144
   2 C :   -0.015746
   3 N :   -0.032239
   4 C :   -0.014852
   5 N :   -0.049687
   6 C :    0.002451
   7 C :   -0.054217
   8 C :    0.013585
   9 C :   -0.140698
  10 C :   -0.127796
  11 C :   -0.020212
  12 Cl:    0.168772
  13 Cl:    0.166368
  14 C :    0.086672
  15 O :   -0.132394
  16 C :   -0.013506
  17 C :    0.034715
  18 C :    0.070780
  19 N :   -0.056656
  20 C :    0.052288
  21 C :   -0.031547
  22 C :    0.071714
  23 O :   -0.133192
  24 C :   -0.037393
  25 C :    0.043969
  26 N :   -0.088800
  27 C :    0.090631
  28 C :   -0.024431
  29 C :   -0.023293
  30 C :    0.008312
  31 C :   -0.018645
  32 C :   -0.138091
  33 S :    0.413475
  34 C :   -0.220151
  35 C :   -0.196608
  36 S :    0.464989
  37 C :   -0.199062
  38 C :   -0.212273
  39 S :    0.360863
  40 C :   -0.188737
  41 C :    0.043807
  42 C :   -0.082293
  43 C :    0.088204
  44 N :   -0.131561
  45 C :    0.045206
  46 C :   -0.012447
  47 C :    0.061549
  48 O :   -0.129667
  49 C :   -0.045956
  50 C :   -0.009557
  51 N :   -0.110297
  52 C :    0.060719
  53 C :   -0.043890
  54 C :   -0.030853
  55 C :    0.018848
  56 C :    0.002571
  57 C :    0.066397
  58 C :   -0.085972
  59 C :    0.074678
  60 C :   -0.132587
  61 C :   -0.020395
  62 N :   -0.044313
  63 C :   -0.018987
  64 N :   -0.049641
  65 C :   -0.014963
  66 C :   -0.042149
  67 C :    0.082306
  68 O :   -0.117559
  69 C :    0.001687
  70 C :   -0.132948
  71 C :   -0.130405
  72 C :   -0.012344
  73 Cl:    0.163073
  74 Cl:    0.161541
  75 H :    0.047808
  76 H :    0.044350
  77 H :    0.042401
  78 H :    0.028110
  79 H :    0.037925
  80 H :    0.039339
  81 H :    0.036324
  82 H :    0.029426
  83 H :    0.030081
  84 H :    0.048264
  85 H :    0.026224
  86 H :    0.021743
  87 H :    0.031518
  88 H :    0.034626
  89 H :    0.039573
  90 H :    0.041928
  91 H :    0.047173
  92 H :    0.044426

  Mayer bond orders larger than 0.100000
B(  0-C ,  1-C ) :   1.7176 B(  0-C ,  6-C ) :   1.0031 B(  0-C , 16-C ) :   1.0119
B(  1-C ,  2-C ) :   1.1437 B(  1-C ,  4-C ) :   1.1342 B(  2-C ,  3-N ) :   2.9849
B(  4-C ,  5-N ) :   2.9715 B(  6-C ,  7-C ) :   1.3250 B(  6-C , 11-C ) :   1.3364
B(  7-C ,  8-C ) :   1.3418 B(  7-C , 14-C ) :   0.9364 B(  8-C ,  9-C ) :   1.3614
B(  8-C , 75-H ) :   1.0124 B(  9-C , 10-C ) :   1.4020 B(  9-C , 13-Cl) :   1.0559
B( 10-C , 11-C ) :   1.3435 B( 10-C , 12-Cl) :   1.0783 B( 11-C , 76-H ) :   0.9935
B( 14-C , 15-O ) :   2.2205 B( 14-C , 16-C ) :   0.9325 B( 16-C , 17-C ) :   1.7000
B( 17-C , 18-C ) :   1.0899 B( 17-C , 77-H ) :   0.9246 B( 18-C , 19-N ) :   1.5566
B( 18-C , 20-C ) :   0.1125 B( 18-C , 29-C ) :   1.0236 B( 19-N , 20-C ) :   1.3108
B( 20-C , 21-C ) :   1.0605 B( 20-C , 25-C ) :   1.4261 B( 21-C , 22-C ) :   0.8899
B( 21-C , 29-C ) :   1.5564 B( 22-C , 23-O ) :   2.2043 B( 22-C , 24-C ) :   0.9233
B( 24-C , 25-C ) :   1.0569 B( 24-C , 28-C ) :   1.6207 B( 25-C , 26-N ) :   1.3087
B( 26-N , 27-C ) :   1.6597 B( 27-C , 28-C ) :   1.0533 B( 27-C , 78-H ) :   0.9888
B( 28-C , 79-H ) :   1.0112 B( 29-C , 30-C ) :   1.1421 B( 30-C , 31-C ) :   1.6613
B( 30-C , 80-H ) :   0.9440 B( 31-C , 32-C ) :   1.1180 B( 31-C , 81-H ) :   0.9323
B( 32-C , 33-S ) :   1.0932 B( 32-C , 40-C ) :   1.5190 B( 33-S , 34-C ) :   0.9661
B( 34-C , 35-C ) :   1.5857 B( 34-C , 38-C ) :   1.2708 B( 35-C , 36-S ) :   1.1885
B( 35-C , 82-H ) :   0.9708 B( 36-S , 37-C ) :   1.1774 B( 37-C , 38-C ) :   1.5954
B( 37-C , 83-H ) :   0.9694 B( 38-C , 39-S ) :   0.9788 B( 39-S , 40-C ) :   1.0034
B( 40-C , 41-C ) :   1.2043 B( 41-C , 42-C ) :   1.5406 B( 41-C , 84-H ) :   0.9577
B( 42-C , 43-C ) :   1.2320 B( 42-C , 85-H ) :   0.9529 B( 43-C , 44-N ) :   1.4727
B( 43-C , 45-C ) :   0.1082 B( 43-C , 54-C ) :   0.9959 B( 44-N , 45-C ) :   1.4090
B( 45-C , 46-C ) :   1.0550 B( 45-C , 50-C ) :   1.3319 B( 46-C , 47-C ) :   0.8791
B( 46-C , 54-C ) :   1.5584 B( 47-C , 48-O ) :   2.2278 B( 47-C , 49-C ) :   0.9252
B( 49-C , 50-C ) :   1.0988 B( 49-C , 53-C ) :   1.5291 B( 50-C , 51-N ) :   1.3338
B( 51-N , 52-C ) :   1.5899 B( 52-C , 53-C ) :   1.1220 B( 52-C , 86-H ) :   0.9892
B( 53-C , 87-H ) :   1.0095 B( 54-C , 55-C ) :   1.0834 B( 55-C , 56-C ) :   1.6003
B( 55-C , 88-H ) :   0.9740 B( 56-C , 57-C ) :   1.1325 B( 56-C , 89-H ) :   0.9695
B( 57-C , 58-C ) :   1.5635 B( 57-C , 90-H ) :   0.9631 B( 58-C , 59-C ) :   1.0601
B( 58-C , 67-C ) :   0.9333 B( 59-C , 60-C ) :   1.6428 B( 59-C , 65-C ) :   0.9948
B( 60-C , 61-C ) :   1.1369 B( 60-C , 63-C ) :   1.1476 B( 61-C , 62-N ) :   2.9760
B( 63-C , 64-N ) :   2.9730 B( 65-C , 66-C ) :   1.3302 B( 65-C , 72-C ) :   1.3377
B( 66-C , 67-C ) :   0.9331 B( 66-C , 69-C ) :   1.3461 B( 67-C , 68-O ) :   2.2419
B( 69-C , 70-C ) :   1.3422 B( 69-C , 91-H ) :   1.0169 B( 70-C , 71-C ) :   1.4016
B( 70-C , 74-Cl) :   1.0503 B( 71-C , 72-C ) :   1.3645 B( 71-C , 73-Cl) :   1.0767
B( 72-C , 92-H ) :   0.9863

-----------------------------------------------------------------------------
         ABSORPTION SPECTRUM VIA TRANSITION ELECTRIC DIPOLE MOMENTS
-----------------------------------------------------------------------------
State   Energy  Wavelength   fosc         T2         TX        TY        TZ
        (cm-1)    (nm)                  (au**2)     (au)      (au)      (au)
-----------------------------------------------------------------------------
   0   11842.6    844.4   0.058008316   1.61258  -0.67983   0.72160  -0.79353
   1   13712.8    729.2   0.332521998   7.98306  -2.41561  -1.33655  -0.60127
   2   18106.7    552.3   0.149498230   2.71814  -0.81471   1.11200  -0.90435
   3   19268.0    519.0   0.017355623   0.29654  -0.43840   0.19547  -0.25717
   4   19434.7    514.5   0.055128758   0.93385   0.83321   0.36730  -0.32358
   5   19631.0    509.4   0.028270759   0.47410   0.51682  -0.31711  -0.32624
   6   20550.0    486.6   0.102951031   1.64928  -0.07954  -1.16386   0.53702
   7   20929.3    477.8   0.149149872   2.34609  -1.23351   0.66180  -0.62174
   8   21254.0    470.5   0.135902975   2.10506   0.89820  -0.43347   1.05375
   9   21286.1    469.8   0.011302368   0.17480   0.33041  -0.00669  -0.25610
  10   21400.6    467.3   0.013623987   0.20958   0.35172   0.22485  -0.18794
  11   22065.7    453.2   0.043917304   0.65523  -0.24284  -0.74546   0.20137
  12   23307.8    429.0   0.335165827   4.73406   1.16264  -1.27212   1.32818
  13   23695.3    422.0   0.178602431   2.48142   1.53173   0.36335   0.05642
  14   23881.0    418.7   0.289985930   3.99760  -1.98951  -0.02610  -0.19688
  15   24188.2    413.4   0.056151261   0.76424  -0.78050  -0.29572  -0.26003
  16   24553.7    407.3   0.416171108   5.57994  -1.67692   1.26984  -1.07488
  17   24810.1    403.1   0.237944321   3.15734   0.98609   1.03651  -1.05386
  18   24962.2    400.6   0.174094861   2.29604  -0.11649   1.21841  -0.89328
  19   25351.3    394.5   0.089683180   1.16462  -0.85459   0.43783  -0.49254
  20   25523.5    391.8   0.075345397   0.97183  -0.48077  -0.65997   0.55239
  21   25872.6    386.5   0.296310715   3.77036   0.32529   1.70760  -0.86524
  22   26030.9    384.2   0.031449398   0.39774  -0.34587   0.52396   0.05988
  23   26309.7    380.1   0.002074652   0.02596   0.11825  -0.10885  -0.01129
  24   26367.1    379.3   0.101196550   1.26351  -0.88104   0.69740  -0.03017
  25   26565.9    376.4   0.012809430   0.15874   0.32325  -0.20616   0.10839
  26   26649.4    375.2   0.007318874   0.09041  -0.05229  -0.29593  -0.01022
  27   27109.1    368.9   0.027565664   0.33476   0.48853  -0.27918  -0.13475
  28   27373.3    365.3   0.008806996   0.10592  -0.00755   0.28058  -0.16474
  29   27439.0    364.4   0.025672704   0.30802   0.43461   0.28873   0.18913
  30   28037.5    356.7   0.059728381   0.70132  -0.49189  -0.59147   0.33097
  31   28229.8    354.2   0.097409557   1.13598   0.71411  -0.37025   0.69924
  32   28681.1    348.7   0.005111648   0.05867   0.08726   0.15761   0.16192
  33   29249.5    341.9   0.056813145   0.63945  -0.25034   0.57408  -0.49721
  34   29465.5    339.4   0.134968097   1.50797   0.91329  -0.04902   0.81943
  35   29670.3    337.0   0.012354196   0.13708   0.31512  -0.05635   0.18602
  36   29695.4    336.8   0.002252864   0.02498   0.04819   0.14263   0.04806
  37   29841.7    335.1   0.002461731   0.02716   0.13896  -0.07551  -0.04632
  38   30324.2    329.8   0.007665942   0.08322  -0.23578   0.08172  -0.14476
  39   30542.0    327.4   0.039477908   0.42553   0.57015   0.30900  -0.07055
  40   30618.6    326.6   0.002283083   0.02455  -0.13546  -0.00319   0.07867
  41   31016.0    322.4   0.117496272   1.24713   0.24485  -0.69387   0.84008
  42   31181.6    320.7   0.010855337   0.11461   0.23046   0.18678  -0.16314
  43   31261.1    319.9   0.131598421   1.38587   0.31471  -0.85470   0.74587
  44   31412.7    318.3   0.062349571   0.65344   0.31397  -0.52643   0.52700
  45   31576.6    316.7   0.001049038   0.01094   0.02269   0.07614   0.06801
  46   31624.9    316.2   0.075456311   0.78549  -0.66319  -0.46780   0.35613
  47   31889.8    313.6   0.213055362   2.19946  -0.92813  -1.14884  -0.13486
  48   32366.0    309.0   0.041213680   0.41921   0.47297   0.35752  -0.26016
  49   32464.0    308.0   0.042024381   0.42616  -0.32474  -0.56624  -0.00856
  50   32837.2    304.5   0.028352197   0.28425   0.28612  -0.13896   0.42787
  51   32969.2    303.3   0.022659279   0.22626   0.16564  -0.19476   0.40112
  52   33079.6    302.3   0.167444677   1.66643  -1.06450   0.35586  -0.63767
  53   33218.9    301.0   0.017372764   0.17217   0.25092  -0.25395   0.21147
  54   33367.6    299.7   0.145802380   1.43852  -0.95732  -0.53606  -0.48447
  55   33638.7    297.3   0.003555982   0.03480  -0.11490   0.00788   0.14676
  56   33767.9    296.1   0.042487508   0.41422   0.38251  -0.28928   0.42921
  57   33815.6    295.7   0.040094163   0.39034   0.61647   0.09705  -0.02966
  58   33936.5    294.7   0.124707082   1.20976   1.06994   0.14943   0.20654
  59   34272.3    291.8   0.011214611   0.10772   0.28466  -0.11503   0.11603
  60   34353.3    291.1   0.006298357   0.06036  -0.02230  -0.03719   0.24182
  61   34593.4    289.1   0.023648759   0.22506   0.23525   0.40024   0.09759
  62   34784.0    287.5   0.128259194   1.21390  -0.49932  -0.84697   0.49723
  63   34838.9    287.0   0.069517517   0.65691  -0.69005  -0.38524   0.17980
  64   34924.3    286.3   0.057014475   0.53744  -0.69169  -0.18446  -0.15805
  65   35163.3    284.4   0.050677402   0.47446   0.35659   0.49135  -0.32539
  66   35358.9    282.8   0.030066741   0.27994   0.36113  -0.24634   0.29807
  67   35597.8    280.9   0.010917277   0.10096  -0.24257  -0.19281   0.07036
  68   35610.3    280.8   0.134203104   1.24069   0.18265   1.05240  -0.31588
  69   35716.5    280.0   0.250536804   2.30929   0.63010   1.36642   0.21253
  70   35777.2    279.5   0.087731360   0.80728   0.57015   0.69208  -0.05687
  71   36049.8    277.4   0.029814692   0.27227  -0.14162   0.48294  -0.13778
  72   36134.4    276.7   0.009680346   0.08820   0.26789  -0.08924  -0.09202
  73   36242.0    275.9   0.180838180   1.64268  -1.13866   0.36012  -0.46524
  74   36349.0    275.1   0.023335456   0.21135   0.41640   0.06683   0.18302
  75   36445.8    274.4   0.049443560   0.44662   0.14112  -0.32505   0.56661
  76   36600.1    273.2   0.058986056   0.53057  -0.62378  -0.24097  -0.28879
  77   36787.8    271.8   0.166683927   1.49165  -0.52875   0.84793  -0.70220
  78   37099.1    269.5   0.017420239   0.15458   0.26573   0.28811   0.03107
  79   37235.6    268.6   0.077337828   0.68377  -0.74797  -0.35231  -0.01364
  80   37484.1    266.8   0.064457967   0.56612   0.54078   0.51812   0.07231
  81   37545.6    266.3   0.131254053   1.15088  -0.71455   0.43999  -0.66836
  82   37760.1    264.8   0.038066030   0.33188   0.33083  -0.39236   0.26170
  83   37985.8    263.3   0.150364422   1.30316  -0.14318  -1.08664   0.31918
  84   38019.5    263.0   0.044769547   0.38766   0.41678   0.45968  -0.05147
  85   38106.2    262.4   0.003290799   0.02843  -0.09631  -0.10076   0.09488
  86   38454.3    260.0   0.067647609   0.57914   0.39961   0.48990  -0.42362
  87   38568.4    259.3   0.040380636   0.34468  -0.33269  -0.21136   0.43511
  88   38631.0    258.9   0.017154304   0.14619   0.35261  -0.13870   0.05112
  89   38718.3    258.3   0.079302379   0.67429  -0.45428   0.26914  -0.62887
  90   38850.1    257.4   0.003624809   0.03072   0.06310   0.08027   0.14245
  91   38929.2    256.9   0.083697735   0.70780  -0.62225  -0.56623  -0.00036
  92   39149.5    255.4   0.006501889   0.05468   0.15270   0.17705   0.00327
  93   39256.1    254.7   0.073546683   0.61678  -0.35209  -0.59289   0.37589
  94   39303.5    254.4   0.014005660   0.11731   0.17302   0.02488  -0.29455
  95   39502.2    253.2   0.033165364   0.27640   0.36957   0.22366  -0.29966
  96   39751.2    251.6   0.178749801   1.48037  -1.15410  -0.36195   0.13200
  97   39826.0    251.1   0.089158475   0.73701   0.78011   0.17231   0.31423
  98   40024.3    249.8   0.023792596   0.19570  -0.11756   0.39478  -0.16135
  99   40149.0    249.1   0.069372831   0.56884  -0.40121  -0.63317   0.08345
 100   40322.3    248.0   0.016864006   0.13769   0.09701   0.24613   0.26018

FINAL SINGLE POINT ENERGY     -5914.239432305643

DIPOLE MOMENT
-------------
                                X             Y             Z
Electronic contribution:    -53.94143      -6.23403     -10.74479
Nuclear contribution   :     55.96905       5.89190      10.00295
                        -----------------------------------------
Total Dipole Moment    :      2.02762      -0.34213      -0.74184
                        -----------------------------------------
Magnitude (a.u.)       :      2.18601
Magnitude (Debye)      :      5.55639

Rotational constants in cm-1:     0.000860     0.000452     0.000310
Rotational constants in MHz :    25.775847    13.546409     9.292999

                             ****ORCA TERMINATED NORMALLY****
TOTAL RUN TIME: 0 days 0 hours 12 minutes 8 seconds 90 msec
