                         Program Version 4.2.0 -  RELEASE  -
|  1> # ORCA input file
|  2> # SCF done       -191.194500946677          0.000605264789
|  3> ! CAM-B3LYP def2-SVP def2/J RIJCOSX Grid4 TightSCF
|  4> %maxcore 5000
|  5> %tddft
|  6>     Mode sTDDFT
|  7>     Ethresh 5.0
|  8>     maxcore 5000
|  9> end
| 10>
| 11> %pal
| 12>   nprocs 6
| 13>   end
| 14> * xyz 0 1
| 15>    C       -8.35484        -6.61327         2.96638
| 16>    C       -7.40146        -7.54498         2.62105
| 17>    C       -7.62781        -8.64188         1.77478
| 18>    N       -7.71710        -9.53002         1.04952
| 19>    C       -6.09689        -7.55192         3.15053
| 20>    N       -5.04877        -7.65624         3.61060
| 21>    C       -9.79711        -6.79647         2.79510
| 22>    C      -10.46535        -5.91703         3.66511
| 23>    C      -11.84028        -5.89734         3.75733
| 24>    C      -12.56695        -6.76839         2.95261
| 25>    C      -11.90962        -7.63919         2.08094
| 26>    C      -10.52058        -7.66592         1.99978
| 27>   Cl      -12.82262        -8.70224         1.08458
| 28>   Cl      -14.28450        -6.76750         3.03456
| 29>    C       -9.46687        -5.07942         4.37632
| 30>    O       -9.68152        -4.23864         5.22275
| 31>    C       -8.16607        -5.45255         3.78760
| 32>    C       -7.08337        -4.61996         3.98181
| 33>    C       -5.93963        -4.43755         3.21406
| 34>    S       -5.67296        -5.14860         1.62838
| 35>    C       -4.14483        -4.35282         1.38469
| 36>    C       -3.87782        -3.54875         2.48156
| 37>    C       -4.86449        -3.58230         3.50491
| 38>    C       -4.40222        -2.75130         4.54992
| 39>    C       -3.18832        -2.26296         4.14767
| 40>    N       -2.86820        -2.73161         2.90529
| 41>    C       -3.36154        -4.63694         0.21938
| 42>    C       -3.53339        -5.84158        -0.42787
| 43>    C       -2.70568        -6.18004        -1.51043
| 44>    C       -2.62456        -7.34405        -2.26279
| 45>    C       -3.42848        -8.59722        -2.16040
| 46>    C       -3.51531        -9.16917        -0.72408
| 47>    N       -4.59143        -8.59171         0.06523
| 48>    C       -4.82620        -8.38856        -2.77677
| 49>    N       -4.68265        -8.14618        -4.20305
| 50>    C       -1.58630        -7.12387        -3.24486
| 51>    C       -1.11323        -7.91550        -4.22513
| 52>    C       -0.01842        -7.47116        -5.13011
| 53>    C        0.48444        -6.08151        -4.86645
| 54>    C       -0.00353        -5.30203        -3.88486
| 55>    C       -1.03539        -5.77555        -3.03979
| 56>    C       -1.71688        -5.21558        -1.98037
| 57>    C       -1.60478        -3.96402        -1.32770
| 58>    C       -2.38804        -3.69340        -0.25428
| 59>    C       -0.46305        -7.53785        -6.56659
| 60>    C        0.33124        -7.94147        -7.56639
| 61>    C       -0.04772        -7.97336        -8.94045
| 62>    S       -1.65320        -7.58835        -9.48268
| 63>    C       -1.26091        -7.89160       -11.17343
| 64>    C        0.08942        -8.26841       -11.24957
| 65>    C        0.77389        -8.32240       -10.01126
| 66>    C        2.10866        -8.72148       -10.30210
| 67>    C        2.17318        -8.88646       -11.65347
| 68>    N        0.95564        -8.61410       -12.22920
| 69>    C       -2.09180        -7.80927       -12.28153
| 70>    C       -3.42845        -7.48132       -12.38266
| 71>    C       -4.19565        -7.45071       -13.60320
| 72>    C       -3.75665        -7.72165       -14.87801
| 73>    C       -4.57434        -7.67221       -16.02514
| 74>    N       -5.17959        -7.64935       -17.00061
| 75>    C       -2.44149        -8.08518       -15.22496
| 76>    N       -1.38671        -8.38670       -15.57140
| 77>    C       -5.56443        -7.07369       -13.24562
| 78>    C       -5.63055        -6.87668       -11.85510
| 79>    C       -4.29569        -7.11896       -11.26498
| 80>    O       -3.99752        -7.02832       -10.08646
| 81>    C       -6.80258        -6.51683       -11.22545
| 82>    C       -7.94253        -6.34747       -12.00324
| 83>    C       -7.88649        -6.53921       -13.38625
| 84>    C       -6.70048        -6.90293       -14.01721
| 85>   Cl       -9.30180        -6.32579       -14.33672
| 86>   Cl       -9.42369        -5.90082       -11.25614
| 87>    H      -12.33853        -5.22377         4.43637
| 88>    H      -10.04284        -8.34967         1.31681
| 89>    H       -7.19885        -3.91982         4.80400
| 90>    H       -4.89559        -2.54553         5.47753
| 91>    H       -2.52219        -1.60203         4.66845
| 92>    H       -2.00080        -2.56344         2.42528
| 93>    H       -4.25265        -6.56740        -0.07424
| 94>    H       -2.93125        -9.35404        -2.77441
| 95>    H       -2.57276        -8.95346        -0.21357
| 96>    H       -3.60825       -10.26311        -0.80966
| 97>    H       -4.45581        -8.80149         1.04799
| 98>    H       -5.48922        -8.97748        -0.20745
| 99>    H       -5.33417        -7.57518        -2.23832
|100>    H       -5.40890        -9.30561        -2.65557
|101>    H       -4.22474        -7.25394        -4.36044
|102>    H       -5.59194        -8.11201        -4.65000
|103>    H       -1.52009        -8.89928        -4.41215
|104>    H        0.82417        -8.16926        -5.00726
|105>    H        1.26369        -5.73385        -5.52718
|106>    H        0.38736        -4.30667        -3.72892
|107>    H       -0.89212        -3.23721        -1.68983
|108>    H       -2.32555        -2.73242         0.23494
|109>    H       -1.46373        -7.18608        -6.77273
|110>    H        1.34109        -8.27386        -7.35773
|111>    H        2.90746        -8.86383        -9.60336
|112>    H        3.00631        -9.18107       -12.26130
|113>    H        0.75464        -8.66843       -13.21482
|114>    H       -1.58885        -8.05532       -13.20766
|115>    H       -6.83255        -6.37161       -10.15731
|116>    H       -6.69680        -7.04260       -15.08567
|117> *
|118>
|119>                          ****END OF INPUT****

CARTESIAN COORDINATES (ANGSTROEM)
---------------------------------
  C     -8.354840   -6.613270    2.966380
  C     -7.401460   -7.544980    2.621050
  C     -7.627810   -8.641880    1.774780
  N     -7.717100   -9.530020    1.049520
  C     -6.096890   -7.551920    3.150530
  N     -5.048770   -7.656240    3.610600
  C     -9.797110   -6.796470    2.795100
  C    -10.465350   -5.917030    3.665110
  C    -11.840280   -5.897340    3.757330
  C    -12.566950   -6.768390    2.952610
  C    -11.909620   -7.639190    2.080940
  C    -10.520580   -7.665920    1.999780
  Cl   -12.822620   -8.702240    1.084580
  Cl   -14.284500   -6.767500    3.034560
  C     -9.466870   -5.079420    4.376320
  O     -9.681520   -4.238640    5.222750
  C     -8.166070   -5.452550    3.787600
  C     -7.083370   -4.619960    3.981810
  C     -5.939630   -4.437550    3.214060
  S     -5.672960   -5.148600    1.628380
  C     -4.144830   -4.352820    1.384690
  C     -3.877820   -3.548750    2.481560
  C     -4.864490   -3.582300    3.504910
  C     -4.402220   -2.751300    4.549920
  C     -3.188320   -2.262960    4.147670
  N     -2.868200   -2.731610    2.905290
  C     -3.361540   -4.636940    0.219380
  C     -3.533390   -5.841580   -0.427870
  C     -2.705680   -6.180040   -1.510430
  C     -2.624560   -7.344050   -2.262790
  C     -3.428480   -8.597220   -2.160400
  C     -3.515310   -9.169170   -0.724080
  N     -4.591430   -8.591710    0.065230
  C     -4.826200   -8.388560   -2.776770
  N     -4.682650   -8.146180   -4.203050
  C     -1.586300   -7.123870   -3.244860
  C     -1.113230   -7.915500   -4.225130
  C     -0.018420   -7.471160   -5.130110
  C      0.484440   -6.081510   -4.866450
  C     -0.003530   -5.302030   -3.884860
  C     -1.035390   -5.775550   -3.039790
  C     -1.716880   -5.215580   -1.980370
  C     -1.604780   -3.964020   -1.327700
  C     -2.388040   -3.693400   -0.254280
  C     -0.463050   -7.537850   -6.566590
  C      0.331240   -7.941470   -7.566390
  C     -0.047720   -7.973360   -8.940450
  S     -1.653200   -7.588350   -9.482680
  C     -1.260910   -7.891600  -11.173430
  C      0.089420   -8.268410  -11.249570
  C      0.773890   -8.322400  -10.011260
  C      2.108660   -8.721480  -10.302100
  C      2.173180   -8.886460  -11.653470
  N      0.955640   -8.614100  -12.229200
  C     -2.091800   -7.809270  -12.281530
  C     -3.428450   -7.481320  -12.382660
  C     -4.195650   -7.450710  -13.603200
  C     -3.756650   -7.721650  -14.878010
  C     -4.574340   -7.672210  -16.025140
  N     -5.179590   -7.649350  -17.000610
  C     -2.441490   -8.085180  -15.224960
  N     -1.386710   -8.386700  -15.571400
  C     -5.564430   -7.073690  -13.245620
  C     -5.630550   -6.876680  -11.855100
  C     -4.295690   -7.118960  -11.264980
  O     -3.997520   -7.028320  -10.086460
  C     -6.802580   -6.516830  -11.225450
  C     -7.942530   -6.347470  -12.003240
  C     -7.886490   -6.539210  -13.386250
  C     -6.700480   -6.902930  -14.017210
  Cl    -9.301800   -6.325790  -14.336720
  Cl    -9.423690   -5.900820  -11.256140
  H    -12.338530   -5.223770    4.436370
  H    -10.042840   -8.349670    1.316810
  H     -7.198850   -3.919820    4.804000
  H     -4.895590   -2.545530    5.477530
  H     -2.522190   -1.602030    4.668450
  H     -2.000800   -2.563440    2.425280
  H     -4.252650   -6.567400   -0.074240
  H     -2.931250   -9.354040   -2.774410
  H     -2.572760   -8.953460   -0.213570
  H     -3.608250  -10.263110   -0.809660
  H     -4.455810   -8.801490    1.047990
  H     -5.489220   -8.977480   -0.207450
  H     -5.334170   -7.575180   -2.238320
  H     -5.408900   -9.305610   -2.655570
  H     -4.224740   -7.253940   -4.360440
  H     -5.591940   -8.112010   -4.650000
  H     -1.520090   -8.899280   -4.412150
  H      0.824170   -8.169260   -5.007260
  H      1.263690   -5.733850   -5.527180
  H      0.387360   -4.306670   -3.728920
  H     -0.892120   -3.237210   -1.689830
  H     -2.325550   -2.732420    0.234940
  H     -1.463730   -7.186080   -6.772730
  H      1.341090   -8.273860   -7.357730
  H      2.907460   -8.863830   -9.603360
  H      3.006310   -9.181070  -12.261300
  H      0.754640   -8.668430  -13.214820
  H     -1.588850   -8.055320  -13.207660
  H     -6.832550   -6.371610  -10.157310
  H     -6.696800   -7.042600  -15.085670

 Total Charge           Charge          ....    0
 Multiplicity           Mult            ....    1
 Number of Electrons    NEL             ....  538
 Basis Dimension        Dim             .... 1182

ORBITAL ENERGIES
----------------

  NO   OCC          E(Eh)            E(eV)
   0   2.0000    -101.596580     -2764.5835
   1   2.0000    -101.594406     -2764.5243
   2   2.0000    -101.589655     -2764.3950
   3   2.0000    -101.589203     -2764.3827
   4   2.0000     -88.966047     -2420.8892
   5   2.0000     -88.961799     -2420.7736
   6   2.0000     -19.218046      -522.9496
   7   2.0000     -19.200531      -522.4730
   8   2.0000     -14.480337      -394.0300
   9   2.0000     -14.475922      -393.9099
  10   2.0000     -14.420334      -392.3972
  11   2.0000     -14.409936      -392.1143
  12   2.0000     -14.409228      -392.0950
  13   2.0000     -14.402294      -391.9063
  14   2.0000     -14.380508      -391.3135
  15   2.0000     -14.377800      -391.2398
  16   2.0000     -10.366777      -282.0943
  17   2.0000     -10.352796      -281.7139
  18   2.0000     -10.351357      -281.6747
  19   2.0000     -10.350639      -281.6552
  20   2.0000     -10.344046      -281.4758
  21   2.0000     -10.343106      -281.4502
  22   2.0000     -10.340109      -281.3687
  23   2.0000     -10.336957      -281.2829
  24   2.0000     -10.330818      -281.1159
  25   2.0000     -10.330089      -281.0960
  26   2.0000     -10.326577      -281.0004
  27   2.0000     -10.326497      -280.9983
  28   2.0000     -10.326216      -280.9906
  29   2.0000     -10.325056      -280.9591
  30   2.0000     -10.324857      -280.9536
  31   2.0000     -10.322107      -280.8788
  32   2.0000     -10.321198      -280.8541
  33   2.0000     -10.317385      -280.7503
  34   2.0000     -10.315955      -280.7114
  35   2.0000     -10.314261      -280.6653
  36   2.0000     -10.313802      -280.6528
  37   2.0000     -10.310080      -280.5515
  38   2.0000     -10.309928      -280.5474
  39   2.0000     -10.308003      -280.4950
  40   2.0000     -10.306631      -280.4577
  41   2.0000     -10.306580      -280.4563
  42   2.0000     -10.304912      -280.4109
  43   2.0000     -10.304689      -280.4048
  44   2.0000     -10.303955      -280.3849
  45   2.0000     -10.303672      -280.3772
  46   2.0000     -10.301924      -280.3296
  47   2.0000     -10.298237      -280.2293
  48   2.0000     -10.297044      -280.1968
  49   2.0000     -10.296509      -280.1823
  50   2.0000     -10.296282      -280.1761
  51   2.0000     -10.290763      -280.0259
  52   2.0000     -10.290496      -280.0186
  53   2.0000     -10.288015      -279.9511
  54   2.0000     -10.287478      -279.9365
  55   2.0000     -10.286084      -279.8986
  56   2.0000     -10.284803      -279.8637
  57   2.0000     -10.282395      -279.7982
  58   2.0000     -10.282016      -279.7879
  59   2.0000     -10.281963      -279.7864
  60   2.0000     -10.281784      -279.7816
  61   2.0000     -10.280794      -279.7546
  62   2.0000     -10.280445      -279.7451
  63   2.0000     -10.278797      -279.7003
  64   2.0000     -10.274923      -279.5949
  65   2.0000     -10.273389      -279.5531
  66   2.0000     -10.271235      -279.4945
  67   2.0000     -10.270820      -279.4832
  68   2.0000     -10.270208      -279.4666
  69   2.0000     -10.269809      -279.4557
  70   2.0000     -10.268902      -279.4310
  71   2.0000     -10.266969      -279.3784
  72   2.0000      -9.551618      -259.9128
  73   2.0000      -9.549478      -259.8545
  74   2.0000      -9.544602      -259.7218
  75   2.0000      -9.544201      -259.7109
  76   2.0000      -8.059036      -219.2975
  77   2.0000      -8.055724      -219.2074
  78   2.0000      -7.321974      -199.2410
  79   2.0000      -7.319869      -199.1838
  80   2.0000      -7.314957      -199.0501
  81   2.0000      -7.314541      -199.0388
  82   2.0000      -7.311893      -198.9667
  83   2.0000      -7.311176      -198.9472
  84   2.0000      -7.309713      -198.9074
  85   2.0000      -7.309020      -198.8885
  86   2.0000      -7.304867      -198.7755
  87   2.0000      -7.304477      -198.7649
  88   2.0000      -7.304203      -198.7575
  89   2.0000      -7.303801      -198.7465
  90   2.0000      -6.028640      -164.0476
  91   2.0000      -6.025284      -163.9563
  92   2.0000      -6.024101      -163.9241
  93   2.0000      -6.020952      -163.8384
  94   2.0000      -6.020940      -163.8381
  95   2.0000      -6.017642      -163.7484
  96   2.0000      -1.132653       -30.8211
  97   2.0000      -1.115190       -30.3459
  98   2.0000      -1.099966       -29.9316
  99   2.0000      -1.094762       -29.7900
 100   2.0000      -1.026674       -27.9372
 101   2.0000      -1.018978       -27.7278
 102   2.0000      -1.014806       -27.6143
 103   2.0000      -1.005860       -27.3708
 104   2.0000      -0.994151       -27.0522
 105   2.0000      -0.993434       -27.0327
 106   2.0000      -0.988629       -26.9020
 107   2.0000      -0.987238       -26.8641
 108   2.0000      -0.984526       -26.7903
 109   2.0000      -0.980671       -26.6854
 110   2.0000      -0.976758       -26.5789
 111   2.0000      -0.967734       -26.3334
 112   2.0000      -0.957328       -26.0502
 113   2.0000      -0.953410       -25.9436
 114   2.0000      -0.951292       -25.8860
 115   2.0000      -0.950670       -25.8690
 116   2.0000      -0.933270       -25.3956
 117   2.0000      -0.927064       -25.2267
 118   2.0000      -0.919264       -25.0144
 119   2.0000      -0.913082       -24.8462
 120   2.0000      -0.895733       -24.3741
 121   2.0000      -0.890047       -24.2194
 122   2.0000      -0.887195       -24.1418
 123   2.0000      -0.885018       -24.0826
 124   2.0000      -0.871351       -23.7107
 125   2.0000      -0.863470       -23.4962
 126   2.0000      -0.857784       -23.3415
 127   2.0000      -0.855446       -23.2779
 128   2.0000      -0.848283       -23.0830
 129   2.0000      -0.846137       -23.0245
 130   2.0000      -0.836407       -22.7598
 131   2.0000      -0.834158       -22.6986
 132   2.0000      -0.823847       -22.4180
 133   2.0000      -0.821925       -22.3657
 134   2.0000      -0.803927       -21.8760
 135   2.0000      -0.793689       -21.5974
 136   2.0000      -0.773370       -21.0445
 137   2.0000      -0.764351       -20.7991
 138   2.0000      -0.763645       -20.7799
 139   2.0000      -0.757779       -20.6202
 140   2.0000      -0.750361       -20.4184
 141   2.0000      -0.736277       -20.0351
 142   2.0000      -0.728524       -19.8242
 143   2.0000      -0.726702       -19.7746
 144   2.0000      -0.708996       -19.2928
 145   2.0000      -0.702073       -19.1044
 146   2.0000      -0.699239       -19.0272
 147   2.0000      -0.693435       -18.8693
 148   2.0000      -0.692246       -18.8370
 149   2.0000      -0.692026       -18.8310
 150   2.0000      -0.689939       -18.7742
 151   2.0000      -0.685582       -18.6556
 152   2.0000      -0.682542       -18.5729
 153   2.0000      -0.672066       -18.2878
 154   2.0000      -0.667616       -18.1667
 155   2.0000      -0.665638       -18.1129
 156   2.0000      -0.662372       -18.0240
 157   2.0000      -0.648911       -17.6578
 158   2.0000      -0.643289       -17.5048
 159   2.0000      -0.637562       -17.3489
 160   2.0000      -0.633043       -17.2260
 161   2.0000      -0.615729       -16.7548
 162   2.0000      -0.615112       -16.7380
 163   2.0000      -0.610307       -16.6073
 164   2.0000      -0.605408       -16.4740
 165   2.0000      -0.599104       -16.3024
 166   2.0000      -0.593088       -16.1388
 167   2.0000      -0.584419       -15.9028
 168   2.0000      -0.583749       -15.8846
 169   2.0000      -0.579327       -15.7643
 170   2.0000      -0.572962       -15.5911
 171   2.0000      -0.570806       -15.5324
 172   2.0000      -0.568082       -15.4583
 173   2.0000      -0.564756       -15.3678
 174   2.0000      -0.561525       -15.2799
 175   2.0000      -0.556412       -15.1407
 176   2.0000      -0.549762       -14.9598
 177   2.0000      -0.547628       -14.9017
 178   2.0000      -0.545943       -14.8559
 179   2.0000      -0.544070       -14.8049
 180   2.0000      -0.542525       -14.7629
 181   2.0000      -0.538927       -14.6649
 182   2.0000      -0.538752       -14.6602
 183   2.0000      -0.538242       -14.6463
 184   2.0000      -0.536017       -14.5858
 185   2.0000      -0.535018       -14.5586
 186   2.0000      -0.531993       -14.4763
 187   2.0000      -0.530295       -14.4301
 188   2.0000      -0.529835       -14.4175
 189   2.0000      -0.528268       -14.3749
 190   2.0000      -0.520810       -14.1720
 191   2.0000      -0.520253       -14.1568
 192   2.0000      -0.517421       -14.0797
 193   2.0000      -0.515142       -14.0177
 194   2.0000      -0.511311       -13.9135
 195   2.0000      -0.510540       -13.8925
 196   2.0000      -0.506716       -13.7884
 197   2.0000      -0.504558       -13.7297
 198   2.0000      -0.503818       -13.7096
 199   2.0000      -0.499768       -13.5994
 200   2.0000      -0.499509       -13.5923
 201   2.0000      -0.498451       -13.5635
 202   2.0000      -0.494402       -13.4534
 203   2.0000      -0.493780       -13.4364
 204   2.0000      -0.490894       -13.3579
 205   2.0000      -0.488335       -13.2883
 206   2.0000      -0.484435       -13.1821
 207   2.0000      -0.482820       -13.1382
 208   2.0000      -0.477686       -12.9985
 209   2.0000      -0.472405       -12.8548
 210   2.0000      -0.471180       -12.8215
 211   2.0000      -0.467194       -12.7130
 212   2.0000      -0.464521       -12.6403
 213   2.0000      -0.461135       -12.5481
 214   2.0000      -0.459859       -12.5134
 215   2.0000      -0.459296       -12.4981
 216   2.0000      -0.456422       -12.4199
 217   2.0000      -0.454608       -12.3705
 218   2.0000      -0.454384       -12.3644
 219   2.0000      -0.448841       -12.2136
 220   2.0000      -0.445597       -12.1253
 221   2.0000      -0.442768       -12.0483
 222   2.0000      -0.442396       -12.0382
 223   2.0000      -0.440580       -11.9888
 224   2.0000      -0.435367       -11.8469
 225   2.0000      -0.435348       -11.8464
 226   2.0000      -0.430247       -11.7076
 227   2.0000      -0.429044       -11.6749
 228   2.0000      -0.427728       -11.6391
 229   2.0000      -0.424770       -11.5586
 230   2.0000      -0.424248       -11.5444
 231   2.0000      -0.424093       -11.5402
 232   2.0000      -0.422461       -11.4957
 233   2.0000      -0.419488       -11.4149
 234   2.0000      -0.417858       -11.3705
 235   2.0000      -0.416116       -11.3231
 236   2.0000      -0.414751       -11.2860
 237   2.0000      -0.412142       -11.2150
 238   2.0000      -0.405750       -11.0410
 239   2.0000      -0.404575       -11.0091
 240   2.0000      -0.403545       -10.9810
 241   2.0000      -0.401914       -10.9366
 242   2.0000      -0.399682       -10.8759
 243   2.0000      -0.398975       -10.8567
 244   2.0000      -0.391197       -10.6450
 245   2.0000      -0.385565       -10.4918
 246   2.0000      -0.385155       -10.4806
 247   2.0000      -0.377639       -10.2761
 248   2.0000      -0.375988       -10.2312
 249   2.0000      -0.371983       -10.1222
 250   2.0000      -0.370870       -10.0919
 251   2.0000      -0.352419        -9.5898
 252   2.0000      -0.344495        -9.3742
 253   2.0000      -0.337334        -9.1793
 254   2.0000      -0.335795        -9.1375
 255   2.0000      -0.334096        -9.0912
 256   2.0000      -0.329070        -8.9544
 257   2.0000      -0.328366        -8.9353
 258   2.0000      -0.322572        -8.7776
 259   2.0000      -0.315513        -8.5856
 260   2.0000      -0.310985        -8.4623
 261   2.0000      -0.308687        -8.3998
 262   2.0000      -0.304247        -8.2790
 263   2.0000      -0.301900        -8.2151
 264   2.0000      -0.298741        -8.1291
 265   2.0000      -0.296791        -8.0761
 266   2.0000      -0.256841        -6.9890
 267   2.0000      -0.252877        -6.8811
 268   2.0000      -0.225685        -6.1412
 269   0.0000      -0.094379        -2.5682
 270   0.0000      -0.090637        -2.4664
 271   0.0000      -0.068975        -1.8769
 272   0.0000      -0.064234        -1.7479
 273   0.0000      -0.050207        -1.3662

MULLIKEN ATOMIC CHARGES
-----------------------
   0 C :    0.273052
   1 C :   -0.341512
   2 C :   -0.146471
   3 N :    0.104532
   4 C :   -0.221310
   5 N :    0.151127
   6 C :    0.021488
   7 C :   -0.001616
   8 C :   -0.034594
   9 C :    0.057906
  10 C :    0.046359
  11 C :   -0.022556
  12 Cl:   -0.047849
  13 Cl:   -0.053558
  14 C :    0.137790
  15 O :   -0.154655
  16 C :   -0.163987
  17 C :    0.025638
  18 C :   -0.123767
  19 S :    0.148300
  20 C :   -0.130582
  21 C :    0.096725
  22 C :    0.130497
  23 C :   -0.059177
  24 C :    0.096121
  25 N :   -0.050322
  26 C :    0.102563
  27 C :   -0.081219
  28 C :    0.027514
  29 C :   -0.067799
  30 C :   -0.004035
  31 C :    0.135657
  32 N :   -0.229544
  33 C :    0.119454
  34 N :   -0.231234
  35 C :    0.090910
  36 C :   -0.125565
  37 C :    0.124575
  38 C :   -0.028831
  39 C :    0.025121
  40 C :    0.014963
  41 C :    0.040056
  42 C :   -0.003379
  43 C :   -0.032178
  44 C :   -0.039262
  45 C :    0.014072
  46 C :   -0.084180
  47 S :    0.182513
  48 C :   -0.115218
  49 C :    0.106975
  50 C :    0.087362
  51 C :   -0.049373
  52 C :    0.087855
  53 N :   -0.041693
  54 C :   -0.049425
  55 C :   -0.120919
  56 C :    0.334516
  57 C :   -0.367358
  58 C :   -0.192414
  59 N :    0.150992
  60 C :   -0.175162
  61 N :    0.118941
  62 C :    0.026015
  63 C :   -0.009771
  64 C :    0.163601
  65 O :   -0.179976
  66 C :   -0.037300
  67 C :    0.060726
  68 C :    0.045946
  69 C :   -0.017238
  70 Cl:   -0.039242
  71 Cl:   -0.047812
  72 H :   -0.003368
  73 H :   -0.001771
  74 H :    0.013817
  75 H :   -0.011183
  76 H :    0.013340
  77 H :    0.131764
  78 H :   -0.026747
  79 H :   -0.022521
  80 H :    0.005368
  81 H :   -0.002460
  82 H :    0.119566
  83 H :    0.114449
  84 H :    0.002327
  85 H :    0.001892
  86 H :    0.096445
  87 H :    0.095127
  88 H :    0.009218
  89 H :    0.039847
  90 H :   -0.011539
  91 H :   -0.034813
  92 H :   -0.036470
  93 H :   -0.044222
  94 H :    0.031950
  95 H :   -0.012810
  96 H :   -0.018686
  97 H :    0.011725
  98 H :    0.145752
  99 H :   -0.027664
 100 H :   -0.004717
 101 H :   -0.001400
Sum of atomic charges:   -0.0000000

LOEWDIN ATOMIC CHARGES
----------------------
   0 C :    0.065657
   1 C :   -0.170752
   2 C :   -0.012743
   3 N :   -0.082372
   4 C :   -0.038441
   5 N :   -0.068127
   6 C :   -0.009667
   7 C :   -0.042212
   8 C :   -0.002953
   9 C :   -0.138550
  10 C :   -0.133869
  11 C :   -0.020403
  12 Cl:    0.151861
  13 Cl:    0.149340
  14 C :    0.079786
  15 O :   -0.156245
  16 C :   -0.134564
  17 C :    0.055229
  18 C :   -0.199838
  19 S :    0.498527
  20 C :   -0.127777
  21 C :   -0.033199
  22 C :   -0.020437
  23 C :   -0.081621
  24 C :    0.046753
  25 N :    0.067854
  26 C :   -0.064103
  27 C :    0.011773
  28 C :   -0.023940
  29 C :   -0.021286
  30 C :   -0.040946
  31 C :    0.031475
  32 N :   -0.090422
  33 C :    0.027780
  34 N :   -0.120686
  35 C :   -0.020506
  36 C :    0.073428
  37 C :   -0.030917
  38 C :   -0.031333
  39 C :   -0.014839
  40 C :   -0.038669
  41 C :   -0.029897
  42 C :   -0.008003
  43 C :   -0.038131
  44 C :    0.026612
  45 C :   -0.053312
  46 C :   -0.135131
  47 S :    0.500608
  48 C :   -0.214103
  49 C :    0.018752
  50 C :   -0.081045
  51 C :   -0.077351
  52 C :    0.027363
  53 N :    0.078405
  54 C :    0.048265
  55 C :   -0.132579
  56 C :    0.079881
  57 C :   -0.157709
  58 C :   -0.022558
  59 N :   -0.057554
  60 C :   -0.010052
  61 N :   -0.080246
  62 C :   -0.013532
  63 C :   -0.041144
  64 C :    0.081967
  65 O :   -0.170895
  66 C :   -0.003327
  67 C :   -0.135917
  68 C :   -0.133211
  69 C :   -0.012943
  70 Cl:    0.158012
  71 Cl:    0.154490
  72 H :    0.044304
  73 H :    0.042128
  74 H :    0.049454
  75 H :    0.031255
  76 H :    0.028643
  77 H :    0.089451
  78 H :    0.013512
  79 H :    0.027081
  80 H :    0.021718
  81 H :    0.008435
  82 H :    0.062001
  83 H :    0.053718
  84 H :    0.004639
  85 H :    0.017592
  86 H :    0.050912
  87 H :    0.056731
  88 H :    0.035264
  89 H :    0.059964
  90 H :    0.025059
  91 H :    0.030510
  92 H :    0.027606
  93 H :    0.017706
  94 H :    0.030717
  95 H :    0.033430
  96 H :    0.027682
  97 H :    0.028204
  98 H :    0.098682
  99 H :    0.041872
 100 H :    0.043918
 101 H :    0.044051

  Mayer bond orders larger than 0.100000
B(  0-C ,  1-C ) :   1.5726 B(  0-C ,  6-C ) :   1.0049 B(  0-C , 16-C ) :   1.1082
B(  1-C ,  2-C ) :   1.1528 B(  1-C ,  4-C ) :   1.1715 B(  2-C ,  3-N ) :   2.8909
B(  4-C ,  5-N ) :   2.9759 B(  6-C ,  7-C ) :   1.3347 B(  6-C , 11-C ) :   1.3572
B(  7-C ,  8-C ) :   1.3628 B(  7-C , 14-C ) :   0.9136 B(  8-C ,  9-C ) :   1.3336
B(  8-C , 72-H ) :   1.0157 B(  9-C , 10-C ) :   1.4279 B(  9-C , 13-Cl) :   1.0364
B( 10-C , 11-C ) :   1.3485 B( 10-C , 12-Cl) :   1.0585 B( 11-C , 73-H ) :   0.9893
B( 14-C , 15-O ) :   2.2511 B( 14-C , 16-C ) :   0.9791 B( 16-C , 17-C ) :   1.4636
B( 17-C , 18-C ) :   1.3323 B( 17-C , 74-H ) :   0.9448 B( 18-C , 19-S ) :   1.0532
B( 18-C , 22-C ) :   1.2514 B( 19-S , 20-C ) :   1.1863 B( 20-C , 21-C ) :   1.3742
B( 20-C , 26-C ) :   1.0843 B( 21-C , 22-C ) :   1.2597 B( 21-C , 25-N ) :   1.1665
B( 22-C , 23-C ) :   1.2447 B( 23-C , 24-C ) :   1.5145 B( 23-C , 75-H ) :   1.0079
B( 24-C , 25-N ) :   1.2039 B( 24-C , 76-H ) :   0.9865 B( 25-N , 77-H ) :   0.9333
B( 26-C , 27-C ) :   1.4574 B( 26-C , 43-C ) :   1.1155 B( 27-C , 28-C ) :   1.1790
B( 27-C , 78-H ) :   0.9331 B( 28-C , 29-C ) :   1.4530 B( 28-C , 41-C ) :   1.1121
B( 29-C , 30-C ) :   1.0447 B( 29-C , 35-C ) :   1.1109 B( 30-C , 31-C ) :   1.0326
B( 30-C , 33-C ) :   1.0318 B( 30-C , 79-H ) :   0.8759 B( 31-C , 32-N ) :   1.0831
B( 31-C , 80-H ) :   0.9515 B( 31-C , 81-H ) :   0.9393 B( 32-N , 78-H ) :   0.1943
B( 32-N , 82-H ) :   0.9443 B( 32-N , 83-H ) :   0.9442 B( 33-C , 34-N ) :   1.0918
B( 33-C , 84-H ) :   0.9362 B( 33-C , 85-H ) :   0.9429 B( 34-N , 86-H ) :   0.9674
B( 34-N , 87-H ) :   0.9668 B( 35-C , 36-C ) :   1.6558 B( 35-C , 40-C ) :   1.0414
B( 36-C , 37-C ) :   0.9529 B( 36-C , 88-H ) :   0.9755 B( 37-C , 38-C ) :   0.9878
B( 37-C , 44-C ) :   0.9614 B( 37-C , 89-H ) :   0.8684 B( 38-C , 39-C ) :   1.7169
B( 38-C , 90-H ) :   0.9703 B( 39-C , 40-C ) :   1.1287 B( 39-C , 91-H ) :   0.9878
B( 40-C , 41-C ) :   1.4416 B( 41-C , 42-C ) :   1.1414 B( 42-C , 43-C ) :   1.6151
B( 42-C , 92-H ) :   0.9904 B( 43-C , 93-H ) :   0.9799 B( 44-C , 45-C ) :   1.7578
B( 44-C , 94-H ) :   0.9716 B( 45-C , 46-C ) :   1.1520 B( 45-C , 95-H ) :   0.9737
B( 46-C , 47-S ) :   1.1411 B( 46-C , 50-C ) :   1.3148 B( 47-S , 48-C ) :   1.0437
B( 48-C , 49-C ) :   1.2642 B( 48-C , 54-C ) :   1.3816 B( 49-C , 50-C ) :   1.2562
B( 49-C , 53-N ) :   1.2606 B( 50-C , 51-C ) :   1.1773 B( 51-C , 52-C ) :   1.5940
B( 51-C , 96-H ) :   1.0097 B( 52-C , 53-N ) :   1.1507 B( 52-C , 97-H ) :   0.9880
B( 53-N , 98-H ) :   0.9259 B( 54-C , 55-C ) :   1.4150 B( 54-C , 99-H ) :   0.9302
B( 55-C , 56-C ) :   1.1250 B( 55-C , 64-C ) :   0.9975 B( 56-C , 57-C ) :   1.5873
B( 56-C , 62-C ) :   0.9787 B( 57-C , 58-C ) :   1.1464 B( 57-C , 60-C ) :   1.1598
B( 58-C , 59-N ) :   2.9694 B( 60-C , 61-N ) :   2.9520 B( 62-C , 63-C ) :   1.3317
B( 62-C , 69-C ) :   1.3541 B( 63-C , 64-C ) :   0.9465 B( 63-C , 66-C ) :   1.3542
B( 64-C , 65-O ) :   2.1392 B( 66-C , 67-C ) :   1.3286 B( 66-C ,100-H ) :   1.0171
B( 67-C , 68-C ) :   1.4214 B( 67-C , 71-Cl) :   1.0418 B( 68-C , 69-C ) :   1.3477
B( 68-C , 70-Cl) :   1.0725 B( 69-C ,101-H ) :   0.9870

-----------------------------------------------------------------------------
         ABSORPTION SPECTRUM VIA TRANSITION ELECTRIC DIPOLE MOMENTS
-----------------------------------------------------------------------------
State   Energy  Wavelength   fosc         T2         TX        TY        TZ
        (cm-1)    (nm)                  (au**2)     (au)      (au)      (au)
-----------------------------------------------------------------------------
   0   12840.9    778.8   0.153429803   3.93360  -1.17657   0.29855   1.56849
   1   16480.2    606.8   0.611774763  12.22097   2.50923   1.36015  -2.01859
   2   17059.5    586.2   0.312928613   6.03885   0.99446   0.21649   2.23675
   3   19117.4    523.1   0.043432143   0.74793   0.67275   0.51479  -0.17416
   4   19856.0    503.6   0.668177588  11.07838   2.26307   0.11231   2.43809
   5   22805.2    438.5   0.292978622   4.22939   1.39687  -0.51699  -1.41805
   6   23284.4    429.5   0.126361538   1.78659   1.23465  -0.19470   0.47362
   7   24189.7    413.4   0.049963434   0.67998  -0.79629  -0.18785  -0.10304
   8   25114.8    398.2   0.136212760   1.78551   0.14848   1.04530   0.81903
   9   25645.3    389.9   0.023775732   0.30521   0.50392  -0.10113  -0.20259
  10   25739.9    388.5   0.058823371   0.75235  -0.40401   0.63877   0.42555
  11   26536.5    376.8   0.001173667   0.01456   0.02388   0.08704   0.08009
  12   27677.2    361.3   0.040864289   0.48607   0.18874   0.29645   0.60213
  13   27700.0    361.0   0.149386480   1.77544  -0.17501  -0.96349  -0.90360
  14   28358.3    352.6   0.195063769   2.26450  -1.27698   0.56334   0.56256
  15   28570.6    350.0   0.016477813   0.18987   0.38482  -0.08189   0.18729
  16   29480.7    339.2   0.152338724   1.70117   1.28097   0.24465   0.02097
  17   29768.8    335.9   0.000903230   0.00999  -0.00174   0.08655  -0.04995
  18   30431.7    328.6   0.001070082   0.01158  -0.01618  -0.05184  -0.09288
  19   30916.7    323.5   0.043728088   0.46563  -0.62003  -0.15186  -0.24112
  20   31035.2    322.2   0.224869139   2.38534   1.37762  -0.35342  -0.60217
  21   31201.1    320.5   0.032230121   0.34007   0.24921   0.45282   0.27004
  22   31226.2    320.2   0.000824462   0.00869  -0.05430  -0.07491  -0.01150
  23   31391.4    318.6   0.133783205   1.40303  -1.00543   0.45412   0.43118
  24   32206.9    310.5   0.028051320   0.28673   0.18882  -0.30209  -0.39978
  25   32296.6    309.6   0.108099182   1.10190   0.39831  -0.40138  -0.88439
  26   32387.9    308.8   0.274779700   2.79304  -0.70061   0.76765   1.30878
  27   33160.6    301.6   0.022254223   0.22094  -0.16543   0.24967   0.36226
  28   33524.1    298.3   0.394194292   3.87105  -0.78079   1.06716   1.45690
  29   33846.4    295.5   0.097243469   0.94585  -0.56122   0.17223   0.77539
  30   33925.2    294.8   0.027101334   0.26299   0.14526  -0.20176  -0.44854
  31   34365.6    291.0   0.017276293   0.16550  -0.12930  -0.13393  -0.36173
  32   34541.0    289.5   0.060110748   0.57292  -0.70606   0.23510   0.13831
  33   34862.4    286.8   0.288953292   2.72864  -0.85191   0.39112   1.36011
  34   35134.0    284.6   0.020926242   0.19608   0.37219  -0.17464  -0.16451
  35   35439.6    282.2   0.117050205   1.08733   0.80692  -0.25891  -0.60759
  36   35463.4    282.0   0.304828893   2.82978   1.67194  -0.17844   0.05062
  37   35675.1    280.3   0.062765643   0.57921  -0.73021   0.21307   0.02462
  38   35867.3    278.8   0.001578294   0.01449  -0.03654  -0.01056  -0.11419
  39   36374.3    274.9   0.012378656   0.11204  -0.23068  -0.20598   0.12805
  40   36386.6    274.8   0.051002824   0.46145  -0.43962  -0.06162   0.51419
  41   36744.2    272.2   0.033791973   0.30276   0.18812  -0.13365  -0.49951
  42   36837.3    271.5   0.127039387   1.13534  -0.28850   0.81723   0.61987
  43   37545.9    266.3   0.250343125   2.19507  -0.36671  -0.10485  -1.43164
  44   37614.6    265.9   0.025131309   0.21996  -0.11264  -0.11871  -0.43952
  45   37982.6    263.3   0.021605721   0.18727   0.05980  -0.24262  -0.35331
  46   38117.9    262.3   0.007055652   0.06094   0.07901   0.20128   0.11908
  47   38281.0    261.2   0.000148701   0.00128  -0.00450  -0.02680  -0.02324
  48   38428.5    260.2   0.011265693   0.09651  -0.03164  -0.12483   0.28272
  49   38564.8    259.3   0.045470541   0.38816  -0.28149   0.14989   0.53522
  50   38881.7    257.2   0.001254962   0.01063  -0.02081  -0.06453   0.07765
  51   39116.2    255.6   0.011646447   0.09802  -0.28715   0.03839  -0.11871
  52   39263.1    254.7   0.007161730   0.06005   0.09442   0.01018   0.22590
  53   39329.4    254.3   0.101560448   0.85013   0.54295   0.14268   0.73142
  54   39909.7    250.6   0.088286253   0.72827   0.57192   0.32368   0.54443
  55   40043.5    249.7   0.364502620   2.99671  -0.45778   1.15971   1.20093
  56   40325.7    248.0   0.342648438   2.79732   1.46530  -0.46519  -0.65864

FINAL SINGLE POINT ENERGY     -5373.247983473107

DIPOLE MOMENT
-------------
                                X             Y             Z
Electronic contribution:    -88.49688       4.74970     -30.11781
Nuclear contribution   :     92.74756      -3.28678      30.90391
                        -----------------------------------------
Total Dipole Moment    :      4.25067       1.46292       0.78610
                        -----------------------------------------
Magnitude (a.u.)       :      4.56359
Magnitude (Debye)      :     11.59972

Rotational constants in cm-1:     0.001000     0.000300     0.000247
Rotational constants in MHz :    29.967763     8.985284     7.396535

                             ****ORCA TERMINATED NORMALLY****
TOTAL RUN TIME: 0 days 0 hours 11 minutes 5 seconds 223 msec
