                         Program Version 4.2.0 -  RELEASE  -
|  1> # ORCA input file
|  2> # SCF done       -215.487023156925          0.000995582216
|  3> ! CAM-B3LYP def2-SVP def2/J RIJCOSX Grid4 TightSCF
|  4> %maxcore 5000
|  5> %tddft
|  6>     Mode sTDDFT
|  7>     Ethresh 5.0
|  8>     maxcore 5000
|  9> end
| 10>
| 11> %pal
| 12>   nprocs 6
| 13>   end
| 14> * xyz 0 1
| 15>    C        2.99635         4.32251        -9.20340
| 16>    C        4.24605         4.59209        -8.70612
| 17>    C        5.44751         4.29702        -9.38749
| 18>    N        6.46312         4.09002        -9.87991
| 19>    C        4.54595         5.19367        -7.46572
| 20>    N        4.87651         5.67388        -6.47495
| 21>    C        2.72650         3.69905       -10.49220
| 22>    C        1.31694         3.58915       -10.65904
| 23>    C        0.76024         3.04497       -11.78086
| 24>    C        1.60517         2.57887       -12.81194
| 25>    C        3.01776         2.68229       -12.65327
| 26>    C        3.56429         3.24706       -11.47881
| 27>    C        3.85329         2.21506       -13.68840
| 28>    C        3.32070         1.67408       -14.82683
| 29>    C        1.92990         1.57412       -14.98236
| 30>    C        1.09013         2.01626       -13.99617
| 31>    C        0.63328         4.14738        -9.48290
| 32>    O       -0.56551         4.20455        -9.31079
| 33>    C        1.71364         4.60793        -8.56890
| 34>    C        1.58831         5.15035        -7.32572
| 35>    C        0.44386         5.53542        -6.57623
| 36>    C       -0.83026         5.83349        -6.98417
| 37>    C       -1.55071         6.40902        -5.87155
| 38>    C       -2.89172         6.81804        -5.91948
| 39>    N       -3.97924         7.18052        -5.96032
| 40>    C       -0.71055         6.51717        -4.79434
| 41>    C        0.55991         5.95268        -5.16128
| 42>    C        1.62217         5.74499        -4.31809
| 43>    C        1.90795         6.45431        -3.04239
| 44>    C        2.88598         5.74987        -2.39714
| 45>    C        3.27238         4.63265        -3.22429
| 46>    C        2.55758         4.66526        -4.39667
| 47>    C        4.22090         3.66464        -2.86271
| 48>    N        4.98905         2.86836        -2.56025
| 49>    C        1.43362         7.72715        -2.62590
| 50>    C        0.86733         8.65992        -3.43302
| 51>    C        0.39325         9.93672        -3.03342
| 52>    S       -0.40443        10.92210        -4.22157
| 53>    C       -0.64906        12.22521        -3.09829
| 54>    C       -0.16089        11.88137        -1.84995
| 55>    C        0.43729        10.59741        -1.80597
| 56>    C        1.05605        10.07392        -0.65538
| 57>    N        1.58425         9.65786         0.27349
| 58>    C       -0.31978        12.73581        -0.63107
| 59>    F       -1.49097        13.40196        -0.62923
| 60>    F       -0.29443        12.03867         0.50493
| 61>    F        0.64215        13.67499        -0.52663
| 62>    C       -1.28799        13.41812        -3.55892
| 63>    C       -1.03226        14.66603        -3.10807
| 64>    C       -1.69044        15.84518        -3.57021
| 65>    C       -1.11877        17.08069        -3.64914
| 66>    C       -2.03072        17.96905        -4.33661
| 67>    C       -1.78322        19.32987        -4.57010
| 68>    N       -1.57257        20.44168        -4.75867
| 69>    C       -3.15304        17.27279        -4.70137
| 70>    C       -3.03851        15.93941        -4.17951
| 71>    C       -4.06139        15.03799        -4.04928
| 72>    C       -5.34686        15.02742        -4.78599
| 73>    C       -6.14797        14.09183        -4.19103
| 74>    C       -5.42707        13.49509        -3.08840
| 75>    C       -4.16871        14.03055        -3.02596
| 76>    C       -5.95253        12.51616        -2.23161
| 77>    N       -6.37959        11.70674        -1.54027
| 78>    C       -5.62136        15.75481        -5.97806
| 79>    C       -6.87002        15.94789        -6.47946
| 80>    C       -7.08664        16.66961        -7.67550
| 81>    C       -8.31455        16.93797        -8.20997
| 82>    C       -8.59217        17.68259        -9.42522
| 83>    C       -7.67373        18.17126       -10.31911
| 84>    C       -8.01061        18.88255       -11.49035
| 85>    N       -8.21324        19.46644       -12.45775
| 86>    C       -6.27420        18.02907       -10.22007
| 87>    N       -5.12822        17.94943       -10.21364
| 88>    C      -10.04013        17.80712        -9.54893
| 89>    C      -10.65232        17.12160        -8.46077
| 90>    C       -9.61218        16.53869        -7.59892
| 91>    O       -9.78807        15.87612        -6.59764
| 92>    C      -12.00819        17.06763        -8.31082
| 93>    C      -12.83235        17.71216        -9.25970
| 94>    C      -12.22880        18.40192       -10.35086
| 95>    C      -10.82154        18.43872       -10.48067
| 96>    C      -13.06027        19.04382       -11.29113
| 97>    C      -14.42199        19.00782       -11.16088
| 98>    C      -15.01488        18.32890       -10.08582
| 99>    C      -14.23700        17.69435        -9.15558
|100>    H       -0.31279         2.97454       -11.87999
|101>    H        4.63707         3.30832       -11.39205
|102>    H        4.92320         2.29453       -13.56422
|103>    H        3.96858         1.32028       -15.61456
|104>    H        1.52726         1.14500       -15.88753
|105>    H        0.01869         1.94171       -14.11022
|106>    H        2.51546         5.35302        -6.80748
|107>    H       -1.24473         5.69207        -7.96321
|108>    H       -0.98261         6.83766        -3.80674
|109>    H        3.34341         5.99812        -1.45801
|110>    H        2.57896         3.90785        -5.15645
|111>    H        1.62128         7.96737        -1.58883
|112>    H        0.75777         8.45567        -4.48986
|113>    H       -1.97894        13.27829        -4.38022
|114>    H       -0.22145        14.83591        -2.41327
|115>    H       -0.14007        17.36326        -3.30930
|116>    H       -4.02891        17.69559        -5.15371
|117>    H       -7.13626        13.79873        -4.49024
|118>    H       -3.44013        13.83744        -2.26362
|119>    H       -4.77548        16.16194        -6.51772
|120>    H       -7.73396        15.57275        -5.95294
|121>    H       -6.20349        17.03689        -8.18304
|122>    H      -12.44591        16.54023        -7.47626
|123>    H      -10.39764        18.97169       -11.31670
|124>    H      -12.59941        19.56512       -12.11724
|125>    H      -15.05025        19.50287       -11.88601
|126>    H      -16.09087        18.31133        -9.99831
|127>    H      -14.68758        17.16998        -8.32569
|128> *
|129>
|130>                          ****END OF INPUT****

CARTESIAN COORDINATES (ANGSTROEM)
---------------------------------
  C      2.996350    4.322510   -9.203400
  C      4.246050    4.592090   -8.706120
  C      5.447510    4.297020   -9.387490
  N      6.463120    4.090020   -9.879910
  C      4.545950    5.193670   -7.465720
  N      4.876510    5.673880   -6.474950
  C      2.726500    3.699050  -10.492200
  C      1.316940    3.589150  -10.659040
  C      0.760240    3.044970  -11.780860
  C      1.605170    2.578870  -12.811940
  C      3.017760    2.682290  -12.653270
  C      3.564290    3.247060  -11.478810
  C      3.853290    2.215060  -13.688400
  C      3.320700    1.674080  -14.826830
  C      1.929900    1.574120  -14.982360
  C      1.090130    2.016260  -13.996170
  C      0.633280    4.147380   -9.482900
  O     -0.565510    4.204550   -9.310790
  C      1.713640    4.607930   -8.568900
  C      1.588310    5.150350   -7.325720
  C      0.443860    5.535420   -6.576230
  C     -0.830260    5.833490   -6.984170
  C     -1.550710    6.409020   -5.871550
  C     -2.891720    6.818040   -5.919480
  N     -3.979240    7.180520   -5.960320
  C     -0.710550    6.517170   -4.794340
  C      0.559910    5.952680   -5.161280
  C      1.622170    5.744990   -4.318090
  C      1.907950    6.454310   -3.042390
  C      2.885980    5.749870   -2.397140
  C      3.272380    4.632650   -3.224290
  C      2.557580    4.665260   -4.396670
  C      4.220900    3.664640   -2.862710
  N      4.989050    2.868360   -2.560250
  C      1.433620    7.727150   -2.625900
  C      0.867330    8.659920   -3.433020
  C      0.393250    9.936720   -3.033420
  S     -0.404430   10.922100   -4.221570
  C     -0.649060   12.225210   -3.098290
  C     -0.160890   11.881370   -1.849950
  C      0.437290   10.597410   -1.805970
  C      1.056050   10.073920   -0.655380
  N      1.584250    9.657860    0.273490
  C     -0.319780   12.735810   -0.631070
  F     -1.490970   13.401960   -0.629230
  F     -0.294430   12.038670    0.504930
  F      0.642150   13.674990   -0.526630
  C     -1.287990   13.418120   -3.558920
  C     -1.032260   14.666030   -3.108070
  C     -1.690440   15.845180   -3.570210
  C     -1.118770   17.080690   -3.649140
  C     -2.030720   17.969050   -4.336610
  C     -1.783220   19.329870   -4.570100
  N     -1.572570   20.441680   -4.758670
  C     -3.153040   17.272790   -4.701370
  C     -3.038510   15.939410   -4.179510
  C     -4.061390   15.037990   -4.049280
  C     -5.346860   15.027420   -4.785990
  C     -6.147970   14.091830   -4.191030
  C     -5.427070   13.495090   -3.088400
  C     -4.168710   14.030550   -3.025960
  C     -5.952530   12.516160   -2.231610
  N     -6.379590   11.706740   -1.540270
  C     -5.621360   15.754810   -5.978060
  C     -6.870020   15.947890   -6.479460
  C     -7.086640   16.669610   -7.675500
  C     -8.314550   16.937970   -8.209970
  C     -8.592170   17.682590   -9.425220
  C     -7.673730   18.171260  -10.319110
  C     -8.010610   18.882550  -11.490350
  N     -8.213240   19.466440  -12.457750
  C     -6.274200   18.029070  -10.220070
  N     -5.128220   17.949430  -10.213640
  C    -10.040130   17.807120   -9.548930
  C    -10.652320   17.121600   -8.460770
  C     -9.612180   16.538690   -7.598920
  O     -9.788070   15.876120   -6.597640
  C    -12.008190   17.067630   -8.310820
  C    -12.832350   17.712160   -9.259700
  C    -12.228800   18.401920  -10.350860
  C    -10.821540   18.438720  -10.480670
  C    -13.060270   19.043820  -11.291130
  C    -14.421990   19.007820  -11.160880
  C    -15.014880   18.328900  -10.085820
  C    -14.237000   17.694350   -9.155580
  H     -0.312790    2.974540  -11.879990
  H      4.637070    3.308320  -11.392050
  H      4.923200    2.294530  -13.564220
  H      3.968580    1.320280  -15.614560
  H      1.527260    1.145000  -15.887530
  H      0.018690    1.941710  -14.110220
  H      2.515460    5.353020   -6.807480
  H     -1.244730    5.692070   -7.963210
  H     -0.982610    6.837660   -3.806740
  H      3.343410    5.998120   -1.458010
  H      2.578960    3.907850   -5.156450
  H      1.621280    7.967370   -1.588830
  H      0.757770    8.455670   -4.489860
  H     -1.978940   13.278290   -4.380220
  H     -0.221450   14.835910   -2.413270
  H     -0.140070   17.363260   -3.309300
  H     -4.028910   17.695590   -5.153710
  H     -7.136260   13.798730   -4.490240
  H     -3.440130   13.837440   -2.263620
  H     -4.775480   16.161940   -6.517720
  H     -7.733960   15.572750   -5.952940
  H     -6.203490   17.036890   -8.183040
  H    -12.445910   16.540230   -7.476260
  H    -10.397640   18.971690  -11.316700
  H    -12.599410   19.565120  -12.117240
  H    -15.050250   19.502870  -11.886010
  H    -16.090870   18.311330   -9.998310
  H    -14.687580   17.169980   -8.325690

 Total Charge           Charge          ....    0
 Multiplicity           Mult            ....    1
 Number of Electrons    NEL             ....  570
 Basis Dimension        Dim             .... 1334

ORBITAL ENERGIES
----------------

  NO   OCC          E(Eh)            E(eV)
   0   2.0000     -89.001544     -2421.8552
   1   2.0000     -24.820340      -675.3958
   2   2.0000     -24.819675      -675.3777
   3   2.0000     -24.817557      -675.3201
   4   2.0000     -19.230706      -523.2941
   5   2.0000     -19.221473      -523.0429
   6   2.0000     -14.430945      -392.6860
   7   2.0000     -14.426420      -392.5628
   8   2.0000     -14.425077      -392.5263
   9   2.0000     -14.424181      -392.5019
  10   2.0000     -14.423776      -392.4909
  11   2.0000     -14.422819      -392.4649
  12   2.0000     -14.421179      -392.4202
  13   2.0000     -14.420775      -392.4092
  14   2.0000     -14.417708      -392.3258
  15   2.0000     -10.543311      -286.8981
  16   2.0000     -10.381330      -282.4904
  17   2.0000     -10.371969      -282.2356
  18   2.0000     -10.355681      -281.7924
  19   2.0000     -10.354109      -281.7496
  20   2.0000     -10.353122      -281.7228
  21   2.0000     -10.352751      -281.7127
  22   2.0000     -10.347078      -281.5583
  23   2.0000     -10.346021      -281.5295
  24   2.0000     -10.345924      -281.5269
  25   2.0000     -10.344518      -281.4887
  26   2.0000     -10.343937      -281.4728
  27   2.0000     -10.343892      -281.4716
  28   2.0000     -10.343138      -281.4511
  29   2.0000     -10.340781      -281.3870
  30   2.0000     -10.340677      -281.3841
  31   2.0000     -10.340095      -281.3683
  32   2.0000     -10.336485      -281.2701
  33   2.0000     -10.334818      -281.2247
  34   2.0000     -10.333745      -281.1955
  35   2.0000     -10.333608      -281.1918
  36   2.0000     -10.327749      -281.0323
  37   2.0000     -10.326591      -281.0008
  38   2.0000     -10.326533      -280.9993
  39   2.0000     -10.323992      -280.9301
  40   2.0000     -10.323533      -280.9176
  41   2.0000     -10.323448      -280.9153
  42   2.0000     -10.321569      -280.8642
  43   2.0000     -10.320684      -280.8401
  44   2.0000     -10.320522      -280.8357
  45   2.0000     -10.319853      -280.8175
  46   2.0000     -10.319510      -280.8081
  47   2.0000     -10.318888      -280.7912
  48   2.0000     -10.318586      -280.7830
  49   2.0000     -10.318425      -280.7786
  50   2.0000     -10.318321      -280.7758
  51   2.0000     -10.318095      -280.7696
  52   2.0000     -10.318070      -280.7690
  53   2.0000     -10.317987      -280.7667
  54   2.0000     -10.317873      -280.7636
  55   2.0000     -10.317271      -280.7472
  56   2.0000     -10.315984      -280.7122
  57   2.0000     -10.315922      -280.7105
  58   2.0000     -10.315525      -280.6997
  59   2.0000     -10.315456      -280.6978
  60   2.0000     -10.314013      -280.6586
  61   2.0000     -10.313121      -280.6343
  62   2.0000     -10.312886      -280.6279
  63   2.0000     -10.312563      -280.6191
  64   2.0000     -10.306547      -280.4554
  65   2.0000     -10.306430      -280.4522
  66   2.0000     -10.306110      -280.4435
  67   2.0000     -10.306100      -280.4432
  68   2.0000     -10.306074      -280.4425
  69   2.0000     -10.304169      -280.3907
  70   2.0000     -10.300804      -280.2991
  71   2.0000     -10.300561      -280.2925
  72   2.0000     -10.299921      -280.2751
  73   2.0000     -10.299798      -280.2718
  74   2.0000     -10.298134      -280.2265
  75   2.0000     -10.296029      -280.1692
  76   2.0000     -10.294543      -280.1288
  77   2.0000     -10.293968      -280.1131
  78   2.0000     -10.293565      -280.1021
  79   2.0000     -10.293071      -280.0887
  80   2.0000     -10.291635      -280.0496
  81   2.0000     -10.289448      -279.9901
  82   2.0000     -10.288912      -279.9755
  83   2.0000     -10.288675      -279.9691
  84   2.0000     -10.288191      -279.9559
  85   2.0000      -8.097409      -220.3417
  86   2.0000      -6.066551      -165.0792
  87   2.0000      -6.062412      -164.9666
  88   2.0000      -6.059678      -164.8922
  89   2.0000      -1.410474       -38.3809
  90   2.0000      -1.313111       -35.7316
  91   2.0000      -1.309457       -35.6321
  92   2.0000      -1.145746       -31.1773
  93   2.0000      -1.135889       -30.9091
  94   2.0000      -1.041252       -28.3339
  95   2.0000      -1.035191       -28.1690
  96   2.0000      -1.031828       -28.0775
  97   2.0000      -1.029922       -28.0256
  98   2.0000      -1.021963       -27.8090
  99   2.0000      -1.017745       -27.6943
 100   2.0000      -1.015832       -27.6422
 101   2.0000      -1.010291       -27.4914
 102   2.0000      -1.007583       -27.4177
 103   2.0000      -1.004579       -27.3360
 104   2.0000      -1.002836       -27.2885
 105   2.0000      -1.002305       -27.2741
 106   2.0000      -1.001329       -27.2476
 107   2.0000      -0.997431       -27.1415
 108   2.0000      -0.994589       -27.0641
 109   2.0000      -0.992827       -27.0162
 110   2.0000      -0.980839       -26.6900
 111   2.0000      -0.974939       -26.5294
 112   2.0000      -0.948849       -25.8195
 113   2.0000      -0.938197       -25.5296
 114   2.0000      -0.935712       -25.4620
 115   2.0000      -0.926549       -25.2127
 116   2.0000      -0.923329       -25.1251
 117   2.0000      -0.918293       -24.9880
 118   2.0000      -0.907445       -24.6928
 119   2.0000      -0.899927       -24.4883
 120   2.0000      -0.899644       -24.4806
 121   2.0000      -0.895535       -24.3687
 122   2.0000      -0.890971       -24.2445
 123   2.0000      -0.888702       -24.1828
 124   2.0000      -0.884412       -24.0661
 125   2.0000      -0.883372       -24.0378
 126   2.0000      -0.871759       -23.7218
 127   2.0000      -0.848558       -23.0904
 128   2.0000      -0.845417       -23.0050
 129   2.0000      -0.837334       -22.7850
 130   2.0000      -0.835374       -22.7317
 131   2.0000      -0.832087       -22.6422
 132   2.0000      -0.831169       -22.6173
 133   2.0000      -0.817910       -22.2565
 134   2.0000      -0.814869       -22.1737
 135   2.0000      -0.800154       -21.7733
 136   2.0000      -0.797602       -21.7038
 137   2.0000      -0.791805       -21.5461
 138   2.0000      -0.773505       -21.0481
 139   2.0000      -0.765396       -20.8275
 140   2.0000      -0.759196       -20.6588
 141   2.0000      -0.757936       -20.6245
 142   2.0000      -0.744805       -20.2672
 143   2.0000      -0.742888       -20.2150
 144   2.0000      -0.737746       -20.0751
 145   2.0000      -0.736649       -20.0452
 146   2.0000      -0.724445       -19.7132
 147   2.0000      -0.715619       -19.4730
 148   2.0000      -0.709618       -19.3097
 149   2.0000      -0.709491       -19.3062
 150   2.0000      -0.707060       -19.2401
 151   2.0000      -0.699323       -19.0296
 152   2.0000      -0.696959       -18.9652
 153   2.0000      -0.694172       -18.8894
 154   2.0000      -0.693026       -18.8582
 155   2.0000      -0.691776       -18.8242
 156   2.0000      -0.688972       -18.7479
 157   2.0000      -0.684481       -18.6257
 158   2.0000      -0.672381       -18.2964
 159   2.0000      -0.667794       -18.1716
 160   2.0000      -0.656081       -17.8529
 161   2.0000      -0.655309       -17.8319
 162   2.0000      -0.653462       -17.7816
 163   2.0000      -0.652719       -17.7614
 164   2.0000      -0.645408       -17.5624
 165   2.0000      -0.642587       -17.4857
 166   2.0000      -0.638379       -17.3712
 167   2.0000      -0.636163       -17.3109
 168   2.0000      -0.623874       -16.9765
 169   2.0000      -0.616648       -16.7798
 170   2.0000      -0.615613       -16.7517
 171   2.0000      -0.614370       -16.7179
 172   2.0000      -0.611580       -16.6419
 173   2.0000      -0.609474       -16.5846
 174   2.0000      -0.598554       -16.2875
 175   2.0000      -0.594080       -16.1657
 176   2.0000      -0.592073       -16.1111
 177   2.0000      -0.582850       -15.8602
 178   2.0000      -0.572104       -15.5677
 179   2.0000      -0.570093       -15.5130
 180   2.0000      -0.570006       -15.5106
 181   2.0000      -0.569034       -15.4842
 182   2.0000      -0.561009       -15.2658
 183   2.0000      -0.559969       -15.2375
 184   2.0000      -0.558893       -15.2083
 185   2.0000      -0.555441       -15.1143
 186   2.0000      -0.551052       -14.9949
 187   2.0000      -0.549638       -14.9564
 188   2.0000      -0.547837       -14.9074
 189   2.0000      -0.545091       -14.8327
 190   2.0000      -0.544721       -14.8226
 191   2.0000      -0.542535       -14.7631
 192   2.0000      -0.540941       -14.7198
 193   2.0000      -0.537922       -14.6376
 194   2.0000      -0.535534       -14.5726
 195   2.0000      -0.534445       -14.5430
 196   2.0000      -0.533354       -14.5133
 197   2.0000      -0.532021       -14.4770
 198   2.0000      -0.530372       -14.4322
 199   2.0000      -0.529220       -14.4008
 200   2.0000      -0.527493       -14.3538
 201   2.0000      -0.524124       -14.2621
 202   2.0000      -0.524040       -14.2599
 203   2.0000      -0.521773       -14.1982
 204   2.0000      -0.520737       -14.1700
 205   2.0000      -0.519435       -14.1346
 206   2.0000      -0.517968       -14.0946
 207   2.0000      -0.516365       -14.0510
 208   2.0000      -0.515281       -14.0215
 209   2.0000      -0.511574       -13.9206
 210   2.0000      -0.510631       -13.8950
 211   2.0000      -0.509790       -13.8721
 212   2.0000      -0.508267       -13.8306
 213   2.0000      -0.507953       -13.8221
 214   2.0000      -0.507555       -13.8113
 215   2.0000      -0.506513       -13.7829
 216   2.0000      -0.505831       -13.7644
 217   2.0000      -0.502659       -13.6781
 218   2.0000      -0.500953       -13.6316
 219   2.0000      -0.500112       -13.6087
 220   2.0000      -0.496970       -13.5233
 221   2.0000      -0.495408       -13.4807
 222   2.0000      -0.492220       -13.3940
 223   2.0000      -0.490169       -13.3382
 224   2.0000      -0.485862       -13.2210
 225   2.0000      -0.477388       -12.9904
 226   2.0000      -0.474509       -12.9121
 227   2.0000      -0.468638       -12.7523
 228   2.0000      -0.466919       -12.7055
 229   2.0000      -0.466012       -12.6808
 230   2.0000      -0.462506       -12.5854
 231   2.0000      -0.461649       -12.5621
 232   2.0000      -0.458078       -12.4649
 233   2.0000      -0.456993       -12.4354
 234   2.0000      -0.455337       -12.3904
 235   2.0000      -0.453943       -12.3524
 236   2.0000      -0.453261       -12.3339
 237   2.0000      -0.453143       -12.3306
 238   2.0000      -0.451920       -12.2974
 239   2.0000      -0.450409       -12.2563
 240   2.0000      -0.449300       -12.2261
 241   2.0000      -0.448737       -12.2108
 242   2.0000      -0.447998       -12.1907
 243   2.0000      -0.447865       -12.1870
 244   2.0000      -0.447389       -12.1741
 245   2.0000      -0.444566       -12.0973
 246   2.0000      -0.443807       -12.0766
 247   2.0000      -0.443140       -12.0584
 248   2.0000      -0.442628       -12.0445
 249   2.0000      -0.437268       -11.8987
 250   2.0000      -0.436964       -11.8904
 251   2.0000      -0.436404       -11.8752
 252   2.0000      -0.431322       -11.7369
 253   2.0000      -0.430512       -11.7148
 254   2.0000      -0.427164       -11.6237
 255   2.0000      -0.425899       -11.5893
 256   2.0000      -0.424102       -11.5404
 257   2.0000      -0.423461       -11.5230
 258   2.0000      -0.423122       -11.5137
 259   2.0000      -0.421257       -11.4630
 260   2.0000      -0.420565       -11.4441
 261   2.0000      -0.419809       -11.4236
 262   2.0000      -0.415698       -11.3117
 263   2.0000      -0.411221       -11.1899
 264   2.0000      -0.409877       -11.1533
 265   2.0000      -0.396785       -10.7971
 266   2.0000      -0.390368       -10.6224
 267   2.0000      -0.387195       -10.5361
 268   2.0000      -0.377993       -10.2857
 269   2.0000      -0.369818       -10.0633
 270   2.0000      -0.364678        -9.9234
 271   2.0000      -0.357264        -9.7216
 272   2.0000      -0.351446        -9.5633
 273   2.0000      -0.349416        -9.5081
 274   2.0000      -0.343153        -9.3377
 275   2.0000      -0.340192        -9.2571
 276   2.0000      -0.338678        -9.2159
 277   2.0000      -0.327341        -8.9074
 278   2.0000      -0.320515        -8.7217
 279   2.0000      -0.314678        -8.5628
 280   2.0000      -0.309577        -8.4240
 281   2.0000      -0.299960        -8.1623
 282   2.0000      -0.298738        -8.1291
 283   2.0000      -0.285890        -7.7795
 284   2.0000      -0.277171        -7.5422
 285   0.0000      -0.146989        -3.9998
 286   0.0000      -0.140498        -3.8231
 287   0.0000      -0.099696        -2.7129
 288   0.0000      -0.098125        -2.6701
 289   0.0000      -0.076542        -2.0828

MULLIKEN ATOMIC CHARGES
-----------------------
   0 C :    0.325958
   1 C :   -0.363439
   2 C :   -0.179163
   3 N :    0.153670
   4 C :   -0.181701
   5 N :    0.154120
   6 C :    0.049117
   7 C :   -0.007704
   8 C :   -0.081217
   9 C :    0.101928
  10 C :    0.099380
  11 C :   -0.084695
  12 C :   -0.021738
  13 C :    0.039053
  14 C :    0.040024
  15 C :   -0.019401
  16 C :    0.150712
  17 O :   -0.150554
  18 C :   -0.059280
  19 C :   -0.067453
  20 C :    0.086938
  21 C :    0.020559
  22 C :   -0.115130
  23 C :   -0.124236
  24 N :    0.155569
  25 C :   -0.017572
  26 C :    0.018720
  27 C :    0.051926
  28 C :    0.073126
  29 C :    0.004238
  30 C :   -0.079231
  31 C :   -0.006288
  32 C :   -0.128390
  33 N :    0.154227
  34 C :   -0.005382
  35 C :    0.027140
  36 C :   -0.090625
  37 S :    0.188534
  38 C :   -0.142084
  39 C :   -0.030605
  40 C :   -0.050268
  41 C :   -0.226384
  42 N :    0.148700
  43 C :    0.526707
  44 F :   -0.155028
  45 F :   -0.133069
  46 F :   -0.157109
  47 C :    0.006036
  48 C :    0.010087
  49 C :    0.062126
  50 C :    0.001652
  51 C :   -0.100365
  52 C :   -0.125985
  53 N :    0.153811
  54 C :   -0.024174
  55 C :    0.040157
  56 C :    0.049004
  57 C :    0.079129
  58 C :    0.004730
  59 C :   -0.096680
  60 C :   -0.014022
  61 C :   -0.130172
  62 N :    0.151015
  63 C :   -0.003872
  64 C :   -0.001441
  65 C :   -0.037881
  66 C :   -0.067013
  67 C :    0.336243
  68 C :   -0.350252
  69 C :   -0.180367
  70 N :    0.149359
  71 C :   -0.187793
  72 N :    0.141232
  73 C :    0.047567
  74 C :   -0.003611
  75 C :    0.150931
  76 O :   -0.152908
  77 C :   -0.079700
  78 C :    0.098940
  79 C :    0.095716
  80 C :   -0.084903
  81 C :   -0.019571
  82 C :    0.037504
  83 C :    0.035168
  84 C :   -0.015822
  85 H :   -0.009892
  86 H :   -0.006093
  87 H :   -0.005403
  88 H :   -0.001424
  89 H :   -0.002440
  90 H :   -0.014172
  91 H :    0.002021
  92 H :    0.025734
  93 H :    0.025685
  94 H :    0.010059
  95 H :    0.010070
  96 H :    0.013903
  97 H :    0.010745
  98 H :    0.020219
  99 H :    0.013701
 100 H :    0.000843
 101 H :    0.008364
 102 H :    0.014838
 103 H :    0.012675
 104 H :    0.017829
 105 H :    0.029422
 106 H :    0.007002
 107 H :   -0.012424
 108 H :   -0.007272
 109 H :   -0.008241
 110 H :   -0.003486
 111 H :   -0.002460
 112 H :   -0.016281
Sum of atomic charges:   -0.0000000

LOEWDIN ATOMIC CHARGES
----------------------
   0 C :    0.077659
   1 C :   -0.138582
   2 C :   -0.017271
   3 N :   -0.047290
   4 C :   -0.021299
   5 N :   -0.050281
   6 C :   -0.028396
   7 C :   -0.057907
   8 C :    0.034830
   9 C :   -0.007124
  10 C :   -0.005386
  11 C :    0.022867
  12 C :   -0.004018
  13 C :   -0.010503
  14 C :   -0.008813
  15 C :   -0.008661
  16 C :    0.086393
  17 O :   -0.140117
  18 C :   -0.083739
  19 C :    0.062247
  20 C :   -0.057118
  21 C :    0.079598
  22 C :   -0.068147
  23 C :   -0.033256
  24 N :   -0.033131
  25 C :    0.027898
  26 C :    0.028538
  27 C :    0.051147
  28 C :   -0.028277
  29 C :    0.026194
  30 C :   -0.030857
  31 C :    0.004446
  32 C :   -0.027756
  33 N :   -0.024581
  34 C :    0.014033
  35 C :   -0.052467
  36 C :   -0.133568
  37 S :    0.489903
  38 C :   -0.146174
  39 C :   -0.099457
  40 C :   -0.093179
  41 C :   -0.037762
  42 N :   -0.041065
  43 C :    0.174439
  44 F :   -0.057240
  45 F :   -0.028041
  46 F :   -0.060756
  47 C :   -0.053350
  48 C :    0.009051
  49 C :   -0.028498
  50 C :    0.017399
  51 C :   -0.042284
  52 C :   -0.031111
  53 N :   -0.027830
  54 C :   -0.000867
  55 C :    0.040665
  56 C :    0.038593
  57 C :   -0.044192
  58 C :    0.047776
  59 C :   -0.056927
  60 C :    0.015685
  61 C :   -0.032466
  62 N :   -0.031851
  63 C :    0.020628
  64 C :   -0.018744
  65 C :    0.064149
  66 C :   -0.087369
  67 C :    0.075497
  68 C :   -0.137681
  69 C :   -0.017173
  70 N :   -0.051847
  71 C :   -0.019136
  72 N :   -0.054302
  73 C :   -0.026067
  74 C :   -0.056403
  75 C :    0.085736
  76 O :   -0.146519
  77 C :    0.033316
  78 C :   -0.007891
  79 C :   -0.005786
  80 C :    0.020286
  81 C :   -0.004982
  82 C :   -0.012294
  83 C :   -0.011326
  84 C :   -0.009141
  85 H :    0.040038
  86 H :    0.039942
  87 H :    0.036012
  88 H :    0.034725
  89 H :    0.034107
  90 H :    0.033023
  91 H :    0.043001
  92 H :    0.039453
  93 H :    0.041808
  94 H :    0.041612
  95 H :    0.037189
  96 H :    0.046559
  97 H :    0.032313
  98 H :    0.034102
  99 H :    0.036224
 100 H :    0.037929
 101 H :    0.037668
 102 H :    0.041841
 103 H :    0.036522
 104 H :    0.036301
 105 H :    0.034150
 106 H :    0.041465
 107 H :    0.039242
 108 H :    0.039335
 109 H :    0.035092
 110 H :    0.033749
 111 H :    0.033579
 112 H :    0.032298

  Mayer bond orders larger than 0.100000
B(  0-C ,  1-C ) :   1.6253 B(  0-C ,  6-C ) :   0.9895 B(  0-C , 18-C ) :   1.0583
B(  1-C ,  2-C ) :   1.1495 B(  1-C ,  4-C ) :   1.1466 B(  2-C ,  3-N ) :   2.9608
B(  4-C ,  5-N ) :   2.9464 B(  6-C ,  7-C ) :   1.2110 B(  6-C , 11-C ) :   1.4392
B(  7-C ,  8-C ) :   1.4639 B(  7-C , 16-C ) :   0.9527 B(  8-C ,  9-C ) :   1.1786
B(  8-C , 85-H ) :   1.0176 B(  9-C , 10-C ) :   1.2531 B(  9-C , 15-C ) :   1.2425
B( 10-C , 11-C ) :   1.2089 B( 10-C , 12-C ) :   1.2371 B( 11-C , 86-H ) :   0.9905
B( 12-C , 13-C ) :   1.4893 B( 12-C , 87-H ) :   0.9985 B( 13-C , 14-C ) :   1.2585
B( 13-C , 88-H ) :   0.9885 B( 14-C , 15-C ) :   1.4899 B( 14-C , 89-H ) :   0.9881
B( 15-C , 90-H ) :   0.9987 B( 16-C , 17-O ) :   2.1984 B( 16-C , 18-C ) :   0.9205
B( 18-C , 19-C ) :   1.6237 B( 19-C , 20-C ) :   1.1129 B( 19-C , 91-H ) :   0.9246
B( 20-C , 21-C ) :   1.5439 B( 20-C , 26-C ) :   1.0476 B( 21-C , 22-C ) :   1.0984
B( 21-C , 92-H ) :   1.0022 B( 22-C , 23-C ) :   1.0594 B( 22-C , 25-C ) :   1.5912
B( 23-C , 24-N ) :   3.0465 B( 25-C , 26-C ) :   1.0985 B( 25-C , 93-H ) :   1.0119
B( 26-C , 27-C ) :   1.4703 B( 27-C , 28-C ) :   1.0191 B( 27-C , 31-C ) :   1.1156
B( 28-C , 29-C ) :   1.5696 B( 28-C , 34-C ) :   1.1436 B( 29-C , 30-C ) :   1.1036
B( 29-C , 94-H ) :   1.0209 B( 30-C , 31-C ) :   1.6034 B( 30-C , 32-C ) :   1.0658
B( 31-C , 95-H ) :   1.0139 B( 32-C , 33-N ) :   3.0372 B( 34-C , 35-C ) :   1.6465
B( 34-C , 96-H ) :   0.9500 B( 35-C , 36-C ) :   1.1630 B( 35-C , 97-H ) :   0.9278
B( 36-C , 37-S ) :   1.1401 B( 36-C , 40-C ) :   1.4796 B( 37-S , 38-C ) :   1.1451
B( 38-C , 39-C ) :   1.5292 B( 38-C , 47-C ) :   1.0978 B( 39-C , 40-C ) :   1.2998
B( 39-C , 43-C ) :   0.9344 B( 40-C , 41-C ) :   1.1321 B( 41-C , 42-N ) :   2.9533
B( 43-C , 44-F ) :   1.1344 B( 43-C , 45-F ) :   1.1805 B( 43-C , 46-F ) :   1.1477
B( 47-C , 48-C ) :   1.6918 B( 47-C , 98-H ) :   0.9443 B( 48-C , 49-C ) :   1.1283
B( 48-C , 99-H ) :   0.9552 B( 49-C , 50-C ) :   1.5849 B( 49-C , 55-C ) :   1.0297
B( 50-C , 51-C ) :   1.1015 B( 50-C ,100-H ) :   1.0221 B( 51-C , 52-C ) :   1.0640
B( 51-C , 54-C ) :   1.6174 B( 52-C , 53-N ) :   3.0407 B( 54-C , 55-C ) :   1.1025
B( 54-C ,101-H ) :   1.0125 B( 55-C , 56-C ) :   1.4919 B( 56-C , 57-C ) :   1.0411
B( 56-C , 60-C ) :   1.0867 B( 57-C , 58-C ) :   1.5926 B( 57-C , 63-C ) :   1.0564
B( 58-C , 59-C ) :   1.0982 B( 58-C ,102-H ) :   1.0142 B( 59-C , 60-C ) :   1.6223
B( 59-C , 61-C ) :   1.0593 B( 60-C ,103-H ) :   1.0038 B( 61-C , 62-N ) :   3.0437
B( 63-C , 64-C ) :   1.5990 B( 63-C ,104-H ) :   0.9727 B( 64-C , 65-C ) :   1.1477
B( 64-C ,105-H ) :   0.9815 B( 65-C , 66-C ) :   1.5513 B( 65-C ,106-H ) :   0.9620
B( 66-C , 67-C ) :   1.0568 B( 66-C , 75-C ) :   0.9399 B( 67-C , 68-C ) :   1.6288
B( 67-C , 73-C ) :   0.9905 B( 68-C , 69-C ) :   1.1454 B( 68-C , 71-C ) :   1.1456
B( 69-C , 70-N ) :   2.9618 B( 71-C , 72-N ) :   2.9585 B( 73-C , 74-C ) :   1.2134
B( 73-C , 80-C ) :   1.4482 B( 74-C , 75-C ) :   0.9482 B( 74-C , 77-C ) :   1.4710
B( 75-C , 76-O ) :   2.1957 B( 77-C , 78-C ) :   1.1806 B( 77-C ,107-H ) :   1.0158
B( 78-C , 79-C ) :   1.2536 B( 78-C , 84-C ) :   1.2443 B( 79-C , 80-C ) :   1.2079
B( 79-C , 81-C ) :   1.2405 B( 80-C ,108-H ) :   0.9887 B( 81-C , 82-C ) :   1.4907
B( 81-C ,109-H ) :   0.9967 B( 82-C , 83-C ) :   1.2592 B( 82-C ,110-H ) :   0.9883
B( 83-C , 84-C ) :   1.4887 B( 83-C ,111-H ) :   0.9889 B( 84-C ,112-H ) :   0.9975

-----------------------------------------------------------------------------
         ABSORPTION SPECTRUM VIA TRANSITION ELECTRIC DIPOLE MOMENTS
-----------------------------------------------------------------------------
State   Energy  Wavelength   fosc         T2         TX        TY        TZ
        (cm-1)    (nm)                  (au**2)     (au)      (au)      (au)
-----------------------------------------------------------------------------
   0   10751.9    930.1   0.132643176   4.06138  -0.58928   1.70367   0.90091
   1   12389.4    807.1   0.157057912   4.17335  -1.55394   0.72487  -1.11048
   2   14670.2    681.7   0.015310050   0.34357   0.08734  -0.41172  -0.40796
   3   15810.8    632.5   0.021233640   0.44213   0.32439   0.06190  -0.57712
   4   20520.4    487.3   0.032861561   0.52720   0.44399  -0.57157   0.05815
   5   20941.7    477.5   0.014544859   0.22865  -0.11681  -0.23985  -0.39684
   6   21548.0    464.1   0.076118110   1.16294   0.10406   1.06200   0.15575
   7   22366.8    447.1   0.154292120   2.27099  -0.73923   1.23391  -0.44943
   8   22510.0    444.2   0.013249723   0.19378  -0.17690  -0.07819   0.39544
   9   23834.7    419.6   0.713201814   9.85094  -2.26190   1.22444  -1.79875
  10   24109.1    414.8   0.082623013   1.12823  -0.13288  -0.03158   1.05336
  11   24500.1    408.2   0.168913809   2.26972   0.15874   0.16928   1.48858
  12   24853.6    402.4   0.029880023   0.39579  -0.32495  -0.46638  -0.26961
  13   25076.3    398.8   0.381130208   5.00364  -0.01591  -1.32391  -1.80295
  14   25416.4    393.4   0.010141591   0.13136   0.00913   0.35763  -0.05812
  15   25854.9    386.8   0.061378889   0.78154   0.21698  -0.55873   0.64983
  16   26131.3    382.7   0.009007706   0.11348  -0.10150   0.25839  -0.19083
  17   26982.1    370.6   0.013055062   0.15929   0.37372  -0.13387  -0.04126
  18   27235.6    367.2   0.089952828   1.08731  -0.63987   0.71366  -0.41057
  19   27966.1    357.6   0.093236084   1.09756   0.09438   1.04054  -0.07692
  20   27975.0    357.5   0.100639356   1.18433  -0.05810   0.83012  -0.70132
  21   28259.2    353.9   0.472923467   5.50943   1.98973  -0.11584   1.23975
  22   28648.2    349.1   0.113488383   1.30416  -0.52826   0.52227   0.86737
  23   29175.2    342.8   0.219516862   2.47702  -0.89552   1.28226   0.17570
  24   29236.4    342.0   0.027104134   0.30520  -0.35875  -0.15683  -0.38974
  25   29411.6    340.0   0.447163677   5.00523  -1.61371  -1.14659   1.04236
  26   29736.3    336.3   0.122491364   1.35611  -0.60280   0.99591   0.03009
  27   30185.6    331.3   0.118539565   1.29282   1.10687   0.12472   0.22828
  28   30364.7    329.3   0.780768657   8.46503  -1.48073   2.48499  -0.31188
  29   31023.6    322.3   0.051492507   0.54642  -0.55036   0.19960   0.45131
  30   31190.4    320.6   0.002395258   0.02528   0.07085   0.14160   0.01455
  31   31288.1    319.6   0.120022049   1.26287  -0.54940  -0.84266  -0.50096
  32   31377.6    318.7   0.146629927   1.53843  -1.19997  -0.02203   0.31308
  33   31606.5    316.4   0.046627187   0.48567   0.28160  -0.31659   0.55330
  34   31802.2    314.4   0.137716146   1.42562  -0.62999   0.51158  -0.87580
  35   31863.4    313.8   0.139960152   1.44607   1.01347  -0.63925  -0.10153
  36   32172.6    310.8   0.099081066   1.01386  -0.72824   0.48059  -0.50257
  37   32703.9    305.8   0.063698715   0.64122  -0.09314  -0.59710  -0.52537
  38   32989.9    303.1   0.328873650   3.28189   0.14208  -1.38147  -1.16329
  39   33128.4    301.9   0.000889211   0.00884   0.06641   0.06644  -0.00339
  40   33370.2    299.7   0.000705513   0.00696   0.07025  -0.01277  -0.04315
  41   33388.8    299.5   0.009632911   0.09498  -0.28326  -0.03744  -0.11550
  42   33618.4    297.5   0.019691782   0.19283  -0.03276  -0.26472   0.34884
  43   33657.1    297.1   0.012677815   0.12401  -0.18892  -0.12003  -0.27186
  44   33976.7    294.3   0.015622993   0.15138   0.35875  -0.14809  -0.02733
  45   34140.6    292.9   0.457381369   4.41045   2.06260   0.06405  -0.38991
  46   34233.9    292.1   0.190045744   1.82758   1.25034  -0.24515   0.45182
  47   34433.8    290.4   0.693964592   6.63481  -0.86188  -0.82959  -2.28118
  48   34585.1    289.1   0.063393459   0.60344  -0.59787  -0.37216   0.32786
  49   34726.9    288.0   0.113489976   1.07589   0.71661   0.62758   0.41049
  50   34789.7    287.4   0.000273402   0.00259   0.04349   0.02632  -0.00164
  51   35029.3    285.5   0.081268067   0.76377   0.08290   0.72271  -0.48434
  52   35232.4    283.8   0.014021454   0.13102  -0.27146   0.21008  -0.11486
  53   35891.8    278.6   0.002331806   0.02139  -0.13818  -0.00819  -0.04719
  54   36522.0    273.8   0.021946833   0.19783   0.43249   0.02571  -0.10062
  55   36939.6    270.7   0.094401267   0.84132   0.79503  -0.44055   0.12311
  56   37240.6    268.5   0.037853640   0.33463   0.52741   0.11313  -0.20898
  57   37649.5    265.6   0.000586180   0.00513  -0.05984   0.03389  -0.01992
  58   37769.6    264.8   0.016502835   0.14384   0.36149   0.08051  -0.08179
  59   37916.9    263.7   0.037279915   0.32368  -0.33895  -0.32168   0.32453
  60   38281.9    261.2   0.007142758   0.06143  -0.16925  -0.08623  -0.15920
  61   38328.3    260.9   0.038376969   0.32963  -0.42113   0.19606   0.33740
  62   38542.0    259.5   0.018629037   0.15912   0.16754   0.35546   0.06858
  63   38657.0    258.7   0.097917165   0.83388  -0.75431  -0.29767   0.41987
  64   39024.7    256.2   0.032070221   0.27054   0.13047   0.46194   0.20034
  65   39221.7    255.0   0.008496979   0.07132  -0.06654  -0.22674  -0.12443
  66   39514.8    253.1   0.057026246   0.47511   0.43312  -0.50830   0.17072
  67   39613.0    252.4   0.408734705   3.39688   1.59880   0.47168  -0.78628
  68   40042.3    249.7   0.020400648   0.16773   0.31664  -0.05243   0.25440
  69   40201.2    248.7   0.032401428   0.26534  -0.27228  -0.29938   0.31871

FINAL SINGLE POINT ENERGY     -4020.260094360483

DIPOLE MOMENT
-------------
                                X             Y             Z
Electronic contribution:     30.34782       5.30785      48.45506
Nuclear contribution   :    -32.74945      -6.34085     -51.12034
                        -----------------------------------------
Total Dipole Moment    :     -2.40163      -1.03300      -2.66528
                        -----------------------------------------
Magnitude (a.u.)       :      3.73345
Magnitude (Debye)      :      9.48967

Rotational constants in cm-1:     0.000716     0.000252     0.000206
Rotational constants in MHz :    21.460776     7.557785     6.162218

                             ****ORCA TERMINATED NORMALLY****
TOTAL RUN TIME: 0 days 0 hours 13 minutes 4 seconds 743 msec
