                         Program Version 4.2.0 -  RELEASE  -
|  1> # ORCA input file
|  2> # SCF done       -211.272189652462          0.000914104929
|  3> ! CAM-B3LYP def2-SVP def2/J RIJCOSX Grid4 TightSCF
|  4> %maxcore 5000
|  5> %tddft
|  6>     Mode sTDDFT
|  7>     Ethresh 5.0
|  8>     maxcore 5000
|  9> end
| 10>
| 11> %pal
| 12>   nprocs 6
| 13>   end
| 14> * xyz 0 1
| 15>    C        1.96323        -0.94339        -6.61665
| 16>    C        0.64099        -0.85227        -6.95282
| 17>    F       -0.03124        -1.96359        -7.30570
| 18>    C       -0.05399         0.36426        -6.94582
| 19>    C        0.61203         1.50443        -6.59021
| 20>    C        1.97554         1.46835        -6.23495
| 21>    C        2.66473         0.22115        -6.25038
| 22>    C        4.03614         0.16012        -5.90602
| 23>    C        4.69016         1.30914        -5.55621
| 24>    C        3.99157         2.55048        -5.52402
| 25>    C        2.67199         2.63971        -5.85867
| 26>    C        4.91231         3.61119        -5.07068
| 27>    O        4.68928         4.79747        -4.96555
| 28>    C        6.17188         2.91065        -4.71200
| 29>    C        6.08214         1.55261        -5.18016
| 30>    C        7.13016         0.70259        -5.44806
| 31>    C        8.48382         1.05813        -5.31281
| 32>    N        9.60198         1.31641        -5.25687
| 33>    C        6.97297        -0.58788        -5.99052
| 34>    N        6.90121        -1.64646        -6.42935
| 35>    C        7.14459         3.59945        -4.02808
| 36>    C        8.21217         3.11673        -3.26453
| 37>    S        9.60669         4.12283        -3.02464
| 38>    C       10.49760         2.87967        -2.20104
| 39>    C        9.66202         1.75100        -1.97552
| 40>    C        8.38046         1.88847        -2.58193
| 41>    C        7.39897         0.90527        -2.38659
| 42>    C        7.70528        -0.20557        -1.64584
| 43>    F        6.77213        -1.14548        -1.44452
| 44>    C        8.97241        -0.34905        -1.05570
| 45>    F        9.22961        -1.42798        -0.30172
| 46>    C        9.93296         0.62021        -1.19409
| 47>    C       11.84529         3.10713        -1.92411
| 48>    C       12.78270         2.14853        -1.59860
| 49>    C       14.11450         2.41719        -1.31967
| 50>    C       15.03706         1.42090        -1.03259
| 51>    C       16.40657         1.56077        -0.74643
| 52>    C       17.05384         0.37492        -0.51035
| 53>    C       16.21793        -0.74894        -0.60040
| 54>    S       14.58713        -0.26985        -0.98439
| 55>    C       16.53950        -2.09604        -0.44623
| 56>    C       17.78314        -2.68861        -0.18243
| 57>    C       17.73481        -4.05649        -0.13052
| 58>    C       16.45710        -4.60886        -0.36077
| 59>    S       15.30787        -3.31843        -0.61921
| 60>    C       16.18005        -5.96586        -0.27211
| 61>    C       15.01574        -6.70472        -0.44779
| 62>    S       15.01827        -8.29657         0.27570
| 63>    C       13.35301        -8.59511        -0.10501
| 64>    C       12.82097        -7.50848        -0.84298
| 65>    C       13.75913        -6.46235        -1.07275
| 66>    C       13.40552        -5.40706        -1.92204
| 67>    C       12.13634        -5.35080        -2.43814
| 68>    F       11.80163        -4.33961        -3.25070
| 69>    C       11.18702        -6.34530        -2.14370
| 70>    F        9.95372        -6.25296        -2.65535
| 71>    C       11.52414        -7.42397        -1.36926
| 72>    C       12.69605        -9.75766         0.29791
| 73>    C       13.29619       -10.78493         0.98325
| 74>    C       12.59891       -11.92099         1.40341
| 75>    C       13.07413       -12.96898         2.15343
| 76>    C       12.33388       -14.25480         2.14892
| 77>    O       11.21203       -14.44431         1.73174
| 78>    C       13.27341       -15.24797         2.70506
| 79>    C       13.12678       -16.59940         2.81982
| 80>    C       14.18807       -17.36510         3.35364
| 81>    C       15.38723       -16.70855         3.75504
| 82>    C       16.44491       -17.47750         4.27746
| 83>    C       16.29808       -18.83213         4.39012
| 84>    C       15.12674       -19.49604         4.00260
| 85>    C       14.09025       -18.76438         3.49253
| 86>    F       17.30856       -19.56858         4.88931
| 87>    C       15.50727       -15.30382         3.63126
| 88>    C       14.46333       -14.58306         3.11943
| 89>    C       14.29075       -13.14567         2.90259
| 90>    C       15.05441       -12.16765         3.49468
| 91>    C       14.72812       -10.79713         3.52688
| 92>    N       14.50172        -9.67596         3.63529
| 93>    C       16.21896       -12.42876         4.24361
| 94>    N       17.18831       -12.57255         4.84299
| 95>    H        2.46770        -1.89678        -6.63542
| 96>    H       -1.09695         0.37491        -7.22008
| 97>    H        0.09761         2.45358        -6.57670
| 98>    H        4.53070        -0.79809        -5.91772
| 99>    H        2.16296         3.59160        -5.83563
|100>    H        7.03934         4.67997        -4.07271
|101>    H        6.39930         1.02554        -2.76941
|102>    H       10.85942         0.50201        -0.65966
|103>    H       12.18894         4.12709        -2.04557
|104>    H       12.49206         1.10863        -1.60776
|105>    H       14.46489         3.44051        -1.31710
|106>    H       16.88386         2.52447        -0.72548
|107>    H       18.10066         0.29340        -0.27949
|108>    H       18.67734        -2.10960        -0.03949
|109>    H       18.58877        -4.68174         0.06095
|110>    H       17.01901        -6.55085         0.09058
|111>    H       14.11172        -4.64979        -2.21098
|112>    H       10.79251        -8.19401        -1.18977
|113>    H       11.63953        -9.82987         0.07889
|114>    H       14.35584       -10.71181         1.18308
|115>    H       11.58262       -12.04601         1.04348
|116>    H       12.21265       -17.08045         2.50565
|117>    H       17.36051       -16.99948         4.58906
|118>    H       15.06822       -20.56708         4.11461
|119>    H       13.17740       -19.25306         3.18666
|120>    H       16.42974       -14.83648         3.93711
|121> *
|122>
|123>                          ****END OF INPUT****

CARTESIAN COORDINATES (ANGSTROEM)
---------------------------------
  C      1.963230   -0.943390   -6.616650
  C      0.640990   -0.852270   -6.952820
  F     -0.031240   -1.963590   -7.305700
  C     -0.053990    0.364260   -6.945820
  C      0.612030    1.504430   -6.590210
  C      1.975540    1.468350   -6.234950
  C      2.664730    0.221150   -6.250380
  C      4.036140    0.160120   -5.906020
  C      4.690160    1.309140   -5.556210
  C      3.991570    2.550480   -5.524020
  C      2.671990    2.639710   -5.858670
  C      4.912310    3.611190   -5.070680
  O      4.689280    4.797470   -4.965550
  C      6.171880    2.910650   -4.712000
  C      6.082140    1.552610   -5.180160
  C      7.130160    0.702590   -5.448060
  C      8.483820    1.058130   -5.312810
  N      9.601980    1.316410   -5.256870
  C      6.972970   -0.587880   -5.990520
  N      6.901210   -1.646460   -6.429350
  C      7.144590    3.599450   -4.028080
  C      8.212170    3.116730   -3.264530
  S      9.606690    4.122830   -3.024640
  C     10.497600    2.879670   -2.201040
  C      9.662020    1.751000   -1.975520
  C      8.380460    1.888470   -2.581930
  C      7.398970    0.905270   -2.386590
  C      7.705280   -0.205570   -1.645840
  F      6.772130   -1.145480   -1.444520
  C      8.972410   -0.349050   -1.055700
  F      9.229610   -1.427980   -0.301720
  C      9.932960    0.620210   -1.194090
  C     11.845290    3.107130   -1.924110
  C     12.782700    2.148530   -1.598600
  C     14.114500    2.417190   -1.319670
  C     15.037060    1.420900   -1.032590
  C     16.406570    1.560770   -0.746430
  C     17.053840    0.374920   -0.510350
  C     16.217930   -0.748940   -0.600400
  S     14.587130   -0.269850   -0.984390
  C     16.539500   -2.096040   -0.446230
  C     17.783140   -2.688610   -0.182430
  C     17.734810   -4.056490   -0.130520
  C     16.457100   -4.608860   -0.360770
  S     15.307870   -3.318430   -0.619210
  C     16.180050   -5.965860   -0.272110
  C     15.015740   -6.704720   -0.447790
  S     15.018270   -8.296570    0.275700
  C     13.353010   -8.595110   -0.105010
  C     12.820970   -7.508480   -0.842980
  C     13.759130   -6.462350   -1.072750
  C     13.405520   -5.407060   -1.922040
  C     12.136340   -5.350800   -2.438140
  F     11.801630   -4.339610   -3.250700
  C     11.187020   -6.345300   -2.143700
  F      9.953720   -6.252960   -2.655350
  C     11.524140   -7.423970   -1.369260
  C     12.696050   -9.757660    0.297910
  C     13.296190  -10.784930    0.983250
  C     12.598910  -11.920990    1.403410
  C     13.074130  -12.968980    2.153430
  C     12.333880  -14.254800    2.148920
  O     11.212030  -14.444310    1.731740
  C     13.273410  -15.247970    2.705060
  C     13.126780  -16.599400    2.819820
  C     14.188070  -17.365100    3.353640
  C     15.387230  -16.708550    3.755040
  C     16.444910  -17.477500    4.277460
  C     16.298080  -18.832130    4.390120
  C     15.126740  -19.496040    4.002600
  C     14.090250  -18.764380    3.492530
  F     17.308560  -19.568580    4.889310
  C     15.507270  -15.303820    3.631260
  C     14.463330  -14.583060    3.119430
  C     14.290750  -13.145670    2.902590
  C     15.054410  -12.167650    3.494680
  C     14.728120  -10.797130    3.526880
  N     14.501720   -9.675960    3.635290
  C     16.218960  -12.428760    4.243610
  N     17.188310  -12.572550    4.842990
  H      2.467700   -1.896780   -6.635420
  H     -1.096950    0.374910   -7.220080
  H      0.097610    2.453580   -6.576700
  H      4.530700   -0.798090   -5.917720
  H      2.162960    3.591600   -5.835630
  H      7.039340    4.679970   -4.072710
  H      6.399300    1.025540   -2.769410
  H     10.859420    0.502010   -0.659660
  H     12.188940    4.127090   -2.045570
  H     12.492060    1.108630   -1.607760
  H     14.464890    3.440510   -1.317100
  H     16.883860    2.524470   -0.725480
  H     18.100660    0.293400   -0.279490
  H     18.677340   -2.109600   -0.039490
  H     18.588770   -4.681740    0.060950
  H     17.019010   -6.550850    0.090580
  H     14.111720   -4.649790   -2.210980
  H     10.792510   -8.194010   -1.189770
  H     11.639530   -9.829870    0.078890
  H     14.355840  -10.711810    1.183080
  H     11.582620  -12.046010    1.043480
  H     12.212650  -17.080450    2.505650
  H     17.360510  -16.999480    4.589060
  H     15.068220  -20.567080    4.114610
  H     13.177400  -19.253060    3.186660
  H     16.429740  -14.836480    3.937110

 Total Charge           Charge          ....    0
 Multiplicity           Mult            ....    1
 Number of Electrons    NEL             ....  572
 Basis Dimension        Dim             .... 1266

ORBITAL ENERGIES
----------------

  NO   OCC          E(Eh)            E(eV)
   0   2.0000     -88.979838     -2421.2645
   1   2.0000     -88.979399     -2421.2525
   2   2.0000     -88.971429     -2421.0357
   3   2.0000     -88.967819     -2420.9374
   4   2.0000     -24.795395      -674.7170
   5   2.0000     -24.794984      -674.7058
   6   2.0000     -24.792402      -674.6356
   7   2.0000     -24.792329      -674.6336
   8   2.0000     -24.779654      -674.2887
   9   2.0000     -24.778865      -674.2672
  10   2.0000     -19.203305      -522.5485
  11   2.0000     -19.201945      -522.5115
  12   2.0000     -14.406708      -392.0265
  13   2.0000     -14.405854      -392.0032
  14   2.0000     -14.405081      -391.9822
  15   2.0000     -14.404012      -391.9531
  16   2.0000     -10.379876      -282.4508
  17   2.0000     -10.379216      -282.4328
  18   2.0000     -10.376104      -282.3482
  19   2.0000     -10.374874      -282.3147
  20   2.0000     -10.362591      -281.9804
  21   2.0000     -10.361879      -281.9611
  22   2.0000     -10.354686      -281.7653
  23   2.0000     -10.353236      -281.7259
  24   2.0000     -10.336293      -281.2648
  25   2.0000     -10.334671      -281.2207
  26   2.0000     -10.334280      -281.2101
  27   2.0000     -10.333784      -281.1966
  28   2.0000     -10.333468      -281.1880
  29   2.0000     -10.332424      -281.1596
  30   2.0000     -10.331474      -281.1337
  31   2.0000     -10.330112      -281.0966
  32   2.0000     -10.329884      -281.0904
  33   2.0000     -10.329072      -281.0683
  34   2.0000     -10.321024      -280.8493
  35   2.0000     -10.318296      -280.7751
  36   2.0000     -10.312589      -280.6198
  37   2.0000     -10.311544      -280.5914
  38   2.0000     -10.311464      -280.5892
  39   2.0000     -10.310781      -280.5706
  40   2.0000     -10.310390      -280.5600
  41   2.0000     -10.310213      -280.5551
  42   2.0000     -10.309319      -280.5308
  43   2.0000     -10.308958      -280.5210
  44   2.0000     -10.308106      -280.4978
  45   2.0000     -10.307696      -280.4867
  46   2.0000     -10.307631      -280.4849
  47   2.0000     -10.307305      -280.4760
  48   2.0000     -10.306094      -280.4431
  49   2.0000     -10.305265      -280.4205
  50   2.0000     -10.305206      -280.4189
  51   2.0000     -10.304640      -280.4035
  52   2.0000     -10.303404      -280.3699
  53   2.0000     -10.302642      -280.3491
  54   2.0000     -10.300613      -280.2939
  55   2.0000     -10.300552      -280.2923
  56   2.0000     -10.300222      -280.2833
  57   2.0000     -10.298773      -280.2439
  58   2.0000     -10.298282      -280.2305
  59   2.0000     -10.297572      -280.2112
  60   2.0000     -10.297170      -280.2003
  61   2.0000     -10.296662      -280.1864
  62   2.0000     -10.295582      -280.1570
  63   2.0000     -10.293289      -280.0946
  64   2.0000     -10.292598      -280.0758
  65   2.0000     -10.291060      -280.0340
  66   2.0000     -10.291041      -280.0335
  67   2.0000     -10.290941      -280.0307
  68   2.0000     -10.290248      -280.0119
  69   2.0000     -10.289445      -279.9900
  70   2.0000     -10.288476      -279.9637
  71   2.0000     -10.287814      -279.9456
  72   2.0000     -10.287785      -279.9449
  73   2.0000     -10.286934      -279.9217
  74   2.0000     -10.286402      -279.9072
  75   2.0000     -10.283440      -279.8266
  76   2.0000     -10.282371      -279.7975
  77   2.0000     -10.281361      -279.7701
  78   2.0000     -10.280526      -279.7473
  79   2.0000     -10.280487      -279.7463
  80   2.0000      -8.075229      -219.7382
  81   2.0000      -8.074585      -219.7206
  82   2.0000      -8.067485      -219.5274
  83   2.0000      -8.064163      -219.4370
  84   2.0000      -6.044235      -164.4720
  85   2.0000      -6.043617      -164.4552
  86   2.0000      -6.040208      -164.3624
  87   2.0000      -6.039584      -164.3454
  88   2.0000      -6.037803      -164.2970
  89   2.0000      -6.037114      -164.2782
  90   2.0000      -6.037073      -164.2771
  91   2.0000      -6.033769      -164.1872
  92   2.0000      -6.032923      -164.1642
  93   2.0000      -6.029739      -164.0776
  94   2.0000      -6.028710      -164.0495
  95   2.0000      -6.025307      -163.9569
  96   2.0000      -1.317158       -35.8417
  97   2.0000      -1.316363       -35.8200
  98   2.0000      -1.302100       -35.4319
  99   2.0000      -1.301370       -35.4121
 100   2.0000      -1.294275       -35.2190
 101   2.0000      -1.293644       -35.2018
 102   2.0000      -1.118103       -30.4251
 103   2.0000      -1.116683       -30.3865
 104   2.0000      -1.021613       -27.7995
 105   2.0000      -1.018608       -27.7177
 106   2.0000      -1.016393       -27.6575
 107   2.0000      -1.009294       -27.4643
 108   2.0000      -1.006216       -27.3805
 109   2.0000      -0.996617       -27.1193
 110   2.0000      -0.992021       -26.9943
 111   2.0000      -0.991149       -26.9705
 112   2.0000      -0.985033       -26.8041
 113   2.0000      -0.983205       -26.7544
 114   2.0000      -0.967905       -26.3380
 115   2.0000      -0.967336       -26.3226
 116   2.0000      -0.957267       -26.0486
 117   2.0000      -0.955178       -25.9917
 118   2.0000      -0.936420       -25.4813
 119   2.0000      -0.932203       -25.3665
 120   2.0000      -0.920163       -25.0389
 121   2.0000      -0.917587       -24.9688
 122   2.0000      -0.906983       -24.6803
 123   2.0000      -0.899634       -24.4803
 124   2.0000      -0.888990       -24.1906
 125   2.0000      -0.884693       -24.0737
 126   2.0000      -0.880888       -23.9702
 127   2.0000      -0.877021       -23.8649
 128   2.0000      -0.875836       -23.8327
 129   2.0000      -0.865579       -23.5536
 130   2.0000      -0.861410       -23.4402
 131   2.0000      -0.858738       -23.3675
 132   2.0000      -0.852041       -23.1852
 133   2.0000      -0.850743       -23.1499
 134   2.0000      -0.846712       -23.0402
 135   2.0000      -0.840914       -22.8824
 136   2.0000      -0.829398       -22.5691
 137   2.0000      -0.826616       -22.4934
 138   2.0000      -0.824794       -22.4438
 139   2.0000      -0.812609       -22.1122
 140   2.0000      -0.800001       -21.7691
 141   2.0000      -0.785141       -21.3648
 142   2.0000      -0.768209       -20.9040
 143   2.0000      -0.757001       -20.5991
 144   2.0000      -0.751998       -20.4629
 145   2.0000      -0.747836       -20.3496
 146   2.0000      -0.747162       -20.3313
 147   2.0000      -0.745688       -20.2912
 148   2.0000      -0.729739       -19.8572
 149   2.0000      -0.723510       -19.6877
 150   2.0000      -0.720345       -19.6016
 151   2.0000      -0.709353       -19.3025
 152   2.0000      -0.703520       -19.1437
 153   2.0000      -0.701484       -19.0883
 154   2.0000      -0.700673       -19.0663
 155   2.0000      -0.694955       -18.9107
 156   2.0000      -0.690424       -18.7874
 157   2.0000      -0.678920       -18.4744
 158   2.0000      -0.675965       -18.3939
 159   2.0000      -0.672218       -18.2920
 160   2.0000      -0.668868       -18.2008
 161   2.0000      -0.664815       -18.0905
 162   2.0000      -0.661550       -18.0017
 163   2.0000      -0.654793       -17.8178
 164   2.0000      -0.647457       -17.6182
 165   2.0000      -0.640636       -17.4326
 166   2.0000      -0.638083       -17.3631
 167   2.0000      -0.634607       -17.2685
 168   2.0000      -0.631273       -17.1778
 169   2.0000      -0.628277       -17.0963
 170   2.0000      -0.625315       -17.0157
 171   2.0000      -0.622977       -16.9521
 172   2.0000      -0.620970       -16.8974
 173   2.0000      -0.620572       -16.8866
 174   2.0000      -0.619830       -16.8664
 175   2.0000      -0.616075       -16.7643
 176   2.0000      -0.613441       -16.6926
 177   2.0000      -0.602386       -16.3917
 178   2.0000      -0.599675       -16.3180
 179   2.0000      -0.590023       -16.0554
 180   2.0000      -0.588597       -16.0165
 181   2.0000      -0.585574       -15.9343
 182   2.0000      -0.581989       -15.8367
 183   2.0000      -0.581445       -15.8219
 184   2.0000      -0.575825       -15.6690
 185   2.0000      -0.570885       -15.5346
 186   2.0000      -0.563673       -15.3383
 187   2.0000      -0.560911       -15.2632
 188   2.0000      -0.558817       -15.2062
 189   2.0000      -0.555184       -15.1073
 190   2.0000      -0.554580       -15.0909
 191   2.0000      -0.552050       -15.0220
 192   2.0000      -0.551754       -15.0140
 193   2.0000      -0.551338       -15.0027
 194   2.0000      -0.549866       -14.9626
 195   2.0000      -0.546075       -14.8595
 196   2.0000      -0.544576       -14.8187
 197   2.0000      -0.542978       -14.7752
 198   2.0000      -0.542474       -14.7615
 199   2.0000      -0.540073       -14.6961
 200   2.0000      -0.539247       -14.6737
 201   2.0000      -0.535582       -14.5739
 202   2.0000      -0.530649       -14.4397
 203   2.0000      -0.524777       -14.2799
 204   2.0000      -0.523529       -14.2459
 205   2.0000      -0.521599       -14.1934
 206   2.0000      -0.521479       -14.1902
 207   2.0000      -0.520356       -14.1596
 208   2.0000      -0.517223       -14.0744
 209   2.0000      -0.516327       -14.0500
 210   2.0000      -0.515564       -14.0292
 211   2.0000      -0.515179       -14.0187
 212   2.0000      -0.513780       -13.9807
 213   2.0000      -0.513549       -13.9744
 214   2.0000      -0.510259       -13.8849
 215   2.0000      -0.506639       -13.7864
 216   2.0000      -0.501695       -13.6518
 217   2.0000      -0.500538       -13.6203
 218   2.0000      -0.497517       -13.5381
 219   2.0000      -0.492724       -13.4077
 220   2.0000      -0.489735       -13.3264
 221   2.0000      -0.489332       -13.3154
 222   2.0000      -0.488413       -13.2904
 223   2.0000      -0.486794       -13.2463
 224   2.0000      -0.484993       -13.1973
 225   2.0000      -0.483833       -13.1658
 226   2.0000      -0.481299       -13.0968
 227   2.0000      -0.478764       -13.0278
 228   2.0000      -0.475305       -12.9337
 229   2.0000      -0.474742       -12.9184
 230   2.0000      -0.472940       -12.8693
 231   2.0000      -0.471164       -12.8210
 232   2.0000      -0.466753       -12.7010
 233   2.0000      -0.465456       -12.6657
 234   2.0000      -0.459636       -12.5073
 235   2.0000      -0.457472       -12.4484
 236   2.0000      -0.455495       -12.3946
 237   2.0000      -0.450140       -12.2489
 238   2.0000      -0.449175       -12.2227
 239   2.0000      -0.448957       -12.2167
 240   2.0000      -0.447245       -12.1701
 241   2.0000      -0.444243       -12.0885
 242   2.0000      -0.443042       -12.0558
 243   2.0000      -0.442408       -12.0385
 244   2.0000      -0.440580       -11.9888
 245   2.0000      -0.439517       -11.9599
 246   2.0000      -0.436956       -11.8902
 247   2.0000      -0.434489       -11.8231
 248   2.0000      -0.433839       -11.8054
 249   2.0000      -0.431142       -11.7320
 250   2.0000      -0.430270       -11.7082
 251   2.0000      -0.429067       -11.6755
 252   2.0000      -0.424788       -11.5591
 253   2.0000      -0.423101       -11.5132
 254   2.0000      -0.420285       -11.4365
 255   2.0000      -0.419373       -11.4117
 256   2.0000      -0.418470       -11.3871
 257   2.0000      -0.417043       -11.3483
 258   2.0000      -0.414894       -11.2898
 259   2.0000      -0.411603       -11.2003
 260   2.0000      -0.408720       -11.1218
 261   2.0000      -0.405992       -11.0476
 262   2.0000      -0.400779       -10.9057
 263   2.0000      -0.395288       -10.7563
 264   2.0000      -0.392197       -10.6722
 265   2.0000      -0.379188       -10.3182
 266   2.0000      -0.374289       -10.1849
 267   2.0000      -0.371466       -10.1081
 268   2.0000      -0.367420        -9.9980
 269   2.0000      -0.361380        -9.8336
 270   2.0000      -0.356864        -9.7108
 271   2.0000      -0.344811        -9.3828
 272   2.0000      -0.336055        -9.1445
 273   2.0000      -0.332284        -9.0419
 274   2.0000      -0.327111        -8.9011
 275   2.0000      -0.324672        -8.8348
 276   2.0000      -0.324198        -8.8219
 277   2.0000      -0.321661        -8.7528
 278   2.0000      -0.316143        -8.6027
 279   2.0000      -0.304541        -8.2870
 280   2.0000      -0.303141        -8.2489
 281   2.0000      -0.291661        -7.9365
 282   2.0000      -0.289796        -7.8857
 283   2.0000      -0.280111        -7.6222
 284   2.0000      -0.252252        -6.8641
 285   2.0000      -0.212816        -5.7910
 286   0.0000      -0.131600        -3.5810
 287   0.0000      -0.096908        -2.6370
 288   0.0000      -0.072901        -1.9837
 289   0.0000      -0.056925        -1.5490
 290   0.0000      -0.047613        -1.2956

MULLIKEN ATOMIC CHARGES
-----------------------
   0 C :   -0.101012
   1 C :    0.302241
   2 F :   -0.192352
   3 C :   -0.027547
   4 C :   -0.013753
   5 C :    0.103122
   6 C :    0.102374
   7 C :   -0.093653
   8 C :    0.045406
   9 C :    0.021335
  10 C :   -0.091147
  11 C :    0.133292
  12 O :   -0.152220
  13 C :   -0.159461
  14 C :    0.243040
  15 C :   -0.338262
  16 C :   -0.188377
  17 N :    0.153784
  18 C :   -0.187732
  19 N :    0.152468
  20 C :    0.068092
  21 C :   -0.153699
  22 S :    0.194682
  23 C :   -0.076313
  24 C :    0.138516
  25 C :    0.110090
  26 C :   -0.087027
  27 C :    0.220777
  28 F :   -0.167748
  29 C :    0.233774
  30 F :   -0.174393
  31 C :   -0.124916
  32 C :    0.035590
  33 C :   -0.006873
  34 C :    0.001415
  35 C :   -0.018245
  36 C :    0.034884
  37 C :    0.028383
  38 C :   -0.036235
  39 S :    0.082361
  40 C :   -0.046458
  41 C :    0.037777
  42 C :    0.031213
  43 C :   -0.031473
  44 S :    0.100667
  45 C :    0.009855
  46 C :   -0.111379
  47 S :    0.180115
  48 C :   -0.082984
  49 C :    0.139428
  50 C :    0.131474
  51 C :   -0.122558
  52 C :    0.217357
  53 F :   -0.169879
  54 C :    0.236402
  55 F :   -0.166336
  56 C :   -0.122646
  57 C :    0.010413
  58 C :   -0.001960
  59 C :    0.023400
  60 C :   -0.125688
  61 C :    0.140307
  62 O :   -0.151357
  63 C :    0.006728
  64 C :   -0.085093
  65 C :    0.102357
  66 C :    0.103139
  67 C :   -0.099069
  68 C :    0.304240
  69 C :   -0.034192
  70 C :   -0.011360
  71 F :   -0.193230
  72 C :   -0.091203
  73 C :    0.042963
  74 C :    0.293252
  75 C :   -0.342931
  76 C :   -0.224687
  77 N :    0.161562
  78 C :   -0.179566
  79 N :    0.137840
  80 H :   -0.003439
  81 H :    0.000948
  82 H :   -0.011774
  83 H :   -0.006384
  84 H :   -0.015611
  85 H :    0.020677
  86 H :    0.005191
  87 H :   -0.009431
  88 H :   -0.009579
  89 H :    0.023854
  90 H :   -0.006935
  91 H :   -0.004532
  92 H :   -0.004605
  93 H :   -0.006433
  94 H :   -0.001145
  95 H :    0.001216
  96 H :    0.001049
  97 H :   -0.004530
  98 H :    0.003596
  99 H :    0.022172
 100 H :    0.010264
 101 H :   -0.014852
 102 H :   -0.004651
 103 H :    0.002144
 104 H :   -0.011253
 105 H :   -0.007055
Sum of atomic charges:   -0.0000000

LOEWDIN ATOMIC CHARGES
----------------------
   0 C :   -0.042666
   1 C :    0.091511
   2 F :   -0.066866
   3 C :   -0.039902
   4 C :    0.003181
   5 C :   -0.020465
   6 C :    0.002775
   7 C :    0.006794
   8 C :   -0.016756
   9 C :   -0.058738
  10 C :    0.030795
  11 C :    0.079534
  12 O :   -0.154320
  13 C :   -0.111344
  14 C :    0.053801
  15 C :   -0.148134
  16 C :   -0.013455
  17 N :   -0.062635
  18 C :   -0.020617
  19 N :   -0.059983
  20 C :    0.031253
  21 C :   -0.188408
  22 S :    0.502183
  23 C :   -0.128747
  24 C :   -0.039453
  25 C :   -0.024097
  26 C :   -0.036792
  27 C :    0.076394
  28 F :   -0.046365
  29 C :    0.061309
  30 F :   -0.052886
  31 C :   -0.029492
  32 C :   -0.045418
  33 C :   -0.012510
  34 C :   -0.048604
  35 C :   -0.135792
  36 C :   -0.031556
  37 C :   -0.025083
  38 C :   -0.174109
  39 S :    0.396153
  40 C :   -0.174092
  41 C :   -0.031066
  42 C :   -0.026023
  43 C :   -0.146876
  44 S :    0.425559
  45 C :   -0.074103
  46 C :   -0.144467
  47 S :    0.501971
  48 C :   -0.181698
  49 C :   -0.023749
  50 C :   -0.050345
  51 C :   -0.043376
  52 C :    0.062260
  53 F :   -0.048671
  54 C :    0.072086
  55 F :   -0.045237
  56 C :   -0.039341
  57 C :    0.011344
  58 C :   -0.042443
  59 C :    0.060021
  60 C :   -0.103881
  61 C :    0.078509
  62 O :   -0.154335
  63 C :   -0.057194
  64 C :    0.030485
  65 C :   -0.019534
  66 C :    0.002341
  67 C :   -0.042883
  68 C :    0.091462
  69 C :   -0.039649
  70 C :    0.003364
  71 F :   -0.067573
  72 C :    0.007348
  73 C :   -0.015587
  74 C :    0.069327
  75 C :   -0.150092
  76 C :   -0.025304
  77 N :   -0.061267
  78 C :   -0.019042
  79 N :   -0.062590
  80 H :    0.042771
  81 H :    0.040735
  82 H :    0.034650
  83 H :    0.038721
  84 H :    0.038265
  85 H :    0.044711
  86 H :    0.045485
  87 H :    0.040237
  88 H :    0.032768
  89 H :    0.024671
  90 H :    0.036423
  91 H :    0.037046
  92 H :    0.035562
  93 H :    0.035523
  94 H :    0.037476
  95 H :    0.040181
  96 H :    0.023924
  97 H :    0.042360
  98 H :    0.039648
  99 H :    0.024920
 100 H :    0.042957
 101 H :    0.038473
 102 H :    0.042295
 103 H :    0.040982
 104 H :    0.034880
 105 H :    0.038192

  Mayer bond orders larger than 0.100000
B(  0-C ,  1-C ) :   1.4362 B(  0-C ,  6-C ) :   1.2049 B(  0-C , 80-H ) :   1.0079
B(  1-C ,  2-F ) :   1.0867 B(  1-C ,  3-C ) :   1.2585 B(  3-C ,  4-C ) :   1.4568
B(  3-C , 81-H ) :   0.9922 B(  4-C ,  5-C ) :   1.2352 B(  4-C , 82-H ) :   0.9976
B(  5-C ,  6-C ) :   1.2624 B(  5-C , 10-C ) :   1.1823 B(  6-C ,  7-C ) :   1.1921
B(  7-C ,  8-C ) :   1.4676 B(  7-C , 83-H ) :   0.9964 B(  8-C ,  9-C ) :   1.2205
B(  8-C , 14-C ) :   0.9868 B(  9-C , 10-C ) :   1.4708 B(  9-C , 11-C ) :   0.9170
B( 10-C , 84-H ) :   1.0174 B( 11-C , 12-O ) :   2.2622 B( 11-C , 13-C ) :   0.9546
B( 13-C , 14-C ) :   1.0939 B( 13-C , 20-C ) :   1.5412 B( 14-C , 15-C ) :   1.6081
B( 15-C , 16-C ) :   1.1696 B( 15-C , 18-C ) :   1.1431 B( 16-C , 17-N ) :   3.0008
B( 18-C , 19-N ) :   2.9816 B( 20-C , 21-C ) :   1.2377 B( 20-C , 85-H ) :   0.9272
B( 21-C , 22-S ) :   1.1138 B( 21-C , 25-C ) :   1.2569 B( 22-S , 23-C ) :   1.1758
B( 23-C , 24-C ) :   1.2422 B( 23-C , 32-C ) :   1.2352 B( 24-C , 25-C ) :   1.2597
B( 24-C , 31-C ) :   1.1988 B( 25-C , 26-C ) :   1.2211 B( 26-C , 27-C ) :   1.4498
B( 26-C , 31-C ) :   0.1049 B( 26-C , 86-H ) :   0.9887 B( 27-C , 28-F ) :   1.1447
B( 27-C , 29-C ) :   1.1953 B( 29-C , 30-F ) :   1.1310 B( 29-C , 31-C ) :   1.4559
B( 31-C , 87-H ) :   0.9911 B( 32-C , 33-C ) :   1.5188 B( 32-C , 88-H ) :   0.9568
B( 33-C , 34-C ) :   1.2516 B( 33-C , 89-H ) :   0.9627 B( 34-C , 35-C ) :   1.4572
B( 34-C , 90-H ) :   0.9876 B( 35-C , 36-C ) :   1.1957 B( 35-C , 39-S ) :   1.0561
B( 36-C , 37-C ) :   1.5234 B( 36-C , 91-H ) :   1.0013 B( 37-C , 38-C ) :   1.2435
B( 37-C , 92-H ) :   0.9953 B( 38-C , 39-S ) :   1.0680 B( 38-C , 40-C ) :   1.4156
B( 40-C , 41-C ) :   1.2374 B( 40-C , 44-S ) :   1.0659 B( 41-C , 42-C ) :   1.5289
B( 41-C , 93-H ) :   0.9938 B( 42-C , 43-C ) :   1.1955 B( 42-C , 94-H ) :   0.9992
B( 43-C , 44-S ) :   1.0500 B( 43-C , 45-C ) :   1.5085 B( 45-C , 46-C ) :   1.2685
B( 45-C , 95-H ) :   0.9361 B( 46-C , 47-S ) :   1.1691 B( 46-C , 50-C ) :   1.2416
B( 47-S , 48-C ) :   1.1176 B( 48-C , 49-C ) :   1.2457 B( 48-C , 57-C ) :   1.2611
B( 49-C , 50-C ) :   1.2478 B( 49-C , 56-C ) :   1.2029 B( 50-C , 51-C ) :   1.1946
B( 51-C , 52-C ) :   1.4847 B( 51-C , 56-C ) :   0.1069 B( 51-C , 96-H ) :   0.9716
B( 52-C , 53-F ) :   1.1355 B( 52-C , 54-C ) :   1.1849 B( 54-C , 55-F ) :   1.1424
B( 54-C , 56-C ) :   1.4661 B( 56-C , 97-H ) :   0.9984 B( 57-C , 58-C ) :   1.5144
B( 57-C , 98-H ) :   0.9767 B( 58-C , 59-C ) :   1.2170 B( 58-C , 99-H ) :   0.9621
B( 59-C , 60-C ) :   1.5172 B( 59-C ,100-H ) :   0.9570 B( 60-C , 61-C ) :   0.9560
B( 60-C , 74-C ) :   1.0758 B( 61-C , 62-O ) :   2.2577 B( 61-C , 63-C ) :   0.9191
B( 63-C , 64-C ) :   1.4779 B( 63-C , 73-C ) :   1.2158 B( 64-C , 65-C ) :   1.1863
B( 64-C ,101-H ) :   1.0150 B( 65-C , 66-C ) :   1.2575 B( 65-C , 70-C ) :   1.2367
B( 66-C , 67-C ) :   1.2045 B( 66-C , 72-C ) :   1.1990 B( 67-C , 68-C ) :   1.4395
B( 67-C ,102-H ) :   1.0061 B( 68-C , 69-C ) :   1.2567 B( 68-C , 71-F ) :   1.0852
B( 69-C , 70-C ) :   1.4588 B( 69-C ,103-H ) :   0.9935 B( 70-C ,104-H ) :   0.9964
B( 72-C , 73-C ) :   1.4675 B( 72-C ,105-H ) :   0.9914 B( 73-C , 74-C ) :   0.9926
B( 74-C , 75-C ) :   1.6064 B( 75-C , 76-C ) :   1.1634 B( 75-C , 78-C ) :   1.1366
B( 76-C , 77-N ) :   3.0108 B( 78-C , 79-N ) :   2.9734

-----------------------------------------------------------------------------
         ABSORPTION SPECTRUM VIA TRANSITION ELECTRIC DIPOLE MOMENTS
-----------------------------------------------------------------------------
State   Energy  Wavelength   fosc         T2         TX        TY        TZ
        (cm-1)    (nm)                  (au**2)     (au)      (au)      (au)
-----------------------------------------------------------------------------
   0    5733.1   1744.3   0.885861232  50.86882  -2.78588   6.10653  -2.41205
   1   12256.5    815.9   0.132333472   3.55450  -1.30432  -1.36123  -0.01674
   2   14164.1    706.0   0.864201740  20.08632   3.53161   2.73781   0.34419
   3   17901.3    558.6   0.094354789   1.73522   0.52655   0.26789   1.17737
   4   19664.5    508.5   0.321425594   5.38113   1.01662   0.57150   2.00525
   5   21317.0    469.1   0.151050874   2.33278  -1.47098   0.24850  -0.32748
   6   21988.6    454.8   0.023862656   0.35727   0.28858   0.14117   0.50405
   7   22724.5    440.1   0.017413326   0.25227  -0.29869   0.38674   0.11610
   8   23384.9    427.6   0.142606566   2.00761  -1.37573  -0.05992  -0.33375
   9   24367.6    410.4   0.019069338   0.25763   0.26811  -0.24595   0.35392
  10   25125.7    398.0   0.094096888   1.23291   0.75633   0.81177   0.04369
  11   25393.9    393.8   0.056338268   0.73038  -0.64972   0.50743  -0.22530
  12   25648.6    389.9   0.009483760   0.12173  -0.25631   0.20310  -0.12159
  13   26059.0    383.7   0.166533198   2.10387   1.13780  -0.67600   0.59355
  14   26230.8    381.2   0.167278316   2.09944  -1.41642  -0.29870  -0.06300
  15   26819.7    372.9   0.022313302   0.27390  -0.42616   0.26945   0.14027
  16   27279.3    366.6   0.343539705   4.14590   0.72407  -1.63828   0.96833
  17   27412.7    364.8   0.023639700   0.28390   0.01853   0.52701  -0.07630
  18   27690.1    361.1   0.023115927   0.27483  -0.50420   0.04259  -0.13712
  19   27948.4    357.8   0.074203998   0.87407   0.57081  -0.58175   0.45805
  20   28353.9    352.7   0.013728453   0.15940   0.14923   0.37025   0.00680
  21   28713.9    348.3   0.072996455   0.83692  -0.40799   0.69136  -0.43873
  22   29159.9    342.9   0.021501030   0.24274  -0.11430  -0.47802   0.03432
  23   29956.2    333.8   0.024523451   0.26951  -0.16463  -0.17699  -0.45943
  24   30587.0    326.9   0.026196439   0.28196  -0.40683  -0.34071  -0.01898
  25   30655.9    326.2   0.144598414   1.55283  -1.17750   0.12039  -0.38967
  26   31153.7    321.0   0.163198197   1.72457   0.00908   1.26701  -0.34522
  27   31447.5    318.0   0.174367988   1.82539   1.18542  -0.55475   0.33529
  28   31831.8    314.2   0.088403496   0.91429  -0.56980  -0.69763  -0.32083
  29   32074.1    311.8   0.007879289   0.08087   0.13281  -0.23849  -0.07973
  30   32311.5    309.5   0.016977069   0.17297   0.05048   0.27051   0.31185
  31   32427.3    308.4   0.044533282   0.45212  -0.33008  -0.58566   0.01292
  32   32802.4    304.9   0.063526227   0.63756   0.68561  -0.15898   0.37713
  33   33194.6    301.3   0.028315326   0.28082   0.26723  -0.28477   0.35821
  34   33422.2    299.2   0.008839415   0.08707  -0.11973  -0.02954   0.26807
  35   33508.2    298.4   0.061530922   0.60453   0.17559   0.75522   0.05786
  36   33533.4    298.2   0.112573993   1.10519  -1.03558   0.00551  -0.18094
  37   33973.8    294.3   0.111367450   1.07917  -0.69782   0.68813  -0.34453
  38   34123.6    293.1   0.032269341   0.31132   0.25568   0.49363  -0.04771
  39   34277.7    291.7   0.115727002   1.11147   0.17962   0.98505  -0.32998
  40   34644.6    288.6   0.015485930   0.14716  -0.20132  -0.20177  -0.25674
  41   34680.4    288.3   0.080186910   0.76119  -0.80178   0.10811  -0.32659
  42   35026.5    285.5   0.280727803   2.63855  -1.59971  -0.07405  -0.27202
  43   35407.0    282.4   0.294888805   2.74186  -0.70140   1.42115  -0.47981
  44   35738.0    279.8   0.039618611   0.36496  -0.11759  -0.58766  -0.07609
  45   35897.7    278.6   0.340607967   3.12366   0.00617  -1.76606   0.06830
  46   36433.9    274.5   0.050905574   0.45998   0.66792  -0.03285   0.11305
  47   36825.2    271.6   0.077209206   0.69024   0.66490  -0.48731   0.10335
  48   36871.0    271.2   0.136331314   1.21727  -0.64519  -0.89213  -0.07143
  49   37250.6    268.5   0.026818160   0.23701  -0.35176  -0.25049  -0.22479
  50   37462.5    266.9   0.032255690   0.28346  -0.41576   0.28589   0.16989
  51   37636.4    265.7   0.027013639   0.23629  -0.21601   0.42479  -0.09586
  52   37762.4    264.8   0.000984369   0.00858  -0.05366   0.07525  -0.00633
  53   38050.8    262.8   0.045998162   0.39797   0.42337  -0.43130   0.18087
  54   38169.3    262.0   0.082563377   0.71211  -0.64755   0.54109  -0.00274
  55   38402.3    260.4   0.033164259   0.28431  -0.39799  -0.32938   0.13200
  56   38604.7    259.0   0.080256777   0.68441   0.79528  -0.22779   0.00691
  57   38968.7    256.6   0.120958669   1.02187   0.50064   0.78573   0.39225
  58   39123.2    255.6   0.078696692   0.66221   0.71367   0.38448  -0.07120
  59   39679.9    252.0   0.014290475   0.11856  -0.21702  -0.07154  -0.25758
  60   39843.4    251.0   0.051844267   0.42837   0.57717  -0.10389   0.29060
  61   40277.7    248.3   0.076416503   0.62459  -0.63519   0.04494  -0.46809

FINAL SINGLE POINT ENERGY     -5010.890796477580

DIPOLE MOMENT
-------------
                                X             Y             Z
Electronic contribution:    -16.86299       0.98827      -5.91089
Nuclear contribution   :     18.89795       0.97940       5.91149
                        -----------------------------------------
Total Dipole Moment    :      2.03496       1.96767       0.00060
                        -----------------------------------------
Magnitude (a.u.)       :      2.83069
Magnitude (Debye)      :      7.19503

Rotational constants in cm-1:     0.001000     0.000216     0.000183
Rotational constants in MHz :    29.975833     6.485909     5.481125

                             ****ORCA TERMINATED NORMALLY****
TOTAL RUN TIME: 0 days 0 hours 13 minutes 23 seconds 895 msec
