                         Program Version 4.2.0 -  RELEASE  -
|  1> # ORCA input file
|  2> # SCF done       -195.457442985908          0.000602184461
|  3> ! CAM-B3LYP def2-SVP def2/J RIJCOSX Grid4 TightSCF
|  4> %maxcore 5000
|  5> %tddft
|  6>     Mode sTDDFT
|  7>     Ethresh 5.0
|  8>     maxcore 5000
|  9> end
| 10>
| 11> %pal
| 12>   nprocs 6
| 13>   end
| 14> * xyz 0 1
| 15>    C        5.48576        -4.42902        -8.85981
| 16>    C        4.23787        -4.61805        -9.38551
| 17>    F        3.91859        -5.81094        -9.92297
| 18>    C        3.26370        -3.61150        -9.38896
| 19>    C        3.56908        -2.39406        -8.84583
| 20>    C        4.83953        -2.14485        -8.28912
| 21>    C        5.81744        -3.18091        -8.29894
| 22>    C        7.10408        -2.95178        -7.75527
| 23>    C        7.39453        -1.72959        -7.21534
| 24>    C        6.40629        -0.70408        -7.18894
| 25>    C        5.16272        -0.89306        -7.71595
| 26>    C        6.96339         0.48410        -6.51029
| 27>    O        6.43028         1.55948        -6.33890
| 28>    C        8.30388         0.07045        -6.03086
| 29>    C        8.61994        -1.20347        -6.61452
| 30>    C        9.87390        -1.74701        -6.78679
| 31>    C       11.07021        -1.08970        -6.45228
| 32>    N       12.07958        -0.58374        -6.23726
| 33>    C       10.11719        -2.98691        -7.40668
| 34>    N       10.37828        -4.00054        -7.87993
| 35>    C        8.98208         0.89108        -5.15659
| 36>    C       10.03219         0.59505        -4.28724
| 37>    S       11.06641         1.89134        -3.74177
| 38>    C       12.14413         0.82077        -2.91186
| 39>    C       11.66222        -0.51427        -2.98326
| 40>    C       10.46040        -0.63333        -3.73170
| 41>    C        9.80200        -1.87208        -3.79422
| 42>    C       10.38989        -2.96576        -3.21503
| 43>    F        9.77210        -4.15610        -3.26713
| 44>    C       11.62707        -2.86142        -2.55580
| 45>    F       12.18954        -3.96424        -2.02762
| 46>    C       12.25125        -1.64974        -2.41489
| 47>    C       13.32995         1.21853        -2.30449
| 48>    C       13.81550         2.50640        -2.22425
| 49>    C       15.04713         2.88666        -1.69444
| 50>    C       16.08666         2.08682        -1.24261
| 51>    C       17.32610         2.55969        -0.75461
| 52>    C       18.22276         1.58321        -0.41893
| 53>    C       17.73646         0.27906        -0.62139
| 54>    S       16.10204         0.33999        -1.23973
| 55>    C       18.34804        -0.94686        -0.42213
| 56>    C       19.65298        -1.23283         0.03661
| 57>    C       19.94126        -2.56322         0.08329
| 58>    C       18.87882        -3.40801        -0.33076
| 59>    S       17.48946        -2.42298        -0.77891
| 60>    C       18.86847        -4.77268        -0.41636
| 61>    C       17.73354        -5.50335        -0.84609
| 62>    C       17.63226        -6.83898        -1.03212
| 63>    C       18.72996        -7.82420        -0.86054
| 64>    C       16.33154        -7.38384        -1.57944
| 65>    N       16.31104        -7.23292        -3.01763
| 66>    C       16.37138        -8.22746        -3.90086
| 67>    C       16.46394        -8.02946        -5.25296
| 68>    C       16.43169        -9.01296        -6.24832
| 69>    C       16.52251       -10.38739        -6.21322
| 70>    C       15.97858       -11.13154        -7.37682
| 71>    O       15.62896       -10.66513        -8.43942
| 72>    C       15.92224       -12.54619        -6.95462
| 73>    C       15.40386       -13.62312        -7.61040
| 74>    C       15.43590       -14.89103        -6.98508
| 75>    C       16.00466       -15.01221        -5.68469
| 76>    C       16.02596       -16.27576        -5.06349
| 77>    C       15.50589       -17.35578        -5.72072
| 78>    C       14.94474       -17.25802        -7.00036
| 79>    C       14.91453       -16.03773        -7.61700
| 80>    F       15.52664       -18.56525        -5.12745
| 81>    C       16.54383       -13.87689        -5.03357
| 82>    C       16.50781       -12.66340        -5.66314
| 83>    C       17.00007       -11.34484        -5.25918
| 84>    C       17.94319       -11.14730        -4.27192
| 85>    C       18.59571        -9.92876        -4.05116
| 86>    N       19.14790        -8.94579        -3.81857
| 87>    C       18.40675       -12.14891        -3.39949
| 88>    N       18.80655       -12.90221        -2.62889
| 89>    H        6.21271        -5.22597        -8.87680
| 90>    H        2.29625        -3.81803        -9.81848
| 91>    H        2.83451        -1.60279        -8.83632
| 92>    H        7.82342        -3.75509        -7.77152
| 93>    H        4.43100        -0.09938        -7.69524
| 94>    H        8.61515         1.91341        -5.13272
| 95>    H        8.83480        -1.97413        -4.25706
| 96>    H       13.17936        -1.59512        -1.86985
| 97>    H       13.90212         0.41793        -1.86557
| 98>    H       13.18809         3.29987        -2.61060
| 99>    H       15.24932         3.94963        -1.65503
|100>    H       17.52648         3.61346        -0.67087
|101>    H       19.21117         1.77355        -0.04081
|102>    H       20.33917        -0.45213         0.31229
|103>    H       20.88526        -2.96995         0.40040
|104>    H       19.77413        -5.29659        -0.14932
|105>    H       16.85328        -4.90013        -1.04251
|106>    H       19.58558        -7.40328        -0.34384
|107>    H       19.05716        -8.17357        -1.84486
|108>    H       18.37944        -8.69614        -0.30947
|109>    H       15.48208        -6.83366        -1.15853
|110>    H       16.22155        -8.44268        -1.34065
|111>    H       16.45414        -6.29228        -3.36102
|112>    H       16.23591        -9.21970        -3.49279
|113>    H       16.48993        -7.00431        -5.59880
|114>    H       16.21388        -8.64182        -7.24659
|115>    H       14.97314       -13.51198        -8.59416
|116>    H       16.45385       -16.38924        -4.07958
|117>    H       14.54957       -18.14467        -7.47027
|118>    H       14.48683       -15.93665        -8.60320
|119>    H       16.96339       -13.99913        -4.04744
|120> *
|121>
|122>                          ****END OF INPUT****

CARTESIAN COORDINATES (ANGSTROEM)
---------------------------------
  C      5.485760   -4.429020   -8.859810
  C      4.237870   -4.618050   -9.385510
  F      3.918590   -5.810940   -9.922970
  C      3.263700   -3.611500   -9.388960
  C      3.569080   -2.394060   -8.845830
  C      4.839530   -2.144850   -8.289120
  C      5.817440   -3.180910   -8.298940
  C      7.104080   -2.951780   -7.755270
  C      7.394530   -1.729590   -7.215340
  C      6.406290   -0.704080   -7.188940
  C      5.162720   -0.893060   -7.715950
  C      6.963390    0.484100   -6.510290
  O      6.430280    1.559480   -6.338900
  C      8.303880    0.070450   -6.030860
  C      8.619940   -1.203470   -6.614520
  C      9.873900   -1.747010   -6.786790
  C     11.070210   -1.089700   -6.452280
  N     12.079580   -0.583740   -6.237260
  C     10.117190   -2.986910   -7.406680
  N     10.378280   -4.000540   -7.879930
  C      8.982080    0.891080   -5.156590
  C     10.032190    0.595050   -4.287240
  S     11.066410    1.891340   -3.741770
  C     12.144130    0.820770   -2.911860
  C     11.662220   -0.514270   -2.983260
  C     10.460400   -0.633330   -3.731700
  C      9.802000   -1.872080   -3.794220
  C     10.389890   -2.965760   -3.215030
  F      9.772100   -4.156100   -3.267130
  C     11.627070   -2.861420   -2.555800
  F     12.189540   -3.964240   -2.027620
  C     12.251250   -1.649740   -2.414890
  C     13.329950    1.218530   -2.304490
  C     13.815500    2.506400   -2.224250
  C     15.047130    2.886660   -1.694440
  C     16.086660    2.086820   -1.242610
  C     17.326100    2.559690   -0.754610
  C     18.222760    1.583210   -0.418930
  C     17.736460    0.279060   -0.621390
  S     16.102040    0.339990   -1.239730
  C     18.348040   -0.946860   -0.422130
  C     19.652980   -1.232830    0.036610
  C     19.941260   -2.563220    0.083290
  C     18.878820   -3.408010   -0.330760
  S     17.489460   -2.422980   -0.778910
  C     18.868470   -4.772680   -0.416360
  C     17.733540   -5.503350   -0.846090
  C     17.632260   -6.838980   -1.032120
  C     18.729960   -7.824200   -0.860540
  C     16.331540   -7.383840   -1.579440
  N     16.311040   -7.232920   -3.017630
  C     16.371380   -8.227460   -3.900860
  C     16.463940   -8.029460   -5.252960
  C     16.431690   -9.012960   -6.248320
  C     16.522510  -10.387390   -6.213220
  C     15.978580  -11.131540   -7.376820
  O     15.628960  -10.665130   -8.439420
  C     15.922240  -12.546190   -6.954620
  C     15.403860  -13.623120   -7.610400
  C     15.435900  -14.891030   -6.985080
  C     16.004660  -15.012210   -5.684690
  C     16.025960  -16.275760   -5.063490
  C     15.505890  -17.355780   -5.720720
  C     14.944740  -17.258020   -7.000360
  C     14.914530  -16.037730   -7.617000
  F     15.526640  -18.565250   -5.127450
  C     16.543830  -13.876890   -5.033570
  C     16.507810  -12.663400   -5.663140
  C     17.000070  -11.344840   -5.259180
  C     17.943190  -11.147300   -4.271920
  C     18.595710   -9.928760   -4.051160
  N     19.147900   -8.945790   -3.818570
  C     18.406750  -12.148910   -3.399490
  N     18.806550  -12.902210   -2.628890
  H      6.212710   -5.225970   -8.876800
  H      2.296250   -3.818030   -9.818480
  H      2.834510   -1.602790   -8.836320
  H      7.823420   -3.755090   -7.771520
  H      4.431000   -0.099380   -7.695240
  H      8.615150    1.913410   -5.132720
  H      8.834800   -1.974130   -4.257060
  H     13.179360   -1.595120   -1.869850
  H     13.902120    0.417930   -1.865570
  H     13.188090    3.299870   -2.610600
  H     15.249320    3.949630   -1.655030
  H     17.526480    3.613460   -0.670870
  H     19.211170    1.773550   -0.040810
  H     20.339170   -0.452130    0.312290
  H     20.885260   -2.969950    0.400400
  H     19.774130   -5.296590   -0.149320
  H     16.853280   -4.900130   -1.042510
  H     19.585580   -7.403280   -0.343840
  H     19.057160   -8.173570   -1.844860
  H     18.379440   -8.696140   -0.309470
  H     15.482080   -6.833660   -1.158530
  H     16.221550   -8.442680   -1.340650
  H     16.454140   -6.292280   -3.361020
  H     16.235910   -9.219700   -3.492790
  H     16.489930   -7.004310   -5.598800
  H     16.213880   -8.641820   -7.246590
  H     14.973140  -13.511980   -8.594160
  H     16.453850  -16.389240   -4.079580
  H     14.549570  -18.144670   -7.470270
  H     14.486830  -15.936650   -8.603200
  H     16.963390  -13.999130   -4.047440

 Total Charge           Charge          ....    0
 Multiplicity           Mult            ....    1
 Number of Electrons    NEL             ....  526
 Basis Dimension        Dim             .... 1203

ORBITAL ENERGIES
----------------

  NO   OCC          E(Eh)            E(eV)
   0   2.0000     -88.972027     -2421.0519
   1   2.0000     -88.966595     -2420.9041
   2   2.0000     -88.964811     -2420.8556
   3   2.0000     -24.792279      -674.6322
   4   2.0000     -24.791522      -674.6116
   5   2.0000     -24.777202      -674.2219
   6   2.0000     -24.774884      -674.1589
   7   2.0000     -19.196140      -522.3535
   8   2.0000     -19.194798      -522.3170
   9   2.0000     -14.475720      -393.9044
  10   2.0000     -14.414743      -392.2451
  11   2.0000     -14.404124      -391.9561
  12   2.0000     -14.398195      -391.7948
  13   2.0000     -14.397961      -391.7884
  14   2.0000     -10.376216      -282.3512
  15   2.0000     -10.371372      -282.2194
  16   2.0000     -10.359812      -281.9048
  17   2.0000     -10.357379      -281.8386
  18   2.0000     -10.354607      -281.7632
  19   2.0000     -10.347711      -281.5755
  20   2.0000     -10.346703      -281.5481
  21   2.0000     -10.336953      -281.2828
  22   2.0000     -10.336459      -281.2693
  23   2.0000     -10.330840      -281.1165
  24   2.0000     -10.329877      -281.0903
  25   2.0000     -10.327394      -281.0227
  26   2.0000     -10.325348      -280.9670
  27   2.0000     -10.325202      -280.9630
  28   2.0000     -10.324176      -280.9351
  29   2.0000     -10.321964      -280.8749
  30   2.0000     -10.321407      -280.8598
  31   2.0000     -10.319209      -280.8000
  32   2.0000     -10.309728      -280.5419
  33   2.0000     -10.309315      -280.5307
  34   2.0000     -10.308766      -280.5158
  35   2.0000     -10.307101      -280.4705
  36   2.0000     -10.306794      -280.4621
  37   2.0000     -10.305295      -280.4213
  38   2.0000     -10.305102      -280.4161
  39   2.0000     -10.304900      -280.4106
  40   2.0000     -10.304579      -280.4018
  41   2.0000     -10.302280      -280.3393
  42   2.0000     -10.302256      -280.3386
  43   2.0000     -10.301733      -280.3244
  44   2.0000     -10.298735      -280.2428
  45   2.0000     -10.298340      -280.2321
  46   2.0000     -10.297989      -280.2225
  47   2.0000     -10.297656      -280.2135
  48   2.0000     -10.295230      -280.1474
  49   2.0000     -10.293321      -280.0955
  50   2.0000     -10.292563      -280.0749
  51   2.0000     -10.291498      -280.0459
  52   2.0000     -10.291387      -280.0429
  53   2.0000     -10.290763      -280.0259
  54   2.0000     -10.290168      -280.0097
  55   2.0000     -10.290074      -280.0071
  56   2.0000     -10.289326      -279.9868
  57   2.0000     -10.287936      -279.9490
  58   2.0000     -10.287533      -279.9380
  59   2.0000     -10.287177      -279.9283
  60   2.0000     -10.286951      -279.9222
  61   2.0000     -10.285932      -279.8944
  62   2.0000     -10.285628      -279.8862
  63   2.0000     -10.285083      -279.8713
  64   2.0000     -10.282859      -279.8108
  65   2.0000     -10.282525      -279.8017
  66   2.0000     -10.279950      -279.7317
  67   2.0000     -10.277333      -279.6604
  68   2.0000     -10.277117      -279.6546
  69   2.0000     -10.276025      -279.6249
  70   2.0000     -10.274645      -279.5873
  71   2.0000     -10.273911      -279.5673
  72   2.0000     -10.272573      -279.5309
  73   2.0000     -10.270844      -279.4839
  74   2.0000      -8.067339      -219.5235
  75   2.0000      -8.062198      -219.3836
  76   2.0000      -8.061264      -219.3581
  77   2.0000      -6.036407      -164.2590
  78   2.0000      -6.032412      -164.1503
  79   2.0000      -6.031833      -164.1345
  80   2.0000      -6.030955      -164.1106
  81   2.0000      -6.029770      -164.0784
  82   2.0000      -6.027734      -164.0230
  83   2.0000      -6.026966      -164.0021
  84   2.0000      -6.023497      -163.9077
  85   2.0000      -6.022164      -163.8714
  86   2.0000      -1.313280       -35.7362
  87   2.0000      -1.298508       -35.3342
  88   2.0000      -1.291484       -35.1431
  89   2.0000      -1.289329       -35.0844
  90   2.0000      -1.110818       -30.2269
  91   2.0000      -1.110126       -30.2081
  92   2.0000      -1.073808       -29.2198
  93   2.0000      -1.015552       -27.6346
  94   2.0000      -1.012805       -27.5598
  95   2.0000      -1.011618       -27.5275
  96   2.0000      -1.000073       -27.2134
  97   2.0000      -0.992639       -27.0111
  98   2.0000      -0.992461       -27.0062
  99   2.0000      -0.986298       -26.8385
 100   2.0000      -0.985517       -26.8173
 101   2.0000      -0.976957       -26.5844
 102   2.0000      -0.964791       -26.2533
 103   2.0000      -0.961696       -26.1691
 104   2.0000      -0.950756       -25.8714
 105   2.0000      -0.940850       -25.6018
 106   2.0000      -0.926702       -25.2168
 107   2.0000      -0.918502       -24.9937
 108   2.0000      -0.913173       -24.8487
 109   2.0000      -0.905650       -24.6440
 110   2.0000      -0.897791       -24.4301
 111   2.0000      -0.888523       -24.1779
 112   2.0000      -0.880959       -23.9721
 113   2.0000      -0.878433       -23.9034
 114   2.0000      -0.873575       -23.7712
 115   2.0000      -0.871923       -23.7262
 116   2.0000      -0.868229       -23.6257
 117   2.0000      -0.854331       -23.2475
 118   2.0000      -0.852373       -23.1942
 119   2.0000      -0.841199       -22.8902
 120   2.0000      -0.840050       -22.8589
 121   2.0000      -0.836991       -22.7757
 122   2.0000      -0.824716       -22.4417
 123   2.0000      -0.822479       -22.3808
 124   2.0000      -0.820127       -22.3168
 125   2.0000      -0.803940       -21.8763
 126   2.0000      -0.801929       -21.8216
 127   2.0000      -0.788715       -21.4620
 128   2.0000      -0.769644       -20.9431
 129   2.0000      -0.762757       -20.7557
 130   2.0000      -0.748663       -20.3721
 131   2.0000      -0.747798       -20.3486
 132   2.0000      -0.741795       -20.1853
 133   2.0000      -0.739432       -20.1210
 134   2.0000      -0.732686       -19.9374
 135   2.0000      -0.720030       -19.5930
 136   2.0000      -0.711164       -19.3518
 137   2.0000      -0.706218       -19.2172
 138   2.0000      -0.699013       -19.0211
 139   2.0000      -0.698298       -19.0016
 140   2.0000      -0.695717       -18.9314
 141   2.0000      -0.690017       -18.7763
 142   2.0000      -0.676246       -18.4016
 143   2.0000      -0.670491       -18.2450
 144   2.0000      -0.668098       -18.1799
 145   2.0000      -0.667193       -18.1552
 146   2.0000      -0.662275       -18.0214
 147   2.0000      -0.655153       -17.8276
 148   2.0000      -0.647548       -17.6207
 149   2.0000      -0.639637       -17.4054
 150   2.0000      -0.637039       -17.3347
 151   2.0000      -0.628249       -17.0955
 152   2.0000      -0.625969       -17.0335
 153   2.0000      -0.623370       -16.9628
 154   2.0000      -0.622857       -16.9488
 155   2.0000      -0.620039       -16.8721
 156   2.0000      -0.618926       -16.8418
 157   2.0000      -0.616118       -16.7654
 158   2.0000      -0.614898       -16.7322
 159   2.0000      -0.613248       -16.6873
 160   2.0000      -0.604188       -16.4408
 161   2.0000      -0.596559       -16.2332
 162   2.0000      -0.587416       -15.9844
 163   2.0000      -0.583116       -15.8674
 164   2.0000      -0.581287       -15.8176
 165   2.0000      -0.579712       -15.7748
 166   2.0000      -0.578523       -15.7424
 167   2.0000      -0.576807       -15.6957
 168   2.0000      -0.569209       -15.4890
 169   2.0000      -0.556499       -15.1431
 170   2.0000      -0.556176       -15.1343
 171   2.0000      -0.553624       -15.0649
 172   2.0000      -0.551851       -15.0166
 173   2.0000      -0.549418       -14.9504
 174   2.0000      -0.548617       -14.9286
 175   2.0000      -0.547136       -14.8883
 176   2.0000      -0.543827       -14.7983
 177   2.0000      -0.542849       -14.7717
 178   2.0000      -0.540600       -14.7105
 179   2.0000      -0.539963       -14.6931
 180   2.0000      -0.536213       -14.5911
 181   2.0000      -0.535897       -14.5825
 182   2.0000      -0.531778       -14.4704
 183   2.0000      -0.523042       -14.2327
 184   2.0000      -0.522420       -14.2158
 185   2.0000      -0.519157       -14.1270
 186   2.0000      -0.517142       -14.0722
 187   2.0000      -0.515158       -14.0182
 188   2.0000      -0.514480       -13.9997
 189   2.0000      -0.513685       -13.9781
 190   2.0000      -0.513029       -13.9602
 191   2.0000      -0.512134       -13.9359
 192   2.0000      -0.510917       -13.9028
 193   2.0000      -0.509292       -13.8585
 194   2.0000      -0.507780       -13.8174
 195   2.0000      -0.502928       -13.6854
 196   2.0000      -0.502107       -13.6630
 197   2.0000      -0.497441       -13.5361
 198   2.0000      -0.492436       -13.3999
 199   2.0000      -0.490620       -13.3504
 200   2.0000      -0.486462       -13.2373
 201   2.0000      -0.485692       -13.2164
 202   2.0000      -0.484182       -13.1753
 203   2.0000      -0.483362       -13.1529
 204   2.0000      -0.480607       -13.0780
 205   2.0000      -0.479426       -13.0458
 206   2.0000      -0.478894       -13.0314
 207   2.0000      -0.478107       -13.0099
 208   2.0000      -0.477037       -12.9808
 209   2.0000      -0.471169       -12.8211
 210   2.0000      -0.469046       -12.7634
 211   2.0000      -0.468050       -12.7363
 212   2.0000      -0.467034       -12.7086
 213   2.0000      -0.463738       -12.6190
 214   2.0000      -0.461150       -12.5485
 215   2.0000      -0.454619       -12.3708
 216   2.0000      -0.451101       -12.2751
 217   2.0000      -0.450105       -12.2480
 218   2.0000      -0.446988       -12.1631
 219   2.0000      -0.445826       -12.1315
 220   2.0000      -0.444251       -12.0887
 221   2.0000      -0.443796       -12.0763
 222   2.0000      -0.442487       -12.0407
 223   2.0000      -0.438880       -11.9425
 224   2.0000      -0.436968       -11.8905
 225   2.0000      -0.434331       -11.8188
 226   2.0000      -0.433236       -11.7889
 227   2.0000      -0.429073       -11.6757
 228   2.0000      -0.428653       -11.6642
 229   2.0000      -0.426277       -11.5996
 230   2.0000      -0.424329       -11.5466
 231   2.0000      -0.421874       -11.4798
 232   2.0000      -0.418591       -11.3904
 233   2.0000      -0.416833       -11.3426
 234   2.0000      -0.415711       -11.3121
 235   2.0000      -0.413242       -11.2449
 236   2.0000      -0.411718       -11.2034
 237   2.0000      -0.408445       -11.1143
 238   2.0000      -0.407247       -11.0818
 239   2.0000      -0.402536       -10.9536
 240   2.0000      -0.401528       -10.9261
 241   2.0000      -0.392405       -10.6779
 242   2.0000      -0.388719       -10.5776
 243   2.0000      -0.385223       -10.4825
 244   2.0000      -0.372422       -10.1341
 245   2.0000      -0.369975       -10.0675
 246   2.0000      -0.365580        -9.9479
 247   2.0000      -0.358412        -9.7529
 248   2.0000      -0.351094        -9.5537
 249   2.0000      -0.345957        -9.4140
 250   2.0000      -0.341409        -9.2902
 251   2.0000      -0.329525        -8.9668
 252   2.0000      -0.319724        -8.7001
 253   2.0000      -0.319416        -8.6918
 254   2.0000      -0.317784        -8.6474
 255   2.0000      -0.308373        -8.3913
 256   2.0000      -0.304576        -8.2879
 257   2.0000      -0.297315        -8.0903
 258   2.0000      -0.289476        -7.8770
 259   2.0000      -0.284423        -7.7395
 260   2.0000      -0.266032        -7.2391
 261   2.0000      -0.260060        -7.0766
 262   2.0000      -0.219192        -5.9645
 263   0.0000      -0.114861        -3.1255
 264   0.0000      -0.075585        -2.0568
 265   0.0000      -0.072016        -1.9596
 266   0.0000      -0.047590        -1.2950
 267   0.0000      -0.039905        -1.0859

MULLIKEN ATOMIC CHARGES
-----------------------
   0 C :   -0.103186
   1 C :    0.301335
   2 F :   -0.194535
   3 C :   -0.030879
   4 C :   -0.015880
   5 C :    0.106376
   6 C :    0.106767
   7 C :   -0.101978
   8 C :    0.045568
   9 C :    0.020572
  10 C :   -0.097198
  11 C :    0.134700
  12 O :   -0.155653
  13 C :   -0.166734
  14 C :    0.249428
  15 C :   -0.353121
  16 C :   -0.195281
  17 N :    0.154561
  18 C :   -0.188660
  19 N :    0.146045
  20 C :    0.065301
  21 C :   -0.151086
  22 S :    0.173064
  23 C :   -0.025987
  24 C :    0.121500
  25 C :    0.114023
  26 C :   -0.076913
  27 C :    0.218557
  28 F :   -0.171859
  29 C :    0.228643
  30 F :   -0.186083
  31 C :   -0.113143
  32 C :   -0.044135
  33 C :    0.038145
  34 C :   -0.013095
  35 C :   -0.007698
  36 C :    0.026586
  37 C :    0.041137
  38 C :   -0.038620
  39 S :    0.044439
  40 C :   -0.026583
  41 C :    0.027528
  42 C :    0.049356
  43 C :   -0.034744
  44 S :    0.069935
  45 C :    0.016787
  46 C :   -0.015136
  47 C :   -0.182974
  48 C :    0.092690
  49 C :    0.199011
  50 N :   -0.112079
  51 C :    0.088504
  52 C :   -0.029362
  53 C :    0.050070
  54 C :   -0.168117
  55 C :    0.134528
  56 O :   -0.155360
  57 C :    0.018258
  58 C :   -0.083173
  59 C :    0.097294
  60 C :    0.100383
  61 C :   -0.096251
  62 C :    0.300780
  63 C :   -0.032296
  64 C :   -0.009370
  65 F :   -0.195314
  66 C :   -0.090006
  67 C :    0.031567
  68 C :    0.297929
  69 C :   -0.389293
  70 C :   -0.152245
  71 N :    0.112031
  72 C :   -0.174629
  73 N :    0.135251
  74 H :   -0.003459
  75 H :   -0.001439
  76 H :   -0.011661
  77 H :   -0.006915
  78 H :   -0.016039
  79 H :    0.016501
  80 H :    0.004396
  81 H :   -0.009247
  82 H :    0.003086
  83 H :   -0.003629
  84 H :   -0.010430
  85 H :   -0.006501
  86 H :   -0.008652
  87 H :   -0.005619
  88 H :   -0.001203
  89 H :   -0.006324
  90 H :   -0.010003
  91 H :    0.012430
  92 H :    0.053277
  93 H :    0.021712
  94 H :    0.039209
  95 H :    0.020540
  96 H :    0.135204
  97 H :    0.039416
  98 H :   -0.008829
  99 H :    0.029346
 100 H :   -0.015647
 101 H :   -0.006482
 102 H :    0.000067
 103 H :   -0.011920
 104 H :   -0.011177
Sum of atomic charges:   -0.0000000

LOEWDIN ATOMIC CHARGES
----------------------
   0 C :   -0.043726
   1 C :    0.090476
   2 F :   -0.068819
   3 C :   -0.041926
   4 C :    0.002349
   5 C :   -0.021252
   6 C :    0.002351
   7 C :    0.003671
   8 C :   -0.015484
   9 C :   -0.057800
  10 C :    0.028511
  11 C :    0.078574
  12 O :   -0.158872
  13 C :   -0.119236
  14 C :    0.053093
  15 C :   -0.155511
  16 C :   -0.014497
  17 N :   -0.067762
  18 C :   -0.020979
  19 N :   -0.068109
  20 C :    0.031114
  21 C :   -0.190540
  22 S :    0.484707
  23 C :   -0.118655
  24 C :   -0.042348
  25 C :   -0.022690
  26 C :   -0.036463
  27 C :    0.077110
  28 F :   -0.050076
  29 C :    0.055429
  30 F :   -0.064148
  31 C :   -0.023636
  32 C :   -0.073714
  33 C :   -0.002475
  34 C :   -0.073153
  35 C :   -0.125821
  36 C :   -0.038055
  37 C :   -0.024725
  38 C :   -0.192966
  39 S :    0.406206
  40 C :   -0.153371
  41 C :   -0.035415
  42 C :   -0.012663
  43 C :   -0.149294
  44 S :    0.376124
  45 C :   -0.023795
  46 C :   -0.067707
  47 C :   -0.005944
  48 C :   -0.054662
  49 C :    0.053304
  50 N :    0.056554
  51 C :    0.112722
  52 C :   -0.127219
  53 C :    0.082132
  54 C :   -0.139290
  55 C :    0.079962
  56 O :   -0.157063
  57 C :   -0.055317
  58 C :    0.029616
  59 C :   -0.019852
  60 C :    0.000721
  61 C :   -0.043582
  62 C :    0.090458
  63 C :   -0.040279
  64 C :    0.003322
  65 F :   -0.069317
  66 C :    0.005952
  67 C :   -0.017711
  68 C :    0.072875
  69 C :   -0.182988
  70 C :    0.003689
  71 N :   -0.073388
  72 C :   -0.024477
  73 N :   -0.073949
  74 H :    0.042277
  75 H :    0.039821
  76 H :    0.034207
  77 H :    0.038152
  78 H :    0.037574
  79 H :    0.042912
  80 H :    0.045481
  81 H :    0.040676
  82 H :    0.010399
  83 H :    0.030368
  84 H :    0.037101
  85 H :    0.035692
  86 H :    0.034518
  87 H :    0.035571
  88 H :    0.038228
  89 H :    0.036448
  90 H :    0.016786
  91 H :    0.029221
  92 H :    0.045839
  93 H :    0.036524
  94 H :    0.035557
  95 H :    0.034850
  96 H :    0.090482
  97 H :    0.038361
  98 H :    0.031504
  99 H :    0.049007
 100 H :    0.038411
 101 H :    0.041495
 102 H :    0.040382
 103 H :    0.034765
 104 H :    0.037087

  Mayer bond orders larger than 0.100000
B(  0-C ,  1-C ) :   1.4381 B(  0-C ,  6-C ) :   1.2057 B(  0-C , 74-H ) :   1.0066
B(  1-C ,  2-F ) :   1.0839 B(  1-C ,  3-C ) :   1.2602 B(  3-C ,  4-C ) :   1.4552
B(  3-C , 75-H ) :   0.9922 B(  4-C ,  5-C ) :   1.2391 B(  4-C , 76-H ) :   0.9967
B(  5-C ,  6-C ) :   1.2613 B(  5-C , 10-C ) :   1.1786 B(  6-C ,  7-C ) :   1.1911
B(  7-C ,  8-C ) :   1.4721 B(  7-C , 77-H ) :   0.9953 B(  8-C ,  9-C ) :   1.2203
B(  8-C , 14-C ) :   0.9865 B(  9-C , 10-C ) :   1.4784 B(  9-C , 11-C ) :   0.9136
B( 10-C , 78-H ) :   1.0162 B( 11-C , 12-O ) :   2.2597 B( 11-C , 13-C ) :   0.9635
B( 13-C , 14-C ) :   1.1131 B( 13-C , 20-C ) :   1.5017 B( 14-C , 15-C ) :   1.5853
B( 15-C , 16-C ) :   1.1734 B( 15-C , 18-C ) :   1.1493 B( 16-C , 17-N ) :   3.0017
B( 18-C , 19-N ) :   2.9778 B( 20-C , 21-C ) :   1.2782 B( 20-C , 79-H ) :   0.9275
B( 21-C , 22-S ) :   1.0864 B( 21-C , 25-C ) :   1.2581 B( 22-S , 23-C ) :   1.1694
B( 23-C , 24-C ) :   1.2310 B( 23-C , 32-C ) :   1.3183 B( 24-C , 25-C ) :   1.2572
B( 24-C , 31-C ) :   1.2092 B( 25-C , 26-C ) :   1.2212 B( 26-C , 27-C ) :   1.4476
B( 26-C , 31-C ) :   0.1064 B( 26-C , 80-H ) :   0.9842 B( 27-C , 28-F ) :   1.1389
B( 27-C , 29-C ) :   1.1988 B( 29-C , 30-F ) :   1.1251 B( 29-C , 31-C ) :   1.4526
B( 31-C , 81-H ) :   0.9926 B( 32-C , 33-C ) :   1.4752 B( 32-C , 82-H ) :   0.9377
B( 33-C , 34-C ) :   1.2989 B( 33-C , 83-H ) :   0.9706 B( 34-C , 35-C ) :   1.4704
B( 34-C , 84-H ) :   0.9639 B( 35-C , 36-C ) :   1.1906 B( 35-C , 39-S ) :   1.0703
B( 36-C , 37-C ) :   1.5501 B( 36-C , 85-H ) :   0.9996 B( 37-C , 38-C ) :   1.2168
B( 37-C , 86-H ) :   0.9926 B( 38-C , 39-S ) :   1.0407 B( 38-C , 40-C ) :   1.4713
B( 40-C , 41-C ) :   1.1935 B( 40-C , 44-S ) :   1.0698 B( 41-C , 42-C ) :   1.5898
B( 41-C , 87-H ) :   0.9951 B( 42-C , 43-C ) :   1.1363 B( 42-C , 88-H ) :   0.9978
B( 43-C , 44-S ) :   1.0190 B( 43-C , 45-C ) :   1.6251 B( 45-C , 46-C ) :   1.1140
B( 45-C , 89-H ) :   0.9714 B( 46-C , 47-C ) :   1.7387 B( 46-C , 90-H ) :   0.9589
B( 47-C , 48-C ) :   1.0962 B( 47-C , 49-C ) :   1.0273 B( 48-C , 91-H ) :   0.9455
B( 48-C , 92-H ) :   0.9118 B( 48-C , 93-H ) :   0.9376 B( 49-C , 50-N ) :   0.9959
B( 49-C , 94-H ) :   0.9401 B( 49-C , 95-H ) :   0.9322 B( 50-N , 51-C ) :   1.3737
B( 50-N , 96-H ) :   0.9300 B( 51-C , 52-C ) :   1.4088 B( 51-C , 97-H ) :   0.9545
B( 52-C , 53-C ) :   1.3577 B( 52-C , 98-H ) :   0.9562 B( 53-C , 54-C ) :   1.4728
B( 53-C , 99-H ) :   0.9287 B( 54-C , 55-C ) :   0.9718 B( 54-C , 68-C ) :   1.1217
B( 55-C , 56-O ) :   2.2494 B( 55-C , 57-C ) :   0.9132 B( 57-C , 58-C ) :   1.4851
B( 57-C , 67-C ) :   1.2202 B( 58-C , 59-C ) :   1.1801 B( 58-C ,100-H ) :   1.0144
B( 59-C , 60-C ) :   1.2627 B( 59-C , 64-C ) :   1.2393 B( 60-C , 61-C ) :   1.2058
B( 60-C , 66-C ) :   1.1971 B( 61-C , 62-C ) :   1.4389 B( 61-C ,101-H ) :   1.0052
B( 62-C , 63-C ) :   1.2600 B( 62-C , 65-F ) :   1.0830 B( 63-C , 64-C ) :   1.4561
B( 63-C ,102-H ) :   0.9930 B( 64-C ,103-H ) :   0.9959 B( 66-C , 67-C ) :   1.4688
B( 66-C ,104-H ) :   0.9926 B( 67-C , 68-C ) :   0.9898 B( 68-C , 69-C ) :   1.5452
B( 69-C , 70-C ) :   1.2142 B( 69-C , 72-C ) :   1.1287 B( 70-C , 71-N ) :   2.8216
B( 72-C , 73-N ) :   2.9778

-----------------------------------------------------------------------------
         ABSORPTION SPECTRUM VIA TRANSITION ELECTRIC DIPOLE MOMENTS
-----------------------------------------------------------------------------
State   Energy  Wavelength   fosc         T2         TX        TY        TZ
        (cm-1)    (nm)                  (au**2)     (au)      (au)      (au)
-----------------------------------------------------------------------------
   0    9194.3   1087.6   0.870212274  31.15896  -4.72676   1.40146  -2.61774
   1   17409.4    574.4   0.013511069   0.25549  -0.31530   0.39454   0.02057
   2   18829.0    531.1   0.969331205  16.94811  -0.20421  -3.71377  -1.76475
   3   20718.4    482.7   0.029225886   0.46440  -0.21958  -0.63004  -0.13867
   4   21074.6    474.5   0.035726408   0.55809   0.15635  -0.72883  -0.04949
   5   22814.4    438.3   0.038702427   0.55848   0.64100   0.32916   0.19811
   6   22896.4    436.7   0.325014583   4.67317  -0.64017   2.06411   0.05301
   7   24428.6    409.4   0.153152642   2.06396   1.16866   0.75350   0.36117
   8   25828.0    387.2   0.062120732   0.79181  -0.79277  -0.04238  -0.40190
   9   26414.1    378.6   0.039654707   0.49424   0.30838  -0.60299   0.18852
  10   26924.5    371.4   0.084016130   1.02728  -0.05307  -0.89081   0.48055
  11   27598.6    362.3   0.354280108   4.22606   0.95544   1.79760   0.28604
  12   28303.1    353.3   0.123174000   1.43272  -0.27668  -1.16426   0.02569
  13   28558.4    350.2   0.018430750   0.21246  -0.20217   0.41280  -0.03452
  14   28783.9    347.4   0.043803684   0.50100   0.15072   0.25464  -0.64299
  15   29067.0    344.0   0.111447203   1.26225   0.12269   0.99148   0.51397
  16   29704.1    336.7   0.156896342   1.73889  -0.94714  -0.87816  -0.26579
  17   30295.2    330.1   0.018200379   0.19778  -0.21867   0.02863  -0.38619
  18   30370.0    329.3   0.002966673   0.03216  -0.00023   0.06612  -0.16669
  19   30608.5    326.7   0.003900208   0.04195   0.08671   0.06590   0.17346
  20   30893.4    323.7   0.012580339   0.13406  -0.02475   0.20565  -0.30192
  21   31180.4    320.7   0.031878892   0.33659   0.45648   0.07377   0.35039
  22   31266.3    319.8   0.135165499   1.42320  -0.15510  -1.04567  -0.55292
  23   31517.6    317.3   0.202199589   2.11204   0.66677   1.27545   0.20175
  24   31894.9    313.5   0.003873973   0.03999   0.03323  -0.16645   0.10571
  25   32283.5    309.8   0.284834409   2.90461   1.44723   0.45180   0.77846
  26   32719.8    305.6   0.481957533   4.84923  -0.96738  -1.60313  -1.15904
  27   32986.5    303.2   0.006785196   0.06772  -0.08614  -0.23834  -0.05907
  28   33127.2    301.9   0.046738184   0.46447   0.08754   0.50515   0.44904
  29   33186.0    301.3   0.040252310   0.39931   0.50636   0.32223   0.19768
  30   33315.9    300.2   0.053329616   0.52698  -0.71859   0.09683  -0.03506
  31   33358.3    299.8   0.027346988   0.26989  -0.46892   0.21038   0.07575
  32   33796.5    295.9   0.001310421   0.01276  -0.02050   0.03026   0.10691
  33   34326.2    291.3   0.152117924   1.45892   0.22560  -1.18619   0.03109
  34   35443.4    282.1   0.057143655   0.53077   0.36377  -0.60828  -0.16864
  35   35658.4    280.4   0.730768919   6.74674   1.18510   1.96430   1.21812
  36   36010.2    277.7   0.012129961   0.11089   0.15680   0.18092   0.23147
  37   36294.7    275.5   0.292515054   2.65326  -1.57676  -0.08504  -0.39980
  38   36501.6    274.0   0.195740814   1.76541   1.17256  -0.04509   0.62328
  39   36754.0    272.1   0.012075974   0.10817   0.15342  -0.27288   0.10081
  40   36865.2    271.3   0.088302049   0.78855   0.75496   0.43992   0.15830
  41   36952.7    270.6   0.007036778   0.06269   0.16593   0.10150  -0.15766
  42   37489.4    266.7   0.046749887   0.41053   0.44864   0.37803   0.25758
  43   37584.2    266.1   0.012302173   0.10776   0.30380   0.06164   0.10802
  44   38013.3    263.1   0.010690964   0.09259  -0.17582   0.23264   0.08691
  45   38441.1    260.1   0.018812662   0.16111  -0.39425  -0.07072   0.02608
  46   38817.2    257.6   0.030879847   0.26189   0.38477  -0.31147  -0.12975
  47   38934.0    256.8   0.032286446   0.27300  -0.17468  -0.45455   0.18940
  48   39220.4    255.0   0.006287124   0.05277   0.05605  -0.21283   0.06584
  49   39267.2    254.7   0.041488765   0.34784  -0.44165   0.27009  -0.28256
  50   39698.1    251.9   0.064282704   0.53309   0.19728   0.69905   0.07421
  51   39903.5    250.6   0.016757069   0.13825   0.15759  -0.31647  -0.11517
  52   40060.2    249.6   0.091157777   0.74913   0.27148  -0.42328   0.70446
  53   40157.4    249.0   0.087318637   0.71584   0.21204  -0.81896   0.01367

FINAL SINGLE POINT ENERGY     -4318.792257485107

DIPOLE MOMENT
-------------
                                X             Y             Z
Electronic contribution:    -38.35879       0.83850     -17.13541
Nuclear contribution   :     39.69960       1.22914      20.43760
                        -----------------------------------------
Total Dipole Moment    :      1.34081       2.06764       3.30219
                        -----------------------------------------
Magnitude (a.u.)       :      4.12036
Magnitude (Debye)      :     10.47311

Rotational constants in cm-1:     0.000690     0.000411     0.000268
Rotational constants in MHz :    20.694026    12.329695     8.025667

                             ****ORCA TERMINATED NORMALLY****
TOTAL RUN TIME: 0 days 0 hours 12 minutes 42 seconds 375 msec
