                         Program Version 4.2.0 -  RELEASE  -
|  1> # ORCA input file
|  2> # SCF done       -186.841300246293          0.000580585528
|  3> ! CAM-B3LYP def2-SVP def2/J RIJCOSX Grid4 TightSCF
|  4> %maxcore 5000
|  5> %tddft
|  6>     Mode sTDDFT
|  7>     Ethresh 5.0
|  8>     maxcore 5000
|  9> end
| 10>
| 11> %pal
| 12>   nprocs 6
| 13>   end
| 14> * xyz 0 1
| 15>    C       -9.42517         0.05648        -5.04056
| 16>    C      -10.59658        -0.29399        -4.41183
| 17>    C      -11.63912        -1.01564        -5.02940
| 18>    N      -12.52411        -1.60388        -5.46465
| 19>    C      -10.96084         0.02222        -3.08761
| 20>    N      -11.34743         0.25343        -2.02911
| 21>    C       -9.12064        -0.21409        -6.44136
| 22>    C       -7.87318         0.37740        -6.75246
| 23>    C       -7.31343         0.31558        -8.00481
| 24>    C       -8.02088        -0.36295        -9.00294
| 25>    C       -9.26492        -0.95558        -8.68251
| 26>    C       -9.82945        -0.89396        -7.41418
| 27>    S       -9.97088        -1.74451       -10.06056
| 28>    C       -8.60557        -1.27047       -11.03566
| 29>    C       -7.66714        -0.56015       -10.36560
| 30>   Br       -8.54723        -1.75741       -12.84619
| 31>    C       -7.32492         1.03402        -5.54886
| 32>    O       -6.25247         1.60461        -5.48776
| 33>    C       -8.31635         0.80580        -4.47992
| 34>    C       -8.24602         1.16426        -3.15470
| 35>    C       -7.37076         2.00449        -2.45031
| 36>    C       -6.26927         2.73235        -2.83515
| 37>    C       -5.79213         3.56964        -1.77464
| 38>    C       -6.63297         3.35843        -0.69514
| 39>    C       -7.59798         2.25626        -0.97971
| 40>    C       -8.93472         2.74425        -0.42886
| 41>    C       -8.58342         3.32591         0.93709
| 42>    S       -6.98608         4.22655         0.72987
| 43>    C       -4.75471         4.54342        -1.80479
| 44>    C       -3.72046         4.63012        -2.68902
| 45>    C       -3.28019         3.73116        -3.70103
| 46>    C       -2.15256         4.12546        -4.34533
| 47>    C       -1.63413         5.37051        -3.90733
| 48>    S       -2.62604         6.01224        -2.61743
| 49>    C       -0.52166         6.03068        -4.37819
| 50>    C        0.40917         5.59915        -5.35292
| 51>    C        1.41971         6.47550        -5.59293
| 52>    C        1.34035         7.67299        -4.83419
| 53>    S       -0.07235         7.61547        -3.77648
| 54>    C        2.18205         8.74296        -4.88454
| 55>    N        1.96736         9.87437        -4.15913
| 56>    C        2.74033        10.97486        -4.12659
| 57>    S        4.25913        11.03042        -4.96296
| 58>    C        4.48369        12.66565        -4.40727
| 59>    N        5.65784        13.30530        -4.81043
| 60>    O        5.83190        14.45843        -4.46414
| 61>    O        6.42299        12.64457        -5.49727
| 62>    C        3.45682        13.13069        -3.63675
| 63>    C        2.42868        12.18087        -3.45941
| 64>    C        1.22362        12.38932        -2.72917
| 65>    C        0.82523        13.57257        -2.19292
| 66>    C       -0.39436        13.69852        -1.49491
| 67>    C       -0.88549        14.79524        -0.84755
| 68>    C       -0.28845        16.06165        -0.48754
| 69>    C        1.03157        16.29953        -0.19964
| 70>    C        1.52838        17.55309         0.21326
| 71>    N        1.98040        18.55546         0.54274
| 72>    C        2.03062        15.30483        -0.16671
| 73>    N        2.87151        14.52809        -0.07925
| 74>    C       -1.38131        17.00224        -0.25146
| 75>    C       -2.60397        16.28438        -0.23547
| 76>    C       -2.33580        14.86329        -0.53371
| 77>    O       -3.12901        13.94898        -0.56700
| 78>    C       -3.81284        16.89134         0.00264
| 79>    C       -3.81785        18.27292         0.22270
| 80>    C       -2.59400        18.98260         0.18869
| 81>    C       -1.36924        18.36779        -0.04292
| 82>    S       -2.83148        20.68040         0.47052
| 83>    C       -4.54753        20.41705         0.63305
| 84>    C       -4.92572        19.12568         0.48235
| 85>   Br       -5.67804        21.87223         0.98269
| 86>    H       -6.36150         0.77978        -8.20992
| 87>    H      -10.77901        -1.36433        -7.22253
| 88>    H       -6.76300        -0.18930       -10.81279
| 89>    H       -9.03591         0.76765        -2.53051
| 90>    H       -5.87463         2.73871        -3.83264
| 91>    H       -7.29478         1.35722        -0.42450
| 92>    H       -9.67242         1.94829        -0.33288
| 93>    H       -9.33972         3.51999        -1.08159
| 94>    H       -8.41999         2.54267         1.67780
| 95>    H       -9.31872         4.03264         1.31350
| 96>    H       -4.80593         5.28808        -1.01981
| 97>    H       -3.78563         2.80500        -3.90064
| 98>    H       -1.67806         3.56071        -5.12766
| 99>    H        0.30835         4.64676        -5.84091
|100>    H        2.21811         6.31268        -6.29404
|101>    H        3.05046         8.73385        -5.52511
|102>    H        1.12332         9.88297        -3.59505
|103>    H        3.46937        14.11307        -3.20254
|104>    H        0.57659        11.53300        -2.58087
|105>    H        1.43283        14.45219        -2.33104
|106>    H       -1.07642        12.85485        -1.53648
|107>    H       -4.72726        16.31931         0.01725
|108>    H       -0.46369        18.95102        -0.06586
|109>    H       -5.94318        18.78639         0.55027
|110> *
|111>
|112>                          ****END OF INPUT****

CARTESIAN COORDINATES (ANGSTROEM)
---------------------------------
  C     -9.425170    0.056480   -5.040560
  C    -10.596580   -0.293990   -4.411830
  C    -11.639120   -1.015640   -5.029400
  N    -12.524110   -1.603880   -5.464650
  C    -10.960840    0.022220   -3.087610
  N    -11.347430    0.253430   -2.029110
  C     -9.120640   -0.214090   -6.441360
  C     -7.873180    0.377400   -6.752460
  C     -7.313430    0.315580   -8.004810
  C     -8.020880   -0.362950   -9.002940
  C     -9.264920   -0.955580   -8.682510
  C     -9.829450   -0.893960   -7.414180
  S     -9.970880   -1.744510  -10.060560
  C     -8.605570   -1.270470  -11.035660
  C     -7.667140   -0.560150  -10.365600
  Br    -8.547230   -1.757410  -12.846190
  C     -7.324920    1.034020   -5.548860
  O     -6.252470    1.604610   -5.487760
  C     -8.316350    0.805800   -4.479920
  C     -8.246020    1.164260   -3.154700
  C     -7.370760    2.004490   -2.450310
  C     -6.269270    2.732350   -2.835150
  C     -5.792130    3.569640   -1.774640
  C     -6.632970    3.358430   -0.695140
  C     -7.597980    2.256260   -0.979710
  C     -8.934720    2.744250   -0.428860
  C     -8.583420    3.325910    0.937090
  S     -6.986080    4.226550    0.729870
  C     -4.754710    4.543420   -1.804790
  C     -3.720460    4.630120   -2.689020
  C     -3.280190    3.731160   -3.701030
  C     -2.152560    4.125460   -4.345330
  C     -1.634130    5.370510   -3.907330
  S     -2.626040    6.012240   -2.617430
  C     -0.521660    6.030680   -4.378190
  C      0.409170    5.599150   -5.352920
  C      1.419710    6.475500   -5.592930
  C      1.340350    7.672990   -4.834190
  S     -0.072350    7.615470   -3.776480
  C      2.182050    8.742960   -4.884540
  N      1.967360    9.874370   -4.159130
  C      2.740330   10.974860   -4.126590
  S      4.259130   11.030420   -4.962960
  C      4.483690   12.665650   -4.407270
  N      5.657840   13.305300   -4.810430
  O      5.831900   14.458430   -4.464140
  O      6.422990   12.644570   -5.497270
  C      3.456820   13.130690   -3.636750
  C      2.428680   12.180870   -3.459410
  C      1.223620   12.389320   -2.729170
  C      0.825230   13.572570   -2.192920
  C     -0.394360   13.698520   -1.494910
  C     -0.885490   14.795240   -0.847550
  C     -0.288450   16.061650   -0.487540
  C      1.031570   16.299530   -0.199640
  C      1.528380   17.553090    0.213260
  N      1.980400   18.555460    0.542740
  C      2.030620   15.304830   -0.166710
  N      2.871510   14.528090   -0.079250
  C     -1.381310   17.002240   -0.251460
  C     -2.603970   16.284380   -0.235470
  C     -2.335800   14.863290   -0.533710
  O     -3.129010   13.948980   -0.567000
  C     -3.812840   16.891340    0.002640
  C     -3.817850   18.272920    0.222700
  C     -2.594000   18.982600    0.188690
  C     -1.369240   18.367790   -0.042920
  S     -2.831480   20.680400    0.470520
  C     -4.547530   20.417050    0.633050
  C     -4.925720   19.125680    0.482350
  Br    -5.678040   21.872230    0.982690
  H     -6.361500    0.779780   -8.209920
  H    -10.779010   -1.364330   -7.222530
  H     -6.763000   -0.189300  -10.812790
  H     -9.035910    0.767650   -2.530510
  H     -5.874630    2.738710   -3.832640
  H     -7.294780    1.357220   -0.424500
  H     -9.672420    1.948290   -0.332880
  H     -9.339720    3.519990   -1.081590
  H     -8.419990    2.542670    1.677800
  H     -9.318720    4.032640    1.313500
  H     -4.805930    5.288080   -1.019810
  H     -3.785630    2.805000   -3.900640
  H     -1.678060    3.560710   -5.127660
  H      0.308350    4.646760   -5.840910
  H      2.218110    6.312680   -6.294040
  H      3.050460    8.733850   -5.525110
  H      1.123320    9.882970   -3.595050
  H      3.469370   14.113070   -3.202540
  H      0.576590   11.533000   -2.580870
  H      1.432830   14.452190   -2.331040
  H     -1.076420   12.854850   -1.536480
  H     -4.727260   16.319310    0.017250
  H     -0.463690   18.951020   -0.065860
  H     -5.943180   18.786390    0.550270

 Total Charge           Charge          ....    0
 Multiplicity           Mult            ....    1
 Number of Electrons    NEL             ....  582
 Basis Dimension        Dim             .... 1174

ORBITAL ENERGIES
----------------

  NO   OCC          E(Eh)            E(eV)
   0   2.0000    -482.885835    -13139.9916
   1   2.0000    -482.885167    -13139.9734
   2   2.0000     -88.990453     -2421.5533
   3   2.0000     -88.975081     -2421.1350
   4   2.0000     -88.975078     -2421.1350
   5   2.0000     -88.961282     -2420.7596
   6   2.0000     -88.960127     -2420.7281
   7   2.0000     -88.949781     -2420.4466
   8   2.0000     -62.563562     -1702.4411
   9   2.0000     -62.562893     -1702.4229
  10   2.0000     -56.397511     -1534.6543
  11   2.0000     -56.396843     -1534.6361
  12   2.0000     -56.394796     -1534.5804
  13   2.0000     -56.394762     -1534.5795
  14   2.0000     -56.394127     -1534.5622
  15   2.0000     -56.394093     -1534.5613
  16   2.0000     -19.235788      -523.4324
  17   2.0000     -19.235646      -523.4286
  18   2.0000     -19.217128      -522.9246
  19   2.0000     -19.213039      -522.8134
  20   2.0000     -14.647504      -398.5789
  21   2.0000     -14.501968      -394.6186
  22   2.0000     -14.417667      -392.3247
  23   2.0000     -14.414499      -392.2385
  24   2.0000     -14.414188      -392.2300
  25   2.0000     -14.411002      -392.1433
  26   2.0000     -10.382796      -282.5302
  27   2.0000     -10.367273      -282.1078
  28   2.0000     -10.363884      -282.0156
  29   2.0000     -10.358651      -281.8732
  30   2.0000     -10.358316      -281.8641
  31   2.0000     -10.344328      -281.4835
  32   2.0000     -10.343449      -281.4596
  33   2.0000     -10.342709      -281.4394
  34   2.0000     -10.341497      -281.4064
  35   2.0000     -10.338861      -281.3347
  36   2.0000     -10.336725      -281.2766
  37   2.0000     -10.327214      -281.0178
  38   2.0000     -10.325248      -280.9643
  39   2.0000     -10.324344      -280.9397
  40   2.0000     -10.323743      -280.9233
  41   2.0000     -10.322812      -280.8980
  42   2.0000     -10.322177      -280.8807
  43   2.0000     -10.321370      -280.8588
  44   2.0000     -10.319328      -280.8032
  45   2.0000     -10.319226      -280.8004
  46   2.0000     -10.317109      -280.7428
  47   2.0000     -10.317049      -280.7412
  48   2.0000     -10.316964      -280.7389
  49   2.0000     -10.315013      -280.6858
  50   2.0000     -10.314991      -280.6852
  51   2.0000     -10.314256      -280.6652
  52   2.0000     -10.314018      -280.6587
  53   2.0000     -10.308075      -280.4970
  54   2.0000     -10.307029      -280.4685
  55   2.0000     -10.306860      -280.4639
  56   2.0000     -10.306630      -280.4577
  57   2.0000     -10.305786      -280.4347
  58   2.0000     -10.304955      -280.4121
  59   2.0000     -10.303995      -280.3860
  60   2.0000     -10.302760      -280.3524
  61   2.0000     -10.300686      -280.2959
  62   2.0000     -10.299976      -280.2766
  63   2.0000     -10.299863      -280.2735
  64   2.0000     -10.299832      -280.2727
  65   2.0000     -10.299149      -280.2541
  66   2.0000     -10.297440      -280.2076
  67   2.0000     -10.297425      -280.2072
  68   2.0000     -10.297073      -280.1976
  69   2.0000     -10.296694      -280.1873
  70   2.0000     -10.296239      -280.1749
  71   2.0000     -10.294142      -280.1179
  72   2.0000     -10.293513      -280.1007
  73   2.0000     -10.291957      -280.0584
  74   2.0000     -10.291890      -280.0566
  75   2.0000     -10.291791      -280.0539
  76   2.0000     -10.290941      -280.0307
  77   2.0000     -10.290543      -280.0199
  78   2.0000     -10.290367      -280.0151
  79   2.0000      -8.792999      -239.2697
  80   2.0000      -8.792329      -239.2514
  81   2.0000      -8.085916      -220.0290
  82   2.0000      -8.071096      -219.6257
  83   2.0000      -8.071075      -219.6251
  84   2.0000      -8.057612      -219.2588
  85   2.0000      -8.056335      -219.2240
  86   2.0000      -8.046367      -218.9528
  87   2.0000      -6.629304      -180.3925
  88   2.0000      -6.628640      -180.3745
  89   2.0000      -6.614727      -179.9959
  90   2.0000      -6.614535      -179.9906
  91   2.0000      -6.614054      -179.9776
  92   2.0000      -6.613863      -179.9724
  93   2.0000      -6.055731      -164.7848
  94   2.0000      -6.051229      -164.6623
  95   2.0000      -6.047132      -164.5508
  96   2.0000      -6.040787      -164.3782
  97   2.0000      -6.040777      -164.3779
  98   2.0000      -6.036500      -164.2615
  99   2.0000      -6.036484      -164.2611
 100   2.0000      -6.032315      -164.1476
 101   2.0000      -6.032287      -164.1469
 102   2.0000      -6.027476      -164.0160
 103   2.0000      -6.026064      -163.9775
 104   2.0000      -6.023566      -163.9096
 105   2.0000      -6.022083      -163.8692
 106   2.0000      -6.018233      -163.7644
 107   2.0000      -6.017177      -163.7357
 108   2.0000      -6.016195      -163.7090
 109   2.0000      -6.012209      -163.6005
 110   2.0000      -6.007001      -163.4588
 111   2.0000      -2.745156       -74.6995
 112   2.0000      -2.744493       -74.6815
 113   2.0000      -2.741079       -74.5886
 114   2.0000      -2.740962       -74.5854
 115   2.0000      -2.740425       -74.5708
 116   2.0000      -2.740273       -74.5666
 117   2.0000      -2.729362       -74.2697
 118   2.0000      -2.729349       -74.2694
 119   2.0000      -2.728689       -74.2514
 120   2.0000      -2.728663       -74.2507
 121   2.0000      -1.316281       -35.8178
 122   2.0000      -1.135674       -30.9033
 123   2.0000      -1.130763       -30.7696
 124   2.0000      -1.127736       -30.6873
 125   2.0000      -1.108348       -30.1597
 126   2.0000      -1.022280       -27.8176
 127   2.0000      -1.021799       -27.8046
 128   2.0000      -1.013644       -27.5827
 129   2.0000      -1.013101       -27.5679
 130   2.0000      -1.012321       -27.5467
 131   2.0000      -1.011464       -27.5233
 132   2.0000      -1.002184       -27.2708
 133   2.0000      -0.993472       -27.0338
 134   2.0000      -0.993187       -27.0260
 135   2.0000      -0.988679       -26.9033
 136   2.0000      -0.987343       -26.8670
 137   2.0000      -0.980833       -26.6898
 138   2.0000      -0.945777       -25.7359
 139   2.0000      -0.943803       -25.6822
 140   2.0000      -0.936416       -25.4812
 141   2.0000      -0.933492       -25.4016
 142   2.0000      -0.912434       -24.8286
 143   2.0000      -0.907812       -24.7028
 144   2.0000      -0.907293       -24.6887
 145   2.0000      -0.905532       -24.6408
 146   2.0000      -0.892698       -24.2916
 147   2.0000      -0.885375       -24.0923
 148   2.0000      -0.885293       -24.0900
 149   2.0000      -0.884387       -24.0654
 150   2.0000      -0.876082       -23.8394
 151   2.0000      -0.866665       -23.5831
 152   2.0000      -0.858578       -23.3631
 153   2.0000      -0.856437       -23.3048
 154   2.0000      -0.846943       -23.0465
 155   2.0000      -0.833207       -22.6727
 156   2.0000      -0.831202       -22.6182
 157   2.0000      -0.828333       -22.5401
 158   2.0000      -0.826833       -22.4993
 159   2.0000      -0.818396       -22.2697
 160   2.0000      -0.804636       -21.8953
 161   2.0000      -0.793449       -21.5909
 162   2.0000      -0.781793       -21.2737
 163   2.0000      -0.769983       -20.9523
 164   2.0000      -0.759953       -20.6794
 165   2.0000      -0.758303       -20.6345
 166   2.0000      -0.748781       -20.3754
 167   2.0000      -0.734212       -19.9789
 168   2.0000      -0.731296       -19.8996
 169   2.0000      -0.710309       -19.3285
 170   2.0000      -0.704461       -19.1694
 171   2.0000      -0.701442       -19.0872
 172   2.0000      -0.696065       -18.9409
 173   2.0000      -0.693596       -18.8737
 174   2.0000      -0.687820       -18.7165
 175   2.0000      -0.683291       -18.5933
 176   2.0000      -0.681730       -18.5508
 177   2.0000      -0.666471       -18.1356
 178   2.0000      -0.665428       -18.1072
 179   2.0000      -0.658372       -17.9152
 180   2.0000      -0.654777       -17.8174
 181   2.0000      -0.645779       -17.5725
 182   2.0000      -0.641471       -17.4553
 183   2.0000      -0.638391       -17.3715
 184   2.0000      -0.634506       -17.2658
 185   2.0000      -0.631319       -17.1791
 186   2.0000      -0.628854       -17.1120
 187   2.0000      -0.626237       -17.0408
 188   2.0000      -0.622681       -16.9440
 189   2.0000      -0.621416       -16.9096
 190   2.0000      -0.610735       -16.6190
 191   2.0000      -0.602587       -16.3972
 192   2.0000      -0.597956       -16.2712
 193   2.0000      -0.596429       -16.2297
 194   2.0000      -0.595840       -16.2136
 195   2.0000      -0.591844       -16.1049
 196   2.0000      -0.589123       -16.0309
 197   2.0000      -0.584436       -15.9033
 198   2.0000      -0.578796       -15.7498
 199   2.0000      -0.573475       -15.6051
 200   2.0000      -0.568902       -15.4806
 201   2.0000      -0.556925       -15.1547
 202   2.0000      -0.554669       -15.0933
 203   2.0000      -0.551861       -15.0169
 204   2.0000      -0.550596       -14.9825
 205   2.0000      -0.545996       -14.8573
 206   2.0000      -0.545359       -14.8400
 207   2.0000      -0.541414       -14.7326
 208   2.0000      -0.538902       -14.6643
 209   2.0000      -0.538058       -14.6413
 210   2.0000      -0.535202       -14.5636
 211   2.0000      -0.533437       -14.5156
 212   2.0000      -0.529012       -14.3951
 213   2.0000      -0.525430       -14.2977
 214   2.0000      -0.524414       -14.2700
 215   2.0000      -0.517991       -14.0953
 216   2.0000      -0.513237       -13.9659
 217   2.0000      -0.509620       -13.8675
 218   2.0000      -0.507997       -13.8233
 219   2.0000      -0.507796       -13.8178
 220   2.0000      -0.506615       -13.7857
 221   2.0000      -0.505507       -13.7555
 222   2.0000      -0.503382       -13.6977
 223   2.0000      -0.501918       -13.6579
 224   2.0000      -0.500303       -13.6139
 225   2.0000      -0.496391       -13.5075
 226   2.0000      -0.493430       -13.4269
 227   2.0000      -0.493189       -13.4204
 228   2.0000      -0.491148       -13.3648
 229   2.0000      -0.489180       -13.3113
 230   2.0000      -0.486016       -13.2252
 231   2.0000      -0.479293       -13.0422
 232   2.0000      -0.477959       -13.0059
 233   2.0000      -0.477284       -12.9876
 234   2.0000      -0.472374       -12.8539
 235   2.0000      -0.466259       -12.6875
 236   2.0000      -0.462491       -12.5850
 237   2.0000      -0.459978       -12.5166
 238   2.0000      -0.457774       -12.4567
 239   2.0000      -0.456980       -12.4351
 240   2.0000      -0.455377       -12.3914
 241   2.0000      -0.453856       -12.3501
 242   2.0000      -0.448285       -12.1985
 243   2.0000      -0.447765       -12.1843
 244   2.0000      -0.447209       -12.1692
 245   2.0000      -0.446202       -12.1418
 246   2.0000      -0.443454       -12.0670
 247   2.0000      -0.442214       -12.0333
 248   2.0000      -0.441252       -12.0071
 249   2.0000      -0.441085       -12.0025
 250   2.0000      -0.439115       -11.9489
 251   2.0000      -0.436526       -11.8785
 252   2.0000      -0.435952       -11.8629
 253   2.0000      -0.433940       -11.8081
 254   2.0000      -0.426674       -11.6104
 255   2.0000      -0.425341       -11.5741
 256   2.0000      -0.424663       -11.5557
 257   2.0000      -0.422630       -11.5003
 258   2.0000      -0.421003       -11.4561
 259   2.0000      -0.418718       -11.3939
 260   2.0000      -0.414375       -11.2757
 261   2.0000      -0.411496       -11.1974
 262   2.0000      -0.408704       -11.1214
 263   2.0000      -0.404936       -11.0189
 264   2.0000      -0.403152       -10.9703
 265   2.0000      -0.395598       -10.7648
 266   2.0000      -0.387375       -10.5410
 267   2.0000      -0.386441       -10.5156
 268   2.0000      -0.384664       -10.4672
 269   2.0000      -0.383734       -10.4419
 270   2.0000      -0.377535       -10.2733
 271   2.0000      -0.375374       -10.2144
 272   2.0000      -0.374633       -10.1943
 273   2.0000      -0.371023       -10.0960
 274   2.0000      -0.364414        -9.9162
 275   2.0000      -0.363119        -9.8810
 276   2.0000      -0.351394        -9.5619
 277   2.0000      -0.350504        -9.5377
 278   2.0000      -0.348205        -9.4751
 279   2.0000      -0.338945        -9.2232
 280   2.0000      -0.335771        -9.1368
 281   2.0000      -0.334603        -9.1050
 282   2.0000      -0.327319        -8.9068
 283   2.0000      -0.315202        -8.5771
 284   2.0000      -0.314782        -8.5656
 285   2.0000      -0.309504        -8.4220
 286   2.0000      -0.294011        -8.0005
 287   2.0000      -0.293366        -7.9829
 288   2.0000      -0.281011        -7.6467
 289   2.0000      -0.262297        -7.1375
 290   2.0000      -0.218858        -5.9554
 291   0.0000      -0.095693        -2.6039
 292   0.0000      -0.091249        -2.4830
 293   0.0000      -0.078785        -2.1439
 294   0.0000      -0.060373        -1.6428
 295   0.0000      -0.058437        -1.5902

MULLIKEN ATOMIC CHARGES
-----------------------
   0 C :    0.326405
   1 C :   -0.374534
   2 C :   -0.185976
   3 N :    0.141458
   4 C :   -0.179911
   5 N :    0.135363
   6 C :    0.011479
   7 C :   -0.010053
   8 C :   -0.076411
   9 C :    0.121722
  10 C :   -0.094664
  11 C :   -0.018259
  12 S :    0.185422
  13 C :   -0.123355
  14 C :    0.037166
  15 Br:    0.021554
  16 C :    0.154512
  17 O :   -0.172777
  18 C :   -0.081457
  19 C :    0.007769
  20 C :   -0.015239
  21 C :   -0.041038
  22 C :    0.040707
  23 C :   -0.108505
  24 C :   -0.003353
  25 C :    0.053003
  26 C :   -0.056307
  27 S :    0.062463
  28 C :    0.012410
  29 C :   -0.058582
  30 C :    0.033897
  31 C :    0.015728
  32 C :   -0.045416
  33 S :    0.080781
  34 C :   -0.046885
  35 C :    0.034218
  36 C :    0.036593
  37 C :   -0.038099
  38 S :    0.032311
  39 C :    0.020388
  40 N :   -0.022155
  41 C :   -0.101997
  42 S :    0.156429
  43 C :   -0.005793
  44 N :    0.277626
  45 O :   -0.243976
  46 O :   -0.270496
  47 C :    0.033455
  48 C :    0.121303
  49 C :   -0.023615
  50 C :    0.014886
  51 C :    0.021078
  52 C :   -0.108927
  53 C :    0.276691
  54 C :   -0.338817
  55 C :   -0.179258
  56 N :    0.152149
  57 C :   -0.215097
  58 N :    0.167230
  59 C :    0.006601
  60 C :   -0.006073
  61 C :    0.139037
  62 O :   -0.147224
  63 C :   -0.071558
  64 C :    0.114784
  65 C :   -0.088428
  66 C :   -0.020772
  67 S :    0.186471
  68 C :   -0.125276
  69 C :    0.038804
  70 Br:    0.023139
  71 H :   -0.016114
  72 H :   -0.008654
  73 H :   -0.005517
  74 H :   -0.009113
  75 H :    0.015753
  76 H :    0.057775
  77 H :    0.055135
  78 H :    0.030434
  79 H :    0.064753
  80 H :    0.068326
  81 H :   -0.014468
  82 H :    0.001494
  83 H :   -0.009890
  84 H :   -0.009658
  85 H :   -0.006708
  86 H :    0.028720
  87 H :    0.151412
  88 H :    0.019111
  89 H :   -0.016549
  90 H :    0.014444
  91 H :    0.011307
  92 H :   -0.010195
  93 H :   -0.003267
  94 H :   -0.003279
Sum of atomic charges:   -0.0000000

LOEWDIN ATOMIC CHARGES
----------------------
   0 C :    0.079812
   1 C :   -0.155565
   2 C :   -0.019160
   3 N :   -0.061521
   4 C :   -0.016486
   5 N :   -0.070534
   6 C :   -0.021594
   7 C :   -0.049420
   8 C :    0.018301
   9 C :   -0.033919
  10 C :   -0.145323
  11 C :   -0.009905
  12 S :    0.432088
  13 C :   -0.272457
  14 C :   -0.071354
  15 Br:    0.135037
  16 C :    0.087059
  17 O :   -0.160196
  18 C :   -0.110942
  19 C :    0.061734
  20 C :   -0.062507
  21 C :    0.066903
  22 C :   -0.077339
  23 C :   -0.119818
  24 C :   -0.030574
  25 C :   -0.024871
  26 C :   -0.103807
  27 S :    0.348288
  28 C :   -0.061877
  29 C :   -0.137910
  30 C :   -0.033815
  31 C :   -0.022779
  32 C :   -0.179224
  33 S :    0.363572
  34 C :   -0.177225
  35 C :   -0.032035
  36 C :   -0.033074
  37 C :   -0.174254
  38 S :    0.337898
  39 C :   -0.021778
  40 N :    0.057203
  41 C :   -0.085703
  42 S :    0.454537
  43 C :   -0.206942
  44 N :    0.273577
  45 O :   -0.211044
  46 O :   -0.236839
  47 C :    0.022181
  48 C :   -0.116534
  49 C :    0.028354
  50 C :   -0.034741
  51 C :    0.065321
  52 C :   -0.099619
  53 C :    0.071495
  54 C :   -0.143147
  55 C :   -0.019844
  56 N :   -0.051263
  57 C :   -0.023761
  58 N :   -0.052512
  59 C :   -0.018008
  60 C :   -0.052280
  61 C :    0.081943
  62 O :   -0.148269
  63 C :    0.021738
  64 C :   -0.033731
  65 C :   -0.143516
  66 C :   -0.011890
  67 S :    0.432680
  68 C :   -0.272088
  69 C :   -0.070337
  70 Br:    0.136189
  71 H :    0.038605
  72 H :    0.040692
  73 H :    0.037881
  74 H :    0.042951
  75 H :    0.026999
  76 H :    0.060414
  77 H :    0.040517
  78 H :    0.035181
  79 H :    0.028842
  80 H :    0.032634
  81 H :    0.029076
  82 H :    0.038031
  83 H :    0.033790
  84 H :    0.034390
  85 H :    0.035485
  86 H :    0.031325
  87 H :    0.087058
  88 H :    0.049731
  89 H :    0.028300
  90 H :    0.032086
  91 H :    0.042731
  92 H :    0.040989
  93 H :    0.040960
  94 H :    0.038757

  Mayer bond orders larger than 0.100000
B(  0-C ,  1-C ) :   1.5889 B(  0-C ,  6-C ) :   0.9915 B(  0-C , 18-C ) :   1.1072
B(  1-C ,  2-C ) :   1.1475 B(  1-C ,  4-C ) :   1.1541 B(  2-C ,  3-N ) :   2.9647
B(  4-C ,  5-N ) :   2.9573 B(  6-C ,  7-C ) :   1.2782 B(  6-C , 11-C ) :   1.4129
B(  7-C ,  8-C ) :   1.4261 B(  7-C , 16-C ) :   0.9510 B(  8-C ,  9-C ) :   1.2390
B(  8-C , 71-H ) :   1.0165 B(  9-C , 10-C ) :   1.3107 B(  9-C , 14-C ) :   1.1628
B( 10-C , 11-C ) :   1.3270 B( 10-C , 12-S ) :   1.0858 B( 11-C , 72-H ) :   0.9793
B( 12-S , 13-C ) :   1.0874 B( 13-C , 14-C ) :   1.6172 B( 13-C , 15-Br) :   1.0174
B( 14-C , 73-H ) :   1.0003 B( 16-C , 17-O ) :   2.1454 B( 16-C , 18-C ) :   0.9585
B( 18-C , 19-C ) :   1.4751 B( 19-C , 20-C ) :   1.2734 B( 19-C , 74-H ) :   0.9255
B( 20-C , 21-C ) :   1.5231 B( 20-C , 24-C ) :   1.0112 B( 21-C , 22-C ) :   1.1068
B( 21-C , 75-H ) :   0.9849 B( 22-C , 23-C ) :   1.5366 B( 22-C , 28-C ) :   1.1341
B( 23-C , 24-C ) :   1.0072 B( 23-C , 27-S ) :   1.1427 B( 24-C , 25-C ) :   1.0507
B( 24-C , 76-H ) :   0.8516 B( 25-C , 26-C ) :   1.0571 B( 25-C , 77-H ) :   0.9290
B( 25-C , 78-H ) :   0.9415 B( 26-C , 27-S ) :   0.9708 B( 26-C , 79-H ) :   0.9472
B( 26-C , 80-H ) :   0.9527 B( 28-C , 29-C ) :   1.6178 B( 28-C , 81-H ) :   0.9515
B( 29-C , 30-C ) :   1.1298 B( 29-C , 33-S ) :   1.0278 B( 30-C , 31-C ) :   1.6271
B( 30-C , 82-H ) :   0.9883 B( 31-C , 32-C ) :   1.1718 B( 31-C , 83-H ) :   0.9938
B( 32-C , 33-S ) :   1.0456 B( 32-C , 34-C ) :   1.5342 B( 34-C , 35-C ) :   1.1793
B( 34-C , 38-S ) :   1.0346 B( 35-C , 36-C ) :   1.6212 B( 35-C , 84-H ) :   0.9914
B( 36-C , 37-C ) :   1.1461 B( 36-C , 85-H ) :   0.9949 B( 37-C , 38-S ) :   1.0132
B( 37-C , 39-C ) :   1.6227 B( 39-C , 40-N ) :   1.1160 B( 39-C , 86-H ) :   0.9579
B( 40-N , 41-C ) :   1.2860 B( 40-N , 87-H ) :   0.9024 B( 41-C , 42-S ) :   1.1387
B( 41-C , 48-C ) :   1.2944 B( 42-S , 43-C ) :   1.0485 B( 43-C , 44-N ) :   0.9757
B( 43-C , 47-C ) :   1.5180 B( 44-N , 45-O ) :   1.5357 B( 44-N , 46-O ) :   1.5005
B( 45-O , 46-O ) :   0.2570 B( 47-C , 48-C ) :   1.2178 B( 47-C , 88-H ) :   0.9958
B( 48-C , 49-C ) :   1.0911 B( 49-C , 50-C ) :   1.6571 B( 49-C , 89-H ) :   0.9776
B( 50-C , 51-C ) :   1.1503 B( 50-C , 90-H ) :   0.9611 B( 51-C , 52-C ) :   1.5912
B( 51-C , 91-H ) :   0.9528 B( 52-C , 53-C ) :   1.0439 B( 52-C , 61-C ) :   0.9471
B( 53-C , 54-C ) :   1.6362 B( 53-C , 59-C ) :   1.0138 B( 54-C , 55-C ) :   1.1300
B( 54-C , 57-C ) :   1.1633 B( 55-C , 56-N ) :   2.9859 B( 57-C , 58-N ) :   3.0045
B( 59-C , 60-C ) :   1.2745 B( 59-C , 66-C ) :   1.4127 B( 60-C , 61-C ) :   0.9226
B( 60-C , 63-C ) :   1.4287 B( 61-C , 62-O ) :   2.2591 B( 63-C , 64-C ) :   1.2481
B( 63-C , 92-H ) :   1.0174 B( 64-C , 65-C ) :   1.3088 B( 64-C , 69-C ) :   1.1619
B( 65-C , 66-C ) :   1.3260 B( 65-C , 67-S ) :   1.0850 B( 66-C , 93-H ) :   0.9837
B( 67-S , 68-C ) :   1.0866 B( 68-C , 69-C ) :   1.6200 B( 68-C , 70-Br) :   1.0182
B( 69-C , 94-H ) :   1.0007

-----------------------------------------------------------------------------
         ABSORPTION SPECTRUM VIA TRANSITION ELECTRIC DIPOLE MOMENTS
-----------------------------------------------------------------------------
State   Energy  Wavelength   fosc         T2         TX        TY        TZ
        (cm-1)    (nm)                  (au**2)     (au)      (au)      (au)
-----------------------------------------------------------------------------
   0   13393.3    746.6   1.263820659  31.06514   2.90234   4.64281   1.04204
   1   15155.3    659.8   0.099326633   2.15763   1.29296  -0.30208   0.62819
   2   17718.8    564.4   0.960956638  17.85438   3.48068   1.79639  -1.58499
   3   21578.5    463.4   0.023718976   0.36187   0.51408   0.23713   0.20339
   4   22447.6    445.5   0.172956974   2.53655   1.32872  -0.45027   0.75386
   5   22874.2    437.2   0.520244468   7.48752   0.50283  -1.76191  -2.03233
   6   23723.1    421.5   0.033772510   0.46867   0.67280   0.06009  -0.11133
   7   24566.4    407.1   0.538513473   7.21658   1.13830  -1.36941  -2.01136
   8   25539.6    391.5   0.101624530   1.30997   0.84065   0.68615   0.36396
   9   27597.7    362.3   0.169247635   2.01895   1.06788  -0.70286  -0.62014
  10   27650.7    361.7   0.089865622   1.06995   0.67162  -0.41109   0.67073
  11   28690.6    348.5   0.075245506   0.86341   0.18441  -0.61518   0.67153
  12   28957.9    345.3   0.546670655   6.21490   0.73534  -1.11460  -2.10520
  13   29493.7    339.1   0.057352534   0.64018   0.12066  -0.44618  -0.65310
  14   29622.6    337.6   0.034701643   0.38566   0.06804  -0.03150  -0.61647
  15   29989.3    333.5   0.029926845   0.32853  -0.37143   0.19145   0.39232
  16   30172.1    331.4   0.020436996   0.22299  -0.34336   0.25741   0.19707
  17   30296.4    330.1   0.069348808   0.75357   0.66328  -0.13178  -0.54430
  18   30531.0    327.5   0.011569741   0.12476   0.34604   0.03558   0.06119
  19   30966.0    322.9   0.241282976   2.56518   1.32911  -0.56478  -0.69258
  20   31105.5    321.5   0.128036368   1.35510  -0.99802   0.38475   0.45937
  21   31379.2    318.7   0.073965694   0.77601  -0.31449  -0.28694  -0.77121
  22   32548.4    307.2   0.026021286   0.26319   0.17432  -0.36607   0.31432
  23   32672.4    306.1   0.029088663   0.29310  -0.53089   0.01765  -0.10463
  24   32743.4    305.4   0.001411999   0.01420   0.05866  -0.05023  -0.09074
  25   33230.1    300.9   0.158782208   1.57306  -1.13563   0.33136   0.41665
  26   33509.3    298.4   0.544427557   5.34872  -1.32247   0.24865   1.88095
  27   33770.8    296.1   0.523655101   5.10480   2.01625  -1.01887  -0.03804
  28   34394.8    290.7   0.028024307   0.26824   0.12646   0.24225  -0.43995
  29   34563.2    289.3   0.089660578   0.85401   0.68263   0.60402   0.15226
  30   34923.6    286.3   0.027921785   0.26321  -0.17557   0.47881   0.05587
  31   35792.5    279.4   0.004047963   0.03723  -0.14403  -0.00066   0.12840
  32   36337.1    275.2   0.000784468   0.00711   0.08365  -0.00806  -0.00665
  33   36487.0    274.1   0.015816623   0.14271  -0.07233  -0.17894  -0.32474
  34   37172.9    269.0   0.042412894   0.37562   0.29922  -0.52998  -0.07214
  35   37520.1    266.5   0.016086907   0.14115  -0.37381  -0.00182   0.03756
  36   37647.6    265.6   0.042283022   0.36975  -0.03259  -0.29145  -0.53268
  37   38226.1    261.6   0.199797481   1.72070  -1.02309  -0.29380   0.76659
  38   38267.7    261.3   0.029767145   0.25608  -0.20451  -0.44258  -0.13559
  39   38480.4    259.9   0.026022305   0.22263  -0.01738  -0.30695  -0.35792
  40   38742.6    258.1   0.039389010   0.33470   0.32389   0.34747   0.33025
  41   38766.7    258.0   0.037739196   0.32049  -0.15093   0.40216   0.36874
  42   38899.3    257.1   0.008785926   0.07436   0.09951   0.20020  -0.15613
  43   39239.1    254.8   0.058886113   0.49405  -0.49636  -0.46733  -0.17110
  44   39390.6    253.9   0.112962670   0.94410   0.89555   0.37301   0.05442
  45   39581.3    252.6   0.015652308   0.13019   0.17929   0.30374   0.07604
  46   39905.4    250.6   0.090747303   0.74865   0.67478   0.47979  -0.25126
  47   40001.3    250.0   0.003946798   0.03248  -0.15837  -0.08597   0.00316
  48   40261.0    248.4   0.001895884   0.01550   0.10264  -0.02234  -0.06685

FINAL SINGLE POINT ENERGY    -10196.249242048289

DIPOLE MOMENT
-------------
                                X             Y             Z
Electronic contribution:    -61.37769      63.10189     -57.82348
Nuclear contribution   :     59.81635     -64.99514      56.95005
                        -----------------------------------------
Total Dipole Moment    :     -1.56134      -1.89325      -0.87343
                        -----------------------------------------
Magnitude (a.u.)       :      2.60481
Magnitude (Debye)      :      6.62091

Rotational constants in cm-1:     0.000706     0.000171     0.000153
Rotational constants in MHz :    21.151409     5.138720     4.586286

                             ****ORCA TERMINATED NORMALLY****
TOTAL RUN TIME: 0 days 0 hours 9 minutes 37 seconds 367 msec
