                         Program Version 4.2.0 -  RELEASE  -
|  1> # ORCA input file
|  2> # SCF done       -176.153639592162          0.000454879974
|  3> ! CAM-B3LYP def2-SVP def2/J RIJCOSX Grid4 TightSCF
|  4> %maxcore 5000
|  5> %tddft
|  6>     Mode sTDDFT
|  7>     Ethresh 5.0
|  8>     maxcore 5000
|  9> end
| 10>
| 11> %pal
| 12>   nprocs 6
| 13>   end
| 14> * xyz 0 1
| 15>    C       11.69352        -0.84033        -1.35267
| 16>    S       11.75289         0.86257        -1.54687
| 17>    C       10.09944         1.01704        -1.00301
| 18>    C        9.57031        -0.22229        -0.68930
| 19>    C       10.48590        -1.27983        -0.89598
| 20>    C       10.15329        -2.71225        -0.61440
| 21>    C        8.64310        -2.91079        -0.50347
| 22>    C        8.02361        -1.84286         0.41348
| 23>    C        8.69588        -1.91757         1.76259
| 24>    O        8.49006        -2.76752         2.58151
| 25>    C        8.16902        -0.45722        -0.21516
| 26>    C        9.44855         2.27626        -0.93490
| 27>    C       10.04760         3.45906        -1.22669
| 28>    C        9.46196         4.74412        -1.18599
| 29>    S       10.51811         6.11575        -1.06237
| 30>    C        9.21150         7.25583        -0.89574
| 31>    C        7.97366         6.58533        -1.04127
| 32>    C        8.12039         5.17051        -1.20436
| 33>    C        6.98322         4.37815        -1.44919
| 34>    C        5.75132         4.96641        -1.49379
| 35>    F        4.66365         4.21331        -1.73833
| 36>    C        5.60639         6.35669        -1.33039
| 37>    F        4.38204         6.90512        -1.42046
| 38>    C        6.69459         7.15998        -1.12665
| 39>    C        9.53466         8.59195        -0.63475
| 40>    C        8.68779         9.56016        -0.14656
| 41>    C        9.04406        10.88774         0.06355
| 42>    C        8.16694        11.82625         0.57981
| 43>    C        8.39110        13.19566         0.81303
| 44>    C        7.30698        13.86582         1.31641
| 45>    C        6.17866        13.05224         1.50912
| 46>    S        6.52420        11.40924         1.03159
| 47>    C        4.92106        13.39412         1.99287
| 48>    C        4.43360        14.64674         2.39796
| 49>    C        3.12621        14.62243         2.80295
| 50>    C        2.52123        13.34881         2.75558
| 51>    S        3.67859        12.17604         2.15803
| 52>    C        1.18208        13.09546         2.99642
| 53>    C        0.49427        11.88178         3.00478
| 54>    S       -1.20867        11.91917         2.60525
| 55>    C       -1.36401        10.18912         2.62571
| 56>    C       -0.14355         9.60019         3.01257
| 57>    C        0.89511        10.54792         3.25526
| 58>    C        2.10788        10.10939         3.80959
| 59>    C        2.30623         8.77155         4.01161
| 60>    F        3.46185         8.34447         4.54956
| 61>    C        1.31075         7.82876         3.68774
| 62>    F        1.55358         6.52246         3.89029
| 63>    C        0.09503         8.22878         3.20937
| 64>    C       -2.56032         9.53519         2.29388
| 65>    C       -3.71685        10.15819         1.93375
| 66>    C       -4.90777         9.48624         1.58259
| 67>    S       -5.00591         7.74410         1.56758
| 68>    C       -6.65995         7.79028         1.03600
| 69>    C       -7.09591         9.09414         0.88039
| 70>    C       -6.11697        10.04993         1.19779
| 71>    C       -6.35763        11.52449         1.10049
| 72>    C       -7.84832        11.83675         0.99040
| 73>    C       -8.52561        10.92250        -0.04328
| 74>    C       -7.82944        11.09374        -1.37045
| 75>    O       -8.03062        11.99343        -2.13559
| 76>    C       -8.47697         9.47214         0.43616
| 77>    C       -7.40512         6.58505         0.81746
| 78>    C       -6.92362         5.35332         0.97978
| 79>    H       12.56012        -1.42650        -1.58624
| 80>    H       10.63047        -3.01156         0.32465
| 81>    H       10.56059        -3.34973        -1.40238
| 82>    H        8.43058        -3.90302        -0.10382
| 83>    H        8.18428        -2.83117        -1.49131
| 84>    H        6.96418        -2.08201         0.55395
| 85>    H        9.43344        -1.11094         1.94818
| 86>    H        7.87792         0.30864         0.50817
| 87>    H        7.48452        -0.37866        -1.06661
| 88>    H        8.42572         2.25360        -0.59280
| 89>    H       11.10467         3.44185        -1.46563
| 90>    H        7.06623         3.32419        -1.64938
| 91>    H        6.54529         8.22418        -1.07564
| 92>    H       10.57345         8.86098        -0.78443
| 93>    H        7.68281         9.28607         0.13806
| 94>    H       10.03996        11.22006        -0.19709
| 95>    H        9.34140        13.65434         0.60284
| 96>    H        7.30061        14.91531         1.55087
| 97>    H        5.04324        15.53210         2.37609
| 98>    H        2.58239        15.48744         3.13990
| 99>    H        0.56169        13.97997         3.08752
|100>    H        2.87479        10.80302         4.10646
|101>    H       -0.66496         7.49249         3.00690
|102>    H       -2.54418         8.45408         2.31944
|103>    H       -3.73978        11.23942         1.90065
|104>    H       -5.83420        11.91572         0.22129
|105>    H       -5.94243        12.02854         1.97645
|106>    H       -7.98515        12.88004         0.70328
|107>    H       -8.33078        11.68046         1.95775
|108>    H       -9.56471        11.24633        -0.16336
|109>    H       -7.08005        10.30860        -1.59461
|110>    H       -8.81146         8.80755        -0.36410
|111>    H       -9.17000         9.34911         1.27487
|112>    H       -8.43073         6.72530         0.50248
|113>    H       -5.90794         5.18462         1.29685
|114>    H       -7.52901         4.48274         0.80175
|115> *
|116>
|117>                          ****END OF INPUT****

CARTESIAN COORDINATES (ANGSTROEM)
---------------------------------
  C     11.693520   -0.840330   -1.352670
  S     11.752890    0.862570   -1.546870
  C     10.099440    1.017040   -1.003010
  C      9.570310   -0.222290   -0.689300
  C     10.485900   -1.279830   -0.895980
  C     10.153290   -2.712250   -0.614400
  C      8.643100   -2.910790   -0.503470
  C      8.023610   -1.842860    0.413480
  C      8.695880   -1.917570    1.762590
  O      8.490060   -2.767520    2.581510
  C      8.169020   -0.457220   -0.215160
  C      9.448550    2.276260   -0.934900
  C     10.047600    3.459060   -1.226690
  C      9.461960    4.744120   -1.185990
  S     10.518110    6.115750   -1.062370
  C      9.211500    7.255830   -0.895740
  C      7.973660    6.585330   -1.041270
  C      8.120390    5.170510   -1.204360
  C      6.983220    4.378150   -1.449190
  C      5.751320    4.966410   -1.493790
  F      4.663650    4.213310   -1.738330
  C      5.606390    6.356690   -1.330390
  F      4.382040    6.905120   -1.420460
  C      6.694590    7.159980   -1.126650
  C      9.534660    8.591950   -0.634750
  C      8.687790    9.560160   -0.146560
  C      9.044060   10.887740    0.063550
  C      8.166940   11.826250    0.579810
  C      8.391100   13.195660    0.813030
  C      7.306980   13.865820    1.316410
  C      6.178660   13.052240    1.509120
  S      6.524200   11.409240    1.031590
  C      4.921060   13.394120    1.992870
  C      4.433600   14.646740    2.397960
  C      3.126210   14.622430    2.802950
  C      2.521230   13.348810    2.755580
  S      3.678590   12.176040    2.158030
  C      1.182080   13.095460    2.996420
  C      0.494270   11.881780    3.004780
  S     -1.208670   11.919170    2.605250
  C     -1.364010   10.189120    2.625710
  C     -0.143550    9.600190    3.012570
  C      0.895110   10.547920    3.255260
  C      2.107880   10.109390    3.809590
  C      2.306230    8.771550    4.011610
  F      3.461850    8.344470    4.549560
  C      1.310750    7.828760    3.687740
  F      1.553580    6.522460    3.890290
  C      0.095030    8.228780    3.209370
  C     -2.560320    9.535190    2.293880
  C     -3.716850   10.158190    1.933750
  C     -4.907770    9.486240    1.582590
  S     -5.005910    7.744100    1.567580
  C     -6.659950    7.790280    1.036000
  C     -7.095910    9.094140    0.880390
  C     -6.116970   10.049930    1.197790
  C     -6.357630   11.524490    1.100490
  C     -7.848320   11.836750    0.990400
  C     -8.525610   10.922500   -0.043280
  C     -7.829440   11.093740   -1.370450
  O     -8.030620   11.993430   -2.135590
  C     -8.476970    9.472140    0.436160
  C     -7.405120    6.585050    0.817460
  C     -6.923620    5.353320    0.979780
  H     12.560120   -1.426500   -1.586240
  H     10.630470   -3.011560    0.324650
  H     10.560590   -3.349730   -1.402380
  H      8.430580   -3.903020   -0.103820
  H      8.184280   -2.831170   -1.491310
  H      6.964180   -2.082010    0.553950
  H      9.433440   -1.110940    1.948180
  H      7.877920    0.308640    0.508170
  H      7.484520   -0.378660   -1.066610
  H      8.425720    2.253600   -0.592800
  H     11.104670    3.441850   -1.465630
  H      7.066230    3.324190   -1.649380
  H      6.545290    8.224180   -1.075640
  H     10.573450    8.860980   -0.784430
  H      7.682810    9.286070    0.138060
  H     10.039960   11.220060   -0.197090
  H      9.341400   13.654340    0.602840
  H      7.300610   14.915310    1.550870
  H      5.043240   15.532100    2.376090
  H      2.582390   15.487440    3.139900
  H      0.561690   13.979970    3.087520
  H      2.874790   10.803020    4.106460
  H     -0.664960    7.492490    3.006900
  H     -2.544180    8.454080    2.319440
  H     -3.739780   11.239420    1.900650
  H     -5.834200   11.915720    0.221290
  H     -5.942430   12.028540    1.976450
  H     -7.985150   12.880040    0.703280
  H     -8.330780   11.680460    1.957750
  H     -9.564710   11.246330   -0.163360
  H     -7.080050   10.308600   -1.594610
  H     -8.811460    8.807550   -0.364100
  H     -9.170000    9.349110    1.274870
  H     -8.430730    6.725300    0.502480
  H     -5.907940    5.184620    1.296850
  H     -7.529010    4.482740    0.801750

 Total Charge           Charge          ....    0
 Multiplicity           Mult            ....    1
 Number of Electrons    NEL             ....  496
 Basis Dimension        Dim             .... 1100

ORBITAL ENERGIES
----------------

  NO   OCC          E(Eh)            E(eV)
   0   2.0000     -88.962871     -2420.8028
   1   2.0000     -88.959705     -2420.7166
   2   2.0000     -88.947333     -2420.3800
   3   2.0000     -88.944814     -2420.3114
   4   2.0000     -88.943304     -2420.2704
   5   2.0000     -88.941763     -2420.2284
   6   2.0000     -24.781487      -674.3385
   7   2.0000     -24.780012      -674.2984
   8   2.0000     -24.778647      -674.2613
   9   2.0000     -24.776706      -674.2084
  10   2.0000     -19.211063      -522.7596
  11   2.0000     -19.210385      -522.7411
  12   2.0000     -10.362433      -281.9761
  13   2.0000     -10.361621      -281.9540
  14   2.0000     -10.359919      -281.9077
  15   2.0000     -10.357997      -281.8554
  16   2.0000     -10.349585      -281.6265
  17   2.0000     -10.349013      -281.6110
  18   2.0000     -10.307109      -280.4707
  19   2.0000     -10.306528      -280.4549
  20   2.0000     -10.306255      -280.4474
  21   2.0000     -10.306231      -280.4468
  22   2.0000     -10.305923      -280.4384
  23   2.0000     -10.305462      -280.4259
  24   2.0000     -10.303851      -280.3821
  25   2.0000     -10.302472      -280.3445
  26   2.0000     -10.293724      -280.1065
  27   2.0000     -10.292392      -280.0702
  28   2.0000     -10.292109      -280.0625
  29   2.0000     -10.290076      -280.0072
  30   2.0000     -10.289782      -279.9992
  31   2.0000     -10.287505      -279.9372
  32   2.0000     -10.287236      -279.9299
  33   2.0000     -10.285632      -279.8863
  34   2.0000     -10.284787      -279.8633
  35   2.0000     -10.284575      -279.8575
  36   2.0000     -10.284093      -279.8444
  37   2.0000     -10.283755      -279.8352
  38   2.0000     -10.283622      -279.8316
  39   2.0000     -10.283299      -279.8228
  40   2.0000     -10.283203      -279.8202
  41   2.0000     -10.282394      -279.7982
  42   2.0000     -10.282092      -279.7900
  43   2.0000     -10.281855      -279.7835
  44   2.0000     -10.281300      -279.7684
  45   2.0000     -10.281151      -279.7644
  46   2.0000     -10.280750      -279.7534
  47   2.0000     -10.278815      -279.7008
  48   2.0000     -10.278701      -279.6977
  49   2.0000     -10.278137      -279.6823
  50   2.0000     -10.277908      -279.6761
  51   2.0000     -10.277148      -279.6554
  52   2.0000     -10.277134      -279.6550
  53   2.0000     -10.276304      -279.6325
  54   2.0000     -10.274978      -279.5964
  55   2.0000     -10.274724      -279.5895
  56   2.0000     -10.274695      -279.5887
  57   2.0000     -10.274416      -279.5811
  58   2.0000     -10.273564      -279.5579
  59   2.0000     -10.273179      -279.5474
  60   2.0000     -10.272054      -279.5168
  61   2.0000     -10.271593      -279.5043
  62   2.0000     -10.270761      -279.4816
  63   2.0000     -10.263643      -279.2879
  64   2.0000      -8.058282      -219.2770
  65   2.0000      -8.054909      -219.1852
  66   2.0000      -8.043111      -218.8642
  67   2.0000      -8.040350      -218.7890
  68   2.0000      -8.039383      -218.7627
  69   2.0000      -8.037964      -218.7241
  70   2.0000      -6.027202      -164.0085
  71   2.0000      -6.023914      -163.9190
  72   2.0000      -6.023274      -163.9016
  73   2.0000      -6.021013      -163.8401
  74   2.0000      -6.020083      -163.8148
  75   2.0000      -6.017391      -163.7415
  76   2.0000      -6.012341      -163.6041
  77   2.0000      -6.009479      -163.5262
  78   2.0000      -6.009081      -163.5154
  79   2.0000      -6.008199      -163.4914
  80   2.0000      -6.007617      -163.4756
  81   2.0000      -6.005746      -163.4247
  82   2.0000      -6.005378      -163.4147
  83   2.0000      -6.004955      -163.4031
  84   2.0000      -6.003637      -163.3673
  85   2.0000      -6.002410      -163.3339
  86   2.0000      -6.000416      -163.2796
  87   2.0000      -5.999041      -163.2422
  88   2.0000      -1.301885       -35.4261
  89   2.0000      -1.299234       -35.3540
  90   2.0000      -1.287197       -35.0264
  91   2.0000      -1.284333       -34.9485
  92   2.0000      -1.125310       -30.6212
  93   2.0000      -1.124657       -30.6035
  94   2.0000      -0.998622       -27.1739
  95   2.0000      -0.998337       -27.1661
  96   2.0000      -0.991691       -26.9853
  97   2.0000      -0.985629       -26.8203
  98   2.0000      -0.983104       -26.7516
  99   2.0000      -0.970467       -26.4077
 100   2.0000      -0.939340       -25.5607
 101   2.0000      -0.936964       -25.4961
 102   2.0000      -0.926197       -25.2031
 103   2.0000      -0.924486       -25.1566
 104   2.0000      -0.914150       -24.8753
 105   2.0000      -0.909218       -24.7411
 106   2.0000      -0.895429       -24.3659
 107   2.0000      -0.888427       -24.1753
 108   2.0000      -0.873345       -23.7649
 109   2.0000      -0.863818       -23.5057
 110   2.0000      -0.855269       -23.2730
 111   2.0000      -0.848001       -23.0753
 112   2.0000      -0.845959       -23.0197
 113   2.0000      -0.842474       -22.9249
 114   2.0000      -0.840047       -22.8588
 115   2.0000      -0.830996       -22.6126
 116   2.0000      -0.828996       -22.5581
 117   2.0000      -0.826799       -22.4984
 118   2.0000      -0.826504       -22.4903
 119   2.0000      -0.817229       -22.2379
 120   2.0000      -0.812795       -22.1173
 121   2.0000      -0.801235       -21.8027
 122   2.0000      -0.786491       -21.4015
 123   2.0000      -0.769856       -20.9488
 124   2.0000      -0.753983       -20.5169
 125   2.0000      -0.737711       -20.0741
 126   2.0000      -0.730930       -19.8896
 127   2.0000      -0.728601       -19.8262
 128   2.0000      -0.728132       -19.8135
 129   2.0000      -0.727268       -19.7900
 130   2.0000      -0.717037       -19.5116
 131   2.0000      -0.713421       -19.4132
 132   2.0000      -0.708866       -19.2892
 133   2.0000      -0.702563       -19.1177
 134   2.0000      -0.698762       -19.0143
 135   2.0000      -0.676159       -18.3992
 136   2.0000      -0.672832       -18.3087
 137   2.0000      -0.666799       -18.1445
 138   2.0000      -0.663632       -18.0584
 139   2.0000      -0.651602       -17.7310
 140   2.0000      -0.648342       -17.6423
 141   2.0000      -0.640786       -17.4367
 142   2.0000      -0.639267       -17.3953
 143   2.0000      -0.634926       -17.2772
 144   2.0000      -0.629838       -17.1388
 145   2.0000      -0.621926       -16.9235
 146   2.0000      -0.619344       -16.8532
 147   2.0000      -0.614828       -16.7303
 148   2.0000      -0.613653       -16.6983
 149   2.0000      -0.608254       -16.5514
 150   2.0000      -0.606028       -16.4909
 151   2.0000      -0.602165       -16.3857
 152   2.0000      -0.601636       -16.3713
 153   2.0000      -0.592237       -16.1156
 154   2.0000      -0.590259       -16.0618
 155   2.0000      -0.588661       -16.0183
 156   2.0000      -0.587300       -15.9812
 157   2.0000      -0.580287       -15.7904
 158   2.0000      -0.572357       -15.5746
 159   2.0000      -0.567555       -15.4440
 160   2.0000      -0.564627       -15.3643
 161   2.0000      -0.559039       -15.2122
 162   2.0000      -0.553568       -15.0634
 163   2.0000      -0.549305       -14.9474
 164   2.0000      -0.542719       -14.7681
 165   2.0000      -0.541560       -14.7366
 166   2.0000      -0.537707       -14.6317
 167   2.0000      -0.537519       -14.6266
 168   2.0000      -0.535303       -14.5663
 169   2.0000      -0.534996       -14.5580
 170   2.0000      -0.530078       -14.4242
 171   2.0000      -0.529835       -14.4175
 172   2.0000      -0.528346       -14.3770
 173   2.0000      -0.527515       -14.3544
 174   2.0000      -0.527183       -14.3454
 175   2.0000      -0.526576       -14.3289
 176   2.0000      -0.521090       -14.1796
 177   2.0000      -0.516943       -14.0667
 178   2.0000      -0.511692       -13.9238
 179   2.0000      -0.510984       -13.9046
 180   2.0000      -0.504052       -13.7159
 181   2.0000      -0.503920       -13.7124
 182   2.0000      -0.501706       -13.6521
 183   2.0000      -0.497684       -13.5427
 184   2.0000      -0.495974       -13.4961
 185   2.0000      -0.495375       -13.4798
 186   2.0000      -0.494370       -13.4525
 187   2.0000      -0.491932       -13.3862
 188   2.0000      -0.491039       -13.3619
 189   2.0000      -0.489918       -13.3313
 190   2.0000      -0.484980       -13.1970
 191   2.0000      -0.481893       -13.1130
 192   2.0000      -0.479411       -13.0454
 193   2.0000      -0.477405       -12.9909
 194   2.0000      -0.474890       -12.9224
 195   2.0000      -0.473820       -12.8933
 196   2.0000      -0.468340       -12.7442
 197   2.0000      -0.467413       -12.7190
 198   2.0000      -0.464673       -12.6444
 199   2.0000      -0.464078       -12.6282
 200   2.0000      -0.462042       -12.5728
 201   2.0000      -0.457097       -12.4382
 202   2.0000      -0.456032       -12.4093
 203   2.0000      -0.454955       -12.3800
 204   2.0000      -0.452430       -12.3112
 205   2.0000      -0.451154       -12.2765
 206   2.0000      -0.448060       -12.1923
 207   2.0000      -0.446938       -12.1618
 208   2.0000      -0.441926       -12.0254
 209   2.0000      -0.436845       -11.8872
 210   2.0000      -0.433698       -11.8015
 211   2.0000      -0.432387       -11.7659
 212   2.0000      -0.431515       -11.7421
 213   2.0000      -0.428882       -11.6705
 214   2.0000      -0.424685       -11.5563
 215   2.0000      -0.423808       -11.5324
 216   2.0000      -0.420901       -11.4533
 217   2.0000      -0.418341       -11.3836
 218   2.0000      -0.415685       -11.3114
 219   2.0000      -0.412745       -11.2314
 220   2.0000      -0.408326       -11.1111
 221   2.0000      -0.403414       -10.9775
 222   2.0000      -0.402715       -10.9584
 223   2.0000      -0.402281       -10.9466
 224   2.0000      -0.399826       -10.8798
 225   2.0000      -0.399504       -10.8711
 226   2.0000      -0.393868       -10.7177
 227   2.0000      -0.390892       -10.6367
 228   2.0000      -0.388999       -10.5852
 229   2.0000      -0.386909       -10.5283
 230   2.0000      -0.376190       -10.2366
 231   2.0000      -0.358800        -9.7634
 232   2.0000      -0.346643        -9.4326
 233   2.0000      -0.335848        -9.1389
 234   2.0000      -0.333071        -9.0633
 235   2.0000      -0.322868        -8.7857
 236   2.0000      -0.322040        -8.7632
 237   2.0000      -0.321509        -8.7487
 238   2.0000      -0.310211        -8.4413
 239   2.0000      -0.309432        -8.4201
 240   2.0000      -0.306974        -8.3532
 241   2.0000      -0.304053        -8.2737
 242   2.0000      -0.303348        -8.2545
 243   2.0000      -0.290930        -7.9166
 244   2.0000      -0.276804        -7.5322
 245   2.0000      -0.249898        -6.8001
 246   2.0000      -0.223927        -6.0934
 247   2.0000      -0.186988        -5.0882
 248   0.0000      -0.095654        -2.6029
 249   0.0000      -0.062115        -1.6902
 250   0.0000      -0.036170        -0.9842
 251   0.0000      -0.014066        -0.3827
 252   0.0000      -0.005523        -0.1503

MULLIKEN ATOMIC CHARGES
-----------------------
   0 C :   -0.122181
   1 S :    0.100089
   2 C :   -0.124645
   3 C :   -0.075832
   4 C :   -0.047842
   5 C :    0.101288
   6 C :    0.056510
   7 C :   -0.106292
   8 C :    0.128268
   9 O :   -0.176644
  10 C :    0.146143
  11 C :   -0.024477
  12 C :    0.041534
  13 C :   -0.129684
  14 S :    0.157231
  15 C :   -0.118518
  16 C :    0.126630
  17 C :    0.120095
  18 C :   -0.122535
  19 C :    0.224914
  20 F :   -0.182203
  21 C :    0.223794
  22 F :   -0.179231
  23 C :   -0.126177
  24 C :    0.037766
  25 C :   -0.023355
  26 C :   -0.000301
  27 C :   -0.025491
  28 C :    0.033391
  29 C :    0.019772
  30 C :   -0.035749
  31 S :    0.060900
  32 C :   -0.050861
  33 C :    0.026620
  34 C :    0.029551
  35 C :   -0.042137
  36 S :    0.083560
  37 C :   -0.002532
  38 C :   -0.125160
  39 S :    0.130862
  40 C :   -0.082652
  41 C :    0.118837
  42 C :    0.120743
  43 C :   -0.108908
  44 C :    0.215893
  45 F :   -0.181620
  46 C :    0.228012
  47 F :   -0.181467
  48 C :   -0.118024
  49 C :   -0.012348
  50 C :   -0.031915
  51 C :   -0.082745
  52 S :    0.085517
  53 C :   -0.107351
  54 C :   -0.086444
  55 C :   -0.066632
  56 C :    0.080360
  57 C :    0.069427
  58 C :   -0.103577
  59 C :    0.127230
  60 O :   -0.175881
  61 C :    0.148510
  62 C :   -0.010828
  63 C :   -0.021540
  64 H :    0.009513
  65 H :    0.032001
  66 H :    0.011321
  67 H :    0.018911
  68 H :    0.011808
  69 H :    0.019968
  70 H :    0.002750
  71 H :    0.023000
  72 H :    0.023473
  73 H :   -0.011388
  74 H :   -0.010639
  75 H :   -0.015151
  76 H :   -0.006999
  77 H :   -0.018501
  78 H :    0.011207
  79 H :   -0.018503
  80 H :   -0.015034
  81 H :   -0.014805
  82 H :   -0.015938
  83 H :   -0.014065
  84 H :   -0.009940
  85 H :    0.001920
  86 H :   -0.011898
  87 H :   -0.005786
  88 H :   -0.009214
  89 H :    0.032252
  90 H :    0.020611
  91 H :    0.018029
  92 H :    0.011744
  93 H :    0.015913
  94 H :    0.004114
  95 H :    0.019247
  96 H :    0.024374
  97 H :   -0.010070
  98 H :    0.022219
  99 H :    0.023884
Sum of atomic charges:   -0.0000000

LOEWDIN ATOMIC CHARGES
----------------------
   0 C :   -0.188093
   1 S :    0.427699
   2 C :   -0.177331
   3 C :   -0.065448
   4 C :   -0.070708
   5 C :   -0.028557
   6 C :   -0.011381
   7 C :   -0.071623
   8 C :    0.116043
   9 O :   -0.123569
  10 C :   -0.022324
  11 C :   -0.042369
  12 C :   -0.054223
  13 C :   -0.175048
  14 S :    0.473984
  15 C :   -0.174510
  16 C :   -0.042510
  17 C :   -0.044408
  18 C :   -0.041951
  19 C :    0.061109
  20 F :   -0.060324
  21 C :    0.061571
  22 F :   -0.057633
  23 C :   -0.037831
  24 C :   -0.045672
  25 C :   -0.040494
  26 C :   -0.052716
  27 C :   -0.148373
  28 C :   -0.037628
  29 C :   -0.036321
  30 C :   -0.178908
  31 S :    0.376699
  32 C :   -0.182222
  33 C :   -0.039268
  34 C :   -0.037190
  35 C :   -0.156084
  36 S :    0.403951
  37 C :   -0.084706
  38 C :   -0.171709
  39 S :    0.457482
  40 C :   -0.172059
  41 C :   -0.041385
  42 C :   -0.053422
  43 C :   -0.044997
  44 C :    0.060177
  45 F :   -0.058768
  46 C :    0.061964
  47 F :   -0.058846
  48 C :   -0.040398
  49 C :   -0.048930
  50 C :   -0.046684
  51 C :   -0.167807
  52 S :    0.425042
  53 C :   -0.173516
  54 C :   -0.064710
  55 C :   -0.063292
  56 C :   -0.031240
  57 C :   -0.010186
  58 C :   -0.071042
  59 C :    0.114905
  60 O :   -0.123517
  61 C :   -0.020645
  62 C :   -0.042076
  63 C :   -0.048100
  64 H :    0.020909
  65 H :    0.034256
  66 H :    0.034453
  67 H :    0.030268
  68 H :    0.025159
  69 H :    0.040075
  70 H :   -0.005957
  71 H :    0.030652
  72 H :    0.038057
  73 H :    0.029515
  74 H :    0.022028
  75 H :    0.038049
  76 H :    0.040631
  77 H :    0.028299
  78 H :    0.019823
  79 H :    0.031783
  80 H :    0.032572
  81 H :    0.031338
  82 H :    0.031250
  83 H :    0.032080
  84 H :    0.033710
  85 H :    0.030128
  86 H :    0.039726
  87 H :    0.025898
  88 H :    0.024493
  89 H :    0.034310
  90 H :    0.034245
  91 H :    0.030428
  92 H :    0.025750
  93 H :    0.038118
  94 H :   -0.004698
  95 H :    0.030578
  96 H :    0.038528
  97 H :    0.031915
  98 H :    0.017479
  99 H :    0.026275

  Mayer bond orders larger than 0.100000
B(  0-C ,  1-S ) :   1.1515 B(  0-C ,  4-C ) :   1.5728 B(  0-C , 64-H ) :   0.9712
B(  1-S ,  2-C ) :   1.1226 B(  2-C ,  3-C ) :   1.4873 B(  2-C , 11-C ) :   1.1788
B(  3-C ,  4-C ) :   1.2978 B(  3-C , 10-C ) :   1.0369 B(  4-C ,  5-C ) :   1.0205
B(  5-C ,  6-C ) :   1.0938 B(  5-C , 65-H ) :   0.9156 B(  5-C , 66-H ) :   0.9206
B(  6-C ,  7-C ) :   1.0435 B(  6-C , 67-H ) :   0.9352 B(  6-C , 68-H ) :   0.9504
B(  7-C ,  8-C ) :   0.9074 B(  7-C , 10-C ) :   1.0274 B(  7-C , 69-H ) :   0.9038
B(  8-C ,  9-O ) :   2.1998 B(  8-C , 70-H ) :   0.9492 B( 10-C , 71-H ) :   0.9204
B( 10-C , 72-H ) :   0.9059 B( 11-C , 12-C ) :   1.6378 B( 11-C , 73-H ) :   0.9625
B( 12-C , 13-C ) :   1.1664 B( 12-C , 74-H ) :   0.9470 B( 13-C , 14-S ) :   1.1517
B( 13-C , 15-C ) :   0.1009 B( 13-C , 17-C ) :   1.3243 B( 14-S , 15-C ) :   1.1364
B( 15-C , 16-C ) :   1.2960 B( 15-C , 24-C ) :   1.2070 B( 16-C , 17-C ) :   1.2259
B( 16-C , 23-C ) :   1.1787 B( 17-C , 18-C ) :   1.1710 B( 18-C , 19-C ) :   1.4898
B( 18-C , 23-C ) :   0.1089 B( 18-C , 75-H ) :   0.9942 B( 19-C , 20-F ) :   1.1254
B( 19-C , 21-C ) :   1.1683 B( 21-C , 22-F ) :   1.1291 B( 21-C , 23-C ) :   1.4859
B( 23-C , 76-H ) :   0.9937 B( 24-C , 25-C ) :   1.5543 B( 24-C , 77-H ) :   0.9563
B( 25-C , 26-C ) :   1.2251 B( 25-C , 78-H ) :   0.9642 B( 26-C , 27-C ) :   1.4893
B( 26-C , 79-H ) :   0.9855 B( 27-C , 28-C ) :   1.1854 B( 27-C , 31-S ) :   1.0405
B( 28-C , 29-C ) :   1.5382 B( 28-C , 80-H ) :   0.9991 B( 29-C , 30-C ) :   1.2309
B( 29-C , 81-H ) :   0.9950 B( 30-C , 31-S ) :   1.0578 B( 30-C , 32-C ) :   1.4418
B( 32-C , 33-C ) :   1.2275 B( 32-C , 36-S ) :   1.0528 B( 33-C , 34-C ) :   1.5425
B( 33-C , 82-H ) :   0.9943 B( 34-C , 35-C ) :   1.1840 B( 34-C , 83-H ) :   0.9977
B( 35-C , 36-S ) :   1.0411 B( 35-C , 37-C ) :   1.5328 B( 37-C , 38-C ) :   1.2266
B( 37-C , 84-H ) :   0.9452 B( 38-C , 39-S ) :   1.1248 B( 38-C , 42-C ) :   1.2986
B( 39-S , 40-C ) :   1.1273 B( 40-C , 41-C ) :   1.3026 B( 40-C , 49-C ) :   1.2252
B( 41-C , 42-C ) :   1.2247 B( 41-C , 48-C ) :   1.1747 B( 42-C , 43-C ) :   1.1719
B( 43-C , 44-C ) :   1.5063 B( 43-C , 48-C ) :   0.1098 B( 43-C , 85-H ) :   0.9791
B( 44-C , 45-F ) :   1.1207 B( 44-C , 46-C ) :   1.1679 B( 46-C , 47-F ) :   1.1260
B( 46-C , 48-C ) :   1.4933 B( 48-C , 86-H ) :   0.9986 B( 49-C , 50-C ) :   1.5858
B( 49-C , 87-H ) :   0.9658 B( 50-C , 51-C ) :   1.1961 B( 50-C , 88-H ) :   0.9687
B( 51-C , 52-S ) :   1.1047 B( 51-C , 55-C ) :   1.4737 B( 52-S , 53-C ) :   1.1039
B( 53-C , 54-C ) :   1.5053 B( 53-C , 62-C ) :   1.1332 B( 54-C , 55-C ) :   1.3103
B( 54-C , 61-C ) :   1.0300 B( 55-C , 56-C ) :   1.0498 B( 56-C , 57-C ) :   1.0943
B( 56-C , 89-H ) :   0.9084 B( 56-C , 90-H ) :   0.9103 B( 57-C , 58-C ) :   1.0436
B( 57-C , 91-H ) :   0.9329 B( 57-C , 92-H ) :   0.9480 B( 58-C , 59-C ) :   0.9097
B( 58-C , 61-C ) :   1.0307 B( 58-C , 93-H ) :   0.9052 B( 59-C , 60-O ) :   2.2017
B( 59-C , 94-H ) :   0.9477 B( 61-C , 95-H ) :   0.9220 B( 61-C , 96-H ) :   0.9052
B( 62-C , 63-C ) :   1.9106 B( 62-C , 97-H ) :   0.9580 B( 63-C , 98-H ) :   0.9556
B( 63-C , 99-H ) :   0.9484

-----------------------------------------------------------------------------
         ABSORPTION SPECTRUM VIA TRANSITION ELECTRIC DIPOLE MOMENTS
-----------------------------------------------------------------------------
State   Energy  Wavelength   fosc         T2         TX        TY        TZ
        (cm-1)    (nm)                  (au**2)     (au)      (au)      (au)
-----------------------------------------------------------------------------
   0    7785.4   1284.5   0.939334882  39.72054   5.67326  -2.24050  -1.58582
   1   13661.1    732.0   0.033599103   0.80969  -0.36154  -0.79740  -0.20766
   2   16464.3    607.4   1.625495534  32.50250  -2.12994  -5.18763  -1.02679
   3   18945.3    527.8   0.008453596   0.14690  -0.01153   0.16562   0.34545
   4   22193.0    450.6   0.164879034   2.44582   0.55057  -0.70180   1.28459
   5   23416.7    427.0   0.016638749   0.23392   0.30907  -0.35876   0.09844
   6   23773.7    420.6   0.102994205   1.42623   1.12075   0.16515   0.37800
   7   25773.2    388.0   0.119913746   1.53171  -1.03470   0.65942  -0.16205
   8   26639.6    375.4   0.151161310   1.86805   0.32368   1.32783   0.01223
   9   27399.2    365.0   0.048124085   0.57823   0.57115  -0.47146   0.17249
  10   28201.2    354.6   0.039626926   0.46259  -0.62766   0.26073  -0.02572
  11   28993.0    344.9   0.015890994   0.18044  -0.37068   0.20721  -0.01005
  12   29662.8    337.1   0.151752360   1.68422  -1.28187   0.12310  -0.16088
  13   30425.5    328.7   0.049068634   0.53093   0.54406  -0.48305   0.03998
  14   31121.5    321.3   0.037657124   0.39835  -0.37940   0.45126  -0.22532
  15   31709.2    315.4   0.022565949   0.23428  -0.21000   0.43104  -0.06623
  16   32488.8    307.8   0.049287092   0.49943  -0.68810  -0.16099   0.00603
  17   33017.3    302.9   0.058653176   0.58482   0.73738   0.15634   0.12902
  18   33084.9    302.3   0.064891195   0.64570  -0.77107   0.14578  -0.17292
  19   33715.3    296.6   0.049711962   0.48541  -0.03462  -0.66855  -0.19301
  20   33968.7    294.4   0.055504325   0.53793   0.71124   0.06957   0.16502
  21   34074.1    293.5   0.055509437   0.53631   0.65947  -0.18236  -0.26108
  22   34175.5    292.6   0.005062058   0.04876  -0.11917   0.13204  -0.13087
  23   34583.7    289.2   0.025178554   0.23968   0.29375   0.38964   0.03962
  24   34691.5    288.3   0.111744485   1.06042  -0.56010  -0.86394  -0.01810
  25   34759.8    287.7   0.220471539   2.08810   1.15624  -0.85691   0.13005
  26   35477.3    281.9   0.011639077   0.10800   0.15342   0.28863  -0.03407
  27   35603.7    280.9   0.014974650   0.13846   0.30939  -0.20517  -0.02542
  28   35635.1    280.6   0.027200892   0.25129  -0.41822  -0.22997   0.15329
  29   36398.8    274.7   0.013630465   0.12328  -0.27409   0.21799   0.02525
  30   36813.0    271.6   0.004267355   0.03816  -0.18462   0.00475   0.06369
  31   37001.0    270.3   0.014030721   0.12484  -0.24387   0.25564   0.00298
  32   37432.4    267.1   0.025223740   0.22184  -0.21206   0.39497  -0.14446
  33   37985.8    263.3   0.006525656   0.05656  -0.09844   0.19737  -0.08894
  34   38702.9    258.4   0.019696426   0.16754   0.33510  -0.22251   0.07572
  35   39058.7    256.0   0.016918128   0.14260  -0.24406   0.28141  -0.06196
  36   39248.2    254.8   0.057821858   0.48501   0.03487   0.68927  -0.09327
  37   39514.5    253.1   0.079084368   0.65889   0.79028  -0.13803   0.12363
  38   40012.2    249.9   0.021430640   0.17633  -0.10726  -0.39559   0.09127
  39   40183.9    248.9   0.040561181   0.33230  -0.08337   0.56937   0.03421

FINAL SINGLE POINT ENERGY     -4938.160106080066

DIPOLE MOMENT
-------------
                                X             Y             Z
Electronic contribution:     36.28799      20.74764       9.00826
Nuclear contribution   :    -35.91387     -19.65806      -9.21140
                        -----------------------------------------
Total Dipole Moment    :      0.37412       1.08958      -0.20314
                        -----------------------------------------
Magnitude (a.u.)       :      1.16979
Magnitude (Debye)      :      2.97338

Rotational constants in cm-1:     0.001042     0.000346     0.000280
Rotational constants in MHz :    31.239107    10.366681     8.397109

                             ****ORCA TERMINATED NORMALLY****
TOTAL RUN TIME: 0 days 0 hours 8 minutes 49 seconds 442 msec
