                         Program Version 4.2.0 -  RELEASE  -
|  1> # ORCA input file
|  2> # SCF done       -157.494063567388          0.000773847998
|  3> ! CAM-B3LYP def2-SVP def2/J RIJCOSX Grid4 TightSCF
|  4> %maxcore 5000
|  5> %tddft
|  6>     Mode sTDDFT
|  7>     Ethresh 5.0
|  8>     maxcore 5000
|  9> end
| 10>
| 11> %pal
| 12>   nprocs 6
| 13>   end
| 14> * xyz 0 1
| 15>    C        3.39103         8.11324        -0.14000
| 16>    C        2.68277         8.55953        -1.28416
| 17>    C        2.55947         9.83982        -1.76539
| 18>    S        1.60176         9.90441        -3.17844
| 19>    C        1.34403         8.21763        -3.15953
| 20>    C        1.97487         7.60834        -2.09763
| 21>    C        1.98451         6.21904        -1.75583
| 22>    N        1.22484         5.36021        -2.49721
| 23>    C        2.68730         5.82645        -0.62367
| 24>    C        3.37929         6.79356         0.16529
| 25>    C        2.75299         4.44606        -0.18520
| 26>    C        2.66226         3.99305         1.11557
| 27>    C        2.31694         4.84363         2.17987
| 28>    N        2.00199         5.54529         3.03030
| 29>    C        2.84484         2.58206         1.23344
| 30>    C        3.06600         1.99747        -0.00335
| 31>    S        3.08252         3.12584        -1.30336
| 32>    S        3.26159         0.27024         0.00045
| 33>    C        3.05004         0.32394         1.71497
| 34>    C        2.84423         1.59179         2.26114
| 35>    C        2.71113         1.52056         3.66893
| 36>    C        2.53972         2.59724         4.54770
| 37>    N        2.41518         3.43588         5.32197
| 38>    C        2.80435         0.20568         4.15043
| 39>    S        3.06743        -0.94991         2.85761
| 40>    C        2.75965        -0.17572         5.50489
| 41>    C        2.86988        -1.46071         5.97297
| 42>    C        2.98358        -1.89299         7.32234
| 43>    C        3.19483        -3.23167         7.47114
| 44>    C        3.24153        -3.93540         6.24708
| 45>    S        2.96190        -2.84525         4.90869
| 46>    C        3.54439        -5.24395         5.92442
| 47>    C        4.00339        -6.34113         6.68467
| 48>    C        4.40097        -7.40489         5.92876
| 49>    C        4.27857        -7.20719         4.52671
| 50>    S        3.53817        -5.65073         4.22375
| 51>    C        4.61849        -8.06389         3.51025
| 52>    C        4.55901        -7.72369         2.13863
| 53>    C        4.68483        -6.47520         1.53026
| 54>    C        5.31844        -5.36086         2.09946
| 55>    N        5.94614        -4.47670         2.47765
| 56>    C        4.41099        -6.51697         0.13616
| 57>    C        4.18898        -7.81112        -0.31217
| 58>    S        4.23334        -8.98631         0.94983
| 59>    S        3.93246        -7.95095        -2.02419
| 60>    C        4.08903        -6.22218        -2.13477
| 61>    C        4.31476        -5.57823        -0.92875
| 62>    C        4.31276        -4.16175        -1.08545
| 63>    C        4.27208        -3.24337        -0.02781
| 64>    N        4.14898        -2.47607         0.81736
| 65>    C        4.13489        -3.76590        -2.40207
| 66>    S        3.93401        -5.14041        -3.46941
| 67>    C        4.16210        -2.40720        -2.88055
| 68>    C        3.33500        -1.94430        -3.95386
| 69>    C        2.40649        -2.63981        -4.69022
| 70>    S        1.62703        -1.65908        -5.85001
| 71>    C        2.51404        -0.28392        -5.37562
| 72>    C        3.39183        -0.56050        -4.35242
| 73>    C        4.28170         0.34404        -3.69496
| 74>    N        4.29487         1.66811        -4.03395
| 75>    C        5.07121        -0.15320        -2.68182
| 76>    C        5.00779        -1.49212        -2.28718
| 77>    H        3.92601         8.82600         0.46601
| 78>    H        2.97754        10.73975        -1.36231
| 79>    H        0.73758         7.78389        -3.92982
| 80>    H        0.90846         5.65811        -3.40076
| 81>    H        1.30960         4.37109        -2.34420
| 82>    H        3.92482         6.43838         1.02577
| 83>    H        2.66434         0.62484         6.22758
| 84>    H        2.93911        -1.19056         8.13618
| 85>    H        3.32948        -3.72519         8.41744
| 86>    H        4.05421        -6.30690         7.75876
| 87>    H        4.81196        -8.31484         6.32955
| 88>    H        4.88503        -9.08146         3.76038
| 89>    H        2.12262        -3.66911        -4.61555
| 90>    H        2.33086         0.64891        -5.87034
| 91>    H        3.93545         1.93831        -4.93210
| 92>    H        5.04528         2.22929        -3.66837
| 93>    H        5.76178         0.50629        -2.17809
| 94>    H        5.66932        -1.81867        -1.49950
| 95> *
| 96>
| 97>                          ****END OF INPUT****

CARTESIAN COORDINATES (ANGSTROEM)
---------------------------------
  C      3.391030    8.113240   -0.140000
  C      2.682770    8.559530   -1.284160
  C      2.559470    9.839820   -1.765390
  S      1.601760    9.904410   -3.178440
  C      1.344030    8.217630   -3.159530
  C      1.974870    7.608340   -2.097630
  C      1.984510    6.219040   -1.755830
  N      1.224840    5.360210   -2.497210
  C      2.687300    5.826450   -0.623670
  C      3.379290    6.793560    0.165290
  C      2.752990    4.446060   -0.185200
  C      2.662260    3.993050    1.115570
  C      2.316940    4.843630    2.179870
  N      2.001990    5.545290    3.030300
  C      2.844840    2.582060    1.233440
  C      3.066000    1.997470   -0.003350
  S      3.082520    3.125840   -1.303360
  S      3.261590    0.270240    0.000450
  C      3.050040    0.323940    1.714970
  C      2.844230    1.591790    2.261140
  C      2.711130    1.520560    3.668930
  C      2.539720    2.597240    4.547700
  N      2.415180    3.435880    5.321970
  C      2.804350    0.205680    4.150430
  S      3.067430   -0.949910    2.857610
  C      2.759650   -0.175720    5.504890
  C      2.869880   -1.460710    5.972970
  C      2.983580   -1.892990    7.322340
  C      3.194830   -3.231670    7.471140
  C      3.241530   -3.935400    6.247080
  S      2.961900   -2.845250    4.908690
  C      3.544390   -5.243950    5.924420
  C      4.003390   -6.341130    6.684670
  C      4.400970   -7.404890    5.928760
  C      4.278570   -7.207190    4.526710
  S      3.538170   -5.650730    4.223750
  C      4.618490   -8.063890    3.510250
  C      4.559010   -7.723690    2.138630
  C      4.684830   -6.475200    1.530260
  C      5.318440   -5.360860    2.099460
  N      5.946140   -4.476700    2.477650
  C      4.410990   -6.516970    0.136160
  C      4.188980   -7.811120   -0.312170
  S      4.233340   -8.986310    0.949830
  S      3.932460   -7.950950   -2.024190
  C      4.089030   -6.222180   -2.134770
  C      4.314760   -5.578230   -0.928750
  C      4.312760   -4.161750   -1.085450
  C      4.272080   -3.243370   -0.027810
  N      4.148980   -2.476070    0.817360
  C      4.134890   -3.765900   -2.402070
  S      3.934010   -5.140410   -3.469410
  C      4.162100   -2.407200   -2.880550
  C      3.335000   -1.944300   -3.953860
  C      2.406490   -2.639810   -4.690220
  S      1.627030   -1.659080   -5.850010
  C      2.514040   -0.283920   -5.375620
  C      3.391830   -0.560500   -4.352420
  C      4.281700    0.344040   -3.694960
  N      4.294870    1.668110   -4.033950
  C      5.071210   -0.153200   -2.681820
  C      5.007790   -1.492120   -2.287180
  H      3.926010    8.826000    0.466010
  H      2.977540   10.739750   -1.362310
  H      0.737580    7.783890   -3.929820
  H      0.908460    5.658110   -3.400760
  H      1.309600    4.371090   -2.344200
  H      3.924820    6.438380    1.025770
  H      2.664340    0.624840    6.227580
  H      2.939110   -1.190560    8.136180
  H      3.329480   -3.725190    8.417440
  H      4.054210   -6.306900    7.758760
  H      4.811960   -8.314840    6.329550
  H      4.885030   -9.081460    3.760380
  H      2.122620   -3.669110   -4.615550
  H      2.330860    0.648910   -5.870340
  H      3.935450    1.938310   -4.932100
  H      5.045280    2.229290   -3.668370
  H      5.761780    0.506290   -2.178090
  H      5.669320   -1.818670   -1.499500

 Total Charge           Charge          ....    0
 Multiplicity           Mult            ....    1
 Number of Electrons    NEL             ....  496
 Basis Dimension        Dim             ....  998

ORBITAL ENERGIES
----------------

  NO   OCC          E(Eh)            E(eV)
   0   2.0000     -88.979666     -2421.2598
   1   2.0000     -88.979445     -2421.2538
   2   2.0000     -88.974933     -2421.1310
   3   2.0000     -88.973091     -2421.0809
   4   2.0000     -88.969346     -2420.9790
   5   2.0000     -88.963842     -2420.8292
   6   2.0000     -88.960517     -2420.7387
   7   2.0000     -88.958034     -2420.6712
   8   2.0000     -88.942443     -2420.2469
   9   2.0000     -88.940281     -2420.1881
  10   2.0000     -14.438465      -392.8906
  11   2.0000     -14.423572      -392.4853
  12   2.0000     -14.404539      -391.9674
  13   2.0000     -14.389533      -391.5591
  14   2.0000     -14.382742      -391.3743
  15   2.0000     -14.382666      -391.3722
  16   2.0000     -10.332824      -281.1704
  17   2.0000     -10.330216      -281.0995
  18   2.0000     -10.327923      -281.0371
  19   2.0000     -10.327724      -281.0317
  20   2.0000     -10.326555      -280.9998
  21   2.0000     -10.321620      -280.8656
  22   2.0000     -10.316119      -280.7159
  23   2.0000     -10.314921      -280.6833
  24   2.0000     -10.314738      -280.6783
  25   2.0000     -10.313174      -280.6357
  26   2.0000     -10.311756      -280.5971
  27   2.0000     -10.311482      -280.5897
  28   2.0000     -10.310190      -280.5545
  29   2.0000     -10.307693      -280.4866
  30   2.0000     -10.307467      -280.4804
  31   2.0000     -10.307211      -280.4735
  32   2.0000     -10.307168      -280.4723
  33   2.0000     -10.306626      -280.4576
  34   2.0000     -10.301129      -280.3080
  35   2.0000     -10.301114      -280.3076
  36   2.0000     -10.298545      -280.2377
  37   2.0000     -10.298463      -280.2354
  38   2.0000     -10.297590      -280.2117
  39   2.0000     -10.293077      -280.0889
  40   2.0000     -10.292671      -280.0778
  41   2.0000     -10.291789      -280.0538
  42   2.0000     -10.291355      -280.0420
  43   2.0000     -10.290827      -280.0276
  44   2.0000     -10.289147      -279.9819
  45   2.0000     -10.288682      -279.9693
  46   2.0000     -10.287495      -279.9370
  47   2.0000     -10.287189      -279.9286
  48   2.0000     -10.286949      -279.9221
  49   2.0000     -10.285642      -279.8865
  50   2.0000     -10.285585      -279.8850
  51   2.0000     -10.283993      -279.8417
  52   2.0000     -10.282912      -279.8122
  53   2.0000     -10.282821      -279.8098
  54   2.0000     -10.282554      -279.8025
  55   2.0000     -10.282493      -279.8009
  56   2.0000     -10.274884      -279.5938
  57   2.0000     -10.269643      -279.4512
  58   2.0000     -10.267103      -279.3821
  59   2.0000     -10.265817      -279.3471
  60   2.0000     -10.259156      -279.1658
  61   2.0000     -10.248569      -278.8777
  62   2.0000      -8.074541      -219.7194
  63   2.0000      -8.074263      -219.7119
  64   2.0000      -8.070724      -219.6156
  65   2.0000      -8.068440      -219.5534
  66   2.0000      -8.064081      -219.4348
  67   2.0000      -8.057418      -219.2535
  68   2.0000      -8.056206      -219.2205
  69   2.0000      -8.051692      -219.0977
  70   2.0000      -8.038970      -218.7515
  71   2.0000      -8.036581      -218.6865
  72   2.0000      -6.044329      -164.4746
  73   2.0000      -6.044143      -164.4695
  74   2.0000      -6.040049      -164.3581
  75   2.0000      -6.039825      -164.3520
  76   2.0000      -6.039650      -164.3472
  77   2.0000      -6.038111      -164.3054
  78   2.0000      -6.036247      -164.2546
  79   2.0000      -6.035219      -164.2266
  80   2.0000      -6.035037      -164.2217
  81   2.0000      -6.033934      -164.1917
  82   2.0000      -6.033917      -164.1912
  83   2.0000      -6.033561      -164.1816
  84   2.0000      -6.029822      -164.0798
  85   2.0000      -6.029446      -164.0696
  86   2.0000      -6.027505      -164.0167
  87   2.0000      -6.025905      -163.9732
  88   2.0000      -6.025130      -163.9521
  89   2.0000      -6.023072      -163.8961
  90   2.0000      -6.021290      -163.8476
  91   2.0000      -6.020751      -163.8330
  92   2.0000      -6.019408      -163.7964
  93   2.0000      -6.018377      -163.7684
  94   2.0000      -6.016814      -163.7258
  95   2.0000      -6.013483      -163.6352
  96   2.0000      -6.008746      -163.5063
  97   2.0000      -6.006373      -163.4417
  98   2.0000      -6.004454      -163.3895
  99   2.0000      -6.002164      -163.3272
 100   2.0000      -5.999824      -163.2635
 101   2.0000      -5.997350      -163.1962
 102   2.0000      -1.033519       -28.1235
 103   2.0000      -1.031122       -28.0583
 104   2.0000      -1.024362       -27.8743
 105   2.0000      -1.016078       -27.6489
 106   2.0000      -1.003494       -27.3065
 107   2.0000      -0.997776       -27.1509
 108   2.0000      -0.991866       -26.9900
 109   2.0000      -0.987671       -26.8759
 110   2.0000      -0.985601       -26.8196
 111   2.0000      -0.976231       -26.5646
 112   2.0000      -0.972540       -26.4642
 113   2.0000      -0.970483       -26.4082
 114   2.0000      -0.968995       -26.3677
 115   2.0000      -0.958669       -26.0867
 116   2.0000      -0.944781       -25.7088
 117   2.0000      -0.929696       -25.2983
 118   2.0000      -0.922260       -25.0960
 119   2.0000      -0.906880       -24.6775
 120   2.0000      -0.892555       -24.2877
 121   2.0000      -0.885667       -24.1002
 122   2.0000      -0.876035       -23.8381
 123   2.0000      -0.868959       -23.6456
 124   2.0000      -0.859958       -23.4007
 125   2.0000      -0.855291       -23.2736
 126   2.0000      -0.852125       -23.1875
 127   2.0000      -0.850019       -23.1302
 128   2.0000      -0.836641       -22.7662
 129   2.0000      -0.835382       -22.7319
 130   2.0000      -0.830756       -22.6060
 131   2.0000      -0.819244       -22.2928
 132   2.0000      -0.817513       -22.2457
 133   2.0000      -0.816020       -22.2050
 134   2.0000      -0.798167       -21.7192
 135   2.0000      -0.790763       -21.5178
 136   2.0000      -0.786079       -21.3903
 137   2.0000      -0.776243       -21.1226
 138   2.0000      -0.761200       -20.7133
 139   2.0000      -0.741080       -20.1658
 140   2.0000      -0.723782       -19.6951
 141   2.0000      -0.711191       -19.3525
 142   2.0000      -0.697751       -18.9868
 143   2.0000      -0.696839       -18.9619
 144   2.0000      -0.687697       -18.7132
 145   2.0000      -0.685155       -18.6440
 146   2.0000      -0.684625       -18.6296
 147   2.0000      -0.677599       -18.4384
 148   2.0000      -0.674914       -18.3653
 149   2.0000      -0.672194       -18.2913
 150   2.0000      -0.660253       -17.9664
 151   2.0000      -0.656103       -17.8535
 152   2.0000      -0.650941       -17.7130
 153   2.0000      -0.644904       -17.5487
 154   2.0000      -0.638659       -17.3788
 155   2.0000      -0.633412       -17.2360
 156   2.0000      -0.623618       -16.9695
 157   2.0000      -0.622087       -16.9279
 158   2.0000      -0.618262       -16.8238
 159   2.0000      -0.616612       -16.7789
 160   2.0000      -0.612964       -16.6796
 161   2.0000      -0.607202       -16.5228
 162   2.0000      -0.602982       -16.4080
 163   2.0000      -0.590448       -16.0669
 164   2.0000      -0.583782       -15.8855
 165   2.0000      -0.571609       -15.5543
 166   2.0000      -0.565562       -15.3897
 167   2.0000      -0.555142       -15.1062
 168   2.0000      -0.551638       -15.0108
 169   2.0000      -0.545310       -14.8386
 170   2.0000      -0.540138       -14.6979
 171   2.0000      -0.536832       -14.6080
 172   2.0000      -0.531058       -14.4508
 173   2.0000      -0.527472       -14.3532
 174   2.0000      -0.522714       -14.2238
 175   2.0000      -0.522372       -14.2145
 176   2.0000      -0.517996       -14.0954
 177   2.0000      -0.516419       -14.0525
 178   2.0000      -0.513890       -13.9837
 179   2.0000      -0.510548       -13.8927
 180   2.0000      -0.509255       -13.8575
 181   2.0000      -0.504483       -13.7277
 182   2.0000      -0.500163       -13.6101
 183   2.0000      -0.498580       -13.5671
 184   2.0000      -0.496080       -13.4990
 185   2.0000      -0.494525       -13.4567
 186   2.0000      -0.493087       -13.4176
 187   2.0000      -0.491983       -13.3875
 188   2.0000      -0.484970       -13.1967
 189   2.0000      -0.480974       -13.0880
 190   2.0000      -0.479315       -13.0428
 191   2.0000      -0.478047       -13.0083
 192   2.0000      -0.474927       -12.9234
 193   2.0000      -0.473560       -12.8862
 194   2.0000      -0.468681       -12.7534
 195   2.0000      -0.463613       -12.6155
 196   2.0000      -0.460886       -12.5413
 197   2.0000      -0.457037       -12.4366
 198   2.0000      -0.456319       -12.4171
 199   2.0000      -0.454665       -12.3721
 200   2.0000      -0.452439       -12.3115
 201   2.0000      -0.449851       -12.2411
 202   2.0000      -0.447880       -12.1874
 203   2.0000      -0.443688       -12.0734
 204   2.0000      -0.441606       -12.0167
 205   2.0000      -0.437828       -11.9139
 206   2.0000      -0.436574       -11.8798
 207   2.0000      -0.434643       -11.8272
 208   2.0000      -0.433731       -11.8024
 209   2.0000      -0.432491       -11.7687
 210   2.0000      -0.431047       -11.7294
 211   2.0000      -0.428982       -11.6732
 212   2.0000      -0.425347       -11.5743
 213   2.0000      -0.421648       -11.4736
 214   2.0000      -0.418807       -11.3963
 215   2.0000      -0.416340       -11.3292
 216   2.0000      -0.414844       -11.2885
 217   2.0000      -0.412721       -11.2307
 218   2.0000      -0.410016       -11.1571
 219   2.0000      -0.408517       -11.1163
 220   2.0000      -0.406375       -11.0580
 221   2.0000      -0.402831       -10.9616
 222   2.0000      -0.399288       -10.8652
 223   2.0000      -0.394479       -10.7343
 224   2.0000      -0.390320       -10.6212
 225   2.0000      -0.384613       -10.4659
 226   2.0000      -0.383815       -10.4441
 227   2.0000      -0.375495       -10.2177
 228   2.0000      -0.370896       -10.0926
 229   2.0000      -0.365594        -9.9483
 230   2.0000      -0.363565        -9.8931
 231   2.0000      -0.353753        -9.6261
 232   2.0000      -0.346028        -9.4159
 233   2.0000      -0.334720        -9.1082
 234   2.0000      -0.331223        -9.0130
 235   2.0000      -0.322970        -8.7885
 236   2.0000      -0.322761        -8.7828
 237   2.0000      -0.317152        -8.6302
 238   2.0000      -0.314683        -8.5630
 239   2.0000      -0.312221        -8.4960
 240   2.0000      -0.301360        -8.2004
 241   2.0000      -0.293787        -7.9943
 242   2.0000      -0.290977        -7.9179
 243   2.0000      -0.272094        -7.4041
 244   2.0000      -0.264355        -7.1935
 245   2.0000      -0.245248        -6.6735
 246   2.0000      -0.233462        -6.3528
 247   2.0000      -0.214096        -5.8259
 248   0.0000      -0.085186        -2.3180
 249   0.0000      -0.043524        -1.1843
 250   0.0000      -0.025221        -0.6863
 251   0.0000      -0.023214        -0.6317
 252   0.0000      -0.006415        -0.1746

MULLIKEN ATOMIC CHARGES
-----------------------
   0 C :   -0.019511
   1 C :    0.120462
   2 C :   -0.148564
   3 S :    0.144634
   4 C :   -0.214923
   5 C :    0.084493
   6 C :    0.018469
   7 N :   -0.028403
   8 C :   -0.028950
   9 C :    0.007034
  10 C :   -0.153033
  11 C :   -0.009595
  12 C :   -0.333667
  13 N :    0.219156
  14 C :    0.138646
  15 C :   -0.234766
  16 S :    0.118328
  17 S :    0.177374
  18 C :   -0.193002
  19 C :    0.173902
  20 C :   -0.041871
  21 C :   -0.323525
  22 N :    0.192909
  23 C :   -0.077604
  24 S :    0.165327
  25 C :   -0.007050
  26 C :   -0.031954
  27 C :    0.043255
  28 C :    0.034006
  29 C :   -0.010892
  30 S :    0.060062
  31 C :   -0.054498
  32 C :    0.044422
  33 C :    0.032138
  34 C :   -0.021610
  35 S :    0.083295
  36 C :    0.002949
  37 C :   -0.108311
  38 C :   -0.019373
  39 C :   -0.290922
  40 N :    0.163650
  41 C :    0.106461
  42 C :   -0.230801
  43 S :    0.150075
  44 S :    0.173602
  45 C :   -0.239298
  46 C :    0.143824
  47 C :   -0.023886
  48 C :   -0.266748
  49 N :    0.149931
  50 C :   -0.121516
  51 S :    0.158561
  52 C :    0.080927
  53 C :    0.085669
  54 C :   -0.183600
  55 S :    0.161109
  56 C :   -0.202466
  57 C :    0.089564
  58 C :    0.060839
  59 N :   -0.043166
  60 C :   -0.100673
  61 C :   -0.023650
  62 H :   -0.034751
  63 H :    0.014737
  64 H :    0.009879
  65 H :    0.107631
  66 H :    0.105342
  67 H :   -0.008901
  68 H :    0.013970
  69 H :   -0.001178
  70 H :   -0.012035
  71 H :   -0.008366
  72 H :   -0.010751
  73 H :   -0.010998
  74 H :    0.024595
  75 H :    0.011872
  76 H :    0.112315
  77 H :    0.121662
  78 H :   -0.037817
  79 H :    0.005551
Sum of atomic charges:    0.0000000

LOEWDIN ATOMIC CHARGES
----------------------
   0 C :   -0.050843
   1 C :   -0.042340
   2 C :   -0.205426
   3 S :    0.483571
   4 C :   -0.213998
   5 C :   -0.068408
   6 C :    0.052308
   7 N :   -0.008275
   8 C :   -0.124384
   9 C :    0.002195
  10 C :   -0.118880
  11 C :   -0.104048
  12 C :   -0.039880
  13 N :   -0.038734
  14 C :   -0.063871
  15 C :   -0.343072
  16 S :    0.431044
  17 S :    0.457070
  18 C :   -0.325576
  19 C :   -0.065150
  20 C :   -0.102586
  21 C :   -0.041017
  22 N :   -0.049748
  23 C :   -0.148366
  24 S :    0.494936
  25 C :   -0.051563
  26 C :   -0.153382
  27 C :   -0.015497
  28 C :   -0.039597
  29 C :   -0.160821
  30 S :    0.389437
  31 C :   -0.184303
  32 C :   -0.018713
  33 C :   -0.040949
  34 C :   -0.121350
  35 S :    0.427730
  36 C :   -0.105952
  37 C :   -0.126826
  38 C :   -0.129167
  39 C :   -0.062207
  40 N :   -0.051331
  41 C :   -0.061705
  42 C :   -0.337799
  43 S :    0.429015
  44 S :    0.413300
  45 C :   -0.341366
  46 C :   -0.060154
  47 C :   -0.116079
  48 C :   -0.002971
  49 N :   -0.088591
  50 C :   -0.106370
  51 S :    0.452298
  52 C :   -0.089984
  53 C :   -0.039557
  54 C :   -0.219360
  55 S :    0.497135
  56 C :   -0.207873
  57 C :   -0.067953
  58 C :    0.044623
  59 N :   -0.006299
  60 C :   -0.107834
  61 C :    0.019470
  62 H :    0.027894
  63 H :    0.022761
  64 H :    0.014625
  65 H :    0.070987
  66 H :    0.045125
  67 H :    0.035300
  68 H :    0.048231
  69 H :    0.037474
  70 H :    0.033331
  71 H :    0.034564
  72 H :    0.033182
  73 H :    0.033027
  74 H :    0.009890
  75 H :    0.016923
  76 H :    0.072097
  77 H :    0.075650
  78 H :    0.025532
  79 H :    0.039427

  Mayer bond orders larger than 0.100000
B(  0-C ,  1-C ) :   1.1280 B(  0-C ,  9-C ) :   1.5845 B(  0-C , 62-H ) :   1.0040
B(  1-C ,  2-C ) :   1.4474 B(  1-C ,  5-C ) :   1.2230 B(  2-C ,  3-S ) :   1.2023
B(  2-C ,  4-C ) :   0.1041 B(  2-C , 63-H ) :   0.9675 B(  3-S ,  4-C ) :   1.2202
B(  4-C ,  5-C ) :   1.4163 B(  4-C , 64-H ) :   0.9710 B(  5-C ,  6-C ) :   1.1298
B(  6-C ,  7-N ) :   1.3435 B(  6-C ,  8-C ) :   1.4517 B(  7-N , 65-H ) :   0.9396
B(  7-N , 66-H ) :   0.9218 B(  8-C ,  9-C ) :   1.1829 B(  8-C , 10-C ) :   1.0155
B(  9-C , 67-H ) :   0.9861 B( 10-C , 11-C ) :   1.5584 B( 10-C , 16-S ) :   1.1001
B( 11-C , 12-C ) :   1.1817 B( 11-C , 14-C ) :   1.2238 B( 12-C , 13-N ) :   2.9966
B( 14-C , 15-C ) :   1.4339 B( 14-C , 19-C ) :   1.0482 B( 15-C , 16-S ) :   1.0704
B( 15-C , 17-S ) :   1.0708 B( 17-S , 18-C ) :   1.0900 B( 18-C , 19-C ) :   1.3835
B( 18-C , 24-S ) :   1.1284 B( 19-C , 20-C ) :   1.2805 B( 20-C , 21-C ) :   1.1848
B( 20-C , 23-C ) :   1.4354 B( 21-C , 22-N ) :   2.9802 B( 23-C , 24-S ) :   1.0854
B( 23-C , 25-C ) :   1.2184 B( 25-C , 26-C ) :   1.5569 B( 25-C , 68-H ) :   0.9647
B( 26-C , 27-C ) :   1.1407 B( 26-C , 30-S ) :   1.0392 B( 27-C , 28-C ) :   1.5936
B( 27-C , 69-H ) :   0.9985 B( 28-C , 29-C ) :   1.1813 B( 28-C , 70-H ) :   0.9958
B( 29-C , 30-S ) :   1.0579 B( 29-C , 31-C ) :   1.4939 B( 31-C , 32-C ) :   1.1911
B( 31-C , 35-S ) :   1.0525 B( 32-C , 33-C ) :   1.5927 B( 32-C , 71-H ) :   0.9945
B( 33-C , 34-C ) :   1.1448 B( 33-C , 72-H ) :   0.9957 B( 34-C , 35-S ) :   1.0691
B( 34-C , 36-C ) :   1.5872 B( 36-C , 37-C ) :   1.1699 B( 36-C , 73-H ) :   0.9472
B( 37-C , 38-C ) :   1.4461 B( 37-C , 43-S ) :   1.1117 B( 38-C , 39-C ) :   1.1214
B( 38-C , 41-C ) :   1.2510 B( 39-C , 40-N ) :   3.0092 B( 41-C , 42-C ) :   1.4289
B( 41-C , 46-C ) :   1.1016 B( 42-C , 43-S ) :   1.0758 B( 42-C , 44-S ) :   1.0817
B( 44-S , 45-C ) :   1.0782 B( 45-C , 46-C ) :   1.4303 B( 45-C , 51-S ) :   1.0725
B( 46-C , 47-C ) :   1.2206 B( 47-C , 48-C ) :   1.1678 B( 47-C , 50-C ) :   1.5176
B( 48-C , 49-N ) :   2.9349 B( 50-C , 51-S ) :   1.1433 B( 50-C , 52-C ) :   1.0502
B( 52-C , 53-C ) :   1.1367 B( 52-C , 61-C ) :   1.4917 B( 53-C , 54-C ) :   1.4681
B( 53-C , 57-C ) :   1.2224 B( 54-C , 55-S ) :   1.2059 B( 54-C , 56-C ) :   0.1002
B( 54-C , 74-H ) :   0.9423 B( 55-S , 56-C ) :   1.2294 B( 56-C , 57-C ) :   1.4204
B( 56-C , 75-H ) :   0.9716 B( 57-C , 58-C ) :   1.1312 B( 58-C , 59-N ) :   1.2960
B( 58-C , 60-C ) :   1.4374 B( 59-N , 76-H ) :   0.9441 B( 59-N , 77-H ) :   0.9381
B( 60-C , 61-C ) :   1.2162 B( 60-C , 78-H ) :   1.0019 B( 61-C , 79-H ) :   0.9908

-----------------------------------------------------------------------------
         ABSORPTION SPECTRUM VIA TRANSITION ELECTRIC DIPOLE MOMENTS
-----------------------------------------------------------------------------
State   Energy  Wavelength   fosc         T2         TX        TY        TZ
        (cm-1)    (nm)                  (au**2)     (au)      (au)      (au)
-----------------------------------------------------------------------------
   0   13471.8    742.3   0.739099225  18.06143   0.98081  -4.05364  -0.81695
   1   21816.9    458.4   0.006582297   0.09933   0.02742  -0.20344   0.23914
   2   22480.8    444.8   0.021846503   0.31992  -0.03818   0.50006  -0.26154
   3   22813.3    438.3   0.069695114   1.00575   0.00944  -0.03249  -1.00230
   4   24095.2    415.0   0.092839030   1.26846   0.02189   0.38032  -1.05987
   5   25838.5    387.0   1.570945017  20.01560   0.01253  -3.17995   3.14696
   6   26026.1    384.2   0.239138085   3.02493   0.00483  -0.71283  -1.58644
   7   26976.1    370.7   0.081623398   0.99612   0.54802  -0.52521   0.64804
   8   27404.6    364.9   0.049362362   0.59299  -0.37658   0.67170   0.00160
   9   28846.3    346.7   0.009887420   0.11284   0.12288   0.09686   0.29725
  10   29288.5    341.4   0.058861433   0.66162   0.14703   0.34849  -0.72011
  11   29664.0    337.1   0.119338296   1.32442  -0.04626   0.74169  -0.87874
  12   29800.5    335.6   0.002506614   0.02769   0.03349   0.06469  -0.14962
  13   31216.6    320.3   0.004560089   0.04809  -0.17638   0.12608  -0.03291
  14   31571.1    316.7   0.027276714   0.28443   0.07182   0.03957   0.52698
  15   31870.8    313.8   0.009748774   0.10070  -0.07334   0.27599   0.13839
  16   32312.3    309.5   0.018027054   0.18367  -0.05092  -0.28312  -0.31767
  17   32413.5    308.5   0.111132837   1.12873   0.46723   0.87431   0.38211
  18   32851.9    304.4   0.000651124   0.00652   0.07233   0.01741  -0.03148
  19   33788.5    296.0   0.011024460   0.10741  -0.02756   0.25260  -0.20700
  20   34248.0    292.0   0.030371119   0.29194   0.15397  -0.51258  -0.07420
  21   34481.7    290.0   0.005330478   0.05089   0.12471   0.18306   0.04277
  22   34766.2    287.6   0.011908290   0.11276  -0.00848  -0.26926  -0.20048
  23   35090.5    285.0   0.014380148   0.13491  -0.06910  -0.00023   0.36075
  24   35254.6    283.7   0.047996490   0.44820  -0.07003  -0.65671   0.10968
  25   35699.8    280.1   0.062536276   0.57669   0.27962   0.43560  -0.55565
  26   35752.9    279.7   0.058709397   0.54059   0.11852  -0.57627  -0.44097
  27   36297.5    275.5   0.402888492   3.65413  -0.01614   1.84728  -0.49134
  28   36603.1    273.2   0.005349431   0.04811  -0.01659   0.09583   0.19661
  29   36944.3    270.7   0.155772298   1.38809   0.07466  -1.17336   0.07574
  30   37236.6    268.6   0.041013368   0.36260   0.12949  -0.57519   0.12242
  31   37420.1    267.2   0.006364943   0.05600   0.02656  -0.18182   0.14911
  32   38062.2    262.7   0.025186370   0.21784   0.01989  -0.20260  -0.42000
  33   38160.2    262.1   0.037813430   0.32622   0.07887  -0.47228  -0.31137
  34   38330.8    260.9   0.068917675   0.59191  -0.08453   0.68379   0.34235
  35   38766.3    258.0   0.019030719   0.16161   0.05840   0.32098   0.23489
  36   39516.7    253.1   0.009988561   0.08321   0.02276   0.07723  -0.27700
  37   40013.4    249.9   0.088123623   0.72504  -0.06258   0.12259   0.84030
  38   40161.4    249.0   0.006694191   0.05487   0.08338  -0.04172   0.21490

FINAL SINGLE POINT ENERGY     -6070.161029838718

DIPOLE MOMENT
-------------
                                X             Y             Z
Electronic contribution:     -1.43234     -31.31392      -3.91209
Nuclear contribution   :      1.48057      29.01105       0.30374
                        -----------------------------------------
Total Dipole Moment    :      0.04823      -2.30286      -3.60835
                        -----------------------------------------
Magnitude (a.u.)       :      4.28085
Magnitude (Debye)      :     10.88105

Rotational constants in cm-1:     0.001500     0.000597     0.000438
Rotational constants in MHz :    44.976043    17.894700    13.144028

                             ****ORCA TERMINATED NORMALLY****
TOTAL RUN TIME: 0 days 0 hours 7 minutes 47 seconds 5 msec
