                         Program Version 4.2.0 -  RELEASE  -
|  1> # ORCA input file
|  2> # SCF done       -181.988916942082          0.000646133414
|  3> ! CAM-B3LYP def2-SVP def2/J RIJCOSX Grid4 TightSCF
|  4> %maxcore 5000
|  5> %tddft
|  6>     Mode sTDDFT
|  7>     Ethresh 5.0
|  8>     maxcore 5000
|  9> end
| 10>
| 11> %pal
| 12>   nprocs 6
| 13>   end
| 14> * xyz 0 1
| 15>    C       -2.38797       -10.87541         4.36609
| 16>    N       -2.76191        -9.91323         3.50905
| 17>    C       -1.92144        -8.93504         3.50911
| 18>    C       -1.34991        -8.05511         2.63104
| 19>    C       -1.19271       -10.74180         5.01493
| 20>    S       -0.71954        -9.03700         4.97642
| 21>    N        0.49062        -8.38142         4.06612
| 22>    C       -0.01539        -7.76578         2.99825
| 23>    C        0.81556        -6.87183         2.23815
| 24>    C        2.10261        -6.64142         2.55341
| 25>    N        2.90520        -5.78911         1.85505
| 26>    C        4.21250        -5.52834         2.10819
| 27>    S        5.04511        -6.32066         3.40341
| 28>    C        6.49714        -5.47230         2.96495
| 29>    N        7.64288        -5.70812         3.72229
| 30>    O        8.66335        -5.11824         3.40928
| 31>    O        7.53880        -6.49609         4.64988
| 32>    C        6.33547        -4.63835         1.89032
| 33>    C        5.02620        -4.64949         1.37775
| 34>    C        4.55796        -3.86377         0.26263
| 35>    C        5.35463        -3.19808        -0.59036
| 36>    C        4.92738        -2.39913        -1.71792
| 37>    C        5.89359        -2.01370        -2.66060
| 38>    C        5.52406        -1.27533        -3.75699
| 39>    C        4.18567        -0.88399        -3.93611
| 40>    C        3.22336        -1.24185        -3.00220
| 41>    C        3.59974        -1.99472        -1.90853
| 42>    C        4.08693        -0.12927        -5.16520
| 43>    C        5.36295        -0.06368        -5.75387
| 44>    C        6.38253        -0.77461        -4.89449
| 45>    C        7.04734        -1.93876        -5.65169
| 46>    C        6.03853        -2.95112        -6.18103
| 47>    C        7.46437         0.20047        -4.39225
| 48>    C        6.88518         1.38329        -3.62516
| 49>    C        5.54511         0.57827        -6.95191
| 50>    C        4.45273         1.19045        -7.59372
| 51>    C        3.18934         1.12652        -6.98341
| 52>    C        2.99934         0.47256        -5.78474
| 53>    C        4.68058         1.83558        -8.85876
| 54>    C        3.78308         2.58728        -9.53890
| 55>    C        4.00007         3.19609       -10.80749
| 56>    C        2.97544         3.99579       -11.37430
| 57>    C        3.10410         4.62833       -12.66046
| 58>    N        2.10982         5.38271       -13.13748
| 59>    C        1.01322         5.53645       -12.42696
| 60>    C        0.87675         4.89569       -11.15610
| 61>    N        1.84222         4.15663       -10.66796
| 62>    C       -0.31488         5.05381       -10.40511
| 63>    N       -1.29024         5.20122        -9.82244
| 64>    C       -0.03164         6.34091       -12.93883
| 65>    N       -0.89567         6.98696       -13.32674
| 66>    C        4.27214         4.47205       -13.47167
| 67>    C        5.29604         3.67962       -12.89529
| 68>    C        5.16924         3.06274       -11.59331
| 69>    N        6.26771         2.37756       -11.27266
| 70>    S        7.34254         2.49066       -12.46308
| 71>    N        6.47153         3.41553       -13.45172
| 72>    C        4.29772         5.09543       -14.72602
| 73>    C        5.21843         5.08734       -15.75188
| 74>    C        4.99353         5.79443       -16.96313
| 75>    C        5.97279         5.65356       -17.89610
| 76>    C        7.03113         4.82120       -17.46770
| 77>    S        6.74527         4.24386       -15.83560
| 78>    C        8.15818         4.46193       -18.17795
| 79>    C        8.50679         4.85486       -19.49968
| 80>    C        9.67262         4.33516       -19.94627
| 81>    C       10.33894         3.48520       -19.00235
| 82>    S        9.37824         3.40162       -17.51574
| 83>    C       11.49921         2.83241       -19.16232
| 84>    H       -3.00813       -11.75447         4.44659
| 85>    H       -1.80698        -7.72297         1.71912
| 86>    H       -0.83152       -11.36347         5.80961
| 87>    H        0.35305        -6.38229         1.39235
| 88>    H        2.54878        -7.13947         3.40152
| 89>    H        2.49253        -5.31719         1.05915
| 90>    H        7.14190        -4.03717         1.51360
| 91>    H        3.48630        -3.82761         0.12043
| 92>    H        6.42647        -3.27519        -0.46955
| 93>    H        6.92179        -2.31511        -2.51825
| 94>    H        2.19509        -0.93653        -3.12704
| 95>    H        2.85173        -2.26008        -1.17676
| 96>    H        7.74607        -2.44068        -4.97897
| 97>    H        7.62222        -1.53030        -6.48534
| 98>    H        5.46795        -3.38839        -5.36439
| 99>    H        6.55275        -3.75117        -6.70865
|100>    H        5.34284        -2.47602        -6.86919
|101>    H        8.02872         0.56785        -5.25190
|102>    H        8.15578        -0.34621        -3.74740
|103>    H        6.21099         1.95804        -4.25633
|104>    H        7.68530         2.03909        -3.28959
|105>    H        6.33118         1.04262        -2.75306
|106>    H        6.52079         0.62605        -7.41433
|107>    H        2.34252         1.58579        -7.46856
|108>    H        2.01749         0.42730        -5.33739
|109>    H        5.66364         1.70083        -9.28862
|110>    H        2.80305         2.78094        -9.12709
|111>    H        3.40604         5.67902       -14.92672
|112>    H        4.10350         6.38279       -17.10239
|113>    H        5.95579         6.11781       -18.86577
|114>    H        7.87640         5.51092       -20.07303
|115>    H       10.09734         4.51723       -20.91734
|116>    H       12.05009         2.91030       -20.08300
|117>    H       11.91349         2.21609       -18.38556
|118> *
|119>
|120>                          ****END OF INPUT****

CARTESIAN COORDINATES (ANGSTROEM)
---------------------------------
  C     -2.387970  -10.875410    4.366090
  N     -2.761910   -9.913230    3.509050
  C     -1.921440   -8.935040    3.509110
  C     -1.349910   -8.055110    2.631040
  C     -1.192710  -10.741800    5.014930
  S     -0.719540   -9.037000    4.976420
  N      0.490620   -8.381420    4.066120
  C     -0.015390   -7.765780    2.998250
  C      0.815560   -6.871830    2.238150
  C      2.102610   -6.641420    2.553410
  N      2.905200   -5.789110    1.855050
  C      4.212500   -5.528340    2.108190
  S      5.045110   -6.320660    3.403410
  C      6.497140   -5.472300    2.964950
  N      7.642880   -5.708120    3.722290
  O      8.663350   -5.118240    3.409280
  O      7.538800   -6.496090    4.649880
  C      6.335470   -4.638350    1.890320
  C      5.026200   -4.649490    1.377750
  C      4.557960   -3.863770    0.262630
  C      5.354630   -3.198080   -0.590360
  C      4.927380   -2.399130   -1.717920
  C      5.893590   -2.013700   -2.660600
  C      5.524060   -1.275330   -3.756990
  C      4.185670   -0.883990   -3.936110
  C      3.223360   -1.241850   -3.002200
  C      3.599740   -1.994720   -1.908530
  C      4.086930   -0.129270   -5.165200
  C      5.362950   -0.063680   -5.753870
  C      6.382530   -0.774610   -4.894490
  C      7.047340   -1.938760   -5.651690
  C      6.038530   -2.951120   -6.181030
  C      7.464370    0.200470   -4.392250
  C      6.885180    1.383290   -3.625160
  C      5.545110    0.578270   -6.951910
  C      4.452730    1.190450   -7.593720
  C      3.189340    1.126520   -6.983410
  C      2.999340    0.472560   -5.784740
  C      4.680580    1.835580   -8.858760
  C      3.783080    2.587280   -9.538900
  C      4.000070    3.196090  -10.807490
  C      2.975440    3.995790  -11.374300
  C      3.104100    4.628330  -12.660460
  N      2.109820    5.382710  -13.137480
  C      1.013220    5.536450  -12.426960
  C      0.876750    4.895690  -11.156100
  N      1.842220    4.156630  -10.667960
  C     -0.314880    5.053810  -10.405110
  N     -1.290240    5.201220   -9.822440
  C     -0.031640    6.340910  -12.938830
  N     -0.895670    6.986960  -13.326740
  C      4.272140    4.472050  -13.471670
  C      5.296040    3.679620  -12.895290
  C      5.169240    3.062740  -11.593310
  N      6.267710    2.377560  -11.272660
  S      7.342540    2.490660  -12.463080
  N      6.471530    3.415530  -13.451720
  C      4.297720    5.095430  -14.726020
  C      5.218430    5.087340  -15.751880
  C      4.993530    5.794430  -16.963130
  C      5.972790    5.653560  -17.896100
  C      7.031130    4.821200  -17.467700
  S      6.745270    4.243860  -15.835600
  C      8.158180    4.461930  -18.177950
  C      8.506790    4.854860  -19.499680
  C      9.672620    4.335160  -19.946270
  C     10.338940    3.485200  -19.002350
  S      9.378240    3.401620  -17.515740
  C     11.499210    2.832410  -19.162320
  H     -3.008130  -11.754470    4.446590
  H     -1.806980   -7.722970    1.719120
  H     -0.831520  -11.363470    5.809610
  H      0.353050   -6.382290    1.392350
  H      2.548780   -7.139470    3.401520
  H      2.492530   -5.317190    1.059150
  H      7.141900   -4.037170    1.513600
  H      3.486300   -3.827610    0.120430
  H      6.426470   -3.275190   -0.469550
  H      6.921790   -2.315110   -2.518250
  H      2.195090   -0.936530   -3.127040
  H      2.851730   -2.260080   -1.176760
  H      7.746070   -2.440680   -4.978970
  H      7.622220   -1.530300   -6.485340
  H      5.467950   -3.388390   -5.364390
  H      6.552750   -3.751170   -6.708650
  H      5.342840   -2.476020   -6.869190
  H      8.028720    0.567850   -5.251900
  H      8.155780   -0.346210   -3.747400
  H      6.210990    1.958040   -4.256330
  H      7.685300    2.039090   -3.289590
  H      6.331180    1.042620   -2.753060
  H      6.520790    0.626050   -7.414330
  H      2.342520    1.585790   -7.468560
  H      2.017490    0.427300   -5.337390
  H      5.663640    1.700830   -9.288620
  H      2.803050    2.780940   -9.127090
  H      3.406040    5.679020  -14.926720
  H      4.103500    6.382790  -17.102390
  H      5.955790    6.117810  -18.865770
  H      7.876400    5.510920  -20.073030
  H     10.097340    4.517230  -20.917340
  H     12.050090    2.910300  -20.083000
  H     11.913490    2.216090  -18.385560

 Total Charge           Charge          ....    0
 Multiplicity           Mult            ....    1
 Number of Electrons    NEL             ....  512
 Basis Dimension        Dim             .... 1156

ORBITAL ENERGIES
----------------

  NO   OCC          E(Eh)            E(eV)
   0   2.0000     -89.036890     -2422.8169
   1   2.0000     -89.018102     -2422.3057
   2   2.0000     -88.980343     -2421.2782
   3   2.0000     -88.956914     -2420.6407
   4   2.0000     -88.956226     -2420.6220
   5   2.0000     -19.228666      -523.2386
   6   2.0000     -19.227784      -523.2146
   7   2.0000     -14.640324      -398.3835
   8   2.0000     -14.486655      -394.2019
   9   2.0000     -14.452541      -393.2736
  10   2.0000     -14.452291      -393.2668
  11   2.0000     -14.448918      -393.1750
  12   2.0000     -14.444281      -393.0489
  13   2.0000     -14.420810      -392.4102
  14   2.0000     -14.418305      -392.3420
  15   2.0000     -14.395481      -391.7210
  16   2.0000     -14.390742      -391.5920
  17   2.0000     -10.370298      -282.1902
  18   2.0000     -10.366807      -282.0952
  19   2.0000     -10.366129      -282.0767
  20   2.0000     -10.342626      -281.4372
  21   2.0000     -10.339263      -281.3456
  22   2.0000     -10.338318      -281.3199
  23   2.0000     -10.336857      -281.2802
  24   2.0000     -10.335662      -281.2476
  25   2.0000     -10.334909      -281.2272
  26   2.0000     -10.334360      -281.2122
  27   2.0000     -10.330681      -281.1121
  28   2.0000     -10.330670      -281.1118
  29   2.0000     -10.324998      -280.9575
  30   2.0000     -10.323332      -280.9122
  31   2.0000     -10.321639      -280.8661
  32   2.0000     -10.314498      -280.6718
  33   2.0000     -10.312911      -280.6286
  34   2.0000     -10.312196      -280.6091
  35   2.0000     -10.311470      -280.5894
  36   2.0000     -10.304680      -280.4046
  37   2.0000     -10.303678      -280.3773
  38   2.0000     -10.303037      -280.3599
  39   2.0000     -10.298199      -280.2283
  40   2.0000     -10.295567      -280.1566
  41   2.0000     -10.295279      -280.1488
  42   2.0000     -10.291926      -280.0575
  43   2.0000     -10.290550      -280.0201
  44   2.0000     -10.289224      -279.9840
  45   2.0000     -10.287929      -279.9488
  46   2.0000     -10.285235      -279.8755
  47   2.0000     -10.281777      -279.7814
  48   2.0000     -10.281208      -279.7659
  49   2.0000     -10.279025      -279.7065
  50   2.0000     -10.276678      -279.6426
  51   2.0000     -10.273782      -279.5638
  52   2.0000     -10.273703      -279.5617
  53   2.0000     -10.272973      -279.5418
  54   2.0000     -10.271350      -279.4976
  55   2.0000     -10.271171      -279.4928
  56   2.0000     -10.269345      -279.4431
  57   2.0000     -10.268894      -279.4308
  58   2.0000     -10.268396      -279.4173
  59   2.0000     -10.266682      -279.3706
  60   2.0000     -10.266651      -279.3698
  61   2.0000     -10.266331      -279.3611
  62   2.0000     -10.265763      -279.3456
  63   2.0000     -10.265426      -279.3364
  64   2.0000     -10.263584      -279.2863
  65   2.0000     -10.262511      -279.2571
  66   2.0000     -10.262301      -279.2514
  67   2.0000     -10.245676      -278.7990
  68   2.0000     -10.244762      -278.7741
  69   2.0000      -8.128149      -221.1782
  70   2.0000      -8.108740      -220.6500
  71   2.0000      -8.075826      -219.7544
  72   2.0000      -8.053571      -219.1488
  73   2.0000      -8.050621      -219.0685
  74   2.0000      -6.099397      -165.9730
  75   2.0000      -6.091659      -165.7625
  76   2.0000      -6.090591      -165.7334
  77   2.0000      -6.077116      -165.3667
  78   2.0000      -6.075529      -165.3236
  79   2.0000      -6.071136      -165.2040
  80   2.0000      -6.045537      -164.5074
  81   2.0000      -6.041135      -164.3876
  82   2.0000      -6.037146      -164.2791
  83   2.0000      -6.023319      -163.9028
  84   2.0000      -6.020438      -163.8245
  85   2.0000      -6.019363      -163.7952
  86   2.0000      -6.016025      -163.7044
  87   2.0000      -6.014276      -163.6568
  88   2.0000      -6.011760      -163.5883
  89   2.0000      -1.308438       -35.6044
  90   2.0000      -1.135562       -30.9002
  91   2.0000      -1.127163       -30.6717
  92   2.0000      -1.108678       -30.1686
  93   2.0000      -1.092215       -29.7207
  94   2.0000      -1.075238       -29.2587
  95   2.0000      -1.035454       -28.1761
  96   2.0000      -1.025378       -27.9020
  97   2.0000      -1.006777       -27.3958
  98   2.0000      -1.003888       -27.3172
  99   2.0000      -0.999756       -27.2047
 100   2.0000      -0.994980       -27.0748
 101   2.0000      -0.991511       -26.9804
 102   2.0000      -0.986854       -26.8537
 103   2.0000      -0.981775       -26.7155
 104   2.0000      -0.966682       -26.3048
 105   2.0000      -0.946594       -25.7581
 106   2.0000      -0.923858       -25.1395
 107   2.0000      -0.915021       -24.8990
 108   2.0000      -0.907653       -24.6985
 109   2.0000      -0.904716       -24.6186
 110   2.0000      -0.898491       -24.4492
 111   2.0000      -0.890892       -24.2424
 112   2.0000      -0.887328       -24.1454
 113   2.0000      -0.877381       -23.8748
 114   2.0000      -0.865703       -23.5570
 115   2.0000      -0.861764       -23.4498
 116   2.0000      -0.858182       -23.3523
 117   2.0000      -0.847851       -23.0712
 118   2.0000      -0.838671       -22.8214
 119   2.0000      -0.836150       -22.7528
 120   2.0000      -0.835733       -22.7414
 121   2.0000      -0.832761       -22.6606
 122   2.0000      -0.830252       -22.5923
 123   2.0000      -0.827292       -22.5118
 124   2.0000      -0.821256       -22.3475
 125   2.0000      -0.814413       -22.1613
 126   2.0000      -0.798385       -21.7252
 127   2.0000      -0.795508       -21.6469
 128   2.0000      -0.775520       -21.1030
 129   2.0000      -0.767259       -20.8782
 130   2.0000      -0.760493       -20.6941
 131   2.0000      -0.748036       -20.3551
 132   2.0000      -0.729273       -19.8445
 133   2.0000      -0.726084       -19.7577
 134   2.0000      -0.724279       -19.7086
 135   2.0000      -0.720783       -19.6135
 136   2.0000      -0.712820       -19.3968
 137   2.0000      -0.699418       -19.0321
 138   2.0000      -0.695231       -18.9182
 139   2.0000      -0.689029       -18.7494
 140   2.0000      -0.684746       -18.6329
 141   2.0000      -0.682958       -18.5842
 142   2.0000      -0.673334       -18.3223
 143   2.0000      -0.668822       -18.1996
 144   2.0000      -0.661080       -17.9889
 145   2.0000      -0.659301       -17.9405
 146   2.0000      -0.652278       -17.7494
 147   2.0000      -0.649219       -17.6661
 148   2.0000      -0.645748       -17.5717
 149   2.0000      -0.637050       -17.3350
 150   2.0000      -0.633289       -17.2327
 151   2.0000      -0.629028       -17.1167
 152   2.0000      -0.627679       -17.0800
 153   2.0000      -0.621573       -16.9139
 154   2.0000      -0.621007       -16.8985
 155   2.0000      -0.617991       -16.8164
 156   2.0000      -0.614310       -16.7162
 157   2.0000      -0.612440       -16.6654
 158   2.0000      -0.611123       -16.6295
 159   2.0000      -0.601366       -16.3640
 160   2.0000      -0.592158       -16.1134
 161   2.0000      -0.584992       -15.9184
 162   2.0000      -0.581967       -15.8361
 163   2.0000      -0.574194       -15.6246
 164   2.0000      -0.571194       -15.5430
 165   2.0000      -0.569423       -15.4948
 166   2.0000      -0.566125       -15.4050
 167   2.0000      -0.565663       -15.3925
 168   2.0000      -0.560060       -15.2400
 169   2.0000      -0.551512       -15.0074
 170   2.0000      -0.549525       -14.9533
 171   2.0000      -0.544783       -14.8243
 172   2.0000      -0.544186       -14.8080
 173   2.0000      -0.541951       -14.7472
 174   2.0000      -0.539506       -14.6807
 175   2.0000      -0.537010       -14.6128
 176   2.0000      -0.535033       -14.5590
 177   2.0000      -0.532594       -14.4926
 178   2.0000      -0.525865       -14.3095
 179   2.0000      -0.520153       -14.1541
 180   2.0000      -0.518005       -14.0956
 181   2.0000      -0.516499       -14.0547
 182   2.0000      -0.515076       -14.0159
 183   2.0000      -0.514300       -13.9948
 184   2.0000      -0.509776       -13.8717
 185   2.0000      -0.508043       -13.8245
 186   2.0000      -0.503120       -13.6906
 187   2.0000      -0.498959       -13.5774
 188   2.0000      -0.496398       -13.5077
 189   2.0000      -0.493672       -13.4335
 190   2.0000      -0.491234       -13.3672
 191   2.0000      -0.486314       -13.2333
 192   2.0000      -0.484941       -13.1959
 193   2.0000      -0.483433       -13.1549
 194   2.0000      -0.481841       -13.1115
 195   2.0000      -0.479666       -13.0524
 196   2.0000      -0.474157       -12.9025
 197   2.0000      -0.473278       -12.8785
 198   2.0000      -0.472562       -12.8591
 199   2.0000      -0.469540       -12.7768
 200   2.0000      -0.468996       -12.7620
 201   2.0000      -0.468400       -12.7458
 202   2.0000      -0.462978       -12.5983
 203   2.0000      -0.459682       -12.5086
 204   2.0000      -0.456492       -12.4218
 205   2.0000      -0.453633       -12.3440
 206   2.0000      -0.450292       -12.2531
 207   2.0000      -0.447680       -12.1820
 208   2.0000      -0.447138       -12.1672
 209   2.0000      -0.444769       -12.1028
 210   2.0000      -0.444476       -12.0948
 211   2.0000      -0.442025       -12.0281
 212   2.0000      -0.441659       -12.0181
 213   2.0000      -0.439526       -11.9601
 214   2.0000      -0.438891       -11.9428
 215   2.0000      -0.433968       -11.8089
 216   2.0000      -0.433327       -11.7914
 217   2.0000      -0.425969       -11.5912
 218   2.0000      -0.423855       -11.5337
 219   2.0000      -0.423418       -11.5218
 220   2.0000      -0.421460       -11.4685
 221   2.0000      -0.418259       -11.3814
 222   2.0000      -0.416833       -11.3426
 223   2.0000      -0.415094       -11.2953
 224   2.0000      -0.408059       -11.1038
 225   2.0000      -0.406930       -11.0731
 226   2.0000      -0.404965       -11.0196
 227   2.0000      -0.398384       -10.8406
 228   2.0000      -0.395096       -10.7511
 229   2.0000      -0.391344       -10.6490
 230   2.0000      -0.389151       -10.5893
 231   2.0000      -0.385611       -10.4930
 232   2.0000      -0.380847       -10.3634
 233   2.0000      -0.379210       -10.3188
 234   2.0000      -0.377411       -10.2699
 235   2.0000      -0.376938       -10.2570
 236   2.0000      -0.368500       -10.0274
 237   2.0000      -0.357115        -9.7176
 238   2.0000      -0.356713        -9.7066
 239   2.0000      -0.354616        -9.6496
 240   2.0000      -0.352003        -9.5785
 241   2.0000      -0.349773        -9.5178
 242   2.0000      -0.348630        -9.4867
 243   2.0000      -0.342412        -9.3175
 244   2.0000      -0.341618        -9.2959
 245   2.0000      -0.335213        -9.1216
 246   2.0000      -0.332327        -9.0431
 247   2.0000      -0.320930        -8.7330
 248   2.0000      -0.315434        -8.5834
 249   2.0000      -0.313085        -8.5195
 250   2.0000      -0.308640        -8.3985
 251   2.0000      -0.290652        -7.9090
 252   2.0000      -0.271625        -7.3913
 253   2.0000      -0.259599        -7.0641
 254   2.0000      -0.246845        -6.7170
 255   2.0000      -0.215608        -5.8670
 256   0.0000      -0.119950        -3.2640
 257   0.0000      -0.063821        -1.7367
 258   0.0000      -0.058691        -1.5971
 259   0.0000      -0.045235        -1.2309
 260   0.0000      -0.036382        -0.9900

MULLIKEN ATOMIC CHARGES
-----------------------
   0 C :    0.089436
   1 N :   -0.087361
   2 C :   -0.018274
   3 C :   -0.056146
   4 C :   -0.137713
   5 S :    0.342054
   6 N :   -0.371831
   7 C :    0.071932
   8 C :   -0.036753
   9 C :    0.113187
  10 N :   -0.021669
  11 C :   -0.114637
  12 S :    0.161697
  13 C :   -0.008449
  14 N :    0.278423
  15 O :   -0.259065
  16 O :   -0.269866
  17 C :    0.003542
  18 C :    0.128637
  19 C :   -0.019665
  20 C :   -0.004107
  21 C :    0.127569
  22 C :   -0.109727
  23 C :    0.015966
  24 C :    0.111770
  25 C :   -0.045141
  26 C :   -0.021070
  27 C :    0.111275
  28 C :    0.019465
  29 C :   -0.139088
  30 C :    0.069909
  31 C :    0.024803
  32 C :    0.069383
  33 C :    0.025222
  34 C :   -0.110437
  35 C :    0.127842
  36 C :   -0.007048
  37 C :   -0.046731
  38 C :    0.000172
  39 C :   -0.064507
  40 C :    0.082636
  41 C :   -0.051123
  42 C :   -0.054801
  43 N :    0.051424
  44 C :   -0.145652
  45 C :   -0.133777
  46 N :    0.047824
  47 C :   -0.216045
  48 N :    0.231871
  49 C :   -0.217387
  50 N :    0.227407
  51 C :    0.110357
  52 C :    0.045118
  53 C :    0.019622
  54 N :   -0.294890
  55 S :    0.532010
  56 N :   -0.323219
  57 C :   -0.138354
  58 C :    0.022574
  59 C :    0.020451
  60 C :    0.045150
  61 C :   -0.035938
  62 S :    0.129037
  63 C :   -0.062995
  64 C :    0.024829
  65 C :    0.065508
  66 C :   -0.072189
  67 S :    0.097814
  68 C :   -0.016726
  69 H :    0.025849
  70 H :   -0.005924
  71 H :    0.040611
  72 H :   -0.023225
  73 H :    0.051334
  74 H :    0.137507
  75 H :    0.009425
  76 H :   -0.042484
  77 H :   -0.023084
  78 H :   -0.041443
  79 H :   -0.036127
  80 H :   -0.036512
  81 H :   -0.003661
  82 H :   -0.003282
  83 H :    0.019726
  84 H :    0.008036
  85 H :    0.022577
  86 H :   -0.002797
  87 H :   -0.003181
  88 H :    0.024109
  89 H :    0.008426
  90 H :    0.020684
  91 H :   -0.040678
  92 H :   -0.023501
  93 H :   -0.036539
  94 H :   -0.008994
  95 H :   -0.011349
  96 H :    0.003262
  97 H :   -0.001856
  98 H :   -0.012778
  99 H :   -0.003393
 100 H :   -0.003778
 101 H :    0.029398
 102 H :    0.030104
Sum of atomic charges:   -0.0000000

LOEWDIN ATOMIC CHARGES
----------------------
   0 C :    0.035117
   1 N :   -0.153815
   2 C :   -0.023682
   3 C :   -0.156309
   4 C :   -0.283565
   5 S :    0.771531
   6 N :   -0.397598
   7 C :    0.023134
   8 C :   -0.103358
   9 C :    0.072186
  10 N :    0.044949
  11 C :   -0.099827
  12 S :    0.461975
  13 C :   -0.213092
  14 N :    0.274427
  15 O :   -0.224778
  16 O :   -0.236218
  17 C :    0.005873
  18 C :   -0.103938
  19 C :   -0.036106
  20 C :   -0.010859
  21 C :   -0.026667
  22 C :   -0.020844
  23 C :    0.004699
  24 C :   -0.015555
  25 C :   -0.016317
  26 C :   -0.019663
  27 C :   -0.017259
  28 C :    0.001257
  29 C :   -0.035588
  30 C :   -0.011750
  31 C :   -0.057798
  32 C :   -0.011197
  33 C :   -0.057636
  34 C :   -0.018178
  35 C :   -0.023561
  36 C :   -0.008365
  37 C :   -0.017771
  38 C :   -0.001730
  39 C :   -0.025895
  40 C :   -0.043396
  41 C :   -0.004864
  42 C :   -0.012454
  43 N :    0.001319
  44 C :   -0.045128
  45 C :   -0.029269
  46 N :   -0.003601
  47 C :   -0.034664
  48 N :   -0.012677
  49 C :   -0.038234
  50 N :   -0.019087
  51 C :   -0.028027
  52 C :   -0.038563
  53 C :   -0.033779
  54 N :   -0.284071
  55 S :    0.651262
  56 N :   -0.287433
  57 C :   -0.048924
  58 C :   -0.125580
  59 C :   -0.032674
  60 C :   -0.021765
  61 C :   -0.198186
  62 S :    0.436188
  63 C :   -0.156652
  64 C :   -0.026993
  65 C :   -0.017635
  66 C :   -0.141990
  67 S :    0.368079
  68 C :   -0.054432
  69 H :    0.033796
  70 H :    0.037477
  71 H :    0.022208
  72 H :    0.027524
  73 H :    0.034973
  74 H :    0.096349
  75 H :    0.043667
  76 H :    0.016833
  77 H :    0.027565
  78 H :    0.023727
  79 H :    0.027190
  80 H :    0.021635
  81 H :    0.019238
  82 H :    0.019734
  83 H :    0.024876
  84 H :    0.023528
  85 H :    0.026030
  86 H :    0.019957
  87 H :    0.019239
  88 H :    0.026474
  89 H :    0.023966
  90 H :    0.025160
  91 H :    0.024391
  92 H :    0.028849
  93 H :    0.026895
  94 H :    0.024420
  95 H :    0.027122
  96 H :    0.040681
  97 H :    0.036901
  98 H :    0.031489
  99 H :    0.035417
 100 H :    0.036865
 101 H :    0.032854
 102 H :    0.029973

  Mayer bond orders larger than 0.100000
B(  0-C ,  1-N ) :   1.3803 B(  0-C ,  4-C ) :   1.5372 B(  0-C , 69-H ) :   0.9831
B(  1-N ,  2-C ) :   1.6111 B(  2-C ,  3-C ) :   1.3915 B(  2-C ,  5-S ) :   0.8324
B(  3-C ,  7-C ) :   1.2055 B(  3-C , 70-H ) :   1.0050 B(  4-C ,  5-S ) :   0.9955
B(  4-C , 71-H ) :   0.9680 B(  5-S ,  6-N ) :   1.0634 B(  6-N ,  7-C ) :   1.5449
B(  7-C ,  8-C ) :   1.1431 B(  8-C ,  9-C ) :   1.6767 B(  8-C , 72-H ) :   0.9663
B(  9-C , 10-N ) :   1.1375 B(  9-C , 73-H ) :   0.9458 B( 10-N , 11-C ) :   1.2172
B( 10-N , 74-H ) :   0.9143 B( 11-C , 12-S ) :   1.1392 B( 11-C , 18-C ) :   1.3587
B( 12-S , 13-C ) :   1.0659 B( 13-C , 14-N ) :   0.9829 B( 13-C , 17-C ) :   1.4846
B( 14-N , 15-O ) :   1.5241 B( 14-N , 16-O ) :   1.5052 B( 15-O , 16-O ) :   0.2533
B( 17-C , 18-C ) :   1.2367 B( 17-C , 75-H ) :   1.0006 B( 18-C , 19-C ) :   1.0564
B( 19-C , 20-C ) :   1.7465 B( 19-C , 76-H ) :   0.9599 B( 20-C , 21-C ) :   1.0596
B( 20-C , 77-H ) :   0.9828 B( 21-C , 22-C ) :   1.2843 B( 21-C , 26-C ) :   1.3472
B( 22-C , 23-C ) :   1.3791 B( 22-C , 78-H ) :   1.0135 B( 23-C , 24-C ) :   1.3682
B( 23-C , 29-C ) :   0.9134 B( 24-C , 25-C ) :   1.3291 B( 24-C , 27-C ) :   1.0011
B( 25-C , 26-C ) :   1.3990 B( 25-C , 79-H ) :   0.9897 B( 26-C , 80-H ) :   0.9824
B( 27-C , 28-C ) :   1.3660 B( 27-C , 37-C ) :   1.3208 B( 28-C , 29-C ) :   0.9165
B( 28-C , 34-C ) :   1.3723 B( 29-C , 30-C ) :   1.0401 B( 29-C , 32-C ) :   1.0348
B( 30-C , 31-C ) :   1.1003 B( 30-C , 81-H ) :   0.9388 B( 30-C , 82-H ) :   0.9390
B( 31-C , 83-H ) :   0.9645 B( 31-C , 84-H ) :   0.9643 B( 31-C , 85-H ) :   0.9646
B( 32-C , 33-C ) :   1.1018 B( 32-C , 86-H ) :   0.9394 B( 32-C , 87-H ) :   0.9396
B( 33-C , 88-H ) :   0.9645 B( 33-C , 89-H ) :   0.9636 B( 33-C , 90-H ) :   0.9641
B( 34-C , 35-C ) :   1.2766 B( 34-C , 91-H ) :   1.0172 B( 35-C , 36-C ) :   1.3371
B( 35-C , 38-C ) :   1.0633 B( 36-C , 37-C ) :   1.4034 B( 36-C , 92-H ) :   0.9861
B( 37-C , 93-H ) :   0.9909 B( 38-C , 39-C ) :   1.5814 B( 38-C , 94-H ) :   0.9727
B( 39-C , 40-C ) :   1.2049 B( 39-C , 95-H ) :   0.9532 B( 40-C , 41-C ) :   1.2398
B( 40-C , 51-C ) :   0.1167 B( 40-C , 53-C ) :   1.1629 B( 41-C , 42-C ) :   1.1150
B( 41-C , 46-N ) :   1.4327 B( 42-C , 43-N ) :   1.4868 B( 42-C , 51-C ) :   1.1881
B( 43-N , 44-C ) :   1.7020 B( 44-C , 45-C ) :   1.2210 B( 44-C , 49-C ) :   1.1591
B( 45-C , 46-N ) :   1.7438 B( 45-C , 47-C ) :   1.1516 B( 47-C , 48-N ) :   3.0515
B( 49-C , 50-N ) :   3.0440 B( 51-C , 52-C ) :   1.1393 B( 51-C , 57-C ) :   1.2990
B( 52-C , 53-C ) :   1.1171 B( 52-C , 56-N ) :   1.4938 B( 53-C , 54-N ) :   1.5140
B( 54-N , 55-S ) :   1.2556 B( 54-N , 56-N ) :   0.1414 B( 55-S , 56-N ) :   1.2534
B( 57-C , 58-C ) :   1.4365 B( 57-C , 96-H ) :   0.9415 B( 58-C , 59-C ) :   1.1637
B( 58-C , 62-S ) :   1.0794 B( 59-C , 60-C ) :   1.5676 B( 59-C , 97-H ) :   1.0028
B( 60-C , 61-C ) :   1.1878 B( 60-C , 98-H ) :   0.9923 B( 61-C , 62-S ) :   1.0068
B( 61-C , 63-C ) :   1.5130 B( 63-C , 64-C ) :   1.1608 B( 63-C , 67-S ) :   1.0674
B( 64-C , 65-C ) :   1.6495 B( 64-C , 99-H ) :   0.9929 B( 65-C , 66-C ) :   1.0819
B( 65-C ,100-H ) :   0.9935 B( 66-C , 67-S ) :   1.0056 B( 66-C , 68-C ) :   1.8562
B( 68-C ,101-H ) :   0.9512 B( 68-C ,102-H ) :   0.9426

-----------------------------------------------------------------------------
         ABSORPTION SPECTRUM VIA TRANSITION ELECTRIC DIPOLE MOMENTS
-----------------------------------------------------------------------------
State   Energy  Wavelength   fosc         T2         TX        TY        TZ
        (cm-1)    (nm)                  (au**2)     (au)      (au)      (au)
-----------------------------------------------------------------------------
   0    6898.1   1449.7   0.477279215  22.77806   1.96322   1.06913  -4.21673
   1   16735.7    597.5   0.163717366   3.22053  -0.96614   1.23873  -0.86755
   2   18840.8    530.8   0.766317214  13.39011   2.60955  -0.25505  -2.55251
   3   21331.5    468.8   0.311261432   4.80373  -0.58323  -1.09471   1.80698
   4   22023.5    454.1   0.234056334   3.49872  -1.40417  -1.13222   0.49507
   5   22744.7    439.7   0.212947995   3.08226  -1.22874   1.05381  -0.67966
   6   23043.3    434.0   0.260196836   3.71734  -0.27306   1.02623  -1.60923
   7   24735.5    404.3   0.119546076   1.59107  -0.80342  -0.41994   0.87706
   8   24991.0    400.1   0.390828056   5.14846   2.07669   0.91352  -0.03611
   9   26293.1    380.3   0.579503258   7.25586   0.82134  -1.52532   2.06268
  10   26660.1    375.1   0.394362788   4.86979  -0.83356   1.43261  -1.45691
  11   27386.9    365.1   0.003152703   0.03790   0.09461   0.16934   0.01648
  12   28473.5    351.2   0.249465758   2.88433  -1.36097  -0.87821   0.51074
  13   28679.4    348.7   0.024738234   0.28397   0.33845   0.26224  -0.31726
  14   29104.1    343.6   0.009861727   0.11155  -0.28652   0.03167   0.16869
  15   29375.2    340.4   0.248211604   2.78174  -0.24983  -0.95167   1.34672
  16   29456.2    339.5   0.047702175   0.53313  -0.04856  -0.26912   0.67702
  17   30157.3    331.6   0.054914388   0.59947  -0.68340   0.35860  -0.06193
  18   31091.2    321.6   0.004053648   0.04292   0.15723   0.02216  -0.13308
  19   31505.4    317.4   0.023262054   0.24307  -0.17267   0.12430  -0.44476
  20   31634.0    316.1   0.106380864   1.10710  -0.69809  -0.55735   0.55600
  21   32013.7    312.4   0.565145399   5.81165  -2.10139   1.18060   0.04444
  22   32149.5    311.0   0.050914837   0.52137   0.69243  -0.13191   0.15658
  23   32538.8    307.3   0.166034121   1.67985   0.54555  -0.42789   1.09505
  24   33412.5    299.3   0.006979595   0.06877  -0.07975  -0.03888  -0.24677
  25   33700.2    296.7   0.044162358   0.43141   0.42096   0.17330  -0.47347
  26   33754.7    296.3   0.036650399   0.35745  -0.45648  -0.09689   0.37375
  27   34040.5    293.8   0.043888786   0.42446   0.34548   0.34685  -0.42988
  28   34207.8    292.3   0.088071051   0.84759  -0.80065   0.06907  -0.44920
  29   34866.3    286.8   0.096239607   0.90871   0.77596  -0.21444   0.51050
  30   35084.2    285.0   0.135434351   1.27085  -1.02416   0.41772  -0.21784
  31   35650.0    280.5   0.031109817   0.28728  -0.32399   0.42167  -0.06716
  32   36316.2    275.4   0.108013948   0.97916  -0.72529   0.43822  -0.51096
  33   36403.3    274.7   0.020805377   0.18815   0.30162  -0.08993  -0.29848
  34   36654.0    272.8   0.021602985   0.19403  -0.41657   0.14018  -0.02916
  35   36771.9    271.9   0.025826329   0.23122   0.30008  -0.18059  -0.32948
  36   36862.2    271.3   0.084373050   0.75353   0.64204  -0.41066  -0.41552
  37   37536.7    266.4   0.137862390   1.20911   0.38923   0.78767  -0.66121
  38   37596.1    266.0   0.007270936   0.06367  -0.12897  -0.16085   0.14547
  39   38345.4    260.8   0.013095390   0.11243  -0.26977  -0.07311  -0.18523
  40   38542.0    259.5   0.018555915   0.15850  -0.29382  -0.25518  -0.08397
  41   38868.3    257.3   0.091609216   0.77592   0.77964  -0.40098  -0.08545
  42   39226.4    254.9   0.031986903   0.26845  -0.46581   0.13094   0.18528
  43   39371.7    254.0   0.051567008   0.43119  -0.36048   0.44307  -0.32393
  44   39548.4    252.9   0.079080800   0.65829   0.20946  -0.45251   0.64004
  45   39877.7    250.8   0.016513461   0.13633   0.30211  -0.14187   0.15790
  46   40157.1    249.0   0.000120533   0.00099  -0.01967  -0.01989  -0.01434

FINAL SINGLE POINT ENERGY     -4686.580709807032

DIPOLE MOMENT
-------------
                                X             Y             Z
Electronic contribution:    -19.30733      17.81365     -19.61813
Nuclear contribution   :     21.82387     -17.77932      15.50315
                        -----------------------------------------
Total Dipole Moment    :      2.51654       0.03432      -4.11497
                        -----------------------------------------
Magnitude (a.u.)       :      4.82361
Magnitude (Debye)      :     12.26063

Rotational constants in cm-1:     0.001517     0.000187     0.000175
Rotational constants in MHz :    45.491302     5.614977     5.238946

                             ****ORCA TERMINATED NORMALLY****
TOTAL RUN TIME: 0 days 0 hours 9 minutes 23 seconds 17 msec
