                         Program Version 4.2.0 -  RELEASE  -
|  1> # ORCA input file
|  2> # SCF done       -208.481504843030          0.000858748560
|  3> ! CAM-B3LYP def2-SVP def2/J RIJCOSX Grid4 TightSCF
|  4> %maxcore 5000
|  5> %tddft
|  6>     Mode sTDDFT
|  7>     Ethresh 5.0
|  8>     maxcore 5000
|  9> end
| 10>
| 11> %pal
| 12>   nprocs 6
| 13>   end
| 14> * xyz 0 1
| 15>    C       -3.95879        -1.83084         9.81478
| 16>    C       -3.24872        -2.92854        10.21361
| 17>    F       -2.72160        -2.97868        11.44394
| 18>    C       -3.06160        -4.01827         9.33975
| 19>    F       -2.36080        -5.08071         9.75768
| 20>    C       -3.58679        -3.99483         8.07776
| 21>    C       -4.32181        -2.87759         7.63707
| 22>    C       -4.51358        -1.77576         8.52030
| 23>    C       -5.25240        -0.64534         8.10234
| 24>    C       -5.78493        -0.61793         6.83984
| 25>    C       -5.58400        -1.72143         5.96430
| 26>    C       -4.87349        -2.82510         6.33736
| 27>    C       -6.24752        -1.44857         4.67958
| 28>    O       -6.20331        -2.13190         3.67295
| 29>    C       -6.89879        -0.13572         4.83005
| 30>    C       -6.59097         0.38449         6.15046
| 31>    C       -7.01109         1.57180         6.69366
| 32>    C       -7.83244         2.51908         6.04987
| 33>    N       -8.49904         3.32950         5.58183
| 34>    C       -6.67405         2.01132         7.99128
| 35>    N       -6.43239         2.43331         9.03106
| 36>    C       -7.55096         0.55606         3.84453
| 37>    N       -8.00887         0.11102         2.65624
| 38>    C       -8.39437        -1.13357         2.24023
| 39>    S       -8.80007        -2.41104         3.32601
| 40>    C       -9.41201        -3.33251         1.99804
| 41>    N       -9.90730        -4.61262         2.28430
| 42>    O      -10.32264        -5.28392         1.36136
| 43>    O       -9.87875        -4.95338         3.45440
| 44>    C       -9.31324        -2.69280         0.79059
| 45>    C       -8.71788        -1.42430         0.90690
| 46>    C       -8.49718        -0.55746        -0.22151
| 47>    C       -7.51410         0.36125        -0.31970
| 48>    C       -7.32096         1.24456        -1.42606
| 49>    C       -8.19565         1.60621        -2.44135
| 50>    C       -9.54704         1.22506        -2.45455
| 51>    N      -10.66280         0.96162        -2.41279
| 52>    C       -7.61211         2.51937        -3.36374
| 53>    C       -6.31218         2.85003        -2.99441
| 54>    S       -5.77404         2.05177        -1.57065
| 55>    S       -5.52790         4.01588        -4.00837
| 56>    C       -6.97565         4.06525        -4.96580
| 57>    C       -7.99395         3.22326        -4.54357
| 58>    C       -9.11943         3.29708        -5.41678
| 59>    C      -10.21323         2.42013        -5.34112
| 60>    N      -11.06679         1.65365        -5.31652
| 61>    C       -8.94284         4.21227        -6.44035
| 62>    S       -7.36705         4.97196        -6.37352
| 63>    C       -9.86980         4.59383        -7.47935
| 64>    C      -11.25098         4.41822        -7.30303
| 65>    C      -12.11127         4.79206        -8.30640
| 66>    C      -11.61895         5.39549        -9.47913
| 67>    C      -10.25462         5.58109        -9.65672
| 68>    C       -9.39236         5.17367        -8.66101
| 69>    C      -12.73939         5.77716       -10.30778
| 70>    C      -13.92528         5.40881        -9.64939
| 71>    C      -13.61797         4.69087        -8.35261
| 72>    C      -14.08418         3.22510        -8.52611
| 73>    C      -13.82435         2.29394        -7.34992
| 74>    C      -14.28483         5.36108        -7.14305
| 75>    C      -13.94387         6.84354        -7.04009
| 76>    C      -15.14615         5.68140       -10.21192
| 77>    C      -15.21919         6.34459       -11.45063
| 78>    C      -14.02237         6.70153       -12.09353
| 79>    C      -12.79279         6.42355       -11.53618
| 80>    C      -16.52215         6.61312       -11.99392
| 81>    C      -16.80522         7.29274       -13.13433
| 82>    C      -18.08892         7.54441       -13.67208
| 83>    C      -19.32359         7.13935       -13.23693
| 84>    C      -20.54682         7.46172       -13.89008
| 85>    C      -21.65946         6.94647       -13.30899
| 86>    C      -21.39690         6.17646       -12.14820
| 87>    S      -19.67204         6.14485       -11.83104
| 88>    C      -22.29636         5.52245       -11.34280
| 89>    C      -23.71130         5.46862       -11.49163
| 90>    C      -24.34406         4.74042       -10.54627
| 91>    C      -23.47416         4.15573        -9.56560
| 92>    S      -21.80075         4.60160        -9.93560
| 93>    C      -23.81363         3.38907        -8.52078
| 94>    H       -4.09392        -1.00591        10.49680
| 95>    H       -3.43573        -4.83735         7.42124
| 96>    H       -5.37856         0.17063         8.79511
| 97>    H       -4.74025        -3.64910         5.65318
| 98>    H       -7.71477         1.61692         3.98615
| 99>    H       -8.22191         0.83137         1.97076
|100>    H       -9.63792        -3.13161        -0.13529
|101>    H       -9.17017        -0.70894        -1.05271
|102>    H       -6.74399         0.41803         0.43957
|103>    H      -11.62502         4.02516        -6.37210
|104>    H       -9.87210         6.04127       -10.55506
|105>    H       -8.32647         5.30280        -8.78809
|106>    H      -13.58844         2.82236        -9.41371
|107>    H      -15.15716         3.24554        -8.73095
|108>    H      -12.76318         2.19253        -7.14286
|109>    H      -14.21194         1.30577        -7.58720
|110>    H      -14.32409         2.63982        -6.44964
|111>    H      -13.95935         4.85665        -6.23282
|112>    H      -15.36664         5.24136        -7.22736
|113>    H      -12.86864         6.98422        -6.94862
|114>    H      -14.42298         7.27830        -6.16582
|115>    H      -14.28488         7.38078        -7.92243
|116>    H      -16.06245         5.40201        -9.71174
|117>    H      -14.06104         7.20210       -13.04847
|118>    H      -11.88481         6.70585       -12.04849
|119>    H      -17.34109         6.22783       -11.40343
|120>    H      -15.98945         7.70399       -13.71361
|121>    H      -18.10741         8.14278       -14.57548
|122>    H      -20.55428         8.06918       -14.77845
|123>    H      -22.65852         7.09343       -13.67832
|124>    H      -24.20756         5.97508       -12.30052
|125>    H      -25.40736         4.58617       -10.49629
|126>    H      -24.84360         3.14172        -8.33341
|127>    H      -23.07749         2.99901        -7.84219
|128> *
|129>
|130>                          ****END OF INPUT****

CARTESIAN COORDINATES (ANGSTROEM)
---------------------------------
  C     -3.958790   -1.830840    9.814780
  C     -3.248720   -2.928540   10.213610
  F     -2.721600   -2.978680   11.443940
  C     -3.061600   -4.018270    9.339750
  F     -2.360800   -5.080710    9.757680
  C     -3.586790   -3.994830    8.077760
  C     -4.321810   -2.877590    7.637070
  C     -4.513580   -1.775760    8.520300
  C     -5.252400   -0.645340    8.102340
  C     -5.784930   -0.617930    6.839840
  C     -5.584000   -1.721430    5.964300
  C     -4.873490   -2.825100    6.337360
  C     -6.247520   -1.448570    4.679580
  O     -6.203310   -2.131900    3.672950
  C     -6.898790   -0.135720    4.830050
  C     -6.590970    0.384490    6.150460
  C     -7.011090    1.571800    6.693660
  C     -7.832440    2.519080    6.049870
  N     -8.499040    3.329500    5.581830
  C     -6.674050    2.011320    7.991280
  N     -6.432390    2.433310    9.031060
  C     -7.550960    0.556060    3.844530
  N     -8.008870    0.111020    2.656240
  C     -8.394370   -1.133570    2.240230
  S     -8.800070   -2.411040    3.326010
  C     -9.412010   -3.332510    1.998040
  N     -9.907300   -4.612620    2.284300
  O    -10.322640   -5.283920    1.361360
  O     -9.878750   -4.953380    3.454400
  C     -9.313240   -2.692800    0.790590
  C     -8.717880   -1.424300    0.906900
  C     -8.497180   -0.557460   -0.221510
  C     -7.514100    0.361250   -0.319700
  C     -7.320960    1.244560   -1.426060
  C     -8.195650    1.606210   -2.441350
  C     -9.547040    1.225060   -2.454550
  N    -10.662800    0.961620   -2.412790
  C     -7.612110    2.519370   -3.363740
  C     -6.312180    2.850030   -2.994410
  S     -5.774040    2.051770   -1.570650
  S     -5.527900    4.015880   -4.008370
  C     -6.975650    4.065250   -4.965800
  C     -7.993950    3.223260   -4.543570
  C     -9.119430    3.297080   -5.416780
  C    -10.213230    2.420130   -5.341120
  N    -11.066790    1.653650   -5.316520
  C     -8.942840    4.212270   -6.440350
  S     -7.367050    4.971960   -6.373520
  C     -9.869800    4.593830   -7.479350
  C    -11.250980    4.418220   -7.303030
  C    -12.111270    4.792060   -8.306400
  C    -11.618950    5.395490   -9.479130
  C    -10.254620    5.581090   -9.656720
  C     -9.392360    5.173670   -8.661010
  C    -12.739390    5.777160  -10.307780
  C    -13.925280    5.408810   -9.649390
  C    -13.617970    4.690870   -8.352610
  C    -14.084180    3.225100   -8.526110
  C    -13.824350    2.293940   -7.349920
  C    -14.284830    5.361080   -7.143050
  C    -13.943870    6.843540   -7.040090
  C    -15.146150    5.681400  -10.211920
  C    -15.219190    6.344590  -11.450630
  C    -14.022370    6.701530  -12.093530
  C    -12.792790    6.423550  -11.536180
  C    -16.522150    6.613120  -11.993920
  C    -16.805220    7.292740  -13.134330
  C    -18.088920    7.544410  -13.672080
  C    -19.323590    7.139350  -13.236930
  C    -20.546820    7.461720  -13.890080
  C    -21.659460    6.946470  -13.308990
  C    -21.396900    6.176460  -12.148200
  S    -19.672040    6.144850  -11.831040
  C    -22.296360    5.522450  -11.342800
  C    -23.711300    5.468620  -11.491630
  C    -24.344060    4.740420  -10.546270
  C    -23.474160    4.155730   -9.565600
  S    -21.800750    4.601600   -9.935600
  C    -23.813630    3.389070   -8.520780
  H     -4.093920   -1.005910   10.496800
  H     -3.435730   -4.837350    7.421240
  H     -5.378560    0.170630    8.795110
  H     -4.740250   -3.649100    5.653180
  H     -7.714770    1.616920    3.986150
  H     -8.221910    0.831370    1.970760
  H     -9.637920   -3.131610   -0.135290
  H     -9.170170   -0.708940   -1.052710
  H     -6.743990    0.418030    0.439570
  H    -11.625020    4.025160   -6.372100
  H     -9.872100    6.041270  -10.555060
  H     -8.326470    5.302800   -8.788090
  H    -13.588440    2.822360   -9.413710
  H    -15.157160    3.245540   -8.730950
  H    -12.763180    2.192530   -7.142860
  H    -14.211940    1.305770   -7.587200
  H    -14.324090    2.639820   -6.449640
  H    -13.959350    4.856650   -6.232820
  H    -15.366640    5.241360   -7.227360
  H    -12.868640    6.984220   -6.948620
  H    -14.422980    7.278300   -6.165820
  H    -14.284880    7.380780   -7.922430
  H    -16.062450    5.402010   -9.711740
  H    -14.061040    7.202100  -13.048470
  H    -11.884810    6.705850  -12.048490
  H    -17.341090    6.227830  -11.403430
  H    -15.989450    7.703990  -13.713610
  H    -18.107410    8.142780  -14.575480
  H    -20.554280    8.069180  -14.778450
  H    -22.658520    7.093430  -13.678320
  H    -24.207560    5.975080  -12.300520
  H    -25.407360    4.586170  -10.496290
  H    -24.843600    3.141720   -8.333410
  H    -23.077490    2.999010   -7.842190

 Total Charge           Charge          ....    0
 Multiplicity           Mult            ....    1
 Number of Electrons    NEL             ....  586
 Basis Dimension        Dim             .... 1300

ORBITAL ENERGIES
----------------

  NO   OCC          E(Eh)            E(eV)
   0   2.0000     -88.993326     -2421.6315
   1   2.0000     -88.992100     -2421.5982
   2   2.0000     -88.991356     -2421.5779
   3   2.0000     -88.985470     -2421.4177
   4   2.0000     -88.940452     -2420.1927
   5   2.0000     -88.934972     -2420.0436
   6   2.0000     -24.800825      -674.8648
   7   2.0000     -24.800024      -674.8430
   8   2.0000     -19.240459      -523.5595
   9   2.0000     -19.239988      -523.5467
  10   2.0000     -19.225693      -523.1577
  11   2.0000     -14.652009      -398.7014
  12   2.0000     -14.516579      -395.0162
  13   2.0000     -14.426435      -392.5633
  14   2.0000     -14.420663      -392.4062
  15   2.0000     -14.411981      -392.1699
  16   2.0000     -14.404276      -391.9603
  17   2.0000     -10.384673      -282.5813
  18   2.0000     -10.383737      -282.5558
  19   2.0000     -10.377043      -282.3737
  20   2.0000     -10.376572      -282.3609
  21   2.0000     -10.376271      -282.3527
  22   2.0000     -10.352391      -281.7029
  23   2.0000     -10.348979      -281.6100
  24   2.0000     -10.347290      -281.5641
  25   2.0000     -10.343828      -281.4699
  26   2.0000     -10.343386      -281.4579
  27   2.0000     -10.338687      -281.3300
  28   2.0000     -10.334677      -281.2209
  29   2.0000     -10.330348      -281.1031
  30   2.0000     -10.329133      -281.0700
  31   2.0000     -10.323754      -280.9236
  32   2.0000     -10.320407      -280.8326
  33   2.0000     -10.316264      -280.7198
  34   2.0000     -10.314244      -280.6648
  35   2.0000     -10.314084      -280.6605
  36   2.0000     -10.313887      -280.6551
  37   2.0000     -10.312978      -280.6304
  38   2.0000     -10.312298      -280.6119
  39   2.0000     -10.311969      -280.6029
  40   2.0000     -10.311825      -280.5990
  41   2.0000     -10.311639      -280.5940
  42   2.0000     -10.311038      -280.5776
  43   2.0000     -10.309311      -280.5306
  44   2.0000     -10.307567      -280.4832
  45   2.0000     -10.306721      -280.4601
  46   2.0000     -10.306689      -280.4593
  47   2.0000     -10.305389      -280.4239
  48   2.0000     -10.304199      -280.3915
  49   2.0000     -10.303747      -280.3792
  50   2.0000     -10.303469      -280.3717
  51   2.0000     -10.303279      -280.3665
  52   2.0000     -10.300344      -280.2866
  53   2.0000     -10.298292      -280.2308
  54   2.0000     -10.292544      -280.0743
  55   2.0000     -10.286639      -279.9137
  56   2.0000     -10.282032      -279.7883
  57   2.0000     -10.281012      -279.7606
  58   2.0000     -10.280566      -279.7484
  59   2.0000     -10.278865      -279.7021
  60   2.0000     -10.275936      -279.6224
  61   2.0000     -10.275449      -279.6092
  62   2.0000     -10.275309      -279.6054
  63   2.0000     -10.273820      -279.5649
  64   2.0000     -10.273502      -279.5562
  65   2.0000     -10.270986      -279.4877
  66   2.0000     -10.270485      -279.4741
  67   2.0000     -10.268955      -279.4325
  68   2.0000     -10.267201      -279.3847
  69   2.0000     -10.267096      -279.3819
  70   2.0000     -10.266154      -279.3563
  71   2.0000     -10.265005      -279.3250
  72   2.0000     -10.264609      -279.3142
  73   2.0000     -10.263685      -279.2891
  74   2.0000     -10.262733      -279.2632
  75   2.0000     -10.257252      -279.1140
  76   2.0000     -10.254029      -279.0263
  77   2.0000     -10.242434      -278.7108
  78   2.0000     -10.234174      -278.4860
  79   2.0000      -8.088881      -220.1096
  80   2.0000      -8.086962      -220.0574
  81   2.0000      -8.086453      -220.0436
  82   2.0000      -8.080712      -219.8873
  83   2.0000      -8.036009      -218.6709
  84   2.0000      -8.031684      -218.5532
  85   2.0000      -6.058395      -164.8573
  86   2.0000      -6.056452      -164.8044
  87   2.0000      -6.056442      -164.8042
  88   2.0000      -6.054264      -164.7449
  89   2.0000      -6.052214      -164.6891
  90   2.0000      -6.051933      -164.6815
  91   2.0000      -6.050470      -164.6417
  92   2.0000      -6.050303      -164.6371
  93   2.0000      -6.048829      -164.5970
  94   2.0000      -6.047243      -164.5538
  95   2.0000      -6.046000      -164.5200
  96   2.0000      -6.042346      -164.4206
  97   2.0000      -6.005807      -163.4263
  98   2.0000      -6.001747      -163.3158
  99   2.0000      -6.001544      -163.3103
 100   2.0000      -5.997576      -163.2023
 101   2.0000      -5.996936      -163.1849
 102   2.0000      -5.992187      -163.0557
 103   2.0000      -1.323388       -36.0112
 104   2.0000      -1.322161       -35.9778
 105   2.0000      -1.308510       -35.6064
 106   2.0000      -1.143291       -31.1105
 107   2.0000      -1.141335       -31.0573
 108   2.0000      -1.112099       -30.2618
 109   2.0000      -1.045852       -28.4591
 110   2.0000      -1.027829       -27.9687
 111   2.0000      -1.015101       -27.6223
 112   2.0000      -1.013200       -27.5706
 113   2.0000      -1.010279       -27.4911
 114   2.0000      -1.001690       -27.2574
 115   2.0000      -0.997081       -27.1320
 116   2.0000      -0.987625       -26.8747
 117   2.0000      -0.986430       -26.8421
 118   2.0000      -0.986165       -26.8349
 119   2.0000      -0.984531       -26.7905
 120   2.0000      -0.964725       -26.2515
 121   2.0000      -0.960628       -26.1400
 122   2.0000      -0.942188       -25.6382
 123   2.0000      -0.937664       -25.5151
 124   2.0000      -0.929281       -25.2870
 125   2.0000      -0.916041       -24.9267
 126   2.0000      -0.908880       -24.7319
 127   2.0000      -0.900220       -24.4962
 128   2.0000      -0.896876       -24.4052
 129   2.0000      -0.895035       -24.3551
 130   2.0000      -0.894100       -24.3297
 131   2.0000      -0.880661       -23.9640
 132   2.0000      -0.874269       -23.7901
 133   2.0000      -0.870384       -23.6844
 134   2.0000      -0.864321       -23.5194
 135   2.0000      -0.863237       -23.4899
 136   2.0000      -0.844969       -22.9928
 137   2.0000      -0.843547       -22.9541
 138   2.0000      -0.840234       -22.8639
 139   2.0000      -0.834562       -22.7096
 140   2.0000      -0.828661       -22.5490
 141   2.0000      -0.826560       -22.4918
 142   2.0000      -0.823729       -22.4148
 143   2.0000      -0.819441       -22.2981
 144   2.0000      -0.815889       -22.2015
 145   2.0000      -0.810218       -22.0471
 146   2.0000      -0.794310       -21.6143
 147   2.0000      -0.778138       -21.1742
 148   2.0000      -0.774703       -21.0807
 149   2.0000      -0.769266       -20.9328
 150   2.0000      -0.758671       -20.6445
 151   2.0000      -0.752679       -20.4814
 152   2.0000      -0.737206       -20.0604
 153   2.0000      -0.732434       -19.9305
 154   2.0000      -0.726347       -19.7649
 155   2.0000      -0.716240       -19.4899
 156   2.0000      -0.715032       -19.4570
 157   2.0000      -0.711171       -19.3519
 158   2.0000      -0.705608       -19.2006
 159   2.0000      -0.700691       -19.0668
 160   2.0000      -0.693245       -18.8642
 161   2.0000      -0.690584       -18.7917
 162   2.0000      -0.686911       -18.6918
 163   2.0000      -0.680944       -18.5294
 164   2.0000      -0.674993       -18.3675
 165   2.0000      -0.668580       -18.1930
 166   2.0000      -0.663920       -18.0662
 167   2.0000      -0.660869       -17.9832
 168   2.0000      -0.659279       -17.9399
 169   2.0000      -0.651910       -17.7394
 170   2.0000      -0.647343       -17.6151
 171   2.0000      -0.646899       -17.6030
 172   2.0000      -0.643799       -17.5187
 173   2.0000      -0.638057       -17.3624
 174   2.0000      -0.634542       -17.2668
 175   2.0000      -0.633148       -17.2288
 176   2.0000      -0.628022       -17.0893
 177   2.0000      -0.625466       -17.0198
 178   2.0000      -0.617986       -16.8162
 179   2.0000      -0.615370       -16.7451
 180   2.0000      -0.614662       -16.7258
 181   2.0000      -0.604403       -16.4467
 182   2.0000      -0.597038       -16.2462
 183   2.0000      -0.594498       -16.1771
 184   2.0000      -0.592313       -16.1177
 185   2.0000      -0.590767       -16.0756
 186   2.0000      -0.587994       -16.0001
 187   2.0000      -0.584388       -15.9020
 188   2.0000      -0.577729       -15.7208
 189   2.0000      -0.576251       -15.6806
 190   2.0000      -0.572113       -15.5680
 191   2.0000      -0.563877       -15.3439
 192   2.0000      -0.562493       -15.3062
 193   2.0000      -0.556608       -15.1461
 194   2.0000      -0.554645       -15.0927
 195   2.0000      -0.549489       -14.9524
 196   2.0000      -0.548631       -14.9290
 197   2.0000      -0.546189       -14.8626
 198   2.0000      -0.544703       -14.8221
 199   2.0000      -0.541256       -14.7283
 200   2.0000      -0.539409       -14.6781
 201   2.0000      -0.536464       -14.5979
 202   2.0000      -0.535078       -14.5602
 203   2.0000      -0.528689       -14.3864
 204   2.0000      -0.527945       -14.3661
 205   2.0000      -0.525541       -14.3007
 206   2.0000      -0.524750       -14.2792
 207   2.0000      -0.522878       -14.2282
 208   2.0000      -0.520333       -14.1590
 209   2.0000      -0.519573       -14.1383
 210   2.0000      -0.518408       -14.1066
 211   2.0000      -0.516840       -14.0639
 212   2.0000      -0.513219       -13.9654
 213   2.0000      -0.511896       -13.9294
 214   2.0000      -0.509207       -13.8562
 215   2.0000      -0.507757       -13.8168
 216   2.0000      -0.506416       -13.7803
 217   2.0000      -0.503556       -13.7025
 218   2.0000      -0.499088       -13.5809
 219   2.0000      -0.497639       -13.5415
 220   2.0000      -0.496312       -13.5053
 221   2.0000      -0.490551       -13.3486
 222   2.0000      -0.489727       -13.3261
 223   2.0000      -0.487445       -13.2640
 224   2.0000      -0.485034       -13.1985
 225   2.0000      -0.482363       -13.1258
 226   2.0000      -0.477375       -12.9900
 227   2.0000      -0.476096       -12.9552
 228   2.0000      -0.475248       -12.9321
 229   2.0000      -0.471928       -12.8418
 230   2.0000      -0.468843       -12.7579
 231   2.0000      -0.467803       -12.7296
 232   2.0000      -0.466850       -12.7036
 233   2.0000      -0.462436       -12.5835
 234   2.0000      -0.461084       -12.5467
 235   2.0000      -0.458055       -12.4643
 236   2.0000      -0.457889       -12.4598
 237   2.0000      -0.456459       -12.4209
 238   2.0000      -0.452809       -12.3215
 239   2.0000      -0.452516       -12.3136
 240   2.0000      -0.451564       -12.2877
 241   2.0000      -0.449890       -12.2421
 242   2.0000      -0.448696       -12.2096
 243   2.0000      -0.445522       -12.1233
 244   2.0000      -0.443592       -12.0708
 245   2.0000      -0.441493       -12.0136
 246   2.0000      -0.438339       -11.9278
 247   2.0000      -0.437469       -11.9041
 248   2.0000      -0.436328       -11.8731
 249   2.0000      -0.434285       -11.8175
 250   2.0000      -0.433199       -11.7879
 251   2.0000      -0.432179       -11.7602
 252   2.0000      -0.429519       -11.6878
 253   2.0000      -0.427773       -11.6403
 254   2.0000      -0.427244       -11.6259
 255   2.0000      -0.425267       -11.5721
 256   2.0000      -0.420809       -11.4508
 257   2.0000      -0.419225       -11.4077
 258   2.0000      -0.416353       -11.3295
 259   2.0000      -0.413095       -11.2409
 260   2.0000      -0.409924       -11.1546
 261   2.0000      -0.407221       -11.0810
 262   2.0000      -0.402566       -10.9544
 263   2.0000      -0.399412       -10.8686
 264   2.0000      -0.395902       -10.7731
 265   2.0000      -0.388653       -10.5758
 266   2.0000      -0.387894       -10.5551
 267   2.0000      -0.387511       -10.5447
 268   2.0000      -0.386554       -10.5187
 269   2.0000      -0.385497       -10.4899
 270   2.0000      -0.381659       -10.3855
 271   2.0000      -0.379966       -10.3394
 272   2.0000      -0.378376       -10.2961
 273   2.0000      -0.374271       -10.1844
 274   2.0000      -0.371794       -10.1170
 275   2.0000      -0.368811       -10.0359
 276   2.0000      -0.360734        -9.8161
 277   2.0000      -0.354838        -9.6556
 278   2.0000      -0.345223        -9.3940
 279   2.0000      -0.335193        -9.1211
 280   2.0000      -0.333843        -9.0843
 281   2.0000      -0.329160        -8.9569
 282   2.0000      -0.323217        -8.7952
 283   2.0000      -0.320962        -8.7338
 284   2.0000      -0.319174        -8.6852
 285   2.0000      -0.313492        -8.5305
 286   2.0000      -0.309919        -8.4333
 287   2.0000      -0.309302        -8.4165
 288   2.0000      -0.299630        -8.1533
 289   2.0000      -0.287808        -7.8317
 290   2.0000      -0.272987        -7.4283
 291   2.0000      -0.259960        -7.0739
 292   2.0000      -0.211863        -5.7651
 293   0.0000      -0.096022        -2.6129
 294   0.0000      -0.068059        -1.8520
 295   0.0000      -0.066793        -1.8175
 296   0.0000      -0.058596        -1.5945
 297   0.0000      -0.051773        -1.4088

MULLIKEN ATOMIC CHARGES
-----------------------
   0 C :   -0.111668
   1 C :    0.244061
   2 F :   -0.169848
   3 C :    0.241204
   4 F :   -0.170223
   5 C :   -0.107015
   6 C :    0.119514
   7 C :    0.117520
   8 C :   -0.089560
   9 C :    0.045803
  10 C :    0.008454
  11 C :   -0.085907
  12 C :    0.138258
  13 O :   -0.159549
  14 C :   -0.137646
  15 C :    0.320177
  16 C :   -0.347271
  17 C :   -0.207172
  18 N :    0.150340
  19 C :   -0.180821
  20 N :    0.151632
  21 C :    0.011098
  22 N :    0.006130
  23 C :   -0.066062
  24 S :    0.223968
  25 C :   -0.009338
  26 N :    0.276403
  27 O :   -0.241235
  28 O :   -0.262423
  29 C :    0.017963
  30 C :    0.091132
  31 C :   -0.017272
  32 C :   -0.016711
  33 C :   -0.113249
  34 C :   -0.018427
  35 C :   -0.307302
  36 N :    0.196497
  37 C :    0.139731
  38 C :   -0.236362
  39 S :    0.170501
  40 S :    0.188643
  41 C :   -0.236798
  42 C :    0.138835
  43 C :   -0.024225
  44 C :   -0.289530
  45 N :    0.182458
  46 C :   -0.083530
  47 S :    0.163376
  48 C :    0.090806
  49 C :   -0.093300
  50 C :    0.010193
  51 C :    0.109787
  52 C :   -0.050148
  53 C :   -0.033091
  54 C :    0.097978
  55 C :    0.031638
  56 C :   -0.134153
  57 C :    0.074717
  58 C :    0.038369
  59 C :    0.045260
  60 C :    0.027025
  61 C :   -0.115409
  62 C :    0.129895
  63 C :   -0.018461
  64 C :   -0.045865
  65 C :   -0.016443
  66 C :    0.027765
  67 C :   -0.014261
  68 C :   -0.013917
  69 C :    0.034881
  70 C :    0.025558
  71 C :   -0.033055
  72 S :    0.048441
  73 C :   -0.063462
  74 C :    0.027898
  75 C :    0.052927
  76 C :   -0.066239
  77 S :    0.079020
  78 C :   -0.027692
  79 H :    0.008526
  80 H :    0.001864
  81 H :   -0.004094
  82 H :   -0.007432
  83 H :    0.045285
  84 H :    0.162925
  85 H :    0.016762
  86 H :    0.034473
  87 H :    0.001352
  88 H :   -0.008104
  89 H :   -0.032936
  90 H :   -0.018267
  91 H :    0.000393
  92 H :   -0.003534
  93 H :    0.024605
  94 H :    0.009308
  95 H :    0.005494
  96 H :    0.013560
  97 H :    0.002657
  98 H :    0.014665
  99 H :    0.009339
 100 H :    0.020871
 101 H :   -0.033875
 102 H :   -0.033367
 103 H :   -0.040222
 104 H :   -0.013875
 105 H :   -0.023430
 106 H :   -0.021279
 107 H :   -0.015146
 108 H :   -0.016871
 109 H :   -0.011903
 110 H :   -0.010820
 111 H :    0.019367
 112 H :    0.022492
Sum of atomic charges:   -0.0000000

LOEWDIN ATOMIC CHARGES
----------------------
   0 C :   -0.028459
   1 C :    0.067200
   2 F :   -0.048220
   3 C :    0.069188
   4 F :   -0.048094
   5 C :   -0.032446
   6 C :   -0.007641
   7 C :   -0.007306
   8 C :    0.020574
   9 C :   -0.025308
  10 C :   -0.051334
  11 C :    0.030538
  12 C :    0.063404
  13 O :   -0.165497
  14 C :   -0.146627
  15 C :    0.082008
  16 C :   -0.146792
  17 C :   -0.023985
  18 N :   -0.054075
  19 C :   -0.018379
  20 N :   -0.051944
  21 C :    0.097148
  22 N :    0.081738
  23 C :   -0.105418
  24 S :    0.529702
  25 C :   -0.202894
  26 N :    0.274089
  27 O :   -0.206928
  28 O :   -0.228282
  29 C :   -0.001148
  30 C :   -0.089517
  31 C :    0.009314
  32 C :   -0.070621
  33 C :   -0.135206
  34 C :   -0.098872
  35 C :   -0.039210
  36 N :   -0.034622
  37 C :   -0.059478
  38 C :   -0.335286
  39 S :    0.450280
  40 S :    0.422735
  41 C :   -0.336261
  42 C :   -0.062432
  43 C :   -0.109671
  44 C :   -0.035284
  45 N :   -0.039419
  46 C :   -0.108404
  47 S :    0.455342
  48 C :   -0.055070
  49 C :   -0.004529
  50 C :    0.008456
  51 C :   -0.002420
  52 C :   -0.019621
  53 C :   -0.023545
  54 C :   -0.025951
  55 C :    0.009062
  56 C :   -0.034561
  57 C :   -0.009927
  58 C :   -0.058197
  59 C :   -0.014968
  60 C :   -0.056887
  61 C :   -0.019488
  62 C :   -0.017189
  63 C :   -0.016800
  64 C :   -0.015977
  65 C :   -0.025556
  66 C :   -0.035468
  67 C :   -0.064889
  68 C :   -0.141569
  69 C :   -0.030895
  70 C :   -0.039272
  71 C :   -0.181840
  72 S :    0.379707
  73 C :   -0.175292
  74 C :   -0.026612
  75 C :   -0.030756
  76 C :   -0.139627
  77 S :    0.349731
  78 C :   -0.076008
  79 H :    0.048052
  80 H :    0.045679
  81 H :    0.040523
  82 H :    0.041347
  83 H :    0.046451
  84 H :    0.106721
  85 H :    0.049536
  86 H :    0.046385
  87 H :    0.027823
  88 H :    0.033512
  89 H :    0.028355
  90 H :    0.019384
  91 H :    0.025053
  92 H :    0.020052
  93 H :    0.024536
  94 H :    0.028556
  95 H :    0.021610
  96 H :    0.022469
  97 H :    0.022295
  98 H :    0.023210
  99 H :    0.024058
 100 H :    0.025070
 101 H :    0.025526
 102 H :    0.024393
 103 H :    0.025484
 104 H :    0.009514
 105 H :    0.026295
 106 H :    0.032407
 107 H :    0.032309
 108 H :    0.030255
 109 H :    0.032275
 110 H :    0.033472
 111 H :    0.028522
 112 H :    0.026628

  Mayer bond orders larger than 0.100000
B(  0-C ,  1-C ) :   1.4398 B(  0-C ,  5-C ) :   0.1084 B(  0-C ,  7-C ) :   1.1889
B(  0-C , 79-H ) :   1.0067 B(  1-C ,  2-F ) :   1.1365 B(  1-C ,  3-C ) :   1.1919
B(  3-C ,  4-F ) :   1.1348 B(  3-C ,  5-C ) :   1.4413 B(  5-C ,  6-C ) :   1.1942
B(  5-C , 80-H ) :   1.0068 B(  6-C ,  7-C ) :   1.2566 B(  6-C , 11-C ) :   1.1845
B(  7-C ,  8-C ) :   1.2157 B(  8-C ,  9-C ) :   1.4506 B(  8-C , 81-H ) :   0.9888
B(  9-C , 10-C ) :   1.2204 B(  9-C , 15-C ) :   0.9938 B( 10-C , 11-C ) :   1.4746
B( 10-C , 12-C ) :   0.9416 B( 11-C , 82-H ) :   1.0176 B( 12-C , 13-O ) :   2.1978
B( 12-C , 14-C ) :   0.9558 B( 14-C , 15-C ) :   1.1060 B( 14-C , 21-C ) :   1.5153
B( 15-C , 16-C ) :   1.6278 B( 16-C , 17-C ) :   1.1398 B( 16-C , 19-C ) :   1.1501
B( 17-C , 18-N ) :   2.9709 B( 19-C , 20-N ) :   2.9615 B( 21-C , 22-N ) :   1.3120
B( 21-C , 83-H ) :   0.9267 B( 22-N , 23-C ) :   1.1370 B( 22-N , 84-H ) :   0.8906
B( 23-C , 24-S ) :   1.1627 B( 23-C , 30-C ) :   1.3980 B( 24-S , 25-C ) :   1.1287
B( 25-C , 26-N ) :   0.9603 B( 25-C , 29-C ) :   1.4739 B( 26-N , 27-O ) :   1.5442
B( 26-N , 28-O ) :   1.5150 B( 27-O , 28-O ) :   0.2628 B( 29-C , 30-C ) :   1.2374
B( 29-C , 85-H ) :   1.0072 B( 30-C , 31-C ) :   1.0938 B( 31-C , 32-C ) :   1.6926
B( 31-C , 86-H ) :   0.9558 B( 32-C , 33-C ) :   1.1335 B( 32-C , 87-H ) :   0.9454
B( 33-C , 34-C ) :   1.4991 B( 33-C , 39-S ) :   1.1318 B( 34-C , 35-C ) :   1.1661
B( 34-C , 37-C ) :   1.2531 B( 35-C , 36-N ) :   2.9587 B( 37-C , 38-C ) :   1.4107
B( 37-C , 42-C ) :   1.0813 B( 38-C , 39-S ) :   1.0895 B( 38-C , 40-S ) :   1.0865
B( 40-S , 41-C ) :   1.0782 B( 41-C , 42-C ) :   1.4299 B( 41-C , 47-S ) :   1.0835
B( 42-C , 43-C ) :   1.2348 B( 43-C , 44-C ) :   1.1748 B( 43-C , 46-C ) :   1.5227
B( 44-C , 45-N ) :   2.9152 B( 46-C , 47-S ) :   1.1411 B( 46-C , 48-C ) :   1.0679
B( 48-C , 49-C ) :   1.3101 B( 48-C , 53-C ) :   1.3245 B( 49-C , 50-C ) :   1.4267
B( 49-C , 88-H ) :   0.9848 B( 50-C , 51-C ) :   1.3685 B( 50-C , 56-C ) :   0.9163
B( 51-C , 52-C ) :   1.3341 B( 51-C , 54-C ) :   1.0013 B( 52-C , 53-C ) :   1.3969
B( 52-C , 89-H ) :   0.9908 B( 53-C , 90-H ) :   0.9815 B( 54-C , 55-C ) :   1.3793
B( 54-C , 64-C ) :   1.3173 B( 55-C , 56-C ) :   0.9221 B( 55-C , 61-C ) :   1.3753
B( 56-C , 57-C ) :   1.0104 B( 56-C , 59-C ) :   1.0328 B( 57-C , 58-C ) :   1.1093
B( 57-C , 91-H ) :   0.9373 B( 57-C , 92-H ) :   0.9355 B( 58-C , 93-H ) :   0.9585
B( 58-C , 94-H ) :   0.9562 B( 58-C , 95-H ) :   0.9620 B( 59-C , 60-C ) :   1.1038
B( 59-C , 96-H ) :   0.9390 B( 59-C , 97-H ) :   0.9392 B( 60-C , 98-H ) :   0.9647
B( 60-C , 99-H ) :   0.9649 B( 60-C ,100-H ) :   0.9627 B( 61-C , 62-C ) :   1.2777
B( 61-C ,101-H ) :   1.0126 B( 62-C , 63-C ) :   1.3335 B( 62-C , 65-C ) :   1.1116
B( 63-C , 64-C ) :   1.4131 B( 63-C ,102-H ) :   0.9841 B( 64-C ,103-H ) :   0.9892
B( 65-C , 66-C ) :   1.6219 B( 65-C ,104-H ) :   0.9626 B( 66-C , 67-C ) :   1.1894
B( 66-C ,105-H ) :   0.9654 B( 67-C , 68-C ) :   1.5937 B( 67-C ,106-H ) :   0.9593
B( 68-C , 69-C ) :   1.1358 B( 68-C , 72-S ) :   1.0363 B( 69-C , 70-C ) :   1.6105
B( 69-C ,107-H ) :   0.9983 B( 70-C , 71-C ) :   1.1666 B( 70-C ,108-H ) :   0.9923
B( 71-C , 72-S ) :   1.0279 B( 71-C , 73-C ) :   1.5618 B( 73-C , 74-C ) :   1.1497
B( 73-C , 77-S ) :   1.0432 B( 74-C , 75-C ) :   1.6636 B( 74-C ,109-H ) :   0.9919
B( 75-C , 76-C ) :   1.0783 B( 75-C ,110-H ) :   0.9928 B( 76-C , 77-S ) :   1.0077
B( 76-C , 78-C ) :   1.8658 B( 78-C ,111-H ) :   0.9505 B( 78-C ,112-H ) :   0.9415

-----------------------------------------------------------------------------
         ABSORPTION SPECTRUM VIA TRANSITION ELECTRIC DIPOLE MOMENTS
-----------------------------------------------------------------------------
State   Energy  Wavelength   fosc         T2         TX        TY        TZ
        (cm-1)    (nm)                  (au**2)     (au)      (au)      (au)
-----------------------------------------------------------------------------
   0   17797.1    561.9   1.357379949  25.10895   4.96884   0.64713   0.02792
   1   19975.6    500.6   0.000623289   0.01027   0.04464   0.03480  -0.08408
   2   22360.7    447.2   0.847877669  12.48314   0.87872   0.17178   3.41782
   3   25318.0    395.0   0.277771505   3.61188   0.00675   1.10863  -1.54362
   4   25872.1    386.5   0.006887185   0.08764   0.07159   0.16339  -0.23625
   5   27314.3    366.1   0.193106778   2.32746   0.51388  -0.86086   1.14992
   6   27551.8    363.0   1.130992216  13.51405  -1.04465   2.11825  -2.81705
   7   27824.3    359.4   0.028919797   0.34217   0.17640  -0.17432   0.52978
   8   27969.7    357.5   0.007284607   0.08574   0.02883  -0.27506  -0.09620
   9   28114.8    355.7   0.014114767   0.16528   0.05517  -0.34446   0.20877
  10   28988.8    345.0   0.508380440   5.77344   0.62442   1.88920  -1.34702
  11   29482.3    339.2   0.126851919   1.41648   1.18515  -0.09120   0.05985
  12   29609.6    337.7   0.000073238   0.00081   0.01531  -0.01852   0.01539
  13   30403.5    328.9   0.196929600   2.13237   0.59942   1.33089   0.04235
  14   30891.0    323.7   0.136885525   1.45882  -1.05159   0.05378  -0.59167
  15   31383.5    318.6   0.400379936   4.19997  -1.20182   0.67076  -1.51845
  16   31997.8    312.5   0.027647105   0.28445  -0.24279  -0.46980  -0.06920
  17   32100.0    311.5   0.015734278   0.16137   0.21120  -0.01020  -0.34155
  18   33138.8    301.8   0.089687563   0.89098  -0.13607   0.88994   0.28368
  19   33326.7    300.1   0.026005558   0.25689   0.46394   0.20409  -0.00099
  20   34169.7    292.7   0.001635895   0.01576   0.03932   0.04268  -0.11133
  21   34273.0    291.8   0.633914668   6.08911  -1.49855   1.84159  -0.67230
  22   34299.1    291.6   0.052614600   0.50501  -0.04800   0.67975   0.20161
  23   34689.7    288.3   0.009124880   0.08660   0.12179   0.15213  -0.22050
  24   35014.8    285.6   0.002924847   0.02750   0.03815   0.15279  -0.05195
  25   35027.9    285.5   0.009386791   0.08822  -0.26070  -0.11048  -0.08972
  26   35774.1    279.5   0.024556874   0.22599  -0.32328  -0.32737  -0.11960
  27   35855.5    278.9   0.057821184   0.53089   0.44018   0.57867  -0.04772
  28   36360.0    275.0   0.178021652   1.61185  -0.37475   0.71345  -0.98102
  29   36627.9    273.0   0.027543128   0.24756  -0.45564  -0.10432  -0.17048
  30   36696.2    272.5   0.039598085   0.35525  -0.02821   0.07918   0.59007
  31   37496.0    266.7   0.080414486   0.70603   0.37949  -0.51229   0.54734
  32   37652.2    265.6   0.079196161   0.69245  -0.15324   0.61683  -0.53712
  33   37985.2    263.3   0.003835270   0.03324  -0.14874  -0.10232  -0.02544
  34   38197.6    261.8   0.011514245   0.09924  -0.18884   0.14834  -0.20389
  35   38311.7    261.0   0.011251384   0.09668   0.21492  -0.15331   0.16428
  36   38510.7    259.7   0.021865632   0.18692   0.41804   0.02928   0.10632
  37   38600.2    259.1   0.015110888   0.12888   0.15728   0.04849   0.31904
  38   38962.0    256.7   0.022760350   0.19231  -0.40528  -0.01675   0.16667
  39   39261.2    254.7   0.062359258   0.52289  -0.38334  -0.51218  -0.33707
  40   39316.5    254.3   0.109612748   0.91783   0.14206  -0.94102  -0.11012
  41   39468.9    253.4   0.198151444   1.65279  -0.18589   1.23213  -0.31637
  42   39789.5    251.3   0.025978550   0.21494   0.14493   0.29325  -0.32854
  43   39941.1    250.4   0.043468368   0.35829  -0.06070  -0.31414   0.50588
  44   40126.8    249.2   0.063250460   0.51893   0.25983   0.21176   0.63763

FINAL SINGLE POINT ENERGY     -5521.209330850987

DIPOLE MOMENT
-------------
                                X             Y             Z
Electronic contribution:    106.91422     -56.98615     128.45719
Nuclear contribution   :   -105.72811      58.88337    -131.09717
                        -----------------------------------------
Total Dipole Moment    :      1.18611       1.89723      -2.63998
                        -----------------------------------------
Magnitude (a.u.)       :      3.46061
Magnitude (Debye)      :      8.79618

Rotational constants in cm-1:     0.001239     0.000159     0.000148
Rotational constants in MHz :    37.143185     4.753745     4.435187

                             ****ORCA TERMINATED NORMALLY****
TOTAL RUN TIME: 0 days 0 hours 10 minutes 52 seconds 482 msec
