                         Program Version 4.2.0 -  RELEASE  -
|  1> # ORCA input file
|  2> # SCF done       -179.693972457120          0.000878495490
|  3> ! CAM-B3LYP def2-SVP def2/J RIJCOSX Grid4 TightSCF
|  4> %maxcore 5000
|  5> %tddft
|  6>     Mode sTDDFT
|  7>     Ethresh 5.0
|  8>     maxcore 5000
|  9> end
| 10>
| 11> %pal
| 12>   nprocs 6
| 13>   end
| 14> * xyz 0 1
| 15>    C       -3.83307         5.46575        -4.16945
| 16>    C       -2.72090         4.83048        -4.56809
| 17>    C       -2.06631         4.91818        -5.83964
| 18>    C       -0.95297         4.15552        -5.94827
| 19>    C       -0.63729         3.40933        -4.78311
| 20>    S       -1.82245         3.71229        -3.52951
| 21>    C        0.43425         2.55916        -4.59975
| 22>    C        1.45303         2.23868        -5.52196
| 23>    C        2.38823         1.37254        -5.03227
| 24>    C        2.16086         0.96113        -3.70460
| 25>    S        0.70060         1.71168        -3.08925
| 26>    C        2.95473         0.11079        -2.95469
| 27>    C        2.70092        -0.26323        -1.64745
| 28>    C        3.52809        -1.07334        -0.88783
| 29>    C        3.33394        -1.46779         0.44922
| 30>    C        4.34221        -2.23485         0.96291
| 31>    C        5.38805        -2.48338         0.05224
| 32>    S        5.03810        -1.73115        -1.48996
| 33>    C        6.56918        -3.16707         0.27244
| 34>    C        7.01426        -3.76839         1.47336
| 35>    C        8.26311        -4.29831         1.40597
| 36>    C        8.88525        -4.16240         0.13159
| 37>    S        7.78148        -3.34605        -0.97828
| 38>    C       10.09307        -4.62207        -0.27914
| 39>    C       11.09074        -5.20082         0.60243
| 40>    C       11.78478        -6.38372         0.27118
| 41>    C       11.40869        -7.26331        -0.84329
| 42>    O       12.15934        -8.10589        -1.29727
| 43>    C       10.04554        -7.08899        -1.43305
| 44>    C        9.88823        -6.84482        -2.76189
| 45>    S        8.23857        -6.67361        -3.21742
| 46>    C        7.73720        -7.01026        -1.62090
| 47>    C        8.78432        -7.22411        -0.76244
| 48>    C        8.60569        -7.55141         0.66245
| 49>    O        9.48207        -7.41930         1.49315
| 50>    C        7.25497        -8.05319         1.04012
| 51>    C        6.65612        -7.56207         2.19640
| 52>    C        5.40901        -8.01600         2.58255
| 53>    C        4.76256        -8.98698         1.83498
| 54>    C        5.36825        -9.50481         0.70166
| 55>    C        6.60675        -9.03813         0.29954
| 56>    C       12.84259        -6.79815         1.08466
| 57>    C       13.20476        -6.09920         2.20992
| 58>    C       12.49123        -4.95077         2.58880
| 59>    C       11.43271        -4.53552         1.76948
| 60>    C       12.78138        -4.17979         3.75939
| 61>    C       13.93378        -4.11344         4.48845
| 62>    C       14.11651        -3.29594         5.63899
| 63>    C       15.38042        -3.29802         6.14130
| 64>    C       16.28190        -4.10888         5.41905
| 65>    S       15.45324        -4.91214         4.10343
| 66>    C       17.64190        -4.25981         5.63088
| 67>    C       18.42995        -3.67470         6.64004
| 68>    C       19.76167        -3.96974         6.54004
| 69>    C       20.09063        -4.79770         5.45150
| 70>    S       18.64138        -5.21850         4.56119
| 71>    C       21.35982        -5.21050         5.07857
| 72>    C       21.64437        -6.00253         3.98239
| 73>    C       22.92196        -6.35704         3.58052
| 74>    C       23.27044        -7.14972         2.47051
| 75>    C       24.61551        -7.31264         2.29482
| 76>    C       25.40053        -6.65113         3.26220
| 77>    S       24.36990        -5.82365         4.41170
| 78>    C       26.77743        -6.60193         3.35165
| 79>    C       27.71975        -7.21567         2.48643
| 80>    C       29.01306        -6.98208         2.81257
| 81>    C       29.19063        -6.15949         3.97215
| 82>    S       27.60213        -5.71088         4.61337
| 83>    C       30.34306        -5.75733         4.52877
| 84>    H       -4.34780         6.13754        -4.83341
| 85>    H       -4.24194         5.32806        -3.18549
| 86>    H       -2.45822         5.54970        -6.61695
| 87>    H       -0.34020         4.10182        -6.83073
| 88>    H        1.47431         2.65198        -6.51420
| 89>    H        3.23791         1.01865        -5.58961
| 90>    H        3.84563        -0.27596        -3.43410
| 91>    H        1.80359         0.10988        -1.16979
| 92>    H        2.45908        -1.16876         0.99966
| 93>    H        4.35926        -2.61639         1.96803
| 94>    H        6.39754        -3.78335         2.35461
| 95>    H        8.76385        -4.80758         2.20942
| 96>    H       10.35928        -4.51614        -1.32139
| 97>    H       10.66154        -6.71958        -3.49378
| 98>    H        6.69075        -7.00797        -1.38684
| 99>    H        7.17649        -6.81562         2.77710
|100>    H        4.94286        -7.61921         3.47237
|101>    H        3.79164        -9.34779         2.14077
|102>    H        4.87423       -10.27616         0.12944
|103>    H        7.08527        -9.45665        -0.57382
|104>    H       13.35820        -7.70723         0.81258
|105>    H       14.01192        -6.46185         2.82583
|106>    H       10.90727        -3.62417         2.01954
|107>    H       11.98808        -3.51902         4.08920
|108>    H       13.30082        -2.72652         6.04868
|109>    H       15.69122        -2.72701         6.99784
|110>    H       18.00518        -3.05225         7.40687
|111>    H       20.51584        -3.60671         7.21606
|112>    H       22.18449        -4.86499         5.68975
|113>    H       20.82102        -6.36585         3.38014
|114>    H       22.51915        -7.57612         1.82907
|115>    H       25.05515        -7.88430         1.49749
|116>    H       27.40525        -7.81102         1.64760
|117>    H       29.86230        -7.36241         2.27334
|118>    H       31.28763        -6.05069         4.10616
|119>    H       30.36131        -5.13364         5.40345
|120> *
|121>
|122>                          ****END OF INPUT****

CARTESIAN COORDINATES (ANGSTROEM)
---------------------------------
  C     -3.833070    5.465750   -4.169450
  C     -2.720900    4.830480   -4.568090
  C     -2.066310    4.918180   -5.839640
  C     -0.952970    4.155520   -5.948270
  C     -0.637290    3.409330   -4.783110
  S     -1.822450    3.712290   -3.529510
  C      0.434250    2.559160   -4.599750
  C      1.453030    2.238680   -5.521960
  C      2.388230    1.372540   -5.032270
  C      2.160860    0.961130   -3.704600
  S      0.700600    1.711680   -3.089250
  C      2.954730    0.110790   -2.954690
  C      2.700920   -0.263230   -1.647450
  C      3.528090   -1.073340   -0.887830
  C      3.333940   -1.467790    0.449220
  C      4.342210   -2.234850    0.962910
  C      5.388050   -2.483380    0.052240
  S      5.038100   -1.731150   -1.489960
  C      6.569180   -3.167070    0.272440
  C      7.014260   -3.768390    1.473360
  C      8.263110   -4.298310    1.405970
  C      8.885250   -4.162400    0.131590
  S      7.781480   -3.346050   -0.978280
  C     10.093070   -4.622070   -0.279140
  C     11.090740   -5.200820    0.602430
  C     11.784780   -6.383720    0.271180
  C     11.408690   -7.263310   -0.843290
  O     12.159340   -8.105890   -1.297270
  C     10.045540   -7.088990   -1.433050
  C      9.888230   -6.844820   -2.761890
  S      8.238570   -6.673610   -3.217420
  C      7.737200   -7.010260   -1.620900
  C      8.784320   -7.224110   -0.762440
  C      8.605690   -7.551410    0.662450
  O      9.482070   -7.419300    1.493150
  C      7.254970   -8.053190    1.040120
  C      6.656120   -7.562070    2.196400
  C      5.409010   -8.016000    2.582550
  C      4.762560   -8.986980    1.834980
  C      5.368250   -9.504810    0.701660
  C      6.606750   -9.038130    0.299540
  C     12.842590   -6.798150    1.084660
  C     13.204760   -6.099200    2.209920
  C     12.491230   -4.950770    2.588800
  C     11.432710   -4.535520    1.769480
  C     12.781380   -4.179790    3.759390
  C     13.933780   -4.113440    4.488450
  C     14.116510   -3.295940    5.638990
  C     15.380420   -3.298020    6.141300
  C     16.281900   -4.108880    5.419050
  S     15.453240   -4.912140    4.103430
  C     17.641900   -4.259810    5.630880
  C     18.429950   -3.674700    6.640040
  C     19.761670   -3.969740    6.540040
  C     20.090630   -4.797700    5.451500
  S     18.641380   -5.218500    4.561190
  C     21.359820   -5.210500    5.078570
  C     21.644370   -6.002530    3.982390
  C     22.921960   -6.357040    3.580520
  C     23.270440   -7.149720    2.470510
  C     24.615510   -7.312640    2.294820
  C     25.400530   -6.651130    3.262200
  S     24.369900   -5.823650    4.411700
  C     26.777430   -6.601930    3.351650
  C     27.719750   -7.215670    2.486430
  C     29.013060   -6.982080    2.812570
  C     29.190630   -6.159490    3.972150
  S     27.602130   -5.710880    4.613370
  C     30.343060   -5.757330    4.528770
  H     -4.347800    6.137540   -4.833410
  H     -4.241940    5.328060   -3.185490
  H     -2.458220    5.549700   -6.616950
  H     -0.340200    4.101820   -6.830730
  H      1.474310    2.651980   -6.514200
  H      3.237910    1.018650   -5.589610
  H      3.845630   -0.275960   -3.434100
  H      1.803590    0.109880   -1.169790
  H      2.459080   -1.168760    0.999660
  H      4.359260   -2.616390    1.968030
  H      6.397540   -3.783350    2.354610
  H      8.763850   -4.807580    2.209420
  H     10.359280   -4.516140   -1.321390
  H     10.661540   -6.719580   -3.493780
  H      6.690750   -7.007970   -1.386840
  H      7.176490   -6.815620    2.777100
  H      4.942860   -7.619210    3.472370
  H      3.791640   -9.347790    2.140770
  H      4.874230  -10.276160    0.129440
  H      7.085270   -9.456650   -0.573820
  H     13.358200   -7.707230    0.812580
  H     14.011920   -6.461850    2.825830
  H     10.907270   -3.624170    2.019540
  H     11.988080   -3.519020    4.089200
  H     13.300820   -2.726520    6.048680
  H     15.691220   -2.727010    6.997840
  H     18.005180   -3.052250    7.406870
  H     20.515840   -3.606710    7.216060
  H     22.184490   -4.864990    5.689750
  H     20.821020   -6.365850    3.380140
  H     22.519150   -7.576120    1.829070
  H     25.055150   -7.884300    1.497490
  H     27.405250   -7.811020    1.647600
  H     29.862300   -7.362410    2.273340
  H     31.287630   -6.050690    4.106160
  H     30.361310   -5.133640    5.403450

 Total Charge           Charge          ....    0
 Multiplicity           Mult            ....    1
 Number of Electrons    NEL             ....  544
 Basis Dimension        Dim             .... 1182

ORBITAL ENERGIES
----------------

  NO   OCC          E(Eh)            E(eV)
   0   2.0000     -88.963240     -2420.8128
   1   2.0000     -88.938451     -2420.1383
   2   2.0000     -88.938287     -2420.1338
   3   2.0000     -88.938099     -2420.1287
   4   2.0000     -88.937475     -2420.1117
   5   2.0000     -88.936732     -2420.0915
   6   2.0000     -88.935932     -2420.0697
   7   2.0000     -88.934508     -2420.0310
   8   2.0000     -88.932710     -2419.9821
   9   2.0000     -19.200859      -522.4819
  10   2.0000     -19.190724      -522.2061
  11   2.0000     -10.355918      -281.7989
  12   2.0000     -10.346914      -281.5538
  13   2.0000     -10.305171      -280.4179
  14   2.0000     -10.304756      -280.4067
  15   2.0000     -10.303929      -280.3842
  16   2.0000     -10.303759      -280.3795
  17   2.0000     -10.303677      -280.3773
  18   2.0000     -10.302922      -280.3568
  19   2.0000     -10.302418      -280.3431
  20   2.0000     -10.302404      -280.3427
  21   2.0000     -10.302121      -280.3350
  22   2.0000     -10.301597      -280.3207
  23   2.0000     -10.301170      -280.3091
  24   2.0000     -10.300608      -280.2938
  25   2.0000     -10.300468      -280.2900
  26   2.0000     -10.298985      -280.2496
  27   2.0000     -10.298850      -280.2460
  28   2.0000     -10.298509      -280.2367
  29   2.0000     -10.298432      -280.2346
  30   2.0000     -10.296203      -280.1739
  31   2.0000     -10.284719      -279.8614
  32   2.0000     -10.283392      -279.8253
  33   2.0000     -10.283321      -279.8234
  34   2.0000     -10.281796      -279.7819
  35   2.0000     -10.281278      -279.7678
  36   2.0000     -10.280765      -279.7538
  37   2.0000     -10.280384      -279.7435
  38   2.0000     -10.280187      -279.7381
  39   2.0000     -10.279781      -279.7271
  40   2.0000     -10.279601      -279.7222
  41   2.0000     -10.279566      -279.7212
  42   2.0000     -10.278001      -279.6786
  43   2.0000     -10.277744      -279.6716
  44   2.0000     -10.277626      -279.6684
  45   2.0000     -10.276937      -279.6497
  46   2.0000     -10.276847      -279.6472
  47   2.0000     -10.276820      -279.6465
  48   2.0000     -10.276779      -279.6454
  49   2.0000     -10.276571      -279.6397
  50   2.0000     -10.275544      -279.6118
  51   2.0000     -10.275075      -279.5990
  52   2.0000     -10.274369      -279.5798
  53   2.0000     -10.274347      -279.5792
  54   2.0000     -10.274007      -279.5700
  55   2.0000     -10.273298      -279.5507
  56   2.0000     -10.272825      -279.5378
  57   2.0000     -10.272393      -279.5260
  58   2.0000     -10.272313      -279.5238
  59   2.0000     -10.272138      -279.5191
  60   2.0000     -10.271884      -279.5122
  61   2.0000     -10.271656      -279.5060
  62   2.0000     -10.270077      -279.4630
  63   2.0000     -10.265877      -279.3487
  64   2.0000     -10.263882      -279.2944
  65   2.0000     -10.261291      -279.2239
  66   2.0000     -10.260309      -279.1972
  67   2.0000     -10.259370      -279.1716
  68   2.0000     -10.257646      -279.1247
  69   2.0000      -8.059529      -219.3109
  70   2.0000      -8.034749      -218.6366
  71   2.0000      -8.034610      -218.6328
  72   2.0000      -8.034079      -218.6184
  73   2.0000      -8.033777      -218.6102
  74   2.0000      -8.033095      -218.5916
  75   2.0000      -8.032099      -218.5645
  76   2.0000      -8.031180      -218.5395
  77   2.0000      -8.029386      -218.4907
  78   2.0000      -6.028657      -164.0481
  79   2.0000      -6.024220      -163.9274
  80   2.0000      -6.022169      -163.8715
  81   2.0000      -6.004440      -163.3891
  82   2.0000      -6.004304      -163.3854
  83   2.0000      -6.003856      -163.3732
  84   2.0000      -6.003459      -163.3624
  85   2.0000      -6.002786      -163.3441
  86   2.0000      -6.001885      -163.3196
  87   2.0000      -6.000996      -163.2954
  88   2.0000      -6.000422      -163.2798
  89   2.0000      -6.000339      -163.2775
  90   2.0000      -5.999755      -163.2616
  91   2.0000      -5.999516      -163.2551
  92   2.0000      -5.999189      -163.2462
  93   2.0000      -5.998851      -163.2370
  94   2.0000      -5.997977      -163.2133
  95   2.0000      -5.997056      -163.1882
  96   2.0000      -5.995756      -163.1528
  97   2.0000      -5.995555      -163.1473
  98   2.0000      -5.995288      -163.1401
  99   2.0000      -5.994975      -163.1316
 100   2.0000      -5.994738      -163.1251
 101   2.0000      -5.994003      -163.1051
 102   2.0000      -5.992829      -163.0732
 103   2.0000      -5.991767      -163.0443
 104   2.0000      -5.989963      -162.9952
 105   2.0000      -1.118683       -30.4409
 106   2.0000      -1.106516       -30.1098
 107   2.0000      -0.988901       -26.9094
 108   2.0000      -0.988687       -26.9036
 109   2.0000      -0.986996       -26.8575
 110   2.0000      -0.986509       -26.8443
 111   2.0000      -0.985302       -26.8114
 112   2.0000      -0.968111       -26.3436
 113   2.0000      -0.966616       -26.3030
 114   2.0000      -0.963790       -26.2261
 115   2.0000      -0.962298       -26.1855
 116   2.0000      -0.951864       -25.9015
 117   2.0000      -0.947667       -25.7873
 118   2.0000      -0.900880       -24.5142
 119   2.0000      -0.897740       -24.4288
 120   2.0000      -0.889350       -24.2005
 121   2.0000      -0.874278       -23.7903
 122   2.0000      -0.867430       -23.6040
 123   2.0000      -0.864352       -23.5202
 124   2.0000      -0.861395       -23.4397
 125   2.0000      -0.852223       -23.1902
 126   2.0000      -0.842475       -22.9249
 127   2.0000      -0.841891       -22.9090
 128   2.0000      -0.839152       -22.8345
 129   2.0000      -0.837522       -22.7901
 130   2.0000      -0.835712       -22.7409
 131   2.0000      -0.833958       -22.6931
 132   2.0000      -0.832780       -22.6611
 133   2.0000      -0.824240       -22.4287
 134   2.0000      -0.823313       -22.4035
 135   2.0000      -0.819538       -22.3008
 136   2.0000      -0.813817       -22.1451
 137   2.0000      -0.812070       -22.0975
 138   2.0000      -0.810336       -22.0504
 139   2.0000      -0.805463       -21.9178
 140   2.0000      -0.788200       -21.4480
 141   2.0000      -0.784172       -21.3384
 142   2.0000      -0.761297       -20.7160
 143   2.0000      -0.756175       -20.5766
 144   2.0000      -0.736423       -20.0391
 145   2.0000      -0.728819       -19.8322
 146   2.0000      -0.725826       -19.7507
 147   2.0000      -0.711874       -19.3711
 148   2.0000      -0.700676       -19.0664
 149   2.0000      -0.692519       -18.8444
 150   2.0000      -0.691597       -18.8193
 151   2.0000      -0.680719       -18.5233
 152   2.0000      -0.677542       -18.4369
 153   2.0000      -0.674553       -18.3555
 154   2.0000      -0.672164       -18.2905
 155   2.0000      -0.668021       -18.1778
 156   2.0000      -0.666538       -18.1374
 157   2.0000      -0.655113       -17.8265
 158   2.0000      -0.648748       -17.6533
 159   2.0000      -0.636268       -17.3137
 160   2.0000      -0.632275       -17.2051
 161   2.0000      -0.628660       -17.1067
 162   2.0000      -0.626601       -17.0507
 163   2.0000      -0.619541       -16.8586
 164   2.0000      -0.618127       -16.8201
 165   2.0000      -0.616762       -16.7829
 166   2.0000      -0.615109       -16.7380
 167   2.0000      -0.614809       -16.7298
 168   2.0000      -0.606400       -16.5010
 169   2.0000      -0.601010       -16.3543
 170   2.0000      -0.600955       -16.3528
 171   2.0000      -0.599717       -16.3191
 172   2.0000      -0.592830       -16.1317
 173   2.0000      -0.591440       -16.0939
 174   2.0000      -0.587887       -15.9972
 175   2.0000      -0.587270       -15.9804
 176   2.0000      -0.575548       -15.6615
 177   2.0000      -0.567323       -15.4377
 178   2.0000      -0.558911       -15.2087
 179   2.0000      -0.556091       -15.1320
 180   2.0000      -0.551426       -15.0051
 181   2.0000      -0.546443       -14.8695
 182   2.0000      -0.544380       -14.8133
 183   2.0000      -0.540757       -14.7147
 184   2.0000      -0.535919       -14.5831
 185   2.0000      -0.525402       -14.2969
 186   2.0000      -0.520809       -14.1719
 187   2.0000      -0.517635       -14.0856
 188   2.0000      -0.513818       -13.9817
 189   2.0000      -0.513265       -13.9666
 190   2.0000      -0.511381       -13.9154
 191   2.0000      -0.509658       -13.8685
 192   2.0000      -0.509343       -13.8599
 193   2.0000      -0.504789       -13.7360
 194   2.0000      -0.503483       -13.7005
 195   2.0000      -0.500856       -13.6290
 196   2.0000      -0.497277       -13.5316
 197   2.0000      -0.496333       -13.5059
 198   2.0000      -0.492870       -13.4117
 199   2.0000      -0.491968       -13.3871
 200   2.0000      -0.491062       -13.3625
 201   2.0000      -0.490010       -13.3339
 202   2.0000      -0.488964       -13.3054
 203   2.0000      -0.488188       -13.2843
 204   2.0000      -0.487682       -13.2705
 205   2.0000      -0.486382       -13.2351
 206   2.0000      -0.485373       -13.2077
 207   2.0000      -0.483344       -13.1525
 208   2.0000      -0.481173       -13.0934
 209   2.0000      -0.476860       -12.9760
 210   2.0000      -0.476531       -12.9671
 211   2.0000      -0.474616       -12.9149
 212   2.0000      -0.471962       -12.8427
 213   2.0000      -0.465376       -12.6635
 214   2.0000      -0.462421       -12.5831
 215   2.0000      -0.461684       -12.5631
 216   2.0000      -0.460913       -12.5421
 217   2.0000      -0.459313       -12.4986
 218   2.0000      -0.458718       -12.4823
 219   2.0000      -0.456015       -12.4088
 220   2.0000      -0.454039       -12.3550
 221   2.0000      -0.452846       -12.3226
 222   2.0000      -0.450229       -12.2513
 223   2.0000      -0.449180       -12.2228
 224   2.0000      -0.447915       -12.1884
 225   2.0000      -0.442634       -12.0447
 226   2.0000      -0.440442       -11.9850
 227   2.0000      -0.435695       -11.8559
 228   2.0000      -0.432679       -11.7738
 229   2.0000      -0.431056       -11.7296
 230   2.0000      -0.425980       -11.5915
 231   2.0000      -0.425488       -11.5781
 232   2.0000      -0.423468       -11.5231
 233   2.0000      -0.422910       -11.5080
 234   2.0000      -0.419743       -11.4218
 235   2.0000      -0.418170       -11.3790
 236   2.0000      -0.416501       -11.3336
 237   2.0000      -0.412377       -11.2214
 238   2.0000      -0.410922       -11.1818
 239   2.0000      -0.402443       -10.9510
 240   2.0000      -0.401798       -10.9335
 241   2.0000      -0.399974       -10.8838
 242   2.0000      -0.394853       -10.7445
 243   2.0000      -0.392977       -10.6934
 244   2.0000      -0.387537       -10.5454
 245   2.0000      -0.386318       -10.5122
 246   2.0000      -0.377746       -10.2790
 247   2.0000      -0.372314       -10.1312
 248   2.0000      -0.352401        -9.5893
 249   2.0000      -0.344935        -9.3862
 250   2.0000      -0.334825        -9.1110
 251   2.0000      -0.332412        -9.0454
 252   2.0000      -0.331789        -9.0284
 253   2.0000      -0.330375        -8.9900
 254   2.0000      -0.330071        -8.9817
 255   2.0000      -0.328897        -8.9497
 256   2.0000      -0.325514        -8.8577
 257   2.0000      -0.323045        -8.7905
 258   2.0000      -0.321035        -8.7358
 259   2.0000      -0.320124        -8.7110
 260   2.0000      -0.318134        -8.6569
 261   2.0000      -0.316132        -8.6024
 262   2.0000      -0.313951        -8.5430
 263   2.0000      -0.310881        -8.4595
 264   2.0000      -0.307903        -8.3785
 265   2.0000      -0.301852        -8.2138
 266   2.0000      -0.286977        -7.8090
 267   2.0000      -0.280722        -7.6388
 268   2.0000      -0.239954        -6.5295
 269   2.0000      -0.238627        -6.4934
 270   2.0000      -0.188689        -5.1345
 271   2.0000      -0.187559        -5.1037
 272   0.0000      -0.087540        -2.3821
 273   0.0000      -0.082341        -2.2406
 274   0.0000      -0.042291        -1.1508
 275   0.0000      -0.031318        -0.8522
 276   0.0000      -0.021229        -0.5777

MULLIKEN ATOMIC CHARGES
-----------------------
   0 C :   -0.032885
   1 C :   -0.063265
   2 C :    0.048429
   3 C :    0.027640
   4 C :   -0.068020
   5 S :    0.077714
   6 C :   -0.044135
   7 C :    0.018694
   8 C :    0.031312
   9 C :   -0.024501
  10 S :    0.072899
  11 C :   -0.016063
  12 C :   -0.014575
  13 C :   -0.024309
  14 C :    0.030171
  15 C :    0.018638
  16 C :   -0.044625
  17 S :    0.068362
  18 C :   -0.053276
  19 C :    0.014255
  20 C :    0.034307
  21 C :   -0.085300
  22 S :    0.076542
  23 C :    0.037172
  24 C :    0.070894
  25 C :    0.054044
  26 C :    0.092291
  27 O :   -0.177254
  28 C :   -0.052311
  29 C :   -0.106738
  30 S :    0.144646
  31 C :   -0.123858
  32 C :    0.067431
  33 C :    0.134535
  34 O :   -0.175147
  35 C :   -0.027036
  36 C :    0.024785
  37 C :    0.022444
  38 C :    0.032925
  39 C :    0.013577
  40 C :   -0.002004
  41 C :    0.002674
  42 C :   -0.017030
  43 C :    0.121352
  44 C :   -0.089508
  45 C :   -0.043338
  46 C :   -0.008145
  47 C :    0.029931
  48 C :    0.030268
  49 C :   -0.049107
  50 S :    0.075714
  51 C :   -0.045784
  52 C :    0.017588
  53 C :    0.032243
  54 C :   -0.026400
  55 S :    0.079531
  56 C :   -0.011423
  57 C :   -0.013184
  58 C :   -0.025422
  59 C :    0.032182
  60 C :    0.019522
  61 C :   -0.045354
  62 S :    0.073064
  63 C :   -0.065298
  64 C :    0.027960
  65 C :    0.050623
  66 C :   -0.063920
  67 S :    0.079769
  68 C :   -0.030275
  69 H :    0.018168
  70 H :    0.019766
  71 H :   -0.014076
  72 H :   -0.013161
  73 H :   -0.017910
  74 H :   -0.014933
  75 H :   -0.008045
  76 H :   -0.008255
  77 H :   -0.015201
  78 H :   -0.018537
  79 H :   -0.019022
  80 H :    0.014221
  81 H :   -0.005099
  82 H :    0.030843
  83 H :    0.052665
  84 H :   -0.022840
  85 H :   -0.014870
  86 H :   -0.010146
  87 H :   -0.010216
  88 H :   -0.002860
  89 H :   -0.006770
  90 H :   -0.012038
  91 H :   -0.030525
  92 H :   -0.020080
  93 H :   -0.015094
  94 H :   -0.015514
  95 H :   -0.016151
  96 H :   -0.013356
  97 H :   -0.006985
  98 H :   -0.006838
  99 H :   -0.012161
 100 H :   -0.015744
 101 H :   -0.012326
 102 H :   -0.013150
 103 H :    0.018584
 104 H :    0.021019
Sum of atomic charges:   -0.0000000

LOEWDIN ATOMIC CHARGES
----------------------
   0 C :   -0.081206
   1 C :   -0.139206
   2 C :   -0.036169
   3 C :   -0.027239
   4 C :   -0.180850
   5 S :    0.350760
   6 C :   -0.179060
   7 C :   -0.037606
   8 C :   -0.036336
   9 C :   -0.147165
  10 S :    0.368442
  11 C :   -0.064547
  12 C :   -0.064855
  13 C :   -0.146352
  14 C :   -0.038430
  15 C :   -0.037690
  16 C :   -0.182893
  17 S :    0.367787
  18 C :   -0.180835
  19 C :   -0.031454
  20 C :   -0.039678
  21 C :   -0.145710
  22 S :    0.360795
  23 C :   -0.038207
  24 C :   -0.004718
  25 C :   -0.063883
  26 C :    0.087168
  27 O :   -0.146181
  28 C :   -0.069749
  29 C :   -0.165654
  30 S :    0.467392
  31 C :   -0.153127
  32 C :   -0.098253
  33 C :    0.091102
  34 O :   -0.137674
  35 C :   -0.055577
  36 C :    0.004262
  37 C :   -0.023747
  38 C :   -0.012733
  39 C :   -0.025237
  40 C :   -0.010657
  41 C :    0.026779
  42 C :   -0.031018
  43 C :   -0.013667
  44 C :   -0.013637
  45 C :   -0.056659
  46 C :   -0.137814
  47 C :   -0.035707
  48 C :   -0.032850
  49 C :   -0.184927
  50 S :    0.382777
  51 C :   -0.174377
  52 C :   -0.039270
  53 C :   -0.033507
  54 C :   -0.149491
  55 S :    0.375001
  56 C :   -0.058990
  57 C :   -0.065129
  58 C :   -0.143635
  59 C :   -0.036221
  60 C :   -0.035035
  61 C :   -0.179983
  62 S :    0.371131
  63 C :   -0.178279
  64 C :   -0.027211
  65 C :   -0.034035
  66 C :   -0.139527
  67 S :    0.353014
  68 C :   -0.078084
  69 H :    0.027651
  70 H :    0.025237
  71 H :    0.032224
  72 H :    0.031729
  73 H :    0.029907
  74 H :    0.032928
  75 H :    0.027372
  76 H :    0.027895
  77 H :    0.032735
  78 H :    0.029764
  79 H :    0.030137
  80 H :    0.034203
  81 H :    0.030821
  82 H :    0.028569
  83 H :    0.030819
  84 H :    0.028899
  85 H :    0.028536
  86 H :    0.029457
  87 H :    0.029901
  88 H :    0.031207
  89 H :    0.034747
  90 H :    0.015296
  91 H :    0.025974
  92 H :    0.032289
  93 H :    0.031857
  94 H :    0.031274
  95 H :    0.030551
  96 H :    0.033482
  97 H :    0.028062
  98 H :    0.028566
  99 H :    0.034013
 100 H :    0.030595
 101 H :    0.032202
 102 H :    0.032679
 103 H :    0.028026
 104 H :    0.025718

  Mayer bond orders larger than 0.100000
B(  0-C ,  1-C ) :   1.8537 B(  0-C , 69-H ) :   0.9510 B(  0-C , 70-H ) :   0.9419
B(  1-C ,  2-C ) :   1.0870 B(  1-C ,  5-S ) :   1.0094 B(  2-C ,  3-C ) :   1.6447
B(  2-C , 71-H ) :   0.9932 B(  3-C ,  4-C ) :   1.1700 B(  3-C , 72-H ) :   0.9915
B(  4-C ,  5-S ) :   1.0450 B(  4-C ,  6-C ) :   1.5206 B(  6-C ,  7-C ) :   1.1989
B(  6-C , 10-S ) :   1.0420 B(  7-C ,  8-C ) :   1.5622 B(  7-C , 73-H ) :   0.9931
B(  8-C ,  9-C ) :   1.1758 B(  8-C , 74-H ) :   1.0000 B(  9-C , 10-S ) :   1.0408
B(  9-C , 11-C ) :   1.5237 B( 11-C , 12-C ) :   1.2104 B( 11-C , 75-H ) :   0.9714
B( 12-C , 13-C ) :   1.5185 B( 12-C , 76-H ) :   0.9728 B( 13-C , 14-C ) :   1.1815
B( 13-C , 17-S ) :   1.0414 B( 14-C , 15-C ) :   1.5527 B( 14-C , 77-H ) :   0.9998
B( 15-C , 16-C ) :   1.2095 B( 15-C , 78-H ) :   0.9938 B( 16-C , 17-S ) :   1.0435
B( 16-C , 18-C ) :   1.4922 B( 18-C , 19-C ) :   1.1878 B( 18-C , 22-S ) :   1.0473
B( 19-C , 20-C ) :   1.6021 B( 19-C , 79-H ) :   0.9945 B( 20-C , 21-C ) :   1.1468
B( 20-C , 80-H ) :   0.9756 B( 21-C , 22-S ) :   1.0218 B( 21-C , 23-C ) :   1.6882
B( 23-C , 24-C ) :   1.0408 B( 23-C , 81-H ) :   0.9207 B( 24-C , 25-C ) :   1.3007
B( 24-C , 44-C ) :   1.3982 B( 25-C , 26-C ) :   0.9589 B( 25-C , 41-C ) :   1.3683
B( 26-C , 27-O ) :   2.2150 B( 26-C , 28-C ) :   0.9087 B( 28-C , 29-C ) :   1.6010
B( 28-C , 32-C ) :   1.2439 B( 29-C , 30-S ) :   1.1600 B( 29-C , 82-H ) :   0.9677
B( 30-S , 31-C ) :   1.2050 B( 31-C , 32-C ) :   1.5174 B( 31-C , 83-H ) :   0.9441
B( 32-C , 33-C ) :   0.9403 B( 33-C , 34-O ) :   2.1698 B( 33-C , 35-C ) :   0.9417
B( 35-C , 36-C ) :   1.3968 B( 35-C , 40-C ) :   1.3816 B( 36-C , 37-C ) :   1.3775
B( 36-C , 84-H ) :   0.9959 B( 37-C , 38-C ) :   1.3810 B( 37-C , 85-H ) :   0.9923
B( 38-C , 39-C ) :   1.3935 B( 38-C , 86-H ) :   0.9926 B( 39-C , 40-C ) :   1.3840
B( 39-C , 87-H ) :   0.9912 B( 40-C , 88-H ) :   0.9952 B( 41-C , 42-C ) :   1.3961
B( 41-C , 89-H ) :   0.9891 B( 42-C , 43-C ) :   1.3078 B( 42-C , 90-H ) :   0.9783
B( 43-C , 44-C ) :   1.2889 B( 43-C , 45-C ) :   1.0874 B( 44-C , 91-H ) :   1.0018
B( 45-C , 46-C ) :   1.6115 B( 45-C , 92-H ) :   0.9692 B( 46-C , 47-C ) :   1.1294
B( 46-C , 50-S ) :   1.0320 B( 47-C , 48-C ) :   1.5934 B( 47-C , 93-H ) :   0.9989
B( 48-C , 49-C ) :   1.1909 B( 48-C , 94-H ) :   0.9938 B( 49-C , 50-S ) :   1.0398
B( 49-C , 51-C ) :   1.4851 B( 51-C , 52-C ) :   1.2138 B( 51-C , 55-S ) :   1.0519
B( 52-C , 53-C ) :   1.5469 B( 52-C , 95-H ) :   0.9942 B( 53-C , 54-C ) :   1.1857
B( 53-C , 96-H ) :   0.9998 B( 54-C , 55-S ) :   1.0409 B( 54-C , 56-C ) :   1.5132
B( 56-C , 57-C ) :   1.2181 B( 56-C , 97-H ) :   0.9712 B( 57-C , 58-C ) :   1.5165
B( 57-C , 98-H ) :   0.9723 B( 58-C , 59-C ) :   1.1785 B( 58-C , 62-S ) :   1.0440
B( 59-C , 60-C ) :   1.5597 B( 59-C , 99-H ) :   1.0001 B( 60-C , 61-C ) :   1.2013
B( 60-C ,100-H ) :   0.9934 B( 61-C , 62-S ) :   1.0426 B( 61-C , 63-C ) :   1.5172
B( 63-C , 64-C ) :   1.1689 B( 63-C , 67-S ) :   1.0479 B( 64-C , 65-C ) :   1.6449
B( 64-C ,101-H ) :   0.9921 B( 65-C , 66-C ) :   1.0863 B( 65-C ,102-H ) :   0.9935
B( 66-C , 67-S ) :   1.0094 B( 66-C , 68-C ) :   1.8532 B( 68-C ,103-H ) :   0.9511
B( 68-C ,104-H ) :   0.9424

-----------------------------------------------------------------------------
         ABSORPTION SPECTRUM VIA TRANSITION ELECTRIC DIPOLE MOMENTS
-----------------------------------------------------------------------------
State   Energy  Wavelength   fosc         T2         TX        TY        TZ
        (cm-1)    (nm)                  (au**2)     (au)      (au)      (au)
-----------------------------------------------------------------------------
   0   10464.2    955.6   3.291516501 103.55370   9.50050  -3.17859   1.78628
   1   11826.8    845.5   0.501498760  13.95973  -0.54481   3.07073  -2.05756
   2   14392.7    694.8   0.035568855   0.81359  -0.47470   0.58460  -0.49648
   3   15165.1    659.4   0.059362065   1.28866   0.97265  -0.47517  -0.34180
   4   18263.6    547.5   0.002259930   0.04074  -0.10658   0.07652   0.15337
   5   18859.3    530.2   0.000857802   0.01497   0.08144  -0.09119  -0.00511
   6   21046.3    475.1   0.004349262   0.06803   0.01476  -0.25713   0.04120
   7   21915.7    456.3   0.213758038   3.21102  -0.28883   0.82091   1.56643
   8   23144.9    432.1   0.039429491   0.56084   0.26276  -0.00026  -0.70128
   9   24442.3    409.1   0.006085827   0.08197  -0.02575  -0.28470  -0.01584
  10   24844.6    402.5   0.012872533   0.17057   0.17293   0.23552  -0.29189
  11   25872.1    386.5   0.010727650   0.13650   0.13670  -0.27936  -0.19945
  12   25989.4    384.8   0.000919387   0.01165   0.09805  -0.04188  -0.01670
  13   26758.1    373.7   0.005449040   0.06704   0.15266  -0.15388  -0.14162
  14   27207.8    367.5   0.010242182   0.12393   0.15921  -0.27974   0.14257
  15   27412.7    364.8   0.001236420   0.01485   0.06552   0.08322  -0.06025
  16   29561.4    338.3   0.107817989   1.20072  -0.26087   0.50770   0.93537
  17   30148.6    331.7   0.352137400   3.84521   0.68179   1.10255   1.47131
  18   30548.5    327.3   0.004621328   0.04980  -0.21420   0.04254  -0.04595
  19   30947.2    323.1   0.041923785   0.44598  -0.62383  -0.12390  -0.20362
  20   31168.9    320.8   0.119887513   1.26628   0.92220  -0.41148  -0.49650
  21   31378.4    318.7   0.179899276   1.88745  -0.64176  -0.70848  -0.98674
  22   31536.5    317.1   0.071591334   0.74735  -0.54652  -0.27873  -0.60908
  23   31793.6    314.5   0.020832122   0.21571  -0.38378  -0.01395  -0.26120
  24   31916.3    313.3   0.037591984   0.38776   0.62107   0.01642  -0.04197
  25   32088.0    311.6   0.022284123   0.22863   0.27543  -0.06918   0.38468
  26   32281.2    309.8   0.054230627   0.55306   0.60396   0.19976   0.38520
  27   32511.8    307.6   0.064894940   0.65712  -0.79548   0.03826   0.15122
  28   32653.0    306.3   0.012708737   0.12813  -0.24893   0.13709   0.21765
  29   32800.9    304.9   0.019756014   0.19828  -0.08849   0.24562   0.36073
  30   33104.8    302.1   0.065875037   0.65510   0.03762  -0.39256  -0.70681
  31   33454.1    298.9   0.009520314   0.09369   0.00945   0.14475   0.26953
  32   33623.2    297.4   0.049092598   0.48068  -0.10789   0.33150   0.59929
  33   33687.0    296.9   0.007415371   0.07247  -0.15771   0.19895   0.08952
  34   34080.6    293.4   0.044346967   0.42838  -0.07782  -0.18333  -0.62347
  35   34453.6    290.2   0.053401413   0.51026  -0.46695  -0.25008  -0.47925
  36   34819.0    287.2   0.011069754   0.10466  -0.13734  -0.24860  -0.15492
  37   34896.2    286.6   0.039162299   0.36946   0.37735  -0.05003  -0.47388
  38   35308.0    283.2   0.007805244   0.07278   0.10199  -0.09690   0.23018
  39   35491.0    281.8   0.005315951   0.04931  -0.00248  -0.01352  -0.22163
  40   35680.7    280.3   0.103693160   0.95674   0.42952  -0.02181  -0.87851
  41   35822.6    279.2   0.036916685   0.33927  -0.45440   0.35755   0.07033
  42   36009.5    277.7   0.020026390   0.18309   0.35189  -0.24342   0.00308
  43   36160.8    276.5   0.002650609   0.02413   0.03259  -0.01338  -0.15130
  44   36297.1    275.5   0.017381305   0.15765   0.31755   0.19820   0.13239
  45   36481.6    274.1   0.034395753   0.31039  -0.31461  -0.05904  -0.45599
  46   36548.2    273.6   0.008025912   0.07229   0.24831   0.06414  -0.08075
  47   36809.3    271.7   0.048666449   0.43526  -0.33075   0.35843  -0.44428
  48   37012.4    270.2   0.055677999   0.49524   0.59015  -0.12653  -0.36187
  49   37297.6    268.1   0.004689644   0.04139  -0.18374   0.07646   0.04229
  50   37451.9    267.0   0.063040081   0.55414   0.61336  -0.08793   0.41255
  51   37623.8    265.8   0.012704865   0.11117  -0.02778   0.32235   0.08056
  52   37949.9    263.5   0.068507853   0.59430   0.48338  -0.59617   0.07228
  53   38218.0    261.7   0.006477982   0.05580   0.17810  -0.15164  -0.03294
  54   38519.1    259.6   0.067218427   0.57450  -0.73095   0.12791  -0.15442
  55   38774.3    257.9   0.045584443   0.38703   0.49258   0.14134   0.35274
  56   38990.7    256.5   0.035078565   0.29618   0.16013  -0.39863  -0.33411
  57   39085.7    255.8   0.003930824   0.03311  -0.06290  -0.09111  -0.14439
  58   39474.9    253.3   0.011084189   0.09244   0.26656  -0.12455  -0.07661
  59   39606.7    252.5   0.006685068   0.05557  -0.20391   0.06554   0.09845
  60   39724.6    251.7   0.007372383   0.06110  -0.23463  -0.07662  -0.01327
  61   39799.5    251.3   0.016023674   0.13254  -0.31398   0.02458   0.18265
  62   40054.7    249.7   0.049192655   0.40432   0.62810  -0.00715  -0.09877
  63   40255.8    248.4   0.028906109   0.23639  -0.47102  -0.06744  -0.09993
  64   40321.7    248.0   0.010430560   0.08516   0.06296   0.21191   0.19050

FINAL SINGLE POINT ENERGY     -5961.680190312481

DIPOLE MOMENT
-------------
                                X             Y             Z
Electronic contribution:      6.13410      -2.20125      -5.30946
Nuclear contribution   :     -6.73215       2.85483       5.18972
                        -----------------------------------------
Total Dipole Moment    :     -0.59806       0.65358      -0.11974
                        -----------------------------------------
Magnitude (a.u.)       :      0.89397
Magnitude (Debye)      :      2.27229

Rotational constants in cm-1:     0.001383     0.000162     0.000155
Rotational constants in MHz :    41.475349     4.848355     4.640616

                             ****ORCA TERMINATED NORMALLY****
TOTAL RUN TIME: 0 days 0 hours 16 minutes 36 seconds 705 msec
