                         Program Version 4.2.0 -  RELEASE  -
|  1> # ORCA input file
|  2> # SCF done       -150.199595393656          0.000503667661
|  3> ! CAM-B3LYP def2-SVP def2/J RIJCOSX Grid4 TightSCF
|  4> %maxcore 5000
|  5> %tddft
|  6>     Mode sTDDFT
|  7>     Ethresh 5.0
|  8>     maxcore 5000
|  9> end
| 10>
| 11> %pal
| 12>   nprocs 6
| 13>   end
| 14> * xyz 0 1
| 15>    C        1.11012         0.20325        -0.52473
| 16>    C        0.09250         1.10960        -0.45908
| 17>    C        0.14262         2.56089        -0.17203
| 18>    O        1.10373         3.19801         0.18592
| 19>    O       -1.06608         3.10380        -0.35861
| 20>    C       -1.17450         4.49604        -0.10914
| 21>    C       -1.20800         0.60758        -0.70195
| 22>    N       -2.24893         0.16832        -0.89809
| 23>    C        2.51178         0.33160        -0.36525
| 24>    S        3.46254        -1.12223        -0.60440
| 25>    C        4.94762        -0.29175        -0.28370
| 26>    C        4.69581         1.05914        -0.01390
| 27>    C        3.33565         1.39536        -0.05831
| 28>    C        5.68169         2.03792         0.21235
| 29>    N        6.44273         2.88202         0.36579
| 30>    C        6.16525        -1.01738        -0.34244
| 31>    C        7.36154        -0.56470         0.11316
| 32>    C        8.62347        -1.21307         0.07140
| 33>    N        9.03967        -2.27207        -0.70463
| 34>    C        8.30587        -3.00714        -1.70567
| 35>    C        7.61700        -4.23661        -1.11523
| 36>    C       10.39616        -2.59887        -0.46808
| 37>    O       10.97285        -3.49410        -1.04568
| 38>    C       10.81877        -1.65113         0.53550
| 39>    C        9.71517        -0.82003         0.84157
| 40>    C       10.13193         0.11107         1.86390
| 41>    O        9.55993         1.00367         2.44773
| 42>    N       11.48848        -0.22681         2.10836
| 43>    C       12.25602         0.56518         3.03737
| 44>    C       12.10646         0.06145         4.47233
| 45>    C       11.90179        -1.27573         1.32330
| 46>    C       13.18525        -1.89231         1.25344
| 47>    C       14.14564        -1.89144         2.19713
| 48>    N       15.37691        -2.49770         2.05512
| 49>    C       16.19908        -2.82491         3.11813
| 50>    C       15.83062        -2.59790         4.53272
| 51>    C       17.33763        -3.39126         2.62083
| 52>    C       17.24926        -3.42602         1.18323
| 53>    C       15.98831        -2.83974         0.79750
| 54>    O       15.50156        -2.61181        -0.28060
| 55>    C       18.37473        -4.01230         0.68559
| 56>    C       18.74386        -4.29470        -0.71619
| 57>    N       19.17591        -4.37433         1.75513
| 58>    C       18.58818        -3.98717         3.00828
| 59>    O       19.13462        -4.12000         4.07679
| 60>    C       20.42232        -4.94388         1.63993
| 61>    C       20.95788        -5.78031         2.54918
| 62>    C       20.16642        -6.37990         3.67607
| 63>    O       19.05791        -6.82793         3.53060
| 64>    O       20.88170        -6.43361         4.78928
| 65>    C       20.22861        -6.97446         5.92852
| 66>    C       22.29025        -6.21940         2.42449
| 67>    N       23.37090        -6.58935         2.32405
| 68>    H        0.79683        -0.81130        -0.75591
| 69>    H       -0.53951         5.05579        -0.79942
| 70>    H       -0.86742         4.72361         0.91394
| 71>    H       -2.22041         4.74774        -0.26169
| 72>    H        2.96510         2.38686         0.12891
| 73>    H        6.06717        -2.01542        -0.74150
| 74>    H        7.39961         0.39107         0.62015
| 75>    H        9.04432        -3.34021        -2.44191
| 76>    H        7.59590        -2.33948        -2.19824
| 77>    H        8.36838        -4.92517        -0.73743
| 78>    H        7.03734        -4.74154        -1.88321
| 79>    H        6.95705        -3.96745        -0.29292
| 80>    H       11.85464         1.58217         2.98344
| 81>    H       13.30022         0.58102         2.71689
| 82>    H       11.07135         0.16979         4.78541
| 83>    H       12.73320         0.64742         5.13945
| 84>    H       12.37836        -0.98904         4.55778
| 85>    H       13.34203        -2.44765         0.33908
| 86>    H       13.99716        -1.44182         3.16687
| 87>    H       15.71358        -1.53374         4.74174
| 88>    H       16.61978        -2.99324         5.16636
| 89>    H       14.89336        -3.09987         4.77338
| 90>    H       17.91846        -4.01388        -1.36458
| 91>    H       18.96685        -5.35342        -0.84727
| 92>    H       19.62831        -3.72575        -1.00614
| 93>    H       20.99649        -4.64450         0.77041
| 94>    H       20.99131        -7.07362         6.69646
| 95>    H       19.78937        -7.94528         5.68878
| 96>    H       19.43906        -6.29509         6.25559
| 97> *
| 98>
| 99>                          ****END OF INPUT****

CARTESIAN COORDINATES (ANGSTROEM)
---------------------------------
  C      1.110120    0.203250   -0.524730
  C      0.092500    1.109600   -0.459080
  C      0.142620    2.560890   -0.172030
  O      1.103730    3.198010    0.185920
  O     -1.066080    3.103800   -0.358610
  C     -1.174500    4.496040   -0.109140
  C     -1.208000    0.607580   -0.701950
  N     -2.248930    0.168320   -0.898090
  C      2.511780    0.331600   -0.365250
  S      3.462540   -1.122230   -0.604400
  C      4.947620   -0.291750   -0.283700
  C      4.695810    1.059140   -0.013900
  C      3.335650    1.395360   -0.058310
  C      5.681690    2.037920    0.212350
  N      6.442730    2.882020    0.365790
  C      6.165250   -1.017380   -0.342440
  C      7.361540   -0.564700    0.113160
  C      8.623470   -1.213070    0.071400
  N      9.039670   -2.272070   -0.704630
  C      8.305870   -3.007140   -1.705670
  C      7.617000   -4.236610   -1.115230
  C     10.396160   -2.598870   -0.468080
  O     10.972850   -3.494100   -1.045680
  C     10.818770   -1.651130    0.535500
  C      9.715170   -0.820030    0.841570
  C     10.131930    0.111070    1.863900
  O      9.559930    1.003670    2.447730
  N     11.488480   -0.226810    2.108360
  C     12.256020    0.565180    3.037370
  C     12.106460    0.061450    4.472330
  C     11.901790   -1.275730    1.323300
  C     13.185250   -1.892310    1.253440
  C     14.145640   -1.891440    2.197130
  N     15.376910   -2.497700    2.055120
  C     16.199080   -2.824910    3.118130
  C     15.830620   -2.597900    4.532720
  C     17.337630   -3.391260    2.620830
  C     17.249260   -3.426020    1.183230
  C     15.988310   -2.839740    0.797500
  O     15.501560   -2.611810   -0.280600
  C     18.374730   -4.012300    0.685590
  C     18.743860   -4.294700   -0.716190
  N     19.175910   -4.374330    1.755130
  C     18.588180   -3.987170    3.008280
  O     19.134620   -4.120000    4.076790
  C     20.422320   -4.943880    1.639930
  C     20.957880   -5.780310    2.549180
  C     20.166420   -6.379900    3.676070
  O     19.057910   -6.827930    3.530600
  O     20.881700   -6.433610    4.789280
  C     20.228610   -6.974460    5.928520
  C     22.290250   -6.219400    2.424490
  N     23.370900   -6.589350    2.324050
  H      0.796830   -0.811300   -0.755910
  H     -0.539510    5.055790   -0.799420
  H     -0.867420    4.723610    0.913940
  H     -2.220410    4.747740   -0.261690
  H      2.965100    2.386860    0.128910
  H      6.067170   -2.015420   -0.741500
  H      7.399610    0.391070    0.620150
  H      9.044320   -3.340210   -2.441910
  H      7.595900   -2.339480   -2.198240
  H      8.368380   -4.925170   -0.737430
  H      7.037340   -4.741540   -1.883210
  H      6.957050   -3.967450   -0.292920
  H     11.854640    1.582170    2.983440
  H     13.300220    0.581020    2.716890
  H     11.071350    0.169790    4.785410
  H     12.733200    0.647420    5.139450
  H     12.378360   -0.989040    4.557780
  H     13.342030   -2.447650    0.339080
  H     13.997160   -1.441820    3.166870
  H     15.713580   -1.533740    4.741740
  H     16.619780   -2.993240    5.166360
  H     14.893360   -3.099870    4.773380
  H     17.918460   -4.013880   -1.364580
  H     18.966850   -5.353420   -0.847270
  H     19.628310   -3.725750   -1.006140
  H     20.996490   -4.644500    0.770410
  H     20.991310   -7.073620    6.696460
  H     19.789370   -7.945280    5.688780
  H     19.439060   -6.295090    6.255590

 Total Charge           Charge          ....    0
 Multiplicity           Mult            ....    1
 Number of Electrons    NEL             ....  380
 Basis Dimension        Dim             ....  891

ORBITAL ENERGIES
----------------

  NO   OCC          E(Eh)            E(eV)
   0   2.0000     -88.985727     -2421.4247
   1   2.0000     -19.270096      -524.3660
   2   2.0000     -19.264626      -524.2171
   3   2.0000     -19.222445      -523.0693
   4   2.0000     -19.221005      -523.0301
   5   2.0000     -19.220276      -523.0103
   6   2.0000     -19.206629      -522.6390
   7   2.0000     -19.197060      -522.3785
   8   2.0000     -19.185648      -522.0680
   9   2.0000     -14.494681      -394.4203
  10   2.0000     -14.494146      -394.4058
  11   2.0000     -14.459152      -393.4535
  12   2.0000     -14.453415      -393.2974
  13   2.0000     -14.408979      -392.0882
  14   2.0000     -14.405946      -392.0057
  15   2.0000     -14.398092      -391.7920
  16   2.0000     -10.419228      -283.5216
  17   2.0000     -10.411709      -283.3170
  18   2.0000     -10.406859      -283.1850
  19   2.0000     -10.406047      -283.1629
  20   2.0000     -10.378910      -282.4245
  21   2.0000     -10.371003      -282.2093
  22   2.0000     -10.366804      -282.0951
  23   2.0000     -10.365823      -282.0684
  24   2.0000     -10.359833      -281.9054
  25   2.0000     -10.348698      -281.6024
  26   2.0000     -10.346969      -281.5553
  27   2.0000     -10.344505      -281.4883
  28   2.0000     -10.340831      -281.3883
  29   2.0000     -10.336553      -281.2719
  30   2.0000     -10.329029      -281.0672
  31   2.0000     -10.327396      -281.0227
  32   2.0000     -10.325951      -280.9834
  33   2.0000     -10.325131      -280.9611
  34   2.0000     -10.323618      -280.9199
  35   2.0000     -10.321941      -280.8743
  36   2.0000     -10.316095      -280.7152
  37   2.0000     -10.309666      -280.5403
  38   2.0000     -10.309458      -280.5346
  39   2.0000     -10.309115      -280.5253
  40   2.0000     -10.307671      -280.4860
  41   2.0000     -10.307068      -280.4696
  42   2.0000     -10.306045      -280.4417
  43   2.0000     -10.303916      -280.3838
  44   2.0000     -10.303455      -280.3713
  45   2.0000     -10.300316      -280.2858
  46   2.0000     -10.294418      -280.1254
  47   2.0000     -10.286919      -279.9213
  48   2.0000     -10.286568      -279.9118
  49   2.0000     -10.273026      -279.5433
  50   2.0000     -10.267228      -279.3855
  51   2.0000     -10.265876      -279.3487
  52   2.0000     -10.260775      -279.2099
  53   2.0000      -8.081563      -219.9105
  54   2.0000      -6.050638      -164.6462
  55   2.0000      -6.046676      -164.5384
  56   2.0000      -6.043847      -164.4614
  57   2.0000      -1.205645       -32.8073
  58   2.0000      -1.199205       -32.6320
  59   2.0000      -1.165294       -31.7092
  60   2.0000      -1.159105       -31.5408
  61   2.0000      -1.136996       -30.9392
  62   2.0000      -1.126222       -30.6461
  63   2.0000      -1.111474       -30.2448
  64   2.0000      -1.102911       -30.0117
  65   2.0000      -1.099294       -29.9133
  66   2.0000      -1.092658       -29.7327
  67   2.0000      -1.066076       -29.0094
  68   2.0000      -1.054986       -28.7076
  69   2.0000      -1.021085       -27.7851
  70   2.0000      -0.993368       -27.0309
  71   2.0000      -0.990464       -26.9519
  72   2.0000      -0.986361       -26.8403
  73   2.0000      -0.966785       -26.3075
  74   2.0000      -0.938378       -25.5346
  75   2.0000      -0.932749       -25.3814
  76   2.0000      -0.927330       -25.2339
  77   2.0000      -0.914566       -24.8866
  78   2.0000      -0.892058       -24.2741
  79   2.0000      -0.889899       -24.2154
  80   2.0000      -0.879461       -23.9313
  81   2.0000      -0.878427       -23.9032
  82   2.0000      -0.877073       -23.8664
  83   2.0000      -0.860703       -23.4209
  84   2.0000      -0.842085       -22.9143
  85   2.0000      -0.829709       -22.5775
  86   2.0000      -0.825496       -22.4629
  87   2.0000      -0.814661       -22.1681
  88   2.0000      -0.795712       -21.6524
  89   2.0000      -0.787188       -21.4205
  90   2.0000      -0.770681       -20.9713
  91   2.0000      -0.765220       -20.8227
  92   2.0000      -0.760280       -20.6883
  93   2.0000      -0.750686       -20.4272
  94   2.0000      -0.728813       -19.8320
  95   2.0000      -0.721224       -19.6255
  96   2.0000      -0.714368       -19.4389
  97   2.0000      -0.710735       -19.3401
  98   2.0000      -0.690669       -18.7941
  99   2.0000      -0.690248       -18.7826
 100   2.0000      -0.684826       -18.6351
 101   2.0000      -0.680926       -18.5289
 102   2.0000      -0.665070       -18.0975
 103   2.0000      -0.658258       -17.9121
 104   2.0000      -0.649016       -17.6606
 105   2.0000      -0.641250       -17.4493
 106   2.0000      -0.639742       -17.4083
 107   2.0000      -0.626525       -17.0486
 108   2.0000      -0.621208       -16.9039
 109   2.0000      -0.613537       -16.6952
 110   2.0000      -0.604812       -16.4578
 111   2.0000      -0.596608       -16.2345
 112   2.0000      -0.595452       -16.2031
 113   2.0000      -0.590152       -16.0589
 114   2.0000      -0.587695       -15.9920
 115   2.0000      -0.583559       -15.8794
 116   2.0000      -0.581708       -15.8291
 117   2.0000      -0.580293       -15.7906
 118   2.0000      -0.577286       -15.7087
 119   2.0000      -0.569419       -15.4947
 120   2.0000      -0.562660       -15.3108
 121   2.0000      -0.559765       -15.2320
 122   2.0000      -0.555843       -15.1253
 123   2.0000      -0.553421       -15.0594
 124   2.0000      -0.549569       -14.9545
 125   2.0000      -0.545921       -14.8553
 126   2.0000      -0.542791       -14.7701
 127   2.0000      -0.538910       -14.6645
 128   2.0000      -0.534055       -14.5324
 129   2.0000      -0.527721       -14.3600
 130   2.0000      -0.526598       -14.3295
 131   2.0000      -0.524920       -14.2838
 132   2.0000      -0.522344       -14.2137
 133   2.0000      -0.521810       -14.1992
 134   2.0000      -0.520727       -14.1697
 135   2.0000      -0.519470       -14.1355
 136   2.0000      -0.518321       -14.1042
 137   2.0000      -0.514324       -13.9955
 138   2.0000      -0.510060       -13.8794
 139   2.0000      -0.508919       -13.8484
 140   2.0000      -0.504496       -13.7280
 141   2.0000      -0.501369       -13.6429
 142   2.0000      -0.499170       -13.5831
 143   2.0000      -0.497492       -13.5374
 144   2.0000      -0.488202       -13.2847
 145   2.0000      -0.485066       -13.1993
 146   2.0000      -0.483922       -13.1682
 147   2.0000      -0.480630       -13.0786
 148   2.0000      -0.475957       -12.9514
 149   2.0000      -0.465592       -12.6694
 150   2.0000      -0.465156       -12.6575
 151   2.0000      -0.463957       -12.6249
 152   2.0000      -0.462351       -12.5812
 153   2.0000      -0.458076       -12.4649
 154   2.0000      -0.454840       -12.3768
 155   2.0000      -0.452460       -12.3121
 156   2.0000      -0.450822       -12.2675
 157   2.0000      -0.450568       -12.2606
 158   2.0000      -0.442891       -12.0517
 159   2.0000      -0.440286       -11.9808
 160   2.0000      -0.438831       -11.9412
 161   2.0000      -0.437900       -11.9159
 162   2.0000      -0.436201       -11.8696
 163   2.0000      -0.435536       -11.8515
 164   2.0000      -0.433976       -11.8091
 165   2.0000      -0.431663       -11.7461
 166   2.0000      -0.429163       -11.6781
 167   2.0000      -0.429020       -11.6742
 168   2.0000      -0.421784       -11.4773
 169   2.0000      -0.420059       -11.4304
 170   2.0000      -0.412047       -11.2124
 171   2.0000      -0.406897       -11.0722
 172   2.0000      -0.403017       -10.9667
 173   2.0000      -0.400757       -10.9051
 174   2.0000      -0.388250       -10.5648
 175   2.0000      -0.378711       -10.3053
 176   2.0000      -0.376697       -10.2504
 177   2.0000      -0.365625        -9.9492
 178   2.0000      -0.360356        -9.8058
 179   2.0000      -0.358096        -9.7443
 180   2.0000      -0.356267        -9.6945
 181   2.0000      -0.349781        -9.5180
 182   2.0000      -0.349230        -9.5030
 183   2.0000      -0.343036        -9.3345
 184   2.0000      -0.331504        -9.0207
 185   2.0000      -0.319487        -8.6937
 186   2.0000      -0.316628        -8.6159
 187   2.0000      -0.298245        -8.1157
 188   2.0000      -0.284663        -7.7461
 189   2.0000      -0.240435        -6.5426
 190   0.0000      -0.100545        -2.7360
 191   0.0000      -0.067149        -1.8272
 192   0.0000      -0.059559        -1.6207
 193   0.0000      -0.041141        -1.1195
 194   0.0000      -0.020972        -0.5707

MULLIKEN ATOMIC CHARGES
-----------------------
   0 C :    0.127455
   1 C :   -0.204367
   2 C :    0.236327
   3 O :   -0.207918
   4 O :   -0.284791
   5 C :    0.187268
   6 C :   -0.124108
   7 N :    0.092653
   8 C :   -0.114790
   9 S :    0.154795
  10 C :   -0.053345
  11 C :   -0.076901
  12 C :    0.043756
  13 C :   -0.180630
  14 N :    0.141597
  15 C :    0.042956
  16 C :   -0.031216
  17 C :    0.104394
  18 N :   -0.275757
  19 C :    0.104950
  20 C :    0.002054
  21 C :    0.146790
  22 O :   -0.195464
  23 C :   -0.039554
  24 C :   -0.027889
  25 C :    0.154563
  26 O :   -0.177094
  27 N :   -0.274928
  28 C :    0.104677
  29 C :   -0.000253
  30 C :    0.110018
  31 C :   -0.016970
  32 C :    0.068104
  33 N :   -0.208525
  34 C :   -0.083146
  35 C :    0.121216
  36 C :   -0.025006
  37 C :   -0.030239
  38 C :    0.182815
  39 O :   -0.152948
  40 C :   -0.067428
  41 C :    0.112136
  42 N :   -0.218702
  43 C :    0.194932
  44 O :   -0.169875
  45 C :    0.137897
  46 C :   -0.156065
  47 C :    0.222814
  48 O :   -0.214579
  49 O :   -0.271417
  50 C :    0.185727
  51 C :   -0.143147
  52 N :    0.104615
  53 H :    0.023208
  54 H :    0.035296
  55 H :    0.036585
  56 H :    0.044964
  57 H :    0.028643
  58 H :   -0.021322
  59 H :    0.033373
  60 H :    0.040047
  61 H :    0.022761
  62 H :    0.034031
  63 H :    0.021979
  64 H :    0.017389
  65 H :    0.043115
  66 H :    0.020503
  67 H :    0.040057
  68 H :    0.022502
  69 H :    0.012441
  70 H :    0.049342
  71 H :   -0.011773
  72 H :    0.051964
  73 H :    0.049383
  74 H :    0.050280
  75 H :    0.053395
  76 H :    0.055264
  77 H :    0.050975
  78 H :    0.025242
  79 H :    0.040525
  80 H :    0.035795
  81 H :    0.036580
Sum of atomic charges:   -0.0000000

LOEWDIN ATOMIC CHARGES
----------------------
   0 C :    0.046943
   1 C :   -0.122339
   2 C :    0.100638
   3 O :   -0.168261
   4 O :   -0.071479
   5 C :    0.084738
   6 C :   -0.038392
   7 N :   -0.061579
   8 C :   -0.185703
   9 S :    0.466560
  10 C :   -0.124119
  11 C :   -0.107283
  12 C :    0.019044
  13 C :   -0.032937
  14 N :   -0.040764
  15 C :   -0.049107
  16 C :    0.004334
  17 C :    0.061352
  18 N :   -0.006889
  19 C :    0.034926
  20 C :   -0.063849
  21 C :    0.077770
  22 O :   -0.198553
  23 C :   -0.127820
  24 C :   -0.103531
  25 C :    0.084413
  26 O :   -0.177466
  27 N :   -0.007887
  28 C :    0.035108
  29 C :   -0.064353
  30 C :    0.087973
  31 C :   -0.048516
  32 C :    0.040053
  33 N :    0.014608
  34 C :    0.089835
  35 C :   -0.047947
  36 C :   -0.122596
  37 C :   -0.122400
  38 C :    0.102092
  39 O :   -0.148360
  40 C :    0.093464
  41 C :   -0.046726
  42 N :    0.012433
  43 C :    0.106892
  44 O :   -0.157448
  45 C :    0.086037
  46 C :   -0.112553
  47 C :    0.084576
  48 O :   -0.177082
  49 O :   -0.062774
  50 C :    0.086100
  51 C :   -0.033478
  52 N :   -0.050671
  53 H :    0.050629
  54 H :    0.025290
  55 H :    0.025464
  56 H :    0.030961
  57 H :    0.043746
  58 H :    0.029980
  59 H :    0.054365
  60 H :    0.037458
  61 H :    0.022732
  62 H :    0.035143
  63 H :    0.030020
  64 H :    0.018793
  65 H :    0.039018
  66 H :    0.022117
  67 H :    0.037374
  68 H :    0.029734
  69 H :    0.016185
  70 H :    0.054692
  71 H :    0.027326
  72 H :    0.047971
  73 H :    0.055544
  74 H :    0.049501
  75 H :    0.056495
  76 H :    0.051821
  77 H :    0.049214
  78 H :    0.042290
  79 H :    0.028701
  80 H :    0.024288
  81 H :    0.026119

  Mayer bond orders larger than 0.100000
B(  0-C ,  1-C ) :   1.7404 B(  0-C ,  8-C ) :   1.1552 B(  0-C , 53-H ) :   0.9326
B(  1-C ,  2-C ) :   0.9437 B(  1-C ,  6-C ) :   1.0533 B(  2-C ,  3-O ) :   2.0209
B(  2-C ,  4-O ) :   1.2615 B(  4-O ,  5-C ) :   0.9161 B(  5-C , 54-H ) :   0.9767
B(  5-C , 55-H ) :   0.9756 B(  5-C , 56-H ) :   0.9812 B(  6-C ,  7-N ) :   3.0352
B(  8-C ,  9-S ) :   1.0942 B(  8-C , 12-C ) :   1.4589 B(  9-S , 10-C ) :   1.1682
B( 10-C , 11-C ) :   1.4148 B( 10-C , 15-C ) :   1.1495 B( 11-C , 12-C ) :   1.2995
B( 11-C , 13-C ) :   1.1128 B( 12-C , 57-H ) :   0.9819 B( 13-C , 14-N ) :   2.9938
B( 15-C , 16-C ) :   1.5996 B( 15-C , 58-H ) :   0.9456 B( 16-C , 17-C ) :   1.1896
B( 16-C , 59-H ) :   0.9381 B( 17-C , 18-N ) :   1.1665 B( 17-C , 24-C ) :   1.3523
B( 18-N , 19-C ) :   0.9467 B( 18-N , 21-C ) :   1.0297 B( 19-C , 20-C ) :   1.1149
B( 19-C , 60-H ) :   0.9268 B( 19-C , 61-H ) :   0.9508 B( 20-C , 62-H ) :   0.9598
B( 20-C , 63-H ) :   0.9691 B( 20-C , 64-H ) :   0.9649 B( 21-C , 22-O ) :   2.1316
B( 21-C , 23-C ) :   0.9839 B( 23-C , 24-C ) :   1.2306 B( 23-C , 30-C ) :   1.3495
B( 24-C , 25-C ) :   0.9731 B( 25-C , 26-O ) :   2.1372 B( 25-C , 27-N ) :   1.0178
B( 27-N , 28-C ) :   0.9459 B( 27-N , 30-C ) :   1.1842 B( 28-C , 29-C ) :   1.1143
B( 28-C , 65-H ) :   0.9296 B( 28-C , 66-H ) :   0.9496 B( 29-C , 67-H ) :   0.9587
B( 29-C , 68-H ) :   0.9684 B( 29-C , 69-H ) :   0.9626 B( 30-C , 31-C ) :   1.1592
B( 31-C , 32-C ) :   1.6549 B( 31-C , 70-H ) :   0.9340 B( 32-C , 33-N ) :   1.0617
B( 32-C , 71-H ) :   0.9676 B( 33-N , 34-C ) :   1.1340 B( 33-N , 38-C ) :   0.9568
B( 34-C , 35-C ) :   1.1265 B( 34-C , 36-C ) :   1.5062 B( 35-C , 72-H ) :   0.9246
B( 35-C , 73-H ) :   0.9294 B( 35-C , 74-H ) :   0.9315 B( 36-C , 37-C ) :   1.1714
B( 36-C , 43-C ) :   0.9818 B( 37-C , 38-C ) :   0.9667 B( 37-C , 40-C ) :   1.5289
B( 38-C , 39-O ) :   2.1748 B( 40-C , 41-C ) :   1.1245 B( 40-C , 42-N ) :   1.1139
B( 41-C , 75-H ) :   0.9311 B( 41-C , 76-H ) :   0.9326 B( 41-C , 77-H ) :   0.9281
B( 42-N , 43-C ) :   0.9564 B( 42-N , 45-C ) :   1.0739 B( 43-C , 44-O ) :   2.1398
B( 45-C , 46-C ) :   1.8020 B( 45-C , 78-H ) :   0.9593 B( 46-C , 47-C ) :   0.8749
B( 46-C , 51-C ) :   1.1338 B( 47-C , 48-O ) :   2.1055 B( 47-C , 49-O ) :   1.2616
B( 49-O , 50-C ) :   0.9177 B( 50-C , 79-H ) :   0.9811 B( 50-C , 80-H ) :   0.9726
B( 50-C , 81-H ) :   0.9774 B( 51-C , 52-N ) :   3.0288

-----------------------------------------------------------------------------
         ABSORPTION SPECTRUM VIA TRANSITION ELECTRIC DIPOLE MOMENTS
-----------------------------------------------------------------------------
State   Energy  Wavelength   fosc         T2         TX        TY        TZ
        (cm-1)    (nm)                  (au**2)     (au)      (au)      (au)
-----------------------------------------------------------------------------
   0   15386.0    649.9   1.127797738  24.13128  -4.67369   0.56659  -1.40245
   1   23133.6    432.3   0.036684457   0.52205  -0.55774   0.21442  -0.40620
   2   25132.6    397.9   0.052109871   0.68259  -0.28185  -0.39581  -0.66820
   3   26725.6    374.2   0.002389398   0.02943   0.17098   0.01383  -0.00254
   4   27010.6    370.2   0.225050390   2.74297  -1.45483   0.78275   0.11727
   5   27391.9    365.1   0.690669750   8.30087  -2.66050   1.10296   0.07805
   6   28618.3    349.4   0.029310894   0.33718   0.51652  -0.26268   0.03721
   7   29737.5    336.3   0.102501870   1.13476  -0.91764   0.50714  -0.18842
   8   30470.8    328.2   0.034297981   0.37056   0.53985  -0.09457   0.26492
   9   32015.3    312.4   0.086956105   0.89417   0.88196  -0.27382   0.20334
  10   32153.7    311.0   0.012786923   0.13092  -0.33907   0.09720  -0.08066
  11   33035.0    302.7   0.236554473   2.35740   1.28821  -0.83418  -0.04550
  12   34405.3    290.7   0.463470232   4.43478  -1.82879   1.00842  -0.27093
  13   34685.4    288.3   0.010599644   0.10061   0.02168   0.17162   0.26586
  14   35072.8    285.1   0.070142677   0.65840  -0.07348   0.78956   0.17205
  15   35878.0    278.7   0.001207357   0.01108   0.01210  -0.08680   0.05829
  16   36708.1    272.4   0.203168498   1.82209  -1.31051  -0.26317  -0.18813
  17   38099.7    262.5   0.075548034   0.65280  -0.61847   0.51003   0.10076
  18   39500.7    253.2   0.079452070   0.66218   0.66324  -0.46969  -0.04102
  19   39715.3    251.8   0.115813763   0.96002   0.35739  -0.79786  -0.44240
  20   40037.9    249.8   0.005568595   0.04579   0.12079  -0.17655   0.00514

FINAL SINGLE POINT ENERGY     -2807.528661055872

DIPOLE MOMENT
-------------
                                X             Y             Z
Electronic contribution:     -8.98197       2.17421     -11.69098
Nuclear contribution   :      9.46335      -2.07284      12.44389
                        -----------------------------------------
Total Dipole Moment    :      0.48138       0.10137       0.75291
                        -----------------------------------------
Magnitude (a.u.)       :      0.89938
Magnitude (Debye)      :      2.28604

Rotational constants in cm-1:     0.005987     0.000374     0.000366
Rotational constants in MHz :   179.497716    11.218481    10.974112

                             ****ORCA TERMINATED NORMALLY****
TOTAL RUN TIME: 0 days 0 hours 5 minutes 40 seconds 46 msec
