                         Program Version 4.2.0 -  RELEASE  -
|  1> # ORCA input file
|  2> # SCF done       -186.705736270613          0.000382027998
|  3> ! CAM-B3LYP def2-SVP def2/J RIJCOSX Grid4 TightSCF
|  4> %maxcore 5000
|  5> %tddft
|  6>     Mode sTDDFT
|  7>     Ethresh 5.0
|  8>     maxcore 5000
|  9> end
| 10>
| 11> %pal
| 12>   nprocs 6
| 13>   end
| 14> * xyz 0 1
| 15>    C        3.30668         5.99117        -0.23251
| 16>    C        3.07784         7.26973        -0.66884
| 17>    C        3.49489         8.42185         0.02647
| 18>    N        3.78744         9.38825         0.57247
| 19>    C        2.47887         7.55859        -1.91250
| 20>    N        2.03859         7.82220        -2.93927
| 21>    C        4.19581         5.61355         0.85916
| 22>    C        4.59771         4.25867         0.66477
| 23>    C        5.47998         3.64630         1.50765
| 24>    C        5.99985         4.36894         2.60523
| 25>    C        5.58808         5.71744         2.81393
| 26>    C        4.67804         6.32910         1.92145
| 27>    C        6.11126         6.42454         3.91545
| 28>    C        7.00184         5.83196         4.76868
| 29>    C        7.40806         4.50521         4.56163
| 30>    C        6.91787         3.78944         3.50316
| 31>    C        3.91679         3.71109        -0.52181
| 32>    O        4.04578         2.62003        -1.02557
| 33>    C        2.96127         4.77840        -0.94545
| 34>    C        1.92871         4.46115        -1.76775
| 35>    C        0.70308         5.14172        -1.98478
| 36>    S        0.01214         6.26880        -0.84535
| 37>    C       -1.40401         6.49191        -1.82817
| 38>    C       -1.32285         5.70292        -2.98014
| 39>    C       -0.15251         4.93729        -3.04840
| 40>    C       -2.32397         5.65834        -3.96879
| 41>    N       -3.11858         5.58127        -4.79078
| 42>    C       -2.45847         7.35708        -1.46878
| 43>    C       -2.46497         8.09645        -0.32546
| 44>    C       -3.52048         8.96727         0.02550
| 45>    N       -3.55361         9.70605         1.18605
| 46>    C       -2.58244         9.68319         2.25290
| 47>    C       -2.73911         8.44903         3.13791
| 48>    C       -4.71442        10.49370         1.27790
| 49>    O       -4.96014        11.21975         2.21842
| 50>    C       -5.43482        10.21087         0.05419
| 51>    C       -4.68141         9.27033        -0.68709
| 52>    C       -5.39174         8.99883        -1.91783
| 53>    O       -5.14551         8.26700        -2.85419
| 54>    N       -6.53491         9.81418        -1.84455
| 55>    C       -7.53131         9.79293        -2.88837
| 56>    C       -8.73971         8.94282        -2.50448
| 57>    C       -6.57837        10.53668        -0.67529
| 58>    C       -7.61654        11.44450        -0.35040
| 59>    C       -7.66781        12.12553         0.82165
| 60>    C       -8.69883        13.04012         1.14564
| 61>    S      -10.03199        13.45946         0.06190
| 62>    C      -10.57249        14.52613         1.35658
| 63>    N       -9.78449        14.47991         2.39655
| 64>    N       -8.77516        13.67991         2.28156
| 65>    C      -11.73158        15.33470         1.23384
| 66>    C      -12.16289        16.15714         2.22307
| 67>    C      -13.31328        16.96742         2.05316
| 68>    C      -13.81798        17.81860         2.99077
| 69>    C      -14.98070        18.68009         2.84926
| 70>    C      -15.76897        18.82360         1.73679
| 71>    C      -16.88369        19.68620         1.66199
| 72>    N      -17.80052        20.36421         1.52942
| 73>    C      -15.59725        18.15168         0.50833
| 74>    N      -15.53085        17.65197        -0.52379
| 75>    C      -15.16443        19.39053         4.10961
| 76>    C      -14.13796        18.99322         5.01319
| 77>    C      -13.25829        18.00938         4.36017
| 78>    O      -12.28845        17.47112         4.84608
| 79>    C      -14.05406        19.49654         6.27940
| 80>    C      -15.01212        20.44069         6.71041
| 81>    C      -16.04285        20.84481         5.81312
| 82>    C      -16.10417        20.30547         4.50812
| 83>    C      -16.99398        21.78840         6.25271
| 84>    C      -16.93153        22.30815         7.51684
| 85>    C      -15.91658        21.90885         8.39951
| 86>    C      -14.97726        20.99511         8.00493
| 87>    H        5.78077         2.62311         1.33833
| 88>    H        4.37627         7.34886         2.10417
| 89>    H        5.79853         7.44700         4.06844
| 90>    H        7.39922         6.38301         5.60777
| 91>    H        8.11141         4.05324         5.24476
| 92>    H        7.22739         2.76775         3.33868
| 93>    H        2.02043         3.50549        -2.27635
| 94>    H        0.07715         4.27564        -3.86490
| 95>    H       -3.28921         7.41831        -2.16209
| 96>    H       -1.62290         8.02306         0.35057
| 97>    H       -2.76556        10.58374         2.84570
| 98>    H       -1.57436         9.73759         1.83245
| 99>    H       -3.73130         8.43568         3.58215
|100>    H       -2.00202         8.47322         3.93559
|101>    H       -2.60445         7.53495         2.56346
|102>    H       -7.04043         9.35698        -3.76301
|103>    H       -7.83363        10.81630        -3.12752
|104>    H       -8.42714         7.91886        -2.31554
|105>    H       -9.45978         8.94095        -3.31784
|106>    H       -9.22268         9.32879        -1.60931
|107>    H       -8.39924        11.59443        -1.08278
|108>    H       -6.90467        11.99790         1.57858
|109>    H      -12.26861        15.27405         0.29588
|110>    H      -11.61810        16.20101         3.15450
|111>    H      -13.81146        16.89130         1.09452
|112>    H      -13.26464        19.17684         6.94332
|113>    H      -16.89803        20.63220         3.85566
|114>    H      -17.77335        22.09282         5.56962
|115>    H      -17.66429        23.03044         7.84406
|116>    H      -15.88285        22.32910         9.39353
|117>    H      -14.19335        20.68390         8.67975
|118> *
|119>
|120>                          ****END OF INPUT****

CARTESIAN COORDINATES (ANGSTROEM)
---------------------------------
  C      3.306680    5.991170   -0.232510
  C      3.077840    7.269730   -0.668840
  C      3.494890    8.421850    0.026470
  N      3.787440    9.388250    0.572470
  C      2.478870    7.558590   -1.912500
  N      2.038590    7.822200   -2.939270
  C      4.195810    5.613550    0.859160
  C      4.597710    4.258670    0.664770
  C      5.479980    3.646300    1.507650
  C      5.999850    4.368940    2.605230
  C      5.588080    5.717440    2.813930
  C      4.678040    6.329100    1.921450
  C      6.111260    6.424540    3.915450
  C      7.001840    5.831960    4.768680
  C      7.408060    4.505210    4.561630
  C      6.917870    3.789440    3.503160
  C      3.916790    3.711090   -0.521810
  O      4.045780    2.620030   -1.025570
  C      2.961270    4.778400   -0.945450
  C      1.928710    4.461150   -1.767750
  C      0.703080    5.141720   -1.984780
  S      0.012140    6.268800   -0.845350
  C     -1.404010    6.491910   -1.828170
  C     -1.322850    5.702920   -2.980140
  C     -0.152510    4.937290   -3.048400
  C     -2.323970    5.658340   -3.968790
  N     -3.118580    5.581270   -4.790780
  C     -2.458470    7.357080   -1.468780
  C     -2.464970    8.096450   -0.325460
  C     -3.520480    8.967270    0.025500
  N     -3.553610    9.706050    1.186050
  C     -2.582440    9.683190    2.252900
  C     -2.739110    8.449030    3.137910
  C     -4.714420   10.493700    1.277900
  O     -4.960140   11.219750    2.218420
  C     -5.434820   10.210870    0.054190
  C     -4.681410    9.270330   -0.687090
  C     -5.391740    8.998830   -1.917830
  O     -5.145510    8.267000   -2.854190
  N     -6.534910    9.814180   -1.844550
  C     -7.531310    9.792930   -2.888370
  C     -8.739710    8.942820   -2.504480
  C     -6.578370   10.536680   -0.675290
  C     -7.616540   11.444500   -0.350400
  C     -7.667810   12.125530    0.821650
  C     -8.698830   13.040120    1.145640
  S    -10.031990   13.459460    0.061900
  C    -10.572490   14.526130    1.356580
  N     -9.784490   14.479910    2.396550
  N     -8.775160   13.679910    2.281560
  C    -11.731580   15.334700    1.233840
  C    -12.162890   16.157140    2.223070
  C    -13.313280   16.967420    2.053160
  C    -13.817980   17.818600    2.990770
  C    -14.980700   18.680090    2.849260
  C    -15.768970   18.823600    1.736790
  C    -16.883690   19.686200    1.661990
  N    -17.800520   20.364210    1.529420
  C    -15.597250   18.151680    0.508330
  N    -15.530850   17.651970   -0.523790
  C    -15.164430   19.390530    4.109610
  C    -14.137960   18.993220    5.013190
  C    -13.258290   18.009380    4.360170
  O    -12.288450   17.471120    4.846080
  C    -14.054060   19.496540    6.279400
  C    -15.012120   20.440690    6.710410
  C    -16.042850   20.844810    5.813120
  C    -16.104170   20.305470    4.508120
  C    -16.993980   21.788400    6.252710
  C    -16.931530   22.308150    7.516840
  C    -15.916580   21.908850    8.399510
  C    -14.977260   20.995110    8.004930
  H      5.780770    2.623110    1.338330
  H      4.376270    7.348860    2.104170
  H      5.798530    7.447000    4.068440
  H      7.399220    6.383010    5.607770
  H      8.111410    4.053240    5.244760
  H      7.227390    2.767750    3.338680
  H      2.020430    3.505490   -2.276350
  H      0.077150    4.275640   -3.864900
  H     -3.289210    7.418310   -2.162090
  H     -1.622900    8.023060    0.350570
  H     -2.765560   10.583740    2.845700
  H     -1.574360    9.737590    1.832450
  H     -3.731300    8.435680    3.582150
  H     -2.002020    8.473220    3.935590
  H     -2.604450    7.534950    2.563460
  H     -7.040430    9.356980   -3.763010
  H     -7.833630   10.816300   -3.127520
  H     -8.427140    7.918860   -2.315540
  H     -9.459780    8.940950   -3.317840
  H     -9.222680    9.328790   -1.609310
  H     -8.399240   11.594430   -1.082780
  H     -6.904670   11.997900    1.578580
  H    -12.268610   15.274050    0.295880
  H    -11.618100   16.201010    3.154500
  H    -13.811460   16.891300    1.094520
  H    -13.264640   19.176840    6.943320
  H    -16.898030   20.632200    3.855660
  H    -17.773350   22.092820    5.569620
  H    -17.664290   23.030440    7.844060
  H    -15.882850   22.329100    9.393530
  H    -14.193350   20.683900    8.679750

 Total Charge           Charge          ....    0
 Multiplicity           Mult            ....    1
 Number of Electrons    NEL             ....  500
 Basis Dimension        Dim             .... 1171

ORBITAL ENERGIES
----------------

  NO   OCC          E(Eh)            E(eV)
   0   2.0000     -88.986612     -2421.4488
   1   2.0000     -88.981306     -2421.3044
   2   2.0000     -19.220829      -523.0253
   3   2.0000     -19.217836      -522.9439
   4   2.0000     -19.199537      -522.4460
   5   2.0000     -19.198042      -522.4053
   6   2.0000     -14.461569      -393.5193
   7   2.0000     -14.460524      -393.4909
   8   2.0000     -14.446801      -393.1175
   9   2.0000     -14.446686      -393.1143
  10   2.0000     -14.423026      -392.4705
  11   2.0000     -14.420208      -392.3938
  12   2.0000     -14.419280      -392.3686
  13   2.0000     -14.417158      -392.3108
  14   2.0000     -14.407819      -392.0567
  15   2.0000     -10.381446      -282.4935
  16   2.0000     -10.380956      -282.4802
  17   2.0000     -10.372551      -282.2515
  18   2.0000     -10.368451      -282.1399
  19   2.0000     -10.351956      -281.6911
  20   2.0000     -10.350939      -281.6634
  21   2.0000     -10.350359      -281.6476
  22   2.0000     -10.348883      -281.6074
  23   2.0000     -10.348422      -281.5949
  24   2.0000     -10.347601      -281.5725
  25   2.0000     -10.345678      -281.5202
  26   2.0000     -10.343452      -281.4596
  27   2.0000     -10.342404      -281.4311
  28   2.0000     -10.333909      -281.1999
  29   2.0000     -10.330196      -281.0989
  30   2.0000     -10.327627      -281.0290
  31   2.0000     -10.325104      -280.9604
  32   2.0000     -10.322867      -280.8995
  33   2.0000     -10.321028      -280.8494
  34   2.0000     -10.319837      -280.8170
  35   2.0000     -10.317543      -280.7546
  36   2.0000     -10.314598      -280.6745
  37   2.0000     -10.314207      -280.6638
  38   2.0000     -10.314071      -280.6601
  39   2.0000     -10.314012      -280.6585
  40   2.0000     -10.309921      -280.5472
  41   2.0000     -10.309276      -280.5297
  42   2.0000     -10.307901      -280.4922
  43   2.0000     -10.307579      -280.4835
  44   2.0000     -10.307433      -280.4795
  45   2.0000     -10.307096      -280.4704
  46   2.0000     -10.305120      -280.4166
  47   2.0000     -10.304471      -280.3989
  48   2.0000     -10.304361      -280.3959
  49   2.0000     -10.303490      -280.3722
  50   2.0000     -10.303089      -280.3613
  51   2.0000     -10.302815      -280.3538
  52   2.0000     -10.302748      -280.3520
  53   2.0000     -10.298965      -280.2491
  54   2.0000     -10.298718      -280.2424
  55   2.0000     -10.298148      -280.2268
  56   2.0000     -10.297345      -280.2050
  57   2.0000     -10.295583      -280.1570
  58   2.0000     -10.295288      -280.1490
  59   2.0000     -10.291315      -280.0409
  60   2.0000     -10.290954      -280.0311
  61   2.0000     -10.290693      -280.0240
  62   2.0000     -10.290315      -280.0137
  63   2.0000     -10.289322      -279.9867
  64   2.0000     -10.287678      -279.9420
  65   2.0000     -10.287060      -279.9251
  66   2.0000     -10.286893      -279.9206
  67   2.0000     -10.286451      -279.9086
  68   2.0000     -10.271944      -279.5138
  69   2.0000     -10.271142      -279.4920
  70   2.0000     -10.269685      -279.4523
  71   2.0000     -10.268894      -279.4308
  72   2.0000      -8.081413      -219.9064
  73   2.0000      -8.077428      -219.7980
  74   2.0000      -6.050633      -164.6461
  75   2.0000      -6.046630      -164.5372
  76   2.0000      -6.045965      -164.5191
  77   2.0000      -6.043572      -164.4540
  78   2.0000      -6.042843      -164.4341
  79   2.0000      -6.039861      -164.3530
  80   2.0000      -1.152640       -31.3649
  81   2.0000      -1.141809       -31.0702
  82   2.0000      -1.136312       -30.9206
  83   2.0000      -1.135056       -30.8865
  84   2.0000      -1.132908       -30.8280
  85   2.0000      -1.072243       -29.1772
  86   2.0000      -1.063811       -28.9478
  87   2.0000      -1.028269       -27.9806
  88   2.0000      -1.020923       -27.7807
  89   2.0000      -1.019628       -27.7455
  90   2.0000      -1.004222       -27.3263
  91   2.0000      -1.000679       -27.2299
  92   2.0000      -0.999251       -27.1910
  93   2.0000      -0.996540       -27.1172
  94   2.0000      -0.987470       -26.8704
  95   2.0000      -0.977210       -26.5912
  96   2.0000      -0.973396       -26.4875
  97   2.0000      -0.958485       -26.0817
  98   2.0000      -0.943124       -25.6637
  99   2.0000      -0.938688       -25.5430
 100   2.0000      -0.933745       -25.4085
 101   2.0000      -0.926546       -25.2126
 102   2.0000      -0.926243       -25.2044
 103   2.0000      -0.911015       -24.7900
 104   2.0000      -0.909940       -24.7607
 105   2.0000      -0.895085       -24.3565
 106   2.0000      -0.889134       -24.1946
 107   2.0000      -0.886709       -24.1286
 108   2.0000      -0.886222       -24.1153
 109   2.0000      -0.881760       -23.9939
 110   2.0000      -0.877158       -23.8687
 111   2.0000      -0.868565       -23.6349
 112   2.0000      -0.850564       -23.1450
 113   2.0000      -0.847893       -23.0723
 114   2.0000      -0.833826       -22.6896
 115   2.0000      -0.829427       -22.5698
 116   2.0000      -0.827314       -22.5124
 117   2.0000      -0.815051       -22.1787
 118   2.0000      -0.805919       -21.9302
 119   2.0000      -0.796326       -21.6691
 120   2.0000      -0.782994       -21.3063
 121   2.0000      -0.767334       -20.8802
 122   2.0000      -0.766345       -20.8533
 123   2.0000      -0.763673       -20.7806
 124   2.0000      -0.747448       -20.3391
 125   2.0000      -0.737331       -20.0638
 126   2.0000      -0.726862       -19.7789
 127   2.0000      -0.720678       -19.6106
 128   2.0000      -0.714925       -19.4541
 129   2.0000      -0.714177       -19.4337
 130   2.0000      -0.706598       -19.2275
 131   2.0000      -0.705648       -19.2017
 132   2.0000      -0.703297       -19.1377
 133   2.0000      -0.700735       -19.0680
 134   2.0000      -0.688731       -18.7413
 135   2.0000      -0.683159       -18.5897
 136   2.0000      -0.676299       -18.4030
 137   2.0000      -0.672830       -18.3086
 138   2.0000      -0.668667       -18.1954
 139   2.0000      -0.666460       -18.1353
 140   2.0000      -0.655636       -17.8408
 141   2.0000      -0.645856       -17.5746
 142   2.0000      -0.642637       -17.4870
 143   2.0000      -0.638331       -17.3699
 144   2.0000      -0.630266       -17.1504
 145   2.0000      -0.626367       -17.0443
 146   2.0000      -0.613040       -16.6817
 147   2.0000      -0.612331       -16.6624
 148   2.0000      -0.607947       -16.5431
 149   2.0000      -0.602304       -16.3895
 150   2.0000      -0.595996       -16.2179
 151   2.0000      -0.592251       -16.1160
 152   2.0000      -0.590666       -16.0728
 153   2.0000      -0.588739       -16.0204
 154   2.0000      -0.585006       -15.9188
 155   2.0000      -0.574028       -15.6201
 156   2.0000      -0.564900       -15.3717
 157   2.0000      -0.559624       -15.2281
 158   2.0000      -0.558089       -15.1864
 159   2.0000      -0.557018       -15.1572
 160   2.0000      -0.553211       -15.0536
 161   2.0000      -0.550846       -14.9893
 162   2.0000      -0.549937       -14.9646
 163   2.0000      -0.549304       -14.9473
 164   2.0000      -0.547269       -14.8919
 165   2.0000      -0.543223       -14.7818
 166   2.0000      -0.539984       -14.6937
 167   2.0000      -0.538724       -14.6594
 168   2.0000      -0.538065       -14.6415
 169   2.0000      -0.537806       -14.6344
 170   2.0000      -0.534329       -14.5398
 171   2.0000      -0.531363       -14.4591
 172   2.0000      -0.526694       -14.3321
 173   2.0000      -0.524541       -14.2735
 174   2.0000      -0.523263       -14.2387
 175   2.0000      -0.521139       -14.1809
 176   2.0000      -0.520778       -14.1711
 177   2.0000      -0.517149       -14.0723
 178   2.0000      -0.516018       -14.0416
 179   2.0000      -0.514437       -13.9985
 180   2.0000      -0.511306       -13.9133
 181   2.0000      -0.509773       -13.8716
 182   2.0000      -0.507340       -13.8054
 183   2.0000      -0.505383       -13.7522
 184   2.0000      -0.503001       -13.6873
 185   2.0000      -0.502298       -13.6682
 186   2.0000      -0.499239       -13.5850
 187   2.0000      -0.496133       -13.5005
 188   2.0000      -0.490932       -13.3589
 189   2.0000      -0.489577       -13.3221
 190   2.0000      -0.487802       -13.2738
 191   2.0000      -0.482382       -13.1263
 192   2.0000      -0.477312       -12.9883
 193   2.0000      -0.475788       -12.9468
 194   2.0000      -0.472024       -12.8444
 195   2.0000      -0.469680       -12.7807
 196   2.0000      -0.467101       -12.7105
 197   2.0000      -0.465740       -12.6734
 198   2.0000      -0.464457       -12.6385
 199   2.0000      -0.460569       -12.5327
 200   2.0000      -0.457463       -12.4482
 201   2.0000      -0.455641       -12.3986
 202   2.0000      -0.453779       -12.3480
 203   2.0000      -0.452148       -12.3036
 204   2.0000      -0.450660       -12.2631
 205   2.0000      -0.448635       -12.2080
 206   2.0000      -0.446938       -12.1618
 207   2.0000      -0.446703       -12.1554
 208   2.0000      -0.445909       -12.1338
 209   2.0000      -0.443248       -12.0614
 210   2.0000      -0.441507       -12.0140
 211   2.0000      -0.439768       -11.9667
 212   2.0000      -0.438365       -11.9285
 213   2.0000      -0.435473       -11.8498
 214   2.0000      -0.435148       -11.8410
 215   2.0000      -0.434760       -11.8304
 216   2.0000      -0.434391       -11.8204
 217   2.0000      -0.434028       -11.8105
 218   2.0000      -0.431257       -11.7351
 219   2.0000      -0.429869       -11.6973
 220   2.0000      -0.427899       -11.6437
 221   2.0000      -0.422840       -11.5060
 222   2.0000      -0.421689       -11.4747
 223   2.0000      -0.416166       -11.3245
 224   2.0000      -0.411432       -11.1956
 225   2.0000      -0.409444       -11.1415
 226   2.0000      -0.408546       -11.1171
 227   2.0000      -0.407158       -11.0793
 228   2.0000      -0.397445       -10.8150
 229   2.0000      -0.392580       -10.6827
 230   2.0000      -0.389361       -10.5950
 231   2.0000      -0.379897       -10.3375
 232   2.0000      -0.378703       -10.3050
 233   2.0000      -0.368843       -10.0367
 234   2.0000      -0.355821        -9.6824
 235   2.0000      -0.354058        -9.6344
 236   2.0000      -0.342437        -9.3182
 237   2.0000      -0.340553        -9.2669
 238   2.0000      -0.339682        -9.2432
 239   2.0000      -0.339060        -9.2263
 240   2.0000      -0.336905        -9.1677
 241   2.0000      -0.327917        -8.9231
 242   2.0000      -0.323901        -8.8138
 243   2.0000      -0.321979        -8.7615
 244   2.0000      -0.318621        -8.6701
 245   2.0000      -0.303574        -8.2607
 246   2.0000      -0.300140        -8.1672
 247   2.0000      -0.295833        -8.0500
 248   2.0000      -0.289231        -7.8704
 249   2.0000      -0.243131        -6.6159
 250   0.0000      -0.119621        -3.2550
 251   0.0000      -0.105271        -2.8646
 252   0.0000      -0.082745        -2.2516
 253   0.0000      -0.062827        -1.7096
 254   0.0000      -0.058714        -1.5977

MULLIKEN ATOMIC CHARGES
-----------------------
   0 C :    0.249269
   1 C :   -0.320797
   2 C :   -0.171753
   3 N :    0.154828
   4 C :   -0.211957
   5 N :    0.180587
   6 C :    0.037287
   7 C :    0.008686
   8 C :   -0.076287
   9 C :    0.093758
  10 C :    0.093323
  11 C :   -0.078873
  12 C :   -0.017003
  13 C :    0.036776
  14 C :    0.034528
  15 C :   -0.013157
  16 C :    0.143484
  17 O :   -0.137730
  18 C :   -0.129968
  19 C :    0.052285
  20 C :   -0.075731
  21 S :    0.144820
  22 C :   -0.031039
  23 C :   -0.039113
  24 C :    0.058871
  25 C :   -0.186255
  26 N :    0.153767
  27 C :   -0.001920
  28 C :   -0.028441
  29 C :    0.143465
  30 N :   -0.259879
  31 C :    0.093943
  32 C :    0.003701
  33 C :    0.165045
  34 O :   -0.197223
  35 C :   -0.064443
  36 C :   -0.063107
  37 C :    0.166846
  38 O :   -0.192461
  39 N :   -0.258177
  40 C :    0.094627
  41 C :    0.001418
  42 C :    0.141546
  43 C :   -0.035562
  44 C :    0.063455
  45 C :   -0.085700
  46 S :    0.085848
  47 C :   -0.088482
  48 N :   -0.030775
  49 N :   -0.019501
  50 C :    0.081261
  51 C :    0.018238
  52 C :   -0.051152
  53 C :   -0.055187
  54 C :    0.338102
  55 C :   -0.352001
  56 C :   -0.180314
  57 N :    0.149960
  58 C :   -0.189777
  59 N :    0.147233
  60 C :    0.047193
  61 C :   -0.006144
  62 C :    0.147878
  63 O :   -0.134934
  64 C :   -0.079163
  65 C :    0.098671
  66 C :    0.097323
  67 C :   -0.083913
  68 C :   -0.019835
  69 C :    0.036406
  70 C :    0.038636
  71 C :   -0.016027
  72 H :   -0.009580
  73 H :   -0.006808
  74 H :   -0.010328
  75 H :   -0.002945
  76 H :   -0.002883
  77 H :   -0.015705
  78 H :    0.031881
  79 H :    0.011240
  80 H :    0.044834
  81 H :   -0.015037
  82 H :    0.049424
  83 H :    0.028216
  84 H :    0.031469
  85 H :    0.026981
  86 H :    0.012699
  87 H :    0.051737
  88 H :    0.025041
  89 H :    0.033733
  90 H :    0.028694
  91 H :    0.013670
  92 H :   -0.013511
  93 H :    0.042659
  94 H :    0.010619
  95 H :    0.056358
  96 H :    0.012082
  97 H :   -0.010743
  98 H :   -0.009403
  99 H :   -0.008517
 100 H :   -0.004190
 101 H :   -0.004799
 102 H :   -0.016168
Sum of atomic charges:   -0.0000000

LOEWDIN ATOMIC CHARGES
----------------------
   0 C :    0.060326
   1 C :   -0.139350
   2 C :   -0.019295
   3 N :   -0.048226
   4 C :   -0.038415
   5 N :   -0.042561
   6 C :   -0.023290
   7 C :   -0.057884
   8 C :    0.034813
   9 C :   -0.008775
  10 C :   -0.004885
  11 C :    0.015533
  12 C :   -0.006538
  13 C :   -0.011158
  14 C :   -0.011714
  15 C :   -0.008130
  16 C :    0.084281
  17 O :   -0.138829
  18 C :   -0.087741
  19 C :    0.049224
  20 C :   -0.170868
  21 S :    0.480181
  22 C :   -0.120178
  23 C :   -0.091349
  24 C :    0.015011
  25 C :   -0.033819
  26 N :   -0.033673
  27 C :    0.005494
  28 C :   -0.031461
  29 C :    0.071033
  30 N :    0.000142
  31 C :    0.036471
  32 C :   -0.060787
  33 C :    0.080719
  34 O :   -0.188518
  35 C :   -0.114221
  36 C :   -0.110468
  37 C :    0.080708
  38 O :   -0.182809
  39 N :    0.001560
  40 C :    0.036591
  41 C :   -0.060637
  42 C :    0.075683
  43 C :   -0.038506
  44 C :    0.009597
  45 C :   -0.144022
  46 S :    0.383713
  47 C :   -0.147069
  48 N :   -0.057376
  49 N :   -0.052628
  50 C :   -0.013306
  51 C :    0.014196
  52 C :    0.061013
  53 C :   -0.077457
  54 C :    0.074976
  55 C :   -0.134844
  56 C :   -0.016654
  57 N :   -0.050990
  58 C :   -0.019772
  59 N :   -0.051756
  60 C :   -0.026467
  61 C :   -0.055974
  62 C :    0.083564
  63 O :   -0.131280
  64 C :    0.033796
  65 C :   -0.007341
  66 C :   -0.005860
  67 C :    0.019954
  68 C :   -0.005102
  69 C :   -0.012800
  70 C :   -0.011047
  71 C :   -0.009038
  72 H :    0.040310
  73 H :    0.038417
  74 H :    0.034392
  75 H :    0.033922
  76 H :    0.033626
  77 H :    0.032571
  78 H :    0.054435
  79 H :    0.047094
  80 H :    0.049035
  81 H :    0.024346
  82 H :    0.040288
  83 H :    0.024532
  84 H :    0.033281
  85 H :    0.032007
  86 H :    0.020702
  87 H :    0.041247
  88 H :    0.023328
  89 H :    0.033911
  90 H :    0.032815
  91 H :    0.021040
  92 H :    0.024126
  93 H :    0.053085
  94 H :    0.038196
  95 H :    0.044868
  96 H :    0.041638
  97 H :    0.040032
  98 H :    0.038929
  99 H :    0.034973
 100 H :    0.033506
 101 H :    0.033136
 102 H :    0.032501

  Mayer bond orders larger than 0.100000
B(  0-C ,  1-C ) :   1.6603 B(  0-C ,  6-C ) :   1.0064 B(  0-C , 18-C ) :   1.0239
B(  1-C ,  2-C ) :   1.1342 B(  1-C ,  4-C ) :   1.1534 B(  2-C ,  3-N ) :   2.9885
B(  4-C ,  5-N ) :   3.0230 B(  6-C ,  7-C ) :   1.2125 B(  6-C , 11-C ) :   1.4572
B(  7-C ,  8-C ) :   1.4763 B(  7-C , 16-C ) :   0.9231 B(  8-C ,  9-C ) :   1.1875
B(  8-C , 72-H ) :   1.0149 B(  9-C , 10-C ) :   1.2535 B(  9-C , 15-C ) :   1.2446
B( 10-C , 11-C ) :   1.2055 B( 10-C , 12-C ) :   1.2421 B( 11-C , 73-H ) :   0.9937
B( 12-C , 13-C ) :   1.4904 B( 12-C , 74-H ) :   0.9969 B( 13-C , 14-C ) :   1.2591
B( 13-C , 75-H ) :   0.9891 B( 14-C , 15-C ) :   1.4897 B( 14-C , 76-H ) :   0.9895
B( 15-C , 77-H ) :   0.9973 B( 16-C , 17-O ) :   2.2755 B( 16-C , 18-C ) :   0.9306
B( 18-C , 19-C ) :   1.6705 B( 19-C , 20-C ) :   1.1144 B( 19-C , 78-H ) :   0.9459
B( 20-C , 21-S ) :   1.1093 B( 20-C , 24-C ) :   1.4393 B( 21-S , 22-C ) :   1.1312
B( 22-C , 23-C ) :   1.4142 B( 22-C , 27-C ) :   1.2047 B( 23-C , 24-C ) :   1.2934
B( 23-C , 25-C ) :   1.1019 B( 24-C , 79-H ) :   1.0092 B( 25-C , 26-N ) :   3.0266
B( 27-C , 28-C ) :   1.5629 B( 27-C , 80-H ) :   0.9404 B( 28-C , 29-C ) :   1.1726
B( 28-C , 81-H ) :   0.9596 B( 29-C , 30-N ) :   1.1585 B( 29-C , 36-C ) :   1.3397
B( 30-N , 31-C ) :   0.9435 B( 30-N , 33-C ) :   1.0549 B( 31-C , 32-C ) :   1.1207
B( 31-C , 82-H ) :   0.9278 B( 31-C , 83-H ) :   0.9502 B( 32-C , 84-H ) :   0.9639
B( 32-C , 85-H ) :   0.9679 B( 32-C , 86-H ) :   0.9684 B( 33-C , 34-O ) :   2.0519
B( 33-C , 35-C ) :   0.9790 B( 35-C , 36-C ) :   1.2649 B( 35-C , 42-C ) :   1.3406
B( 36-C , 37-C ) :   0.9795 B( 37-C , 38-O ) :   2.0424 B( 37-C , 39-N ) :   1.0551
B( 38-O , 80-H ) :   0.1074 B( 39-N , 40-C ) :   0.9442 B( 39-N , 42-C ) :   1.1641
B( 40-C , 41-C ) :   1.1190 B( 40-C , 87-H ) :   0.9278 B( 40-C , 88-H ) :   0.9502
B( 41-C , 89-H ) :   0.9637 B( 41-C , 90-H ) :   0.9682 B( 41-C , 91-H ) :   0.9688
B( 42-C , 43-C ) :   1.1663 B( 43-C , 44-C ) :   1.5753 B( 43-C , 92-H ) :   0.9578
B( 44-C , 45-C ) :   1.1250 B( 44-C , 93-H ) :   0.9594 B( 45-C , 46-S ) :   1.0828
B( 45-C , 49-N ) :   1.6449 B( 46-S , 47-C ) :   1.0919 B( 47-C , 48-N ) :   1.6581
B( 47-C , 50-C ) :   1.0913 B( 48-N , 49-N ) :   1.2511 B( 50-C , 51-C ) :   1.6316
B( 50-C , 94-H ) :   0.9592 B( 51-C , 52-C ) :   1.1189 B( 51-C , 95-H ) :   0.9841
B( 52-C , 53-C ) :   1.5750 B( 52-C , 96-H ) :   0.9592 B( 53-C , 54-C ) :   1.0564
B( 53-C , 62-C ) :   0.9289 B( 54-C , 55-C ) :   1.6316 B( 54-C , 60-C ) :   0.9897
B( 55-C , 56-C ) :   1.1431 B( 55-C , 58-C ) :   1.1472 B( 56-C , 57-N ) :   2.9629
B( 58-C , 59-N ) :   2.9590 B( 60-C , 61-C ) :   1.2156 B( 60-C , 67-C ) :   1.4430
B( 61-C , 62-C ) :   0.9413 B( 61-C , 64-C ) :   1.4700 B( 62-C , 63-O ) :   2.2250
B( 64-C , 65-C ) :   1.1794 B( 64-C , 97-H ) :   1.0164 B( 65-C , 66-C ) :   1.2547
B( 65-C , 71-C ) :   1.2431 B( 66-C , 67-C ) :   1.2095 B( 66-C , 68-C ) :   1.2378
B( 67-C , 98-H ) :   0.9892 B( 68-C , 69-C ) :   1.4900 B( 68-C , 99-H ) :   0.9974
B( 69-C , 70-C ) :   1.2583 B( 69-C ,100-H ) :   0.9890 B( 70-C , 71-C ) :   1.4888
B( 70-C ,101-H ) :   0.9885 B( 71-C ,102-H ) :   0.9979

-----------------------------------------------------------------------------
         ABSORPTION SPECTRUM VIA TRANSITION ELECTRIC DIPOLE MOMENTS
-----------------------------------------------------------------------------
State   Energy  Wavelength   fosc         T2         TX        TY        TZ
        (cm-1)    (nm)                  (au**2)     (au)      (au)      (au)
-----------------------------------------------------------------------------
   0   12510.0    799.4   1.244938402  32.76164   4.82282  -3.06178  -0.35720
   1   17773.4    562.6   0.144319031   2.67319  -0.61567   1.34526   0.69600
   2   21772.5    459.3   0.053081326   0.80262  -0.86004   0.17926   0.17553
   3   23187.7    431.3   0.066734113   0.94747  -0.85535  -0.45435  -0.09702
   4   23809.2    420.0   0.594350825   8.21814  -2.11225   1.81860   0.67026
   5   24503.2    408.1   0.000168253   0.00226   0.01634   0.02227  -0.03870
   6   25019.3    399.7   0.084827610   1.11619   0.42176   0.15834   0.95563
   7   25206.5    396.7   0.569270351   7.43500  -1.83645   1.80493   0.89704
   8   25620.6    390.3   0.060424242   0.77642   0.32223  -0.58732  -0.57240
   9   26168.7    382.1   0.001848264   0.02325   0.08629  -0.10799  -0.06439
  10   26898.7    371.8   0.002115081   0.02589   0.14671  -0.04785   0.04553
  11   27392.4    365.1   0.001271074   0.01528   0.12123  -0.02133   0.01121
  12   27696.0    361.1   0.069143198   0.82188   0.57282  -0.68753   0.14514
  13   28255.3    353.9   0.060757021   0.70790  -0.00469   0.30331   0.78478
  14   28883.3    346.2   0.098395155   1.12151  -0.40256   0.78373   0.58756
  15   29025.1    344.5   0.038831763   0.44044  -0.46410   0.07718  -0.46808
  16   29204.5    342.4   0.035707626   0.40252   0.35495   0.13385   0.50854
  17   29724.2    336.4   0.103848805   1.15018  -0.51182   0.91953  -0.20659
  18   30583.0    327.0   0.228518198   2.45990  -0.37097   0.90929   1.22290
  19   30653.5    326.2   0.009031712   0.09700  -0.12347   0.22993   0.16996
  20   31878.9    313.7   0.095583201   0.98708  -0.41497  -0.61341  -0.66228
  21   32328.0    309.3   0.003823961   0.03894   0.09726   0.15076  -0.08218
  22   32925.9    303.7   0.465050259   4.64984  -0.33423   1.07304   1.84030
  23   33029.3    302.8   0.652422223   6.50286   1.34187  -0.64277   2.07102
  24   33102.5    302.1   0.150175110   1.49353  -0.29422   0.83379   0.84366
  25   33480.4    298.7   0.001389202   0.01366   0.03455  -0.09236  -0.06274
  26   33561.5    298.0   0.016016342   0.15711  -0.14133   0.35601  -0.10194
  27   34264.7    291.8   0.021799425   0.20945  -0.27613   0.16267  -0.32671
  28   34330.9    291.3   0.090157904   0.86456   0.46297  -0.65169  -0.47489
  29   34518.7    289.7   0.010305730   0.09829  -0.11752  -0.26555  -0.11815
  30   34805.8    287.3   0.016131653   0.15258  -0.15789   0.32237   0.15405
  31   35015.1    285.6   0.103941128   0.97725   0.03248  -0.40510  -0.90116
  32   35465.1    282.0   0.080763389   0.74970  -0.34149   0.63411   0.48061
  33   35986.1    277.9   0.273079791   2.49822  -0.52300  -0.38846  -1.44007
  34   36131.6    276.8   0.116487046   1.06137   0.21979   0.31326   0.95652
  35   36580.4    273.4   0.148594174   1.33730   0.74708  -0.05693   0.88087
  36   37166.3    269.1   0.226313365   2.00464  -0.68875   0.21711  -1.21784
  37   37528.4    266.5   0.001260362   0.01106   0.05577   0.01567   0.08776
  38   37662.4    265.5   0.053250923   0.46547   0.04677   0.64770   0.20920
  39   37834.6    264.3   0.076197624   0.66302  -0.36309   0.67996  -0.26238
  40   38236.5    261.5   0.013194931   0.11361  -0.18167   0.28368  -0.01126
  41   38441.1    260.1   0.041498968   0.35540  -0.13714   0.55560  -0.16705
  42   38542.3    259.5   0.018662616   0.15941   0.00031   0.18178  -0.35548
  43   38638.1    258.8   0.123803031   1.05485   0.61132  -0.81683   0.11804
  44   39339.8    254.2   0.056846121   0.47571   0.23833  -0.01401   0.64708
  45   39597.9    252.5   0.000110232   0.00092  -0.00305   0.02810  -0.01085
  46   39697.7    251.9   0.039720543   0.32940  -0.00097  -0.57349  -0.02252
  47   40014.7    249.9   0.255814475   2.10466   0.43370  -1.05025  -0.90196
  48   40088.7    249.4   0.001582971   0.01300   0.09049  -0.03956  -0.05698
  49   40221.6    248.6   0.368297359   3.01450  -0.61781  -0.62405  -1.49779

FINAL SINGLE POINT ENERGY     -3776.669879104022

DIPOLE MOMENT
-------------
                                X             Y             Z
Electronic contribution:      2.02761       2.95626     -20.69392
Nuclear contribution   :     -0.87095      -3.91525      24.17692
                        -----------------------------------------
Total Dipole Moment    :      1.15666      -0.95899       3.48300
                        -----------------------------------------
Magnitude (a.u.)       :      3.79326
Magnitude (Debye)      :      9.64170

Rotational constants in cm-1:     0.001972     0.000189     0.000175
Rotational constants in MHz :    59.130436     5.653718     5.232971

                             ****ORCA TERMINATED NORMALLY****
TOTAL RUN TIME: 0 days 0 hours 8 minutes 52 seconds 827 msec
