                         Program Version 4.2.0 -  RELEASE  -
|  1> # ORCA input file
|  2> # SCF done       -179.084944213522          0.000370841597
|  3> ! CAM-B3LYP def2-SVP def2/J RIJCOSX Grid4 TightSCF
|  4> %maxcore 5000
|  5> %tddft
|  6>     Mode sTDDFT
|  7>     Ethresh 5.0
|  8>     maxcore 5000
|  9> end
| 10>
| 11> %pal
| 12>   nprocs 6
| 13>   end
| 14> * xyz 0 1
| 15>    C        1.04143         3.47869        -5.55922
| 16>    C        1.66543         4.31946        -6.44322
| 17>    C        2.26998         3.89046        -7.64424
| 18>    N        2.77307         3.61143        -8.63751
| 19>    C        1.83782         5.71008        -6.27651
| 20>    N        2.03883         6.83882        -6.20666
| 21>    C        0.96065         2.03008        -5.68836
| 22>    C        0.41340         1.50124        -4.48563
| 23>    C        0.22204         0.16145        -4.30579
| 24>    C        0.57003        -0.72841        -5.34612
| 25>    C        1.11084        -0.20692        -6.55721
| 26>    C        1.30195         1.18525        -6.71160
| 27>    C        1.44858        -1.10378        -7.59117
| 28>    C        1.26252        -2.45077        -7.43788
| 29>    C        0.73055        -2.96297        -6.24498
| 30>    C        0.39224        -2.12025        -5.22105
| 31>    C        0.11064         2.59868        -3.55302
| 32>    O       -0.32335         2.47781        -2.42708
| 33>    C        0.42012         3.84983        -4.29489
| 34>    C        0.06447         5.12865        -3.97775
| 35>    C       -0.52257         5.66598        -2.80920
| 36>    S       -1.08209         7.32418        -2.90334
| 37>    C       -1.62040         7.31361        -1.25969
| 38>    C       -1.34119         6.07109        -0.66778
| 39>    C       -0.73158         5.16094        -1.54050
| 40>    C       -1.60917         5.72845         0.66952
| 41>    N       -1.80395         5.41882         1.75780
| 42>    C       -2.24882         8.47013        -0.73318
| 43>    C       -2.75097         8.55984         0.52547
| 44>    C       -3.42354         9.67779         1.10141
| 45>    C       -3.68454         9.70865         2.44761
| 46>    C       -4.58912        10.76664         3.02291
| 47>    C       -5.64801        11.14113         2.04041
| 48>    C       -6.94162        11.46982         2.28140
| 49>    S       -7.79543        11.81429         0.82634
| 50>    C       -6.39052        11.49583        -0.11772
| 51>    C       -5.33024        11.15529         0.65674
| 52>    C       -3.94742        10.78601         0.22240
| 53>    C       -3.08054         8.79776         3.37953
| 54>    C       -3.63089         8.28110         4.52498
| 55>    C       -2.67139         7.44924         5.18072
| 56>    C       -1.44369         7.52119         4.36452
| 57>    C       -1.70215         8.31374         3.29573
| 58>    C       -0.21623         6.89156         4.60722
| 59>    N        0.80998         6.39824         4.75463
| 60>    C       -2.83963         6.73995         6.34178
| 61>    C       -1.84673         5.97715         7.03599
| 62>    C       -2.39982         5.45939         8.18238
| 63>    C       -3.80354         5.85028         8.21960
| 64>    C       -4.06994         6.63900         7.14604
| 65>    C       -5.30063         7.24645         6.87557
| 66>    N       -6.31709         7.74637         6.68229
| 67>    C       -1.80236         4.64695         9.18560
| 68>    C       -0.49663         4.65718         9.57060
| 69>    C        0.10852         3.76061        10.54121
| 70>    C       -0.39805         2.55579        10.95304
| 71>    C        0.24441         1.70334        11.87536
| 72>    N        0.71350         0.97139        12.62496
| 73>    C       -1.60812         1.98976        10.49888
| 74>    N       -2.57359         1.46306        10.16877
| 75>    C        1.39074         4.32678        10.93661
| 76>    C        1.61432         5.51239        10.18057
| 77>    C        0.47708         5.75086         9.27559
| 78>    O        0.34277         6.68688         8.52057
| 79>    C        2.74309         6.26482        10.33420
| 80>    C        3.71951         5.85725        11.27004
| 81>    C        3.50025         4.67593        12.03659
| 82>    C        2.32117         3.91752        11.85552
| 83>    C        4.47846         4.28317        12.97284
| 84>    C        5.61921         5.01918        13.14385
| 85>    C        5.83459         6.18117        12.38765
| 86>    C        4.90546         6.59079        11.47019
| 87>    H       -0.19220        -0.21344        -3.38162
| 88>    H        1.70733         1.54863        -7.64247
| 89>    H        1.85916        -0.70494        -8.50716
| 90>    H        1.52450        -3.12950        -8.23559
| 91>    H        0.58988        -4.02846        -6.14150
| 92>    H       -0.01778        -2.50853        -4.30025
| 93>    H        0.21901         5.87361        -4.75034
| 94>    H       -0.45751         4.16182        -1.25357
| 95>    H       -2.30092         9.30992        -1.41270
| 96>    H       -2.66406         7.69060         1.15973
| 97>    H       -3.97624        11.65072         3.24561
| 98>    H       -5.02515        10.43383         3.96426
| 99>    H       -7.45176        11.53154         3.22158
|100>    H       -6.44035        11.58266        -1.18467
|101>    H       -3.29387        11.66090         0.33059
|102>    H       -3.95192        10.49506        -0.82682
|103>    H       -4.63770         8.41641         4.86742
|104>    H       -0.99977         8.59958         2.53453
|105>    H       -0.84564         5.83029         6.68568
|106>    H       -4.49221         5.57335         8.99704
|107>    H       -2.48999         3.99511         9.71313
|108>    H        2.88889         7.15834         9.74561
|109>    H        2.18050         3.03274        12.45603
|110>    H        4.30915         3.38696        13.55152
|111>    H        6.36270         4.70970        13.86301
|112>    H        6.74024         6.75005        12.53607
|113>    H        5.06550         7.48430        10.88470
|114> *
|115>
|116>                          ****END OF INPUT****

CARTESIAN COORDINATES (ANGSTROEM)
---------------------------------
  C      1.041430    3.478690   -5.559220
  C      1.665430    4.319460   -6.443220
  C      2.269980    3.890460   -7.644240
  N      2.773070    3.611430   -8.637510
  C      1.837820    5.710080   -6.276510
  N      2.038830    6.838820   -6.206660
  C      0.960650    2.030080   -5.688360
  C      0.413400    1.501240   -4.485630
  C      0.222040    0.161450   -4.305790
  C      0.570030   -0.728410   -5.346120
  C      1.110840   -0.206920   -6.557210
  C      1.301950    1.185250   -6.711600
  C      1.448580   -1.103780   -7.591170
  C      1.262520   -2.450770   -7.437880
  C      0.730550   -2.962970   -6.244980
  C      0.392240   -2.120250   -5.221050
  C      0.110640    2.598680   -3.553020
  O     -0.323350    2.477810   -2.427080
  C      0.420120    3.849830   -4.294890
  C      0.064470    5.128650   -3.977750
  C     -0.522570    5.665980   -2.809200
  S     -1.082090    7.324180   -2.903340
  C     -1.620400    7.313610   -1.259690
  C     -1.341190    6.071090   -0.667780
  C     -0.731580    5.160940   -1.540500
  C     -1.609170    5.728450    0.669520
  N     -1.803950    5.418820    1.757800
  C     -2.248820    8.470130   -0.733180
  C     -2.750970    8.559840    0.525470
  C     -3.423540    9.677790    1.101410
  C     -3.684540    9.708650    2.447610
  C     -4.589120   10.766640    3.022910
  C     -5.648010   11.141130    2.040410
  C     -6.941620   11.469820    2.281400
  S     -7.795430   11.814290    0.826340
  C     -6.390520   11.495830   -0.117720
  C     -5.330240   11.155290    0.656740
  C     -3.947420   10.786010    0.222400
  C     -3.080540    8.797760    3.379530
  C     -3.630890    8.281100    4.524980
  C     -2.671390    7.449240    5.180720
  C     -1.443690    7.521190    4.364520
  C     -1.702150    8.313740    3.295730
  C     -0.216230    6.891560    4.607220
  N      0.809980    6.398240    4.754630
  C     -2.839630    6.739950    6.341780
  C     -1.846730    5.977150    7.035990
  C     -2.399820    5.459390    8.182380
  C     -3.803540    5.850280    8.219600
  C     -4.069940    6.639000    7.146040
  C     -5.300630    7.246450    6.875570
  N     -6.317090    7.746370    6.682290
  C     -1.802360    4.646950    9.185600
  C     -0.496630    4.657180    9.570600
  C      0.108520    3.760610   10.541210
  C     -0.398050    2.555790   10.953040
  C      0.244410    1.703340   11.875360
  N      0.713500    0.971390   12.624960
  C     -1.608120    1.989760   10.498880
  N     -2.573590    1.463060   10.168770
  C      1.390740    4.326780   10.936610
  C      1.614320    5.512390   10.180570
  C      0.477080    5.750860    9.275590
  O      0.342770    6.686880    8.520570
  C      2.743090    6.264820   10.334200
  C      3.719510    5.857250   11.270040
  C      3.500250    4.675930   12.036590
  C      2.321170    3.917520   11.855520
  C      4.478460    4.283170   12.972840
  C      5.619210    5.019180   13.143850
  C      5.834590    6.181170   12.387650
  C      4.905460    6.590790   11.470190
  H     -0.192200   -0.213440   -3.381620
  H      1.707330    1.548630   -7.642470
  H      1.859160   -0.704940   -8.507160
  H      1.524500   -3.129500   -8.235590
  H      0.589880   -4.028460   -6.141500
  H     -0.017780   -2.508530   -4.300250
  H      0.219010    5.873610   -4.750340
  H     -0.457510    4.161820   -1.253570
  H     -2.300920    9.309920   -1.412700
  H     -2.664060    7.690600    1.159730
  H     -3.976240   11.650720    3.245610
  H     -5.025150   10.433830    3.964260
  H     -7.451760   11.531540    3.221580
  H     -6.440350   11.582660   -1.184670
  H     -3.293870   11.660900    0.330590
  H     -3.951920   10.495060   -0.826820
  H     -4.637700    8.416410    4.867420
  H     -0.999770    8.599580    2.534530
  H     -0.845640    5.830290    6.685680
  H     -4.492210    5.573350    8.997040
  H     -2.489990    3.995110    9.713130
  H      2.888890    7.158340    9.745610
  H      2.180500    3.032740   12.456030
  H      4.309150    3.386960   13.551520
  H      6.362700    4.709700   13.863010
  H      6.740240    6.750050   12.536070
  H      5.065500    7.484300   10.884700

 Total Charge           Charge          ....    0
 Multiplicity           Mult            ....    1
 Number of Electrons    NEL             ....  490
 Basis Dimension        Dim             .... 1151

ORBITAL ENERGIES
----------------

  NO   OCC          E(Eh)            E(eV)
   0   2.0000     -88.987071     -2421.4613
   1   2.0000     -88.950478     -2420.4656
   2   2.0000     -19.223613      -523.1011
   3   2.0000     -19.218051      -522.9498
   4   2.0000     -14.420071      -392.3901
   5   2.0000     -14.418829      -392.3563
   6   2.0000     -14.417301      -392.3147
   7   2.0000     -14.416897      -392.3037
   8   2.0000     -14.416456      -392.2917
   9   2.0000     -14.409376      -392.0990
  10   2.0000     -14.404602      -391.9691
  11   2.0000     -10.374735      -282.3109
  12   2.0000     -10.369942      -282.1805
  13   2.0000     -10.349079      -281.6128
  14   2.0000     -10.345783      -281.5231
  15   2.0000     -10.344797      -281.4962
  16   2.0000     -10.344608      -281.4911
  17   2.0000     -10.341900      -281.4174
  18   2.0000     -10.331967      -281.1471
  19   2.0000     -10.331092      -281.1233
  20   2.0000     -10.329898      -281.0908
  21   2.0000     -10.326734      -281.0047
  22   2.0000     -10.324912      -280.9551
  23   2.0000     -10.322881      -280.8999
  24   2.0000     -10.322010      -280.8762
  25   2.0000     -10.320146      -280.8255
  26   2.0000     -10.319735      -280.8143
  27   2.0000     -10.319343      -280.8036
  28   2.0000     -10.318881      -280.7910
  29   2.0000     -10.316138      -280.7164
  30   2.0000     -10.315233      -280.6918
  31   2.0000     -10.312081      -280.6060
  32   2.0000     -10.311657      -280.5945
  33   2.0000     -10.310788      -280.5708
  34   2.0000     -10.309981      -280.5488
  35   2.0000     -10.309187      -280.5272
  36   2.0000     -10.307907      -280.4924
  37   2.0000     -10.307873      -280.4915
  38   2.0000     -10.307801      -280.4895
  39   2.0000     -10.306228      -280.4467
  40   2.0000     -10.305730      -280.4332
  41   2.0000     -10.305643      -280.4308
  42   2.0000     -10.305454      -280.4257
  43   2.0000     -10.303865      -280.3824
  44   2.0000     -10.303712      -280.3783
  45   2.0000     -10.302385      -280.3422
  46   2.0000     -10.300319      -280.2859
  47   2.0000     -10.300104      -280.2801
  48   2.0000     -10.299730      -280.2699
  49   2.0000     -10.299479      -280.2631
  50   2.0000     -10.298363      -280.2327
  51   2.0000     -10.298104      -280.2257
  52   2.0000     -10.298040      -280.2239
  53   2.0000     -10.297690      -280.2144
  54   2.0000     -10.296919      -280.1934
  55   2.0000     -10.292571      -280.0751
  56   2.0000     -10.291652      -280.0501
  57   2.0000     -10.291249      -280.0391
  58   2.0000     -10.290118      -280.0084
  59   2.0000     -10.289262      -279.9851
  60   2.0000     -10.289256      -279.9849
  61   2.0000     -10.288787      -279.9721
  62   2.0000     -10.288263      -279.9579
  63   2.0000     -10.288256      -279.9577
  64   2.0000     -10.288034      -279.9516
  65   2.0000     -10.287576      -279.9392
  66   2.0000     -10.287043      -279.9247
  67   2.0000     -10.286467      -279.9090
  68   2.0000     -10.286275      -279.9038
  69   2.0000     -10.285811      -279.8911
  70   2.0000     -10.277628      -279.6685
  71   2.0000     -10.275541      -279.6117
  72   2.0000      -8.082944      -219.9481
  73   2.0000      -8.046635      -218.9601
  74   2.0000      -6.051996      -164.6832
  75   2.0000      -6.048002      -164.5745
  76   2.0000      -6.045253      -164.4997
  77   2.0000      -6.016014      -163.7041
  78   2.0000      -6.011490      -163.5810
  79   2.0000      -6.008927      -163.5112
  80   2.0000      -1.138682       -30.9851
  81   2.0000      -1.133930       -30.8558
  82   2.0000      -1.025500       -27.9053
  83   2.0000      -1.021459       -27.7953
  84   2.0000      -1.020274       -27.7631
  85   2.0000      -1.018586       -27.7171
  86   2.0000      -1.002696       -27.2847
  87   2.0000      -1.002184       -27.2708
  88   2.0000      -0.999286       -27.1920
  89   2.0000      -0.998258       -27.1640
  90   2.0000      -0.996694       -27.1214
  91   2.0000      -0.994957       -27.0741
  92   2.0000      -0.990909       -26.9640
  93   2.0000      -0.986002       -26.8305
  94   2.0000      -0.980924       -26.6923
  95   2.0000      -0.974755       -26.5244
  96   2.0000      -0.971900       -26.4467
  97   2.0000      -0.952969       -25.9316
  98   2.0000      -0.931880       -25.3577
  99   2.0000      -0.926308       -25.2061
 100   2.0000      -0.920779       -25.0557
 101   2.0000      -0.908257       -24.7149
 102   2.0000      -0.902941       -24.5703
 103   2.0000      -0.887712       -24.1559
 104   2.0000      -0.885085       -24.0844
 105   2.0000      -0.883387       -24.0382
 106   2.0000      -0.881221       -23.9792
 107   2.0000      -0.877214       -23.8702
 108   2.0000      -0.871718       -23.7207
 109   2.0000      -0.861542       -23.4437
 110   2.0000      -0.852516       -23.1981
 111   2.0000      -0.844989       -22.9933
 112   2.0000      -0.836799       -22.7705
 113   2.0000      -0.830988       -22.6123
 114   2.0000      -0.828808       -22.5530
 115   2.0000      -0.821201       -22.3460
 116   2.0000      -0.803500       -21.8643
 117   2.0000      -0.793807       -21.6006
 118   2.0000      -0.783249       -21.3133
 119   2.0000      -0.773270       -21.0417
 120   2.0000      -0.765780       -20.8379
 121   2.0000      -0.762610       -20.7517
 122   2.0000      -0.756720       -20.5914
 123   2.0000      -0.738332       -20.0910
 124   2.0000      -0.727793       -19.8042
 125   2.0000      -0.722837       -19.6694
 126   2.0000      -0.719379       -19.5753
 127   2.0000      -0.707295       -19.2465
 128   2.0000      -0.704653       -19.1746
 129   2.0000      -0.702852       -19.1256
 130   2.0000      -0.698093       -18.9961
 131   2.0000      -0.696975       -18.9657
 132   2.0000      -0.686665       -18.6851
 133   2.0000      -0.683213       -18.5912
 134   2.0000      -0.679345       -18.4859
 135   2.0000      -0.674504       -18.3542
 136   2.0000      -0.665956       -18.1216
 137   2.0000      -0.660341       -17.9688
 138   2.0000      -0.653518       -17.7831
 139   2.0000      -0.642994       -17.4967
 140   2.0000      -0.640247       -17.4220
 141   2.0000      -0.634383       -17.2624
 142   2.0000      -0.628094       -17.0913
 143   2.0000      -0.622253       -16.9324
 144   2.0000      -0.614721       -16.7274
 145   2.0000      -0.612705       -16.6726
 146   2.0000      -0.608740       -16.5647
 147   2.0000      -0.607083       -16.5196
 148   2.0000      -0.598080       -16.2746
 149   2.0000      -0.588545       -16.0151
 150   2.0000      -0.585565       -15.9340
 151   2.0000      -0.576234       -15.6801
 152   2.0000      -0.573924       -15.6173
 153   2.0000      -0.564337       -15.3564
 154   2.0000      -0.562291       -15.3007
 155   2.0000      -0.560854       -15.2616
 156   2.0000      -0.556029       -15.1303
 157   2.0000      -0.549180       -14.9439
 158   2.0000      -0.548097       -14.9145
 159   2.0000      -0.546759       -14.8781
 160   2.0000      -0.545108       -14.8331
 161   2.0000      -0.542290       -14.7565
 162   2.0000      -0.539452       -14.6792
 163   2.0000      -0.538578       -14.6555
 164   2.0000      -0.536041       -14.5864
 165   2.0000      -0.533185       -14.5087
 166   2.0000      -0.528302       -14.3758
 167   2.0000      -0.524910       -14.2835
 168   2.0000      -0.523956       -14.2576
 169   2.0000      -0.522066       -14.2061
 170   2.0000      -0.520549       -14.1649
 171   2.0000      -0.519204       -14.1283
 172   2.0000      -0.516235       -14.0475
 173   2.0000      -0.515828       -14.0364
 174   2.0000      -0.512206       -13.9378
 175   2.0000      -0.511515       -13.9190
 176   2.0000      -0.509104       -13.8534
 177   2.0000      -0.504201       -13.7200
 178   2.0000      -0.501564       -13.6482
 179   2.0000      -0.501174       -13.6377
 180   2.0000      -0.499120       -13.5818
 181   2.0000      -0.498298       -13.5594
 182   2.0000      -0.497340       -13.5333
 183   2.0000      -0.490976       -13.3601
 184   2.0000      -0.489852       -13.3295
 185   2.0000      -0.486646       -13.2423
 186   2.0000      -0.485670       -13.2158
 187   2.0000      -0.484970       -13.1967
 188   2.0000      -0.479487       -13.0475
 189   2.0000      -0.478184       -13.0120
 190   2.0000      -0.472856       -12.8671
 191   2.0000      -0.472318       -12.8524
 192   2.0000      -0.468209       -12.7406
 193   2.0000      -0.465099       -12.6560
 194   2.0000      -0.454707       -12.3732
 195   2.0000      -0.452099       -12.3022
 196   2.0000      -0.450546       -12.2600
 197   2.0000      -0.449991       -12.2449
 198   2.0000      -0.449753       -12.2384
 199   2.0000      -0.447256       -12.1704
 200   2.0000      -0.446000       -12.1363
 201   2.0000      -0.445216       -12.1150
 202   2.0000      -0.442800       -12.0492
 203   2.0000      -0.442437       -12.0393
 204   2.0000      -0.440524       -11.9873
 205   2.0000      -0.440312       -11.9815
 206   2.0000      -0.437518       -11.9055
 207   2.0000      -0.436431       -11.8759
 208   2.0000      -0.435414       -11.8482
 209   2.0000      -0.434751       -11.8302
 210   2.0000      -0.434568       -11.8252
 211   2.0000      -0.433986       -11.8093
 212   2.0000      -0.433072       -11.7845
 213   2.0000      -0.431093       -11.7306
 214   2.0000      -0.428209       -11.6522
 215   2.0000      -0.427517       -11.6333
 216   2.0000      -0.425603       -11.5812
 217   2.0000      -0.422453       -11.4955
 218   2.0000      -0.420416       -11.4401
 219   2.0000      -0.416158       -11.3242
 220   2.0000      -0.414410       -11.2767
 221   2.0000      -0.411181       -11.1888
 222   2.0000      -0.409871       -11.1532
 223   2.0000      -0.409655       -11.1473
 224   2.0000      -0.403400       -10.9771
 225   2.0000      -0.401105       -10.9146
 226   2.0000      -0.396008       -10.7759
 227   2.0000      -0.381960       -10.3937
 228   2.0000      -0.378566       -10.3013
 229   2.0000      -0.370972       -10.0947
 230   2.0000      -0.360082        -9.7983
 231   2.0000      -0.348944        -9.4952
 232   2.0000      -0.342918        -9.3313
 233   2.0000      -0.342139        -9.3101
 234   2.0000      -0.339016        -9.2251
 235   2.0000      -0.325762        -8.8644
 236   2.0000      -0.319829        -8.7030
 237   2.0000      -0.317686        -8.6447
 238   2.0000      -0.309607        -8.4248
 239   2.0000      -0.305975        -8.3260
 240   2.0000      -0.303397        -8.2558
 241   2.0000      -0.298623        -8.1259
 242   2.0000      -0.295834        -8.0501
 243   2.0000      -0.288368        -7.8469
 244   2.0000      -0.267534        -7.2800
 245   0.0000      -0.132835        -3.6146
 246   0.0000      -0.100634        -2.7384
 247   0.0000      -0.081604        -2.2206
 248   0.0000      -0.065028        -1.7695
 249   0.0000      -0.055686        -1.5153

MULLIKEN ATOMIC CHARGES
-----------------------
   0 C :    0.306608
   1 C :   -0.348515
   2 C :   -0.180047
   3 N :    0.150480
   4 C :   -0.202790
   5 N :    0.160421
   6 C :    0.045517
   7 C :   -0.002294
   8 C :   -0.081691
   9 C :    0.100569
  10 C :    0.096502
  11 C :   -0.082521
  12 C :   -0.018286
  13 C :    0.037354
  14 C :    0.034998
  15 C :   -0.015769
  16 C :    0.161127
  17 O :   -0.150988
  18 C :   -0.088730
  19 C :    0.051343
  20 C :   -0.104756
  21 S :    0.169535
  22 C :   -0.048762
  23 C :   -0.095910
  24 C :    0.043915
  25 C :   -0.155867
  26 N :    0.120374
  27 C :    0.043254
  28 C :   -0.077286
  29 C :   -0.071342
  30 C :   -0.108266
  31 C :    0.296478
  32 C :   -0.046021
  33 C :   -0.152826
  34 S :    0.106005
  35 C :   -0.155253
  36 C :   -0.074809
  37 C :    0.304197
  38 C :    0.051771
  39 C :   -0.106629
  40 C :    0.127157
  41 C :   -0.072192
  42 C :   -0.025651
  43 C :   -0.164017
  44 N :    0.147215
  45 C :    0.064030
  46 C :   -0.013075
  47 C :    0.078384
  48 C :    0.003296
  49 C :   -0.091920
  50 C :   -0.174435
  51 N :    0.128164
  52 C :   -0.018863
  53 C :   -0.080026
  54 C :    0.299947
  55 C :   -0.337513
  56 C :   -0.180464
  57 N :    0.148782
  58 C :   -0.201372
  59 N :    0.165175
  60 C :    0.052602
  61 C :   -0.010027
  62 C :    0.150402
  63 O :   -0.135248
  64 C :   -0.074767
  65 C :    0.097922
  66 C :    0.097681
  67 C :   -0.083617
  68 C :   -0.017945
  69 C :    0.035375
  70 C :    0.038501
  71 C :   -0.016267
  72 H :   -0.010556
  73 H :   -0.006426
  74 H :   -0.009077
  75 H :   -0.003266
  76 H :   -0.002563
  77 H :   -0.015849
  78 H :    0.016123
  79 H :    0.030210
  80 H :   -0.009364
  81 H :    0.040260
  82 H :    0.033315
  83 H :    0.011538
  84 H :    0.019413
  85 H :    0.012076
  86 H :    0.028502
  87 H :   -0.003498
  88 H :    0.010795
  89 H :    0.010170
  90 H :    0.020286
  91 H :    0.003888
  92 H :    0.028053
  93 H :   -0.010143
  94 H :   -0.007976
  95 H :   -0.008892
  96 H :   -0.003967
  97 H :   -0.004720
  98 H :   -0.016659
Sum of atomic charges:   -0.0000000

LOEWDIN ATOMIC CHARGES
----------------------
   0 C :    0.076585
   1 C :   -0.139592
   2 C :   -0.017238
   3 N :   -0.051738
   4 C :   -0.025628
   5 N :   -0.050978
   6 C :   -0.026873
   7 C :   -0.055948
   8 C :    0.034043
   9 C :   -0.007749
  10 C :   -0.005731
  11 C :    0.020422
  12 C :   -0.005077
  13 C :   -0.012207
  14 C :   -0.011079
  15 C :   -0.008661
  16 C :    0.088044
  17 O :   -0.138789
  18 C :   -0.086921
  19 C :    0.044783
  20 C :   -0.181457
  21 S :    0.479202
  22 C :   -0.118476
  23 C :   -0.114827
  24 C :    0.025773
  25 C :   -0.023140
  26 N :   -0.054007
  27 C :   -0.057517
  28 C :    0.012964
  29 C :   -0.021050
  30 C :    0.002168
  31 C :   -0.007428
  32 C :   -0.068360
  33 C :   -0.190169
  34 S :    0.432985
  35 C :   -0.195723
  36 C :   -0.066204
  37 C :   -0.011089
  38 C :   -0.004749
  39 C :   -0.020037
  40 C :    0.061350
  41 C :   -0.070537
  42 C :    0.055573
  43 C :   -0.026960
  44 N :   -0.054481
  45 C :    0.030710
  46 C :    0.053376
  47 C :   -0.043242
  48 C :    0.062070
  49 C :   -0.090330
  50 C :   -0.029233
  51 N :   -0.068249
  52 C :    0.067789
  53 C :   -0.074771
  54 C :    0.074059
  55 C :   -0.133656
  56 C :   -0.016710
  57 N :   -0.050120
  58 C :   -0.024312
  59 N :   -0.047408
  60 C :   -0.026501
  61 C :   -0.055089
  62 C :    0.085398
  63 O :   -0.126295
  64 C :    0.035588
  65 C :   -0.007433
  66 C :   -0.005570
  67 C :    0.020040
  68 C :   -0.005174
  69 C :   -0.012688
  70 C :   -0.011324
  71 C :   -0.008467
  72 H :    0.039833
  73 H :    0.039259
  74 H :    0.034857
  75 H :    0.033826
  76 H :    0.033644
  77 H :    0.032563
  78 H :    0.043969
  79 H :    0.044426
  80 H :    0.029289
  81 H :    0.041260
  82 H :    0.051910
  83 H :    0.042492
  84 H :    0.023870
  85 H :    0.020682
  86 H :    0.046989
  87 H :    0.032798
  88 H :    0.034914
  89 H :    0.038278
  90 H :    0.039339
  91 H :    0.039552
  92 H :    0.047126
  93 H :    0.040351
  94 H :    0.039021
  95 H :    0.034848
  96 H :    0.033508
  97 H :    0.033055
  98 H :    0.032412

  Mayer bond orders larger than 0.100000
B(  0-C ,  1-C ) :   1.6361 B(  0-C ,  6-C ) :   0.9883 B(  0-C , 18-C ) :   1.0638
B(  1-C ,  2-C ) :   1.1449 B(  1-C ,  4-C ) :   1.1382 B(  2-C ,  3-N ) :   2.9690
B(  4-C ,  5-N ) :   2.9890 B(  6-C ,  7-C ) :   1.2139 B(  6-C , 11-C ) :   1.4504
B(  7-C ,  8-C ) :   1.4682 B(  7-C , 16-C ) :   0.9552 B(  8-C ,  9-C ) :   1.1808
B(  8-C , 72-H ) :   1.0164 B(  9-C , 10-C ) :   1.2534 B(  9-C , 15-C ) :   1.2439
B( 10-C , 11-C ) :   1.2070 B( 10-C , 12-C ) :   1.2426 B( 11-C , 73-H ) :   0.9896
B( 12-C , 13-C ) :   1.4884 B( 12-C , 74-H ) :   0.9966 B( 13-C , 14-C ) :   1.2598
B( 13-C , 75-H ) :   0.9885 B( 14-C , 15-C ) :   1.4887 B( 14-C , 76-H ) :   0.9892
B( 15-C , 77-H ) :   0.9976 B( 16-C , 17-O ) :   2.1790 B( 16-C , 18-C ) :   0.9348
B( 18-C , 19-C ) :   1.6245 B( 19-C , 20-C ) :   1.1825 B( 19-C , 78-H ) :   0.9166
B( 20-C , 21-S ) :   1.0969 B( 20-C , 24-C ) :   1.4445 B( 21-S , 22-C ) :   1.1753
B( 22-C , 23-C ) :   1.3974 B( 22-C , 27-C ) :   1.1555 B( 23-C , 24-C ) :   1.3065
B( 23-C , 25-C ) :   1.1202 B( 24-C , 79-H ) :   0.9811 B( 25-C , 26-N ) :   2.9490
B( 27-C , 28-C ) :   1.6432 B( 27-C , 80-H ) :   0.9460 B( 28-C , 29-C ) :   1.1582
B( 28-C , 81-H ) :   0.9538 B( 29-C , 30-C ) :   1.6501 B( 29-C , 37-C ) :   1.0285
B( 30-C , 31-C ) :   1.0408 B( 30-C , 38-C ) :   1.0579 B( 31-C , 32-C ) :   1.0324
B( 31-C , 82-H ) :   0.8668 B( 31-C , 83-H ) :   0.9001 B( 32-C , 33-C ) :   1.5877
B( 32-C , 36-C ) :   1.2827 B( 33-C , 34-S ) :   1.1691 B( 33-C , 84-H ) :   0.9706
B( 34-S , 35-C ) :   1.1687 B( 35-C , 36-C ) :   1.5924 B( 35-C , 85-H ) :   0.9709
B( 36-C , 37-C ) :   1.0384 B( 37-C , 86-H ) :   0.8663 B( 37-C , 87-H ) :   0.9022
B( 38-C , 39-C ) :   1.5868 B( 38-C , 42-C ) :   1.0416 B( 39-C , 40-C ) :   1.1071
B( 39-C , 88-H ) :   0.9959 B( 40-C , 41-C ) :   1.1022 B( 40-C , 45-C ) :   1.4354
B( 41-C , 42-C ) :   1.6837 B( 41-C , 43-C ) :   1.0929 B( 42-C , 89-H ) :   1.0202
B( 43-C , 44-N ) :   2.9721 B( 45-C , 46-C ) :   1.1105 B( 45-C , 49-C ) :   1.1073
B( 46-C , 47-C ) :   1.5532 B( 46-C , 90-H ) :   0.9884 B( 47-C , 48-C ) :   1.0391
B( 47-C , 52-C ) :   1.0999 B( 48-C , 49-C ) :   1.6604 B( 48-C , 91-H ) :   1.0229
B( 49-C , 50-C ) :   1.0893 B( 50-C , 51-N ) :   2.9638 B( 52-C , 53-C ) :   1.6381
B( 52-C , 92-H ) :   0.9454 B( 53-C , 54-C ) :   1.0454 B( 53-C , 62-C ) :   0.9284
B( 54-C , 55-C ) :   1.6515 B( 54-C , 60-C ) :   0.9964 B( 55-C , 56-C ) :   1.1422
B( 55-C , 58-C ) :   1.1388 B( 56-C , 57-N ) :   2.9672 B( 58-C , 59-N ) :   2.9934
B( 60-C , 61-C ) :   1.2105 B( 60-C , 67-C ) :   1.4456 B( 61-C , 62-C ) :   0.9456
B( 61-C , 64-C ) :   1.4729 B( 62-C , 63-O ) :   2.2259 B( 64-C , 65-C ) :   1.1807
B( 64-C , 93-H ) :   1.0162 B( 65-C , 66-C ) :   1.2545 B( 65-C , 71-C ) :   1.2431
B( 66-C , 67-C ) :   1.2087 B( 66-C , 68-C ) :   1.2383 B( 67-C , 94-H ) :   0.9907
B( 68-C , 69-C ) :   1.4897 B( 68-C , 95-H ) :   0.9979 B( 69-C , 70-C ) :   1.2573
B( 69-C , 96-H ) :   0.9891 B( 70-C , 71-C ) :   1.4909 B( 70-C , 97-H ) :   0.9889
B( 71-C , 98-H ) :   0.9979

-----------------------------------------------------------------------------
         ABSORPTION SPECTRUM VIA TRANSITION ELECTRIC DIPOLE MOMENTS
-----------------------------------------------------------------------------
State   Energy  Wavelength   fosc         T2         TX        TY        TZ
        (cm-1)    (nm)                  (au**2)     (au)      (au)      (au)
-----------------------------------------------------------------------------
   0   13586.5    736.0   0.638926554  15.48176  -0.37871  -0.19046   3.91178
   1   16584.5    603.0   0.028934637   0.57437  -0.38846   0.64500   0.08626
   2   19382.3    515.9   0.288586678   4.90170  -0.46706   0.77498   2.02063
   3   21558.9    463.8   0.799317389  12.20585   1.54693  -1.97922  -2.42807
   4   21926.4    456.1   0.056565584   0.84930   0.16411  -0.83325  -0.35785
   5   22658.3    441.3   0.003695471   0.05369   0.09876  -0.08469  -0.19175
   6   23883.6    418.7   0.046839956   0.64564  -0.29584   0.55992  -0.49458
   7   23971.3    417.2   0.001355855   0.01862  -0.01198  -0.03617   0.13103
   8   25084.7    398.6   0.109042507   1.43108  -0.40581   0.39650  -1.05318
   9   25485.1    392.4   0.073942350   0.95517   0.17256   0.96131  -0.03591
  10   26498.6    377.4   0.681832812   8.47093  -1.45861   1.88369  -1.67186
  11   27358.4    365.5   0.015879241   0.19108   0.19035  -0.32017   0.22878
  12   27812.2    359.6   0.016594460   0.19643   0.20456  -0.16539   0.35669
  13   28107.3    355.8   0.045855383   0.53709  -0.03727  -0.60197  -0.41633
  14   28803.7    347.2   0.034728226   0.39693   0.27105  -0.32917   0.46379
  15   29102.8    343.6   0.027464680   0.31068   0.24788   0.48111  -0.13333
  16   29612.9    337.7   0.017026850   0.18929  -0.36245   0.05169  -0.23505
  17   30017.4    333.1   0.166620771   1.82739  -1.26375  -0.38121  -0.29156
  18   30176.6    331.4   0.005721309   0.06242  -0.19811  -0.08644   0.12529
  19   30300.9    330.0   0.219147506   2.38098  -1.02956   0.20859  -1.13026
  20   30675.7    326.0   0.434529964   4.66338  -0.11146  -2.11983  -0.39658
  21   31485.0    317.6   0.143415114   1.49957   0.79776  -0.54227  -0.75439
  22   31778.0    314.7   0.008794671   0.09111  -0.05197   0.11679   0.27344
  23   31859.1    313.9   0.030900246   0.31930   0.20754  -0.38135  -0.36166
  24   32098.9    311.5   0.032187732   0.33012  -0.51921  -0.23766   0.06372
  25   32374.1    308.9   0.060982306   0.62013   0.32481  -0.71224  -0.08569
  26   32575.0    307.0   0.126958279   1.28307   0.26912   1.08194   0.20013
  27   33072.9    302.4   0.006777250   0.06746   0.06264  -0.11759  -0.22296
  28   34097.7    293.3   0.304526286   2.94019   0.13909   1.69362  -0.22911
  29   34510.8    289.8   0.022268952   0.21243  -0.02292  -0.45807   0.04564
  30   34563.6    289.3   0.068149210   0.64911  -0.71713   0.10923  -0.35058
  31   34859.6    286.9   0.239486753   2.26170  -0.86715  -1.06838   0.60689
  32   35043.1    285.4   0.179160739   1.68312  -0.56867  -1.10342  -0.37708
  33   35206.3    284.0   0.106966310   1.00024  -0.78916   0.53770  -0.29722
  34   35378.2    282.7   0.480223451   4.46872  -1.71187  -1.13265  -0.50531
  35   35581.8    281.0   0.003180620   0.02943   0.08585  -0.14331  -0.03899
  36   35784.1    279.5   0.264035877   2.42911   1.01500   1.18232   0.03179
  37   35937.8    278.3   0.003968918   0.03636  -0.09784   0.03805   0.15918
  38   36362.7    275.0   0.018374308   0.16635   0.23878   0.32271   0.07209
  39   36685.8    272.6   0.001088031   0.00976   0.09634  -0.01414  -0.01683
  40   37020.8    270.1   0.011152598   0.09918  -0.00854  -0.15919   0.27159
  41   37777.5    264.7   0.108800029   0.94814   0.04470  -0.69105   0.68453
  42   38197.6    261.8   0.019800304   0.17065   0.27685   0.26409   0.15576
  43   38829.3    257.5   0.075175216   0.63737  -0.27983  -0.07807   0.74362
  44   39021.6    256.3   0.018932141   0.15972   0.39308  -0.02149  -0.06893
  45   39099.1    255.8   0.040815742   0.34367  -0.51744  -0.08711   0.26141
  46   39392.5    253.9   0.008837946   0.07386   0.14591  -0.05584   0.22238
  47   39674.3    252.1   0.028288896   0.23474   0.43982   0.16367  -0.12044
  48   39775.2    251.4   0.147238220   1.21866  -0.19962  -0.67091   0.85364
  49   39895.7    250.7   0.090804463   0.74930  -0.81788  -0.05648   0.27781
  50   40022.1    249.9   0.066568672   0.54758   0.42568   0.15794  -0.58432
  51   40160.8    249.0   0.004657999   0.03818   0.15584   0.11174   0.03757

FINAL SINGLE POINT ENERGY     -3666.734563156746

DIPOLE MOMENT
-------------
                                X             Y             Z
Electronic contribution:     -5.79312      -1.17783      -2.99000
Nuclear contribution   :      6.28043       2.28292       2.48209
                        -----------------------------------------
Total Dipole Moment    :      0.48731       1.10509      -0.50791
                        -----------------------------------------
Magnitude (a.u.)       :      1.31022
Magnitude (Debye)      :      3.33031

Rotational constants in cm-1:     0.000843     0.000369     0.000289
Rotational constants in MHz :    25.263894    11.075320     8.667822

                             ****ORCA TERMINATED NORMALLY****
TOTAL RUN TIME: 0 days 0 hours 14 minutes 3 seconds 232 msec
