                         Program Version 4.2.0 -  RELEASE  -
|  1> # ORCA input file
|  2> # SCF done       -167.466054515886          0.000490657183
|  3> ! CAM-B3LYP def2-SVP def2/J RIJCOSX Grid4 TightSCF
|  4> %maxcore 5000
|  5> %tddft
|  6>     Mode sTDDFT
|  7>     Ethresh 5.0
|  8>     maxcore 5000
|  9> end
| 10>
| 11> %pal
| 12>   nprocs 6
| 13>   end
| 14> * xyz 0 1
| 15>    C        1.02790         1.14618        -2.24330
| 16>    C        0.98368         0.56943        -1.00142
| 17>    C        1.24971        -0.79534        -0.75868
| 18>    N        1.44809        -1.89449        -0.49425
| 19>    C        0.71720         1.24250         0.21007
| 20>    N        0.52947         1.71982         1.23770
| 21>    C        1.40951         0.46791        -3.47442
| 22>    C        1.53362         1.44228        -4.50446
| 23>    C        1.89013         1.10629        -5.77886
| 24>    C        2.13395        -0.24986        -6.08956
| 25>    C        2.00204        -1.23353        -5.06670
| 26>    C        1.63837        -0.85362        -3.75453
| 27>    C        2.23998        -2.58494        -5.39011
| 28>    C        2.59203        -2.94886        -6.66134
| 29>    C        2.72257        -1.97947        -7.66714
| 30>    C        2.49908        -0.65858        -7.38728
| 31>    C        1.21590         2.77521        -3.96796
| 32>    O        1.28458         3.82237        -4.57607
| 33>    C        0.78691         2.54787        -2.56229
| 34>    C        0.13082         3.40490        -1.72780
| 35>    C       -0.20012         4.77241        -1.87128
| 36>    S       -1.30122         5.43342        -0.67351
| 37>    C       -1.26729         6.99357        -1.41384
| 38>    C       -0.41205         6.98788        -2.52371
| 39>    C        0.18149         5.74573        -2.77356
| 40>    C       -0.19050         8.13852        -3.30149
| 41>    N       -0.02054         9.08769        -3.92191
| 42>    C       -2.03773         8.09524        -0.96743
| 43>    C       -2.87776         8.04903         0.09474
| 44>    C       -3.71671         9.11352         0.51569
| 45>    S       -4.78634         8.88136         1.87251
| 46>    C       -5.47111        10.46513         1.69609
| 47>    C       -4.86026        11.13759         0.63313
| 48>    C       -3.87957        10.37399        -0.01982
| 49>    C       -5.15207        12.45163         0.22778
| 50>    N       -5.35098        13.52068        -0.13834
| 51>    C       -6.52333        10.85969         2.56260
| 52>    C       -7.27126        11.98080         2.42262
| 53>    C       -8.35652        12.33733         3.26865
| 54>    S       -9.36794        13.68313         2.83488
| 55>    C      -10.39266        13.45070         4.21646
| 56>    C       -9.93082        12.37266         4.98239
| 57>    C       -8.79462        11.75387         4.44179
| 58>    C      -10.50061        11.91328         6.18310
| 59>    N      -10.90983        11.49151         7.16855
| 60>    C      -11.50987        14.30536         4.37432
| 61>    C      -12.42676        14.22826         5.37623
| 62>    C      -13.59647        15.01582         5.52788
| 63>    C      -14.01140        16.17665         4.93289
| 64>    C      -15.31273        16.77931         5.19807
| 65>    C      -16.40801        16.15508         5.73494
| 66>    C      -17.64990        16.79132         5.94681
| 67>    N      -18.68220        17.24981         6.15142
| 68>    C      -16.49013        14.79397         6.10081
| 69>    N      -16.66101        13.69679         6.39383
| 70>    C      -15.29201        18.14553         4.69271
| 71>    C      -14.05306        18.35507         4.02598
| 72>    C      -13.23561        17.13362         4.09815
| 73>    O      -12.14724        16.98502         3.58147
| 74>    C      -13.74638        19.54108         3.42292
| 75>    C      -14.68511        20.59548         3.46355
| 76>    C      -15.92499        20.39794         4.13773
| 77>    C      -16.21335        19.15776         4.75225
| 78>    C      -16.85436        21.45745         4.17283
| 79>    C      -16.57553        22.65353         3.56949
| 80>    C      -15.35473        22.84652         2.90559
| 81>    C      -14.42949        21.83953         2.85393
| 82>    H        1.98083         1.86620        -6.54081
| 83>    H        1.54125        -1.62245        -3.00464
| 84>    H        2.13973        -3.32748        -4.61215
| 85>    H        2.77198        -3.98651        -6.89905
| 86>    H        3.00064        -2.28456        -8.66478
| 87>    H        2.59778         0.09233        -8.15744
| 88>    H       -0.24742         2.97780        -0.80574
| 89>    H        0.85727         5.56017        -3.58858
| 90>    H       -1.93545         9.00084        -1.55001
| 91>    H       -2.94919         7.13114         0.66501
| 92>    H       -3.31963        10.74434        -0.85967
| 93>    H       -6.74434        10.16571         3.36216
| 94>    H       -7.07609        12.65498         1.60126
| 95>    H       -8.31481        10.91300         4.90977
| 96>    H      -11.61616        15.06394         3.61241
| 97>    H      -12.31274        13.45103         6.12050
| 98>    H      -14.27311        14.61481         6.27437
| 99>    H      -12.79982        19.67109         2.91951
|100>    H      -17.15804        19.04303         5.25924
|101>    H      -17.79361        21.30365         4.68350
|102>    H      -17.29495        23.45803         3.60002
|103>    H      -15.15130        23.79691         2.43529
|104>    H      -13.48784        21.98184         2.34414
|105> *
|106>
|107>                          ****END OF INPUT****

CARTESIAN COORDINATES (ANGSTROEM)
---------------------------------
  C      1.027900    1.146180   -2.243300
  C      0.983680    0.569430   -1.001420
  C      1.249710   -0.795340   -0.758680
  N      1.448090   -1.894490   -0.494250
  C      0.717200    1.242500    0.210070
  N      0.529470    1.719820    1.237700
  C      1.409510    0.467910   -3.474420
  C      1.533620    1.442280   -4.504460
  C      1.890130    1.106290   -5.778860
  C      2.133950   -0.249860   -6.089560
  C      2.002040   -1.233530   -5.066700
  C      1.638370   -0.853620   -3.754530
  C      2.239980   -2.584940   -5.390110
  C      2.592030   -2.948860   -6.661340
  C      2.722570   -1.979470   -7.667140
  C      2.499080   -0.658580   -7.387280
  C      1.215900    2.775210   -3.967960
  O      1.284580    3.822370   -4.576070
  C      0.786910    2.547870   -2.562290
  C      0.130820    3.404900   -1.727800
  C     -0.200120    4.772410   -1.871280
  S     -1.301220    5.433420   -0.673510
  C     -1.267290    6.993570   -1.413840
  C     -0.412050    6.987880   -2.523710
  C      0.181490    5.745730   -2.773560
  C     -0.190500    8.138520   -3.301490
  N     -0.020540    9.087690   -3.921910
  C     -2.037730    8.095240   -0.967430
  C     -2.877760    8.049030    0.094740
  C     -3.716710    9.113520    0.515690
  S     -4.786340    8.881360    1.872510
  C     -5.471110   10.465130    1.696090
  C     -4.860260   11.137590    0.633130
  C     -3.879570   10.373990   -0.019820
  C     -5.152070   12.451630    0.227780
  N     -5.350980   13.520680   -0.138340
  C     -6.523330   10.859690    2.562600
  C     -7.271260   11.980800    2.422620
  C     -8.356520   12.337330    3.268650
  S     -9.367940   13.683130    2.834880
  C    -10.392660   13.450700    4.216460
  C     -9.930820   12.372660    4.982390
  C     -8.794620   11.753870    4.441790
  C    -10.500610   11.913280    6.183100
  N    -10.909830   11.491510    7.168550
  C    -11.509870   14.305360    4.374320
  C    -12.426760   14.228260    5.376230
  C    -13.596470   15.015820    5.527880
  C    -14.011400   16.176650    4.932890
  C    -15.312730   16.779310    5.198070
  C    -16.408010   16.155080    5.734940
  C    -17.649900   16.791320    5.946810
  N    -18.682200   17.249810    6.151420
  C    -16.490130   14.793970    6.100810
  N    -16.661010   13.696790    6.393830
  C    -15.292010   18.145530    4.692710
  C    -14.053060   18.355070    4.025980
  C    -13.235610   17.133620    4.098150
  O    -12.147240   16.985020    3.581470
  C    -13.746380   19.541080    3.422920
  C    -14.685110   20.595480    3.463550
  C    -15.924990   20.397940    4.137730
  C    -16.213350   19.157760    4.752250
  C    -16.854360   21.457450    4.172830
  C    -16.575530   22.653530    3.569490
  C    -15.354730   22.846520    2.905590
  C    -14.429490   21.839530    2.853930
  H      1.980830    1.866200   -6.540810
  H      1.541250   -1.622450   -3.004640
  H      2.139730   -3.327480   -4.612150
  H      2.771980   -3.986510   -6.899050
  H      3.000640   -2.284560   -8.664780
  H      2.597780    0.092330   -8.157440
  H     -0.247420    2.977800   -0.805740
  H      0.857270    5.560170   -3.588580
  H     -1.935450    9.000840   -1.550010
  H     -2.949190    7.131140    0.665010
  H     -3.319630   10.744340   -0.859670
  H     -6.744340   10.165710    3.362160
  H     -7.076090   12.654980    1.601260
  H     -8.314810   10.913000    4.909770
  H    -11.616160   15.063940    3.612410
  H    -12.312740   13.451030    6.120500
  H    -14.273110   14.614810    6.274370
  H    -12.799820   19.671090    2.919510
  H    -17.158040   19.043030    5.259240
  H    -17.793610   21.303650    4.683500
  H    -17.294950   23.458030    3.600020
  H    -15.151300   23.796910    2.435290
  H    -13.487840   21.981840    2.344140

 Total Charge           Charge          ....    0
 Multiplicity           Mult            ....    1
 Number of Electrons    NEL             ....  466
 Basis Dimension        Dim             .... 1065

ORBITAL ENERGIES
----------------

  NO   OCC          E(Eh)            E(eV)
   0   2.0000     -88.993228     -2421.6288
   1   2.0000     -88.989932     -2421.5392
   2   2.0000     -88.989590     -2421.5299
   3   2.0000     -19.227542      -523.2080
   4   2.0000     -19.222583      -523.0731
   5   2.0000     -14.423210      -392.4755
   6   2.0000     -14.423206      -392.4754
   7   2.0000     -14.420885      -392.4122
   8   2.0000     -14.420223      -392.3942
   9   2.0000     -14.416524      -392.2936
  10   2.0000     -14.414419      -392.2363
  11   2.0000     -14.414226      -392.2310
  12   2.0000     -10.378462      -282.4123
  13   2.0000     -10.373260      -282.2707
  14   2.0000     -10.350197      -281.6432
  15   2.0000     -10.349272      -281.6180
  16   2.0000     -10.348967      -281.6097
  17   2.0000     -10.347960      -281.5823
  18   2.0000     -10.342584      -281.4360
  19   2.0000     -10.340902      -281.3903
  20   2.0000     -10.340409      -281.3768
  21   2.0000     -10.336808      -281.2788
  22   2.0000     -10.336247      -281.2636
  23   2.0000     -10.335270      -281.2370
  24   2.0000     -10.334606      -281.2189
  25   2.0000     -10.334295      -281.2105
  26   2.0000     -10.333809      -281.1972
  27   2.0000     -10.329347      -281.0758
  28   2.0000     -10.325916      -280.9825
  29   2.0000     -10.323929      -280.9284
  30   2.0000     -10.323820      -280.9254
  31   2.0000     -10.322955      -280.9019
  32   2.0000     -10.320959      -280.8476
  33   2.0000     -10.319279      -280.8019
  34   2.0000     -10.317447      -280.7520
  35   2.0000     -10.317169      -280.7444
  36   2.0000     -10.316873      -280.7364
  37   2.0000     -10.316636      -280.7299
  38   2.0000     -10.316420      -280.7241
  39   2.0000     -10.315420      -280.6968
  40   2.0000     -10.315203      -280.6909
  41   2.0000     -10.312864      -280.6273
  42   2.0000     -10.312069      -280.6057
  43   2.0000     -10.309991      -280.5491
  44   2.0000     -10.309910      -280.5469
  45   2.0000     -10.308766      -280.5158
  46   2.0000     -10.304106      -280.3890
  47   2.0000     -10.303235      -280.3653
  48   2.0000     -10.303166      -280.3634
  49   2.0000     -10.302983      -280.3584
  50   2.0000     -10.302631      -280.3488
  51   2.0000     -10.302549      -280.3466
  52   2.0000     -10.298593      -280.2390
  53   2.0000     -10.298337      -280.2320
  54   2.0000     -10.297802      -280.2174
  55   2.0000     -10.297371      -280.2057
  56   2.0000     -10.297149      -280.1997
  57   2.0000     -10.294816      -280.1362
  58   2.0000     -10.291414      -280.0436
  59   2.0000     -10.290911      -280.0299
  60   2.0000     -10.290668      -280.0233
  61   2.0000     -10.290199      -280.0106
  62   2.0000     -10.289713      -279.9973
  63   2.0000     -10.287351      -279.9330
  64   2.0000     -10.286861      -279.9197
  65   2.0000     -10.286614      -279.9130
  66   2.0000     -10.286022      -279.8969
  67   2.0000      -8.089007      -220.1131
  68   2.0000      -8.085603      -220.0205
  69   2.0000      -8.085151      -220.0081
  70   2.0000      -6.058099      -164.8493
  71   2.0000      -6.054709      -164.7570
  72   2.0000      -6.054182      -164.7427
  73   2.0000      -6.054087      -164.7401
  74   2.0000      -6.051322      -164.6648
  75   2.0000      -6.050723      -164.6485
  76   2.0000      -6.050087      -164.6312
  77   2.0000      -6.047836      -164.5700
  78   2.0000      -6.047656      -164.5651
  79   2.0000      -1.142424       -31.0869
  80   2.0000      -1.137368       -30.9493
  81   2.0000      -1.031057       -28.0565
  82   2.0000      -1.027836       -27.9688
  83   2.0000      -1.025984       -27.9184
  84   2.0000      -1.024196       -27.8698
  85   2.0000      -1.018164       -27.7057
  86   2.0000      -1.005269       -27.3548
  87   2.0000      -1.002813       -27.2879
  88   2.0000      -0.999958       -27.2103
  89   2.0000      -0.999820       -27.2065
  90   2.0000      -0.998811       -27.1790
  91   2.0000      -0.996049       -27.1039
  92   2.0000      -0.992722       -27.0133
  93   2.0000      -0.977781       -26.6068
  94   2.0000      -0.972493       -26.4629
  95   2.0000      -0.948173       -25.8011
  96   2.0000      -0.938178       -25.5291
  97   2.0000      -0.931475       -25.3467
  98   2.0000      -0.925848       -25.1936
  99   2.0000      -0.918015       -24.9805
 100   2.0000      -0.910687       -24.7811
 101   2.0000      -0.895231       -24.3605
 102   2.0000      -0.892197       -24.2779
 103   2.0000      -0.886491       -24.1226
 104   2.0000      -0.885561       -24.0973
 105   2.0000      -0.884411       -24.0661
 106   2.0000      -0.881804       -23.9951
 107   2.0000      -0.876090       -23.8396
 108   2.0000      -0.868586       -23.6354
 109   2.0000      -0.853652       -23.2290
 110   2.0000      -0.834214       -22.7001
 111   2.0000      -0.833289       -22.6750
 112   2.0000      -0.829015       -22.5586
 113   2.0000      -0.816268       -22.2118
 114   2.0000      -0.800208       -21.7748
 115   2.0000      -0.787369       -21.4254
 116   2.0000      -0.768983       -20.9251
 117   2.0000      -0.762901       -20.7596
 118   2.0000      -0.760172       -20.6853
 119   2.0000      -0.758581       -20.6420
 120   2.0000      -0.744939       -20.2708
 121   2.0000      -0.739679       -20.1277
 122   2.0000      -0.712364       -19.3844
 123   2.0000      -0.709624       -19.3099
 124   2.0000      -0.705616       -19.2008
 125   2.0000      -0.704769       -19.1777
 126   2.0000      -0.700031       -19.0488
 127   2.0000      -0.697466       -18.9790
 128   2.0000      -0.692204       -18.8358
 129   2.0000      -0.686996       -18.6941
 130   2.0000      -0.684724       -18.6323
 131   2.0000      -0.672855       -18.3093
 132   2.0000      -0.672327       -18.2950
 133   2.0000      -0.662396       -18.0247
 134   2.0000      -0.649009       -17.6604
 135   2.0000      -0.643957       -17.5230
 136   2.0000      -0.641971       -17.4689
 137   2.0000      -0.633116       -17.2280
 138   2.0000      -0.630718       -17.1627
 139   2.0000      -0.622467       -16.9382
 140   2.0000      -0.619055       -16.8453
 141   2.0000      -0.611960       -16.6523
 142   2.0000      -0.607595       -16.5335
 143   2.0000      -0.599553       -16.3147
 144   2.0000      -0.594973       -16.1900
 145   2.0000      -0.590684       -16.0733
 146   2.0000      -0.574776       -15.6404
 147   2.0000      -0.571169       -15.5423
 148   2.0000      -0.569564       -15.4986
 149   2.0000      -0.564702       -15.3663
 150   2.0000      -0.561581       -15.2814
 151   2.0000      -0.557412       -15.1680
 152   2.0000      -0.552075       -15.0227
 153   2.0000      -0.548316       -14.9204
 154   2.0000      -0.547465       -14.8973
 155   2.0000      -0.545597       -14.8464
 156   2.0000      -0.541893       -14.7457
 157   2.0000      -0.538195       -14.6450
 158   2.0000      -0.534808       -14.5529
 159   2.0000      -0.532290       -14.4843
 160   2.0000      -0.531293       -14.4572
 161   2.0000      -0.526521       -14.3274
 162   2.0000      -0.525233       -14.2923
 163   2.0000      -0.524069       -14.2606
 164   2.0000      -0.522665       -14.2224
 165   2.0000      -0.522184       -14.2093
 166   2.0000      -0.519824       -14.1451
 167   2.0000      -0.517480       -14.0813
 168   2.0000      -0.515564       -14.0292
 169   2.0000      -0.509956       -13.8766
 170   2.0000      -0.509327       -13.8595
 171   2.0000      -0.507094       -13.7987
 172   2.0000      -0.504246       -13.7212
 173   2.0000      -0.501569       -13.6484
 174   2.0000      -0.496777       -13.5180
 175   2.0000      -0.495169       -13.4742
 176   2.0000      -0.492892       -13.4123
 177   2.0000      -0.492147       -13.3920
 178   2.0000      -0.487563       -13.2673
 179   2.0000      -0.481132       -13.0923
 180   2.0000      -0.475701       -12.9445
 181   2.0000      -0.471231       -12.8228
 182   2.0000      -0.469857       -12.7855
 183   2.0000      -0.464689       -12.6448
 184   2.0000      -0.463476       -12.6118
 185   2.0000      -0.459198       -12.4954
 186   2.0000      -0.457885       -12.4597
 187   2.0000      -0.455164       -12.3856
 188   2.0000      -0.453981       -12.3535
 189   2.0000      -0.452991       -12.3265
 190   2.0000      -0.450804       -12.2670
 191   2.0000      -0.449764       -12.2387
 192   2.0000      -0.448828       -12.2132
 193   2.0000      -0.447292       -12.1714
 194   2.0000      -0.446142       -12.1401
 195   2.0000      -0.445641       -12.1265
 196   2.0000      -0.443396       -12.0654
 197   2.0000      -0.442514       -12.0414
 198   2.0000      -0.442017       -12.0279
 199   2.0000      -0.440037       -11.9740
 200   2.0000      -0.439467       -11.9585
 201   2.0000      -0.439344       -11.9552
 202   2.0000      -0.435374       -11.8471
 203   2.0000      -0.433736       -11.8026
 204   2.0000      -0.433555       -11.7976
 205   2.0000      -0.431800       -11.7499
 206   2.0000      -0.426057       -11.5936
 207   2.0000      -0.425166       -11.5694
 208   2.0000      -0.421209       -11.4617
 209   2.0000      -0.420681       -11.4473
 210   2.0000      -0.419279       -11.4092
 211   2.0000      -0.417307       -11.3555
 212   2.0000      -0.412960       -11.2372
 213   2.0000      -0.412175       -11.2158
 214   2.0000      -0.406264       -11.0550
 215   2.0000      -0.402375       -10.9492
 216   2.0000      -0.391436       -10.6515
 217   2.0000      -0.382733       -10.4147
 218   2.0000      -0.377734       -10.2787
 219   2.0000      -0.366666        -9.9775
 220   2.0000      -0.353474        -9.6185
 221   2.0000      -0.351657        -9.5691
 222   2.0000      -0.350178        -9.5288
 223   2.0000      -0.346796        -9.4368
 224   2.0000      -0.345518        -9.4020
 225   2.0000      -0.341303        -9.2873
 226   2.0000      -0.324687        -8.8352
 227   2.0000      -0.320565        -8.7230
 228   2.0000      -0.316266        -8.6060
 229   2.0000      -0.300875        -8.1872
 230   2.0000      -0.296046        -8.0558
 231   2.0000      -0.286236        -7.7889
 232   2.0000      -0.262115        -7.1325
 233   0.0000      -0.116291        -3.1644
 234   0.0000      -0.104777        -2.8511
 235   0.0000      -0.077972        -2.1217
 236   0.0000      -0.065298        -1.7768
 237   0.0000      -0.060279        -1.6403

MULLIKEN ATOMIC CHARGES
-----------------------
   0 C :    0.302671
   1 C :   -0.346399
   2 C :   -0.182141
   3 N :    0.152633
   4 C :   -0.199289
   5 N :    0.157831
   6 C :    0.048276
   7 C :   -0.002791
   8 C :   -0.080057
   9 C :    0.098488
  10 C :    0.097759
  11 C :   -0.081193
  12 C :   -0.020210
  13 C :    0.035546
  14 C :    0.037685
  15 C :   -0.016305
  16 C :    0.162771
  17 O :   -0.153815
  18 C :   -0.084334
  19 C :    0.047455
  20 C :   -0.101258
  21 S :    0.151079
  22 C :   -0.028465
  23 C :   -0.080786
  24 C :    0.046541
  25 C :   -0.178597
  26 N :    0.136870
  27 C :   -0.011030
  28 C :    0.075684
  29 C :   -0.082368
  30 S :    0.166034
  31 C :   -0.056755
  32 C :   -0.079411
  33 C :    0.025905
  34 C :   -0.173762
  35 N :    0.124778
  36 C :    0.043355
  37 C :    0.062902
  38 C :   -0.077736
  39 S :    0.198381
  40 C :   -0.083694
  41 C :   -0.063769
  42 C :    0.015475
  43 C :   -0.171856
  44 N :    0.131777
  45 C :    0.099847
  46 C :   -0.028040
  47 C :   -0.007770
  48 C :   -0.072927
  49 C :    0.302903
  50 C :   -0.346059
  51 C :   -0.180933
  52 N :    0.146673
  53 C :   -0.210383
  54 N :    0.171871
  55 C :    0.045649
  56 C :    0.003998
  57 C :    0.163468
  58 O :   -0.160598
  59 C :   -0.080074
  60 C :    0.095854
  61 C :    0.095122
  62 C :   -0.079948
  63 C :   -0.017760
  64 C :    0.034983
  65 C :    0.037694
  66 C :   -0.013872
  67 H :   -0.009764
  68 H :   -0.006006
  69 H :   -0.006997
  70 H :   -0.002548
  71 H :   -0.003532
  72 H :   -0.014656
  73 H :    0.015826
  74 H :    0.029817
  75 H :    0.020316
  76 H :    0.001585
  77 H :    0.008860
  78 H :   -0.010009
  79 H :    0.007525
  80 H :    0.001742
  81 H :    0.017905
  82 H :    0.013420
  83 H :    0.030202
  84 H :   -0.014106
  85 H :   -0.007917
  86 H :   -0.009372
  87 H :   -0.003083
  88 H :   -0.005176
  89 H :   -0.017605
Sum of atomic charges:   -0.0000000

LOEWDIN ATOMIC CHARGES
----------------------
   0 C :    0.076408
   1 C :   -0.138295
   2 C :   -0.017460
   3 N :   -0.050077
   4 C :   -0.025339
   5 N :   -0.050255
   6 C :   -0.026998
   7 C :   -0.056306
   8 C :    0.034102
   9 C :   -0.007831
  10 C :   -0.005615
  11 C :    0.020895
  12 C :   -0.004912
  13 C :   -0.011661
  14 C :   -0.010449
  15 C :   -0.008762
  16 C :    0.088907
  17 O :   -0.138840
  18 C :   -0.084330
  19 C :    0.043449
  20 C :   -0.173548
  21 S :    0.470164
  22 C :   -0.121910
  23 C :   -0.108334
  24 C :    0.020549
  25 C :   -0.032354
  26 N :   -0.047957
  27 C :   -0.035430
  28 C :   -0.016977
  29 C :   -0.172512
  30 S :    0.472957
  31 C :   -0.135104
  32 C :   -0.103736
  33 C :   -0.008616
  34 C :   -0.029123
  35 N :   -0.050121
  36 C :   -0.038702
  37 C :   -0.016548
  38 C :   -0.162503
  39 S :    0.501261
  40 C :   -0.147276
  41 C :   -0.088711
  42 C :   -0.018166
  43 C :   -0.029282
  44 N :   -0.043665
  45 C :    0.016424
  46 C :   -0.033965
  47 C :    0.066089
  48 C :   -0.083776
  49 C :    0.074539
  50 C :   -0.135868
  51 C :   -0.016210
  52 N :   -0.052482
  53 C :   -0.028453
  54 N :   -0.045240
  55 C :   -0.026115
  56 C :   -0.055817
  57 C :    0.087942
  58 O :   -0.143641
  59 C :    0.032894
  60 C :   -0.008581
  61 C :   -0.005582
  62 C :    0.019530
  63 C :   -0.005095
  64 C :   -0.012758
  65 C :   -0.011972
  66 C :   -0.009339
  67 H :    0.039897
  68 H :    0.039470
  69 H :    0.035368
  70 H :    0.034056
  71 H :    0.033560
  72 H :    0.032731
  73 H :    0.043798
  74 H :    0.043858
  75 H :    0.043833
  76 H :    0.028402
  77 H :    0.043738
  78 H :    0.031685
  79 H :    0.039597
  80 H :    0.039728
  81 H :    0.032921
  82 H :    0.041696
  83 H :    0.050946
  84 H :    0.038638
  85 H :    0.039139
  86 H :    0.034963
  87 H :    0.033590
  88 H :    0.032927
  89 H :    0.031947

  Mayer bond orders larger than 0.100000
B(  0-C ,  1-C ) :   1.6377 B(  0-C ,  6-C ) :   0.9899 B(  0-C , 18-C ) :   1.0632
B(  1-C ,  2-C ) :   1.1460 B(  1-C ,  4-C ) :   1.1377 B(  2-C ,  3-N ) :   2.9691
B(  4-C ,  5-N ) :   2.9879 B(  6-C ,  7-C ) :   1.2146 B(  6-C , 11-C ) :   1.4474
B(  7-C ,  8-C ) :   1.4682 B(  7-C , 16-C ) :   0.9557 B(  8-C ,  9-C ) :   1.1800
B(  8-C , 67-H ) :   1.0168 B(  9-C , 10-C ) :   1.2550 B(  9-C , 15-C ) :   1.2440
B( 10-C , 11-C ) :   1.2073 B( 10-C , 12-C ) :   1.2385 B( 11-C , 68-H ) :   0.9912
B( 12-C , 13-C ) :   1.4896 B( 12-C , 69-H ) :   0.9981 B( 13-C , 14-C ) :   1.2593
B( 13-C , 70-H ) :   0.9889 B( 14-C , 15-C ) :   1.4887 B( 14-C , 71-H ) :   0.9889
B( 15-C , 72-H ) :   0.9982 B( 16-C , 17-O ) :   2.1729 B( 16-C , 18-C ) :   0.9325
B( 18-C , 19-C ) :   1.6282 B( 19-C , 20-C ) :   1.1828 B( 19-C , 73-H ) :   0.9167
B( 20-C , 21-S ) :   1.0972 B( 20-C , 24-C ) :   1.4551 B( 21-S , 22-C ) :   1.1560
B( 22-C , 23-C ) :   1.4067 B( 22-C , 27-C ) :   1.1981 B( 23-C , 24-C ) :   1.2825
B( 23-C , 25-C ) :   1.1036 B( 24-C , 74-H ) :   0.9817 B( 25-C , 26-N ) :   3.0180
B( 27-C , 28-C ) :   1.6590 B( 27-C , 75-H ) :   0.9594 B( 28-C , 29-C ) :   1.1242
B( 28-C , 76-H ) :   0.9609 B( 29-C , 30-S ) :   1.1134 B( 29-C , 33-C ) :   1.4729
B( 30-S , 31-C ) :   1.1479 B( 31-C , 32-C ) :   1.4373 B( 31-C , 36-C ) :   1.1554
B( 32-C , 33-C ) :   1.3099 B( 32-C , 34-C ) :   1.1119 B( 33-C , 77-H ) :   1.0002
B( 34-C , 35-N ) :   2.9730 B( 36-C , 37-C ) :   1.6949 B( 36-C , 78-H ) :   0.9467
B( 37-C , 38-C ) :   1.1238 B( 37-C , 79-H ) :   0.9456 B( 38-C , 39-S ) :   1.1439
B( 38-C , 42-C ) :   1.4512 B( 39-S , 40-C ) :   1.1493 B( 40-C , 41-C ) :   1.4074
B( 40-C , 45-C ) :   1.1764 B( 41-C , 42-C ) :   1.3321 B( 41-C , 43-C ) :   1.1151
B( 42-C , 80-H ) :   0.9993 B( 43-C , 44-N ) :   2.9778 B( 45-C , 46-C ) :   1.6277
B( 45-C , 81-H ) :   0.9122 B( 46-C , 47-C ) :   1.2307 B( 46-C , 82-H ) :   0.9531
B( 47-C , 48-C ) :   1.5761 B( 47-C , 83-H ) :   0.9429 B( 48-C , 49-C ) :   1.0658
B( 48-C , 57-C ) :   0.9375 B( 49-C , 50-C ) :   1.6346 B( 49-C , 55-C ) :   0.9868
B( 50-C , 51-C ) :   1.1473 B( 50-C , 53-C ) :   1.1376 B( 51-C , 52-N ) :   2.9663
B( 53-C , 54-N ) :   3.0018 B( 55-C , 56-C ) :   1.2172 B( 55-C , 62-C ) :   1.4494
B( 56-C , 57-C ) :   0.9588 B( 56-C , 59-C ) :   1.4674 B( 57-C , 58-O ) :   2.1562
B( 59-C , 60-C ) :   1.1800 B( 59-C , 84-H ) :   1.0160 B( 60-C , 61-C ) :   1.2578
B( 60-C , 66-C ) :   1.2440 B( 61-C , 62-C ) :   1.2067 B( 61-C , 63-C ) :   1.2402
B( 62-C , 85-H ) :   0.9898 B( 63-C , 64-C ) :   1.4903 B( 63-C , 86-H ) :   0.9966
B( 64-C , 65-C ) :   1.2609 B( 64-C , 87-H ) :   0.9880 B( 65-C , 66-C ) :   1.4899
B( 65-C , 88-H ) :   0.9879 B( 66-C , 89-H ) :   0.9970

-----------------------------------------------------------------------------
         ABSORPTION SPECTRUM VIA TRANSITION ELECTRIC DIPOLE MOMENTS
-----------------------------------------------------------------------------
State   Energy  Wavelength   fosc         T2         TX        TY        TZ
        (cm-1)    (nm)                  (au**2)     (au)      (au)      (au)
-----------------------------------------------------------------------------
   0   17442.9    573.3   3.037976672  57.33797   5.23579  -4.90487  -2.42214
   1   20968.4    476.9   0.119934519   1.88302   0.70583   1.10622   0.40139
   2   24473.3    408.6   0.023729917   0.31921  -0.11028   0.54584   0.09542
   3   25333.7    394.7   0.050925720   0.66178   0.41431  -0.18783  -0.67442
   4   25943.0    385.5   0.051915102   0.65879   0.03167   0.08186  -0.80690
   5   26379.8    379.1   0.105729154   1.31947   0.48574   0.85133  -0.59896
   6   27028.0    370.0   0.078133613   0.95170   0.12461   0.17946  -0.95077
   7   27993.6    357.2   0.024727537   0.29080   0.36027  -0.39623   0.06333
   8   28133.8    355.4   0.002047182   0.02396  -0.01149  -0.01947  -0.15311
   9   28786.9    347.4   0.005084147   0.05814  -0.10979   0.21364  -0.02113
  10   29358.8    340.6   0.226240834   2.53693  -1.13747   1.05756   0.35308
  11   29793.8    335.6   0.254133312   2.80809   0.47632   0.90868  -1.32496
  12   30192.2    331.2   0.349476175   3.81064  -0.47660   1.78204   0.63862
  13   31935.7    313.1   0.006617296   0.06821  -0.15865  -0.08218  -0.19050
  14   32658.4    306.2   0.080273725   0.80920  -0.02857  -0.81286   0.38424
  15   32776.7    305.1   0.529744235   5.32080  -0.18383  -2.22841   0.56673
  16   33041.0    302.7   0.501534000   4.99716  -0.48063   1.07632   1.89939
  17   33806.5    295.8   0.162388062   1.58136  -0.25160   0.12658   1.22557
  18   34351.5    291.1   0.012137029   0.11632   0.25130   0.12117  -0.19617
  19   34709.4    288.1   0.019043571   0.18062  -0.34131   0.00389   0.25321
  20   34780.5    287.5   0.052091287   0.49307  -0.25995  -0.34638   0.55273
  21   34922.9    286.3   0.002437438   0.02298  -0.13132   0.04779   0.05873
  22   34980.7    285.9   0.018429414   0.17344   0.17080   0.11688  -0.36140
  23   35361.4    282.8   0.056756963   0.52840  -0.00290   0.08736   0.72164
  24   35630.9    280.7   0.050314302   0.46488  -0.13797  -0.43874   0.50334
  25   36206.1    276.2   0.035275141   0.32075  -0.18593   0.51448  -0.14659
  26   37081.0    269.7   0.155529367   1.38082   0.20535   0.78400  -0.85088
  27   37555.2    266.3   0.058701758   0.51458  -0.01898   0.14621   0.70203
  28   38017.5    263.0   0.334290589   2.89478  -0.74149  -0.92665   1.21914
  29   38143.9    262.2   0.060331685   0.52071  -0.68701  -0.21983  -0.02007
  30   38572.9    259.2   0.008366771   0.07141  -0.01683   0.12351  -0.23637
  31   38817.2    257.6   0.015590039   0.13222  -0.24667  -0.24269   0.11169
  32   38932.7    256.9   0.035918166   0.30372  -0.24727  -0.32461  -0.37041
  33   39140.0    255.5   0.014433384   0.12140  -0.11713   0.08941  -0.31573
  34   39731.8    251.7   0.267014929   2.21245   0.83398   0.70120  -1.01254
  35   40160.8    249.0   0.069376906   0.56871   0.56721  -0.43783   0.23511

FINAL SINGLE POINT ENERGY     -3834.107393883419

DIPOLE MOMENT
-------------
                                X             Y             Z
Electronic contribution:      4.97909      -8.77664      12.83233
Nuclear contribution   :     -3.38170       8.80079     -15.52812
                        -----------------------------------------
Total Dipole Moment    :      1.59740       0.02415      -2.69579
                        -----------------------------------------
Magnitude (a.u.)       :      3.13361
Magnitude (Debye)      :      7.96501

Rotational constants in cm-1:     0.002855     0.000168     0.000163
Rotational constants in MHz :    85.585062     5.033964     4.898491

                             ****ORCA TERMINATED NORMALLY****
TOTAL RUN TIME: 0 days 0 hours 7 minutes 18 seconds 517 msec
