                         Program Version 4.2.0 -  RELEASE  -
|  1> # ORCA input file
|  2> # SCF done       -152.445652501230          0.000957622787
|  3> ! CAM-B3LYP def2-SVP def2/J RIJCOSX Grid4 TightSCF
|  4> %maxcore 5000
|  5> %tddft
|  6>     Mode sTDDFT
|  7>     Ethresh 5.0
|  8>     maxcore 5000
|  9> end
| 10>
| 11> %pal
| 12>   nprocs 6
| 13>   end
| 14> * xyz 0 1
| 15>    C       -0.35026         0.06951         4.87841
| 16>    O        0.84769         0.65506         4.93342
| 17>    C        1.09153         1.24663         3.74157
| 18>    C        0.01127         1.03113         2.89437
| 19>    C       -0.92953         0.25736         3.65059
| 20>    C       -2.18161        -0.20732         3.21355
| 21>    N       -3.20075        -0.58496         2.85411
| 22>    C       -0.15895         1.45908         1.57199
| 23>    N       -0.31593         1.79789         0.48748
| 24>    C        2.33039         1.93831         3.57326
| 25>    C        2.69759         2.57707         2.44612
| 26>    C        3.93893         3.28154         2.23754
| 27>    C        4.16581         3.88973         1.00175
| 28>    C        5.34719         4.55537         0.72041
| 29>    N        5.41089         5.10913        -0.61346
| 30>    O        4.45552         5.75520        -0.98009
| 31>    O        6.38337         4.86506        -1.29562
| 32>    C        6.35791         4.70405         1.69053
| 33>    C        6.08962         4.11711         2.94316
| 34>    C        4.94343         3.41145         3.20814
| 35>    C        7.58175         5.46342         1.61030
| 36>    C        8.29600         5.86059         0.53258
| 37>    C        9.48390         6.63218         0.67297
| 38>    N       10.21041         7.08915        -0.39909
| 39>    C        9.88638         6.92657        -1.79749
| 40>    C        8.79218         7.89213        -2.24385
| 41>    C       11.32985         7.83609         0.00376
| 42>    O       12.12150         8.33780        -0.76902
| 43>    C       11.27406         7.81295         1.44912
| 44>    C       10.13148         7.06310         1.82976
| 45>    C       10.09138         7.02372         3.27384
| 46>    O        9.31499         6.50482         4.05514
| 47>    N       11.21189         7.76725         3.67551
| 48>    C       11.54465         7.92742         5.07001
| 49>    C       12.66611         6.98434         5.49901
| 50>    C       11.92669         8.24500         2.59923
| 51>    C       13.08808         9.05000         2.71442
| 52>    C       13.75793         9.52760         1.63669
| 53>    C       14.91146        10.35070         1.72039
| 54>    S       15.64313        10.80748         3.22830
| 55>    C       16.87409        11.73053         2.42572
| 56>    C       17.81210        12.40670         3.29105
| 57>    O       18.73284        13.12256         2.97836
| 58>    C       16.71037        11.67895         1.03493
| 59>    C       15.60140        10.89728         0.65994
| 60>    C       17.55282        12.32694         0.06731
| 61>    O       18.70054        12.91058         0.44256
| 62>    C       19.29955        13.44309        -0.62959
| 63>    C       18.52881        13.20213        -1.75927
| 64>    C       17.38690        12.47348        -1.30679
| 65>    C       16.33491        12.04348        -2.12640
| 66>    N       15.48937        11.70925        -2.82527
| 67>    C       18.81237        13.59904        -3.07288
| 68>    N       19.05569        13.92355        -4.14513
| 69>    C       20.54745        14.14496        -0.49664
| 70>    C       21.11942        14.36038         0.68652
| 71>    H       -0.70184        -0.44980         5.74826
| 72>    H        2.96924         1.90898         4.44426
| 73>    H        2.01923         2.57742         1.60359
| 74>    H        3.40701         3.83840         0.23377
| 75>    H        6.83227         4.23224         3.71857
| 76>    H        4.81333         2.97220         4.18409
| 77>    H        7.98294         5.71917         2.58421
| 78>    H        8.01068         5.59087        -0.47168
| 79>    H        9.58956         5.89226        -1.98831
| 80>    H       10.80834         7.13868        -2.34588
| 81>    H        7.86661         7.71239        -1.70239
| 82>    H        8.60236         7.76115        -3.30505
| 83>    H        9.10548         8.91869        -2.06980
| 84>    H       10.63346         7.69061         5.62652
| 85>    H       11.81551         8.96887         5.26512
| 86>    H       12.36440         5.95227         5.33824
| 87>    H       12.87992         7.12349         6.55505
| 88>    H       13.57384         7.17177         4.92977
| 89>    H       13.43892         9.29881         3.70733
| 90>    H       13.41734         9.29133         0.63638
| 91>    H       17.59060        12.20243         4.35878
| 92>    H       15.30490        10.72878        -0.35945
| 93>    H       20.98047        14.49077        -1.42498
| 94>    H       20.65642        14.01390         1.59610
| 95>    H       22.05265        14.88818         0.77063
| 96> *
| 97>
| 98>                          ****END OF INPUT****

CARTESIAN COORDINATES (ANGSTROEM)
---------------------------------
  C     -0.350260    0.069510    4.878410
  O      0.847690    0.655060    4.933420
  C      1.091530    1.246630    3.741570
  C      0.011270    1.031130    2.894370
  C     -0.929530    0.257360    3.650590
  C     -2.181610   -0.207320    3.213550
  N     -3.200750   -0.584960    2.854110
  C     -0.158950    1.459080    1.571990
  N     -0.315930    1.797890    0.487480
  C      2.330390    1.938310    3.573260
  C      2.697590    2.577070    2.446120
  C      3.938930    3.281540    2.237540
  C      4.165810    3.889730    1.001750
  C      5.347190    4.555370    0.720410
  N      5.410890    5.109130   -0.613460
  O      4.455520    5.755200   -0.980090
  O      6.383370    4.865060   -1.295620
  C      6.357910    4.704050    1.690530
  C      6.089620    4.117110    2.943160
  C      4.943430    3.411450    3.208140
  C      7.581750    5.463420    1.610300
  C      8.296000    5.860590    0.532580
  C      9.483900    6.632180    0.672970
  N     10.210410    7.089150   -0.399090
  C      9.886380    6.926570   -1.797490
  C      8.792180    7.892130   -2.243850
  C     11.329850    7.836090    0.003760
  O     12.121500    8.337800   -0.769020
  C     11.274060    7.812950    1.449120
  C     10.131480    7.063100    1.829760
  C     10.091380    7.023720    3.273840
  O      9.314990    6.504820    4.055140
  N     11.211890    7.767250    3.675510
  C     11.544650    7.927420    5.070010
  C     12.666110    6.984340    5.499010
  C     11.926690    8.245000    2.599230
  C     13.088080    9.050000    2.714420
  C     13.757930    9.527600    1.636690
  C     14.911460   10.350700    1.720390
  S     15.643130   10.807480    3.228300
  C     16.874090   11.730530    2.425720
  C     17.812100   12.406700    3.291050
  O     18.732840   13.122560    2.978360
  C     16.710370   11.678950    1.034930
  C     15.601400   10.897280    0.659940
  C     17.552820   12.326940    0.067310
  O     18.700540   12.910580    0.442560
  C     19.299550   13.443090   -0.629590
  C     18.528810   13.202130   -1.759270
  C     17.386900   12.473480   -1.306790
  C     16.334910   12.043480   -2.126400
  N     15.489370   11.709250   -2.825270
  C     18.812370   13.599040   -3.072880
  N     19.055690   13.923550   -4.145130
  C     20.547450   14.144960   -0.496640
  C     21.119420   14.360380    0.686520
  H     -0.701840   -0.449800    5.748260
  H      2.969240    1.908980    4.444260
  H      2.019230    2.577420    1.603590
  H      3.407010    3.838400    0.233770
  H      6.832270    4.232240    3.718570
  H      4.813330    2.972200    4.184090
  H      7.982940    5.719170    2.584210
  H      8.010680    5.590870   -0.471680
  H      9.589560    5.892260   -1.988310
  H     10.808340    7.138680   -2.345880
  H      7.866610    7.712390   -1.702390
  H      8.602360    7.761150   -3.305050
  H      9.105480    8.918690   -2.069800
  H     10.633460    7.690610    5.626520
  H     11.815510    8.968870    5.265120
  H     12.364400    5.952270    5.338240
  H     12.879920    7.123490    6.555050
  H     13.573840    7.171770    4.929770
  H     13.438920    9.298810    3.707330
  H     13.417340    9.291330    0.636380
  H     17.590600   12.202430    4.358780
  H     15.304900   10.728780   -0.359450
  H     20.980470   14.490770   -1.424980
  H     20.656420   14.013900    1.596100
  H     22.052650   14.888180    0.770630

 Total Charge           Charge          ....    0
 Multiplicity           Mult            ....    1
 Number of Electrons    NEL             ....  392
 Basis Dimension        Dim             ....  913

ORBITAL ENERGIES
----------------

  NO   OCC          E(Eh)            E(eV)
   0   2.0000     -88.985726     -2421.4247
   1   2.0000     -19.340452      -526.2804
   2   2.0000     -19.323618      -525.8224
   3   2.0000     -19.261640      -524.1359
   4   2.0000     -19.260453      -524.1036
   5   2.0000     -19.222012      -523.0575
   6   2.0000     -19.198277      -522.4117
   7   2.0000     -19.198252      -522.4110
   8   2.0000     -14.663476      -399.0135
   9   2.0000     -14.461112      -393.5069
  10   2.0000     -14.458634      -393.4394
  11   2.0000     -14.425586      -392.5402
  12   2.0000     -14.421669      -392.4336
  13   2.0000     -14.419416      -392.3723
  14   2.0000     -14.412720      -392.1901
  15   2.0000     -10.383378      -282.5461
  16   2.0000     -10.381198      -282.4868
  17   2.0000     -10.379866      -282.4505
  18   2.0000     -10.377516      -282.3866
  19   2.0000     -10.375768      -282.3390
  20   2.0000     -10.374561      -282.3062
  21   2.0000     -10.370079      -282.1842
  22   2.0000     -10.347815      -281.5784
  23   2.0000     -10.345695      -281.5207
  24   2.0000     -10.344558      -281.4897
  25   2.0000     -10.341626      -281.4100
  26   2.0000     -10.339063      -281.3402
  27   2.0000     -10.334480      -281.2155
  28   2.0000     -10.333422      -281.1867
  29   2.0000     -10.328239      -281.0457
  30   2.0000     -10.328072      -281.0411
  31   2.0000     -10.326757      -281.0053
  32   2.0000     -10.326663      -281.0028
  33   2.0000     -10.324294      -280.9383
  34   2.0000     -10.322586      -280.8918
  35   2.0000     -10.320213      -280.8273
  36   2.0000     -10.317204      -280.7454
  37   2.0000     -10.314950      -280.6841
  38   2.0000     -10.314796      -280.6799
  39   2.0000     -10.313891      -280.6552
  40   2.0000     -10.313864      -280.6545
  41   2.0000     -10.311607      -280.5931
  42   2.0000     -10.307658      -280.4856
  43   2.0000     -10.305898      -280.4377
  44   2.0000     -10.305704      -280.4325
  45   2.0000     -10.305086      -280.4156
  46   2.0000     -10.303212      -280.3647
  47   2.0000     -10.303064      -280.3606
  48   2.0000     -10.299242      -280.2566
  49   2.0000     -10.296133      -280.1720
  50   2.0000     -10.293662      -280.1048
  51   2.0000     -10.285241      -279.8756
  52   2.0000     -10.272877      -279.5392
  53   2.0000     -10.268396      -279.4173
  54   2.0000     -10.267041      -279.3804
  55   2.0000     -10.260165      -279.1933
  56   2.0000      -8.081319      -219.9039
  57   2.0000      -6.050240      -164.6354
  58   2.0000      -6.046406      -164.5311
  59   2.0000      -6.043852      -164.4616
  60   2.0000      -1.341126       -36.4939
  61   2.0000      -1.260629       -34.3034
  62   2.0000      -1.251340       -34.0507
  63   2.0000      -1.159876       -31.5618
  64   2.0000      -1.140452       -31.0333
  65   2.0000      -1.135540       -30.8996
  66   2.0000      -1.133809       -30.8525
  67   2.0000      -1.070629       -29.1333
  68   2.0000      -1.062266       -28.9057
  69   2.0000      -1.016747       -27.6671
  70   2.0000      -1.014426       -27.6039
  71   2.0000      -1.006992       -27.4017
  72   2.0000      -1.004879       -27.3442
  73   2.0000      -1.003156       -27.2973
  74   2.0000      -0.996371       -27.1126
  75   2.0000      -0.956509       -26.0279
  76   2.0000      -0.947041       -25.7703
  77   2.0000      -0.945632       -25.7320
  78   2.0000      -0.939439       -25.5634
  79   2.0000      -0.933842       -25.4111
  80   2.0000      -0.921860       -25.0851
  81   2.0000      -0.918341       -24.9893
  82   2.0000      -0.913929       -24.8693
  83   2.0000      -0.888656       -24.1816
  84   2.0000      -0.881425       -23.9848
  85   2.0000      -0.876340       -23.8464
  86   2.0000      -0.866879       -23.5890
  87   2.0000      -0.851269       -23.1642
  88   2.0000      -0.833031       -22.6679
  89   2.0000      -0.824910       -22.4469
  90   2.0000      -0.816192       -22.2097
  91   2.0000      -0.801310       -21.8048
  92   2.0000      -0.796522       -21.6745
  93   2.0000      -0.781245       -21.2588
  94   2.0000      -0.778289       -21.1783
  95   2.0000      -0.765185       -20.8217
  96   2.0000      -0.756275       -20.5793
  97   2.0000      -0.751554       -20.4508
  98   2.0000      -0.747138       -20.3306
  99   2.0000      -0.742507       -20.2046
 100   2.0000      -0.725081       -19.7305
 101   2.0000      -0.721020       -19.6200
 102   2.0000      -0.714037       -19.4299
 103   2.0000      -0.710666       -19.3382
 104   2.0000      -0.693989       -18.8844
 105   2.0000      -0.686193       -18.6722
 106   2.0000      -0.674291       -18.3484
 107   2.0000      -0.671994       -18.2859
 108   2.0000      -0.660517       -17.9736
 109   2.0000      -0.654831       -17.8189
 110   2.0000      -0.644444       -17.5362
 111   2.0000      -0.638760       -17.3815
 112   2.0000      -0.635664       -17.2973
 113   2.0000      -0.621937       -16.9238
 114   2.0000      -0.613888       -16.7047
 115   2.0000      -0.611898       -16.6506
 116   2.0000      -0.610045       -16.6002
 117   2.0000      -0.605334       -16.4720
 118   2.0000      -0.602665       -16.3993
 119   2.0000      -0.598435       -16.2842
 120   2.0000      -0.596320       -16.2267
 121   2.0000      -0.595074       -16.1928
 122   2.0000      -0.592995       -16.1362
 123   2.0000      -0.583617       -15.8810
 124   2.0000      -0.579566       -15.7708
 125   2.0000      -0.577337       -15.7101
 126   2.0000      -0.575337       -15.6557
 127   2.0000      -0.571302       -15.5459
 128   2.0000      -0.569293       -15.4912
 129   2.0000      -0.559803       -15.2330
 130   2.0000      -0.554600       -15.0914
 131   2.0000      -0.542065       -14.7503
 132   2.0000      -0.540962       -14.7203
 133   2.0000      -0.537655       -14.6303
 134   2.0000      -0.534066       -14.5327
 135   2.0000      -0.533438       -14.5156
 136   2.0000      -0.529232       -14.4011
 137   2.0000      -0.525243       -14.2926
 138   2.0000      -0.520764       -14.1707
 139   2.0000      -0.519191       -14.1279
 140   2.0000      -0.517809       -14.0903
 141   2.0000      -0.516852       -14.0643
 142   2.0000      -0.508923       -13.8485
 143   2.0000      -0.503970       -13.7137
 144   2.0000      -0.502948       -13.6859
 145   2.0000      -0.502370       -13.6702
 146   2.0000      -0.498937       -13.5768
 147   2.0000      -0.496094       -13.4994
 148   2.0000      -0.485440       -13.2095
 149   2.0000      -0.482039       -13.1170
 150   2.0000      -0.480558       -13.0767
 151   2.0000      -0.479812       -13.0563
 152   2.0000      -0.475891       -12.9497
 153   2.0000      -0.474023       -12.8988
 154   2.0000      -0.471007       -12.8168
 155   2.0000      -0.470032       -12.7902
 156   2.0000      -0.463609       -12.6154
 157   2.0000      -0.462094       -12.5742
 158   2.0000      -0.460930       -12.5425
 159   2.0000      -0.457700       -12.4547
 160   2.0000      -0.457308       -12.4440
 161   2.0000      -0.454948       -12.3798
 162   2.0000      -0.453199       -12.3322
 163   2.0000      -0.449172       -12.2226
 164   2.0000      -0.448944       -12.2164
 165   2.0000      -0.446482       -12.1494
 166   2.0000      -0.444991       -12.1088
 167   2.0000      -0.442827       -12.0499
 168   2.0000      -0.441510       -12.0141
 169   2.0000      -0.439699       -11.9648
 170   2.0000      -0.433436       -11.7944
 171   2.0000      -0.431599       -11.7444
 172   2.0000      -0.430637       -11.7182
 173   2.0000      -0.423932       -11.5358
 174   2.0000      -0.422556       -11.4983
 175   2.0000      -0.417075       -11.3492
 176   2.0000      -0.410237       -11.1631
 177   2.0000      -0.409169       -11.1340
 178   2.0000      -0.400678       -10.9030
 179   2.0000      -0.397686       -10.8216
 180   2.0000      -0.392060       -10.6685
 181   2.0000      -0.389792       -10.6068
 182   2.0000      -0.383521       -10.4361
 183   2.0000      -0.371086       -10.0978
 184   2.0000      -0.369903       -10.0656
 185   2.0000      -0.355032        -9.6609
 186   2.0000      -0.353080        -9.6078
 187   2.0000      -0.352018        -9.5789
 188   2.0000      -0.342449        -9.3185
 189   2.0000      -0.340050        -9.2532
 190   2.0000      -0.337854        -9.1935
 191   2.0000      -0.322449        -8.7743
 192   2.0000      -0.318961        -8.6794
 193   2.0000      -0.295256        -8.0343
 194   2.0000      -0.286814        -7.8046
 195   2.0000      -0.244562        -6.6549
 196   0.0000      -0.103870        -2.8265
 197   0.0000      -0.078765        -2.1433
 198   0.0000      -0.056949        -1.5497
 199   0.0000      -0.048293        -1.3141
 200   0.0000      -0.028934        -0.7873

MULLIKEN ATOMIC CHARGES
-----------------------
   0 C :    0.095888
   1 O :   -0.162338
   2 C :    0.140925
   3 C :   -0.069716
   4 C :   -0.044631
   5 C :   -0.212561
   6 N :    0.217725
   7 C :   -0.263150
   8 N :    0.215300
   9 C :    0.011115
  10 C :   -0.009278
  11 C :    0.099491
  12 C :   -0.038453
  13 C :    0.102330
  14 N :    0.243019
  15 O :   -0.212277
  16 O :   -0.228409
  17 C :    0.123323
  18 C :   -0.033316
  19 C :    0.023543
  20 C :   -0.039279
  21 C :   -0.008318
  22 C :    0.113989
  23 N :   -0.255493
  24 C :    0.094401
  25 C :    0.008527
  26 C :    0.169317
  27 O :   -0.202103
  28 C :   -0.066059
  29 C :   -0.064477
  30 C :    0.168361
  31 O :   -0.221849
  32 N :   -0.256474
  33 C :    0.100162
  34 C :    0.003337
  35 C :    0.130502
  36 C :   -0.025762
  37 C :    0.028884
  38 C :   -0.031228
  39 S :    0.135948
  40 C :   -0.201221
  41 C :    0.179887
  42 O :   -0.166319
  43 C :    0.101714
  44 C :   -0.050046
  45 C :    0.130780
  46 O :   -0.138456
  47 C :    0.107826
  48 C :   -0.028415
  49 C :   -0.025013
  50 C :   -0.303813
  51 N :    0.232088
  52 C :   -0.286018
  53 N :    0.221999
  54 C :   -0.063781
  55 C :    0.026465
  56 H :    0.032238
  57 H :   -0.001044
  58 H :    0.011496
  59 H :    0.010409
  60 H :    0.010719
  61 H :   -0.013424
  62 H :    0.018256
  63 H :   -0.000950
  64 H :    0.035430
  65 H :    0.045065
  66 H :    0.015489
  67 H :    0.029317
  68 H :    0.027143
  69 H :    0.043212
  70 H :    0.023167
  71 H :    0.030002
  72 H :    0.024685
  73 H :    0.015292
  74 H :   -0.018720
  75 H :    0.028828
  76 H :   -0.016620
  77 H :    0.022250
  78 H :    0.019959
  79 H :    0.055736
  80 H :    0.033472
Sum of atomic charges:   -0.0000000

LOEWDIN ATOMIC CHARGES
----------------------
   0 C :    0.084682
   1 O :    0.045271
   2 C :    0.068884
   3 C :   -0.094819
   4 C :   -0.087658
   5 C :   -0.033521
   6 N :   -0.025964
   7 C :   -0.032314
   8 N :   -0.034860
   9 C :   -0.040067
  10 C :    0.017575
  11 C :   -0.024404
  12 C :    0.011297
  13 C :   -0.013612
  14 N :    0.285637
  15 O :   -0.179971
  16 O :   -0.190560
  17 C :   -0.008133
  18 C :    0.007070
  19 C :    0.006974
  20 C :    0.014644
  21 C :   -0.034648
  22 C :    0.080326
  23 N :    0.005365
  24 C :    0.037407
  25 C :   -0.058515
  26 C :    0.081673
  27 O :   -0.191299
  28 C :   -0.115058
  29 C :   -0.123678
  30 C :    0.080145
  31 O :   -0.209863
  32 N :    0.000141
  33 C :    0.036402
  34 C :   -0.060913
  35 C :    0.070029
  36 C :   -0.043890
  37 C :    0.010281
  38 C :   -0.148583
  39 S :    0.466110
  40 C :   -0.221452
  41 C :    0.074406
  42 O :   -0.135057
  43 C :   -0.041050
  44 C :   -0.026708
  45 C :    0.065750
  46 O :    0.070082
  47 C :    0.077694
  48 C :   -0.094221
  49 C :   -0.083369
  50 C :   -0.033410
  51 N :   -0.030723
  52 C :   -0.035386
  53 N :   -0.035159
  54 C :   -0.048950
  55 C :    0.012265
  56 H :    0.039333
  57 H :    0.038553
  58 H :    0.041414
  59 H :    0.044070
  60 H :    0.044010
  61 H :    0.033028
  62 H :    0.040107
  63 H :    0.025149
  64 H :    0.027822
  65 H :    0.038631
  66 H :    0.022128
  67 H :    0.034101
  68 H :    0.030950
  69 H :    0.037704
  70 H :    0.022851
  71 H :    0.032503
  72 H :    0.031115
  73 H :    0.021744
  74 H :    0.022415
  75 H :    0.046399
  76 H :   -0.006057
  77 H :    0.046166
  78 H :    0.045113
  79 H :    0.035811
  80 H :    0.032643

  Mayer bond orders larger than 0.100000
B(  0-C ,  1-O ) :   1.1645 B(  0-C ,  4-C ) :   1.5076 B(  0-C , 56-H ) :   1.0158
B(  1-O ,  2-C ) :   1.1691 B(  2-C ,  3-C ) :   1.4439 B(  2-C ,  9-C ) :   1.1467
B(  3-C ,  4-C ) :   1.3238 B(  3-C ,  7-C ) :   1.1742 B(  4-C ,  5-C ) :   1.1113
B(  5-C ,  6-N ) :   3.0482 B(  7-C ,  8-N ) :   2.9638 B(  9-C , 10-C ) :   1.6776
B(  9-C , 57-H ) :   0.9426 B( 10-C , 11-C ) :   1.0867 B( 10-C , 58-H ) :   0.9735
B( 11-C , 12-C ) :   1.3087 B( 11-C , 19-C ) :   1.3073 B( 12-C , 13-C ) :   1.3916
B( 12-C , 59-H ) :   0.9996 B( 13-C , 14-N ) :   0.8528 B( 13-C , 17-C ) :   1.3526
B( 14-N , 15-O ) :   1.5688 B( 14-N , 16-O ) :   1.5005 B( 15-O , 16-O ) :   0.2700
B( 17-C , 18-C ) :   1.3026 B( 17-C , 20-C ) :   1.0848 B( 18-C , 19-C ) :   1.4270
B( 18-C , 60-H ) :   0.9919 B( 19-C , 61-H ) :   0.9902 B( 20-C , 21-C ) :   1.6283
B( 20-C , 62-H ) :   0.9422 B( 21-C , 22-C ) :   1.1470 B( 21-C , 63-H ) :   0.9447
B( 22-C , 23-N ) :   1.1724 B( 22-C , 29-C ) :   1.3321 B( 23-N , 24-C ) :   0.9372
B( 23-N , 26-C ) :   1.0617 B( 24-C , 25-C ) :   1.1226 B( 24-C , 64-H ) :   0.9489
B( 24-C , 65-H ) :   0.9276 B( 25-C , 66-H ) :   0.9665 B( 25-C , 67-H ) :   0.9676
B( 25-C , 68-H ) :   0.9638 B( 26-C , 27-O ) :   2.0298 B( 26-C , 28-C ) :   0.9798
B( 27-O , 75-H ) :   0.1153 B( 28-C , 29-C ) :   1.2514 B( 28-C , 35-C ) :   1.3604
B( 29-C , 30-C ) :   0.9910 B( 30-C , 31-O ) :   2.0076 B( 30-C , 32-N ) :   1.0677
B( 31-O , 62-H ) :   0.1168 B( 32-N , 33-C ) :   0.9470 B( 32-N , 35-C ) :   1.1518
B( 33-C , 34-C ) :   1.1195 B( 33-C , 69-H ) :   0.9283 B( 33-C , 70-H ) :   0.9497
B( 34-C , 71-H ) :   0.9639 B( 34-C , 72-H ) :   0.9681 B( 34-C , 73-H ) :   0.9685
B( 35-C , 36-C ) :   1.1633 B( 36-C , 37-C ) :   1.5910 B( 36-C , 74-H ) :   0.9597
B( 37-C , 38-C ) :   1.1410 B( 37-C , 75-H ) :   0.9529 B( 38-C , 39-S ) :   1.1339
B( 38-C , 44-C ) :   1.4570 B( 39-S , 40-C ) :   1.1128 B( 40-C , 41-C ) :   1.0061
B( 40-C , 43-C ) :   1.4148 B( 41-C , 42-O ) :   2.1462 B( 41-C , 76-H ) :   0.9529
B( 43-C , 44-C ) :   1.2725 B( 43-C , 45-C ) :   1.0716 B( 44-C , 77-H ) :   0.9950
B( 45-C , 46-O ) :   1.1995 B( 45-C , 49-C ) :   1.4427 B( 46-O , 47-C ) :   1.1835
B( 47-C , 48-C ) :   1.4072 B( 47-C , 54-C ) :   1.1495 B( 48-C , 49-C ) :   1.3200
B( 48-C , 52-C ) :   1.1388 B( 49-C , 50-C ) :   1.1595 B( 50-C , 51-N ) :   2.9648
B( 52-C , 53-N ) :   3.0267 B( 54-C , 55-C ) :   1.9064 B( 54-C , 78-H ) :   0.9516
B( 55-C , 79-H ) :   0.9480 B( 55-C , 80-H ) :   0.9440

-----------------------------------------------------------------------------
         ABSORPTION SPECTRUM VIA TRANSITION ELECTRIC DIPOLE MOMENTS
-----------------------------------------------------------------------------
State   Energy  Wavelength   fosc         T2         TX        TY        TZ
        (cm-1)    (nm)                  (au**2)     (au)      (au)      (au)
-----------------------------------------------------------------------------
   0   15271.1    654.8   0.981380354  21.15647   3.79398   2.48265   0.77373
   1   21780.5    459.1   0.008310852   0.12562   0.31339   0.05526  -0.15604
   2   25601.2    390.6   0.114527057   1.47273  -0.25973  -0.17065   1.17309
   3   26470.0    377.8   0.001140739   0.01419   0.05993   0.05539   0.08677
   4   26605.1    375.9   0.026016171   0.32192  -0.16330  -0.27406   0.46920
   5   27381.5    365.2   0.255060266   3.06663   1.48093   0.86521  -0.35340
   6   27748.3    360.4   0.861570808  10.22185  -2.59696  -1.57618   0.99663
   7   28500.1    350.9   0.002083078   0.02406  -0.11375  -0.10304  -0.02253
   8   28652.5    349.0   0.029849228   0.34296  -0.44133  -0.34144   0.17778
   9   30267.3    330.4   0.515472181   5.60670   1.76590   1.32021  -0.86333
  10   31825.6    314.2   0.354179001   3.66372  -1.04081  -0.72706   1.43242
  11   32177.6    310.8   0.004795709   0.04907   0.15811   0.11590  -0.10312
  12   33500.8    298.5   0.082821772   0.81389  -0.73201  -0.49738  -0.17511
  13   33970.1    294.4   0.015309902   0.14837   0.10403  -0.11520   0.35253
  14   34911.5    286.4   0.187087305   1.76421  -0.78554  -0.72080   0.79220
  15   35317.9    283.1   0.135174467   1.26002   1.00452   0.49356   0.08573
  16   36089.4    277.1   0.013762675   0.12554   0.27735   0.14041   0.17002
  17   36959.4    270.6   0.022952253   0.20444   0.37416   0.21145  -0.14049
  18   37574.3    266.1   0.029475680   0.25825  -0.42560  -0.27717  -0.01720
  19   37901.8    263.8   0.081445766   0.70743  -0.52029  -0.35060   0.56019
  20   38247.6    261.5   0.003076115   0.02648   0.07957   0.01741   0.14086
  21   38455.3    260.0   0.028445401   0.24352   0.37236   0.31857  -0.05815
  22   39903.2    250.6   0.041036436   0.33856   0.11843   0.23433  -0.51926
  23   39968.8    250.2   0.068185286   0.56162   0.62151   0.38880  -0.15554

FINAL SINGLE POINT ENERGY     -2882.038117847830

DIPOLE MOMENT
-------------
                                X             Y             Z
Electronic contribution:    -10.67847      -1.69987      -8.13091
Nuclear contribution   :     11.93736       0.61079      13.02941
                        -----------------------------------------
Total Dipole Moment    :      1.25889      -1.08908       4.89850
                        -----------------------------------------
Magnitude (a.u.)       :      5.17361
Magnitude (Debye)      :     13.15027

Rotational constants in cm-1:     0.004838     0.000347     0.000325
Rotational constants in MHz :   145.052242    10.395117     9.744943

                             ****ORCA TERMINATED NORMALLY****
TOTAL RUN TIME: 0 days 0 hours 6 minutes 3 seconds 649 msec
