                         Program Version 4.2.0 -  RELEASE  -
|  1> # ORCA input file
|  2> # SCF done       -165.452861074839          0.000398920266
|  3> ! CAM-B3LYP def2-SVP def2/J RIJCOSX Grid4 TightSCF
|  4> %maxcore 5000
|  5> %tddft
|  6>     Mode sTDDFT
|  7>     Ethresh 5.0
|  8>     maxcore 5000
|  9> end
| 10>
| 11> %pal
| 12>   nprocs 6
| 13>   end
| 14> * xyz 0 1
| 15>    C       -0.15928         1.06395         1.92077
| 16>    S       -0.77209        -0.34219         2.68547
| 17>    C       -0.37036        -1.33056         1.31968
| 18>    C        0.22461        -0.56743         0.34081
| 19>    C        0.34182         0.79991         0.68860
| 20>    C        0.76513        -1.09154        -0.94959
| 21>    F        1.33211        -2.30365        -0.82907
| 22>    F       -0.18146        -1.20835        -1.90235
| 23>    F        1.70477        -0.28359        -1.45992
| 24>    C       -0.67134        -2.75133         1.34940
| 25>    C       -1.14046        -3.42597         0.22440
| 26>    C       -1.42483        -4.77899         0.29035
| 27>    N       -2.05077        -5.35963        -0.87562
| 28>    O       -1.58889        -5.07261        -1.95691
| 29>    O       -3.02236        -6.06179        -0.69624
| 30>    C       -1.21551        -5.52661         1.46062
| 31>    C       -0.79877        -4.81646         2.59439
| 32>    C       -0.53976        -3.46672         2.54508
| 33>    C       -1.35125        -6.96032         1.55763
| 34>    C       -1.13332        -7.84130         0.55898
| 35>    C       -1.26079        -9.24679         0.75150
| 36>    N       -1.13859       -10.16630        -0.26087
| 37>    C       -0.87158        -9.89020        -1.65257
| 38>    C        0.61506        -9.66002        -1.91304
| 39>    C       -1.31189       -11.48254         0.20000
| 40>    O       -1.25275       -12.45995        -0.52002
| 41>    C       -1.55957       -11.33663         1.61711
| 42>    C       -1.52538        -9.94909         1.92225
| 43>    C       -1.75358        -9.80180         3.33991
| 44>    O       -1.80153        -8.82399         4.06381
| 45>    N       -1.91211       -11.11667         3.80583
| 46>    C       -2.22391       -11.38162         5.18871
| 47>    C       -3.71179       -11.65763         5.39321
| 48>    C       -1.80380       -12.04199         2.78984
| 49>    C       -1.90675       -13.44542         2.99261
| 50>    C       -1.81396       -14.33267         1.97549
| 51>    C       -1.88510       -15.76526         2.09134
| 52>    C       -1.80544       -16.53730         0.92910
| 53>    C       -1.83422       -17.91962         0.97411
| 54>    N       -1.72733       -18.58512        -0.30430
| 55>    O       -2.24331       -18.03351        -1.25070
| 56>    O       -1.12161       -19.63475        -0.36663
| 57>    C       -1.98112       -18.61912         2.19161
| 58>    C       -2.07105       -17.82567         3.34677
| 59>    C       -2.01660       -16.45427         3.30701
| 60>    C       -2.06343       -20.05873         2.25311
| 61>    C       -2.48572       -20.77107         3.31636
| 62>    C       -2.54765       -22.19925         3.35016
| 63>    S       -3.16156       -22.98774         4.77986
| 64>    C       -2.92487       -24.53221         4.09950
| 65>    C       -2.40161       -24.45070         2.83872
| 66>    C       -2.18248       -23.12765         2.40568
| 67>    C       -2.06966       -25.64337         2.00379
| 68>    F       -2.56732       -26.78088         2.51234
| 69>    F       -2.54335       -25.54025         0.75253
| 70>    F       -0.74130       -25.82973         1.88842
| 71>    H       -0.20128         2.00550         2.42980
| 72>    H        0.78718         1.53502         0.04375
| 73>    H       -1.33246        -2.90596        -0.70141
| 74>    H       -0.66125        -5.35932         3.51673
| 75>    H       -0.21255        -2.94841         3.43403
| 76>    H       -1.57920        -7.33872         2.54578
| 77>    H       -0.83527        -7.50942        -0.42514
| 78>    H       -1.46437        -9.02979        -1.97347
| 79>    H       -1.20513       -10.77245        -2.20595
| 80>    H        0.98901        -8.81219        -1.34297
| 81>    H        0.77509        -9.46641        -2.96987
| 82>    H        1.18245       -10.54367        -1.63099
| 83>    H       -1.94051       -10.47981         5.73891
| 84>    H       -1.61728       -12.21718         5.54986
| 85>    H       -4.29407       -10.79826         5.07034
| 86>    H       -3.91283       -11.83781         6.44573
| 87>    H       -4.03149       -12.52519         4.81985
| 88>    H       -2.05947       -13.78204         4.00749
| 89>    H       -1.67129       -13.95331         0.97230
| 90>    H       -1.70806       -16.05032        -0.03068
| 91>    H       -2.16404       -18.31253         4.30413
| 92>    H       -2.07213       -15.90556         4.23403
| 93>    H       -1.76665       -20.59543         1.36570
| 94>    H       -2.82226       -20.28317         4.22043
| 95>    H       -3.17950       -25.41775         4.64699
| 96>    H       -1.77454       -22.88550         1.44194
| 97> *
| 98>
| 99>                          ****END OF INPUT****

CARTESIAN COORDINATES (ANGSTROEM)
---------------------------------
  C     -0.159280    1.063950    1.920770
  S     -0.772090   -0.342190    2.685470
  C     -0.370360   -1.330560    1.319680
  C      0.224610   -0.567430    0.340810
  C      0.341820    0.799910    0.688600
  C      0.765130   -1.091540   -0.949590
  F      1.332110   -2.303650   -0.829070
  F     -0.181460   -1.208350   -1.902350
  F      1.704770   -0.283590   -1.459920
  C     -0.671340   -2.751330    1.349400
  C     -1.140460   -3.425970    0.224400
  C     -1.424830   -4.778990    0.290350
  N     -2.050770   -5.359630   -0.875620
  O     -1.588890   -5.072610   -1.956910
  O     -3.022360   -6.061790   -0.696240
  C     -1.215510   -5.526610    1.460620
  C     -0.798770   -4.816460    2.594390
  C     -0.539760   -3.466720    2.545080
  C     -1.351250   -6.960320    1.557630
  C     -1.133320   -7.841300    0.558980
  C     -1.260790   -9.246790    0.751500
  N     -1.138590  -10.166300   -0.260870
  C     -0.871580   -9.890200   -1.652570
  C      0.615060   -9.660020   -1.913040
  C     -1.311890  -11.482540    0.200000
  O     -1.252750  -12.459950   -0.520020
  C     -1.559570  -11.336630    1.617110
  C     -1.525380   -9.949090    1.922250
  C     -1.753580   -9.801800    3.339910
  O     -1.801530   -8.823990    4.063810
  N     -1.912110  -11.116670    3.805830
  C     -2.223910  -11.381620    5.188710
  C     -3.711790  -11.657630    5.393210
  C     -1.803800  -12.041990    2.789840
  C     -1.906750  -13.445420    2.992610
  C     -1.813960  -14.332670    1.975490
  C     -1.885100  -15.765260    2.091340
  C     -1.805440  -16.537300    0.929100
  C     -1.834220  -17.919620    0.974110
  N     -1.727330  -18.585120   -0.304300
  O     -2.243310  -18.033510   -1.250700
  O     -1.121610  -19.634750   -0.366630
  C     -1.981120  -18.619120    2.191610
  C     -2.071050  -17.825670    3.346770
  C     -2.016600  -16.454270    3.307010
  C     -2.063430  -20.058730    2.253110
  C     -2.485720  -20.771070    3.316360
  C     -2.547650  -22.199250    3.350160
  S     -3.161560  -22.987740    4.779860
  C     -2.924870  -24.532210    4.099500
  C     -2.401610  -24.450700    2.838720
  C     -2.182480  -23.127650    2.405680
  C     -2.069660  -25.643370    2.003790
  F     -2.567320  -26.780880    2.512340
  F     -2.543350  -25.540250    0.752530
  F     -0.741300  -25.829730    1.888420
  H     -0.201280    2.005500    2.429800
  H      0.787180    1.535020    0.043750
  H     -1.332460   -2.905960   -0.701410
  H     -0.661250   -5.359320    3.516730
  H     -0.212550   -2.948410    3.434030
  H     -1.579200   -7.338720    2.545780
  H     -0.835270   -7.509420   -0.425140
  H     -1.464370   -9.029790   -1.973470
  H     -1.205130  -10.772450   -2.205950
  H      0.989010   -8.812190   -1.342970
  H      0.775090   -9.466410   -2.969870
  H      1.182450  -10.543670   -1.630990
  H     -1.940510  -10.479810    5.738910
  H     -1.617280  -12.217180    5.549860
  H     -4.294070  -10.798260    5.070340
  H     -3.912830  -11.837810    6.445730
  H     -4.031490  -12.525190    4.819850
  H     -2.059470  -13.782040    4.007490
  H     -1.671290  -13.953310    0.972300
  H     -1.708060  -16.050320   -0.030680
  H     -2.164040  -18.312530    4.304130
  H     -2.072130  -15.905560    4.234030
  H     -1.766650  -20.595430    1.365700
  H     -2.822260  -20.283170    4.220430
  H     -3.179500  -25.417750    4.646990
  H     -1.774540  -22.885500    1.441940

 Total Charge           Charge          ....    0
 Multiplicity           Mult            ....    1
 Number of Electrons    NEL             ....  416
 Basis Dimension        Dim             ....  922

ORBITAL ENERGIES
----------------

  NO   OCC          E(Eh)            E(eV)
   0   2.0000     -88.976585     -2421.1760
   1   2.0000     -88.972045     -2421.0524
   2   2.0000     -24.801506      -674.8833
   3   2.0000     -24.799193      -674.8204
   4   2.0000     -24.798139      -674.7917
   5   2.0000     -24.794513      -674.6930
   6   2.0000     -24.791171      -674.6021
   7   2.0000     -24.787416      -674.4999
   8   2.0000     -19.248374      -523.7749
   9   2.0000     -19.246416      -523.7216
  10   2.0000     -19.244644      -523.6734
  11   2.0000     -19.244401      -523.6668
  12   2.0000     -19.190791      -522.2080
  13   2.0000     -19.189780      -522.1804
  14   2.0000     -14.651017      -398.6744
  15   2.0000     -14.649327      -398.6285
  16   2.0000     -14.453552      -393.3011
  17   2.0000     -14.451904      -393.2563
  18   2.0000     -10.520998      -286.2909
  19   2.0000     -10.512361      -286.0559
  20   2.0000     -10.373273      -282.2711
  21   2.0000     -10.372116      -282.2396
  22   2.0000     -10.337811      -281.3061
  23   2.0000     -10.337278      -281.2916
  24   2.0000     -10.335945      -281.2554
  25   2.0000     -10.333222      -281.1813
  26   2.0000     -10.327943      -281.0376
  27   2.0000     -10.315402      -280.6964
  28   2.0000     -10.314609      -280.6748
  29   2.0000     -10.313870      -280.6547
  30   2.0000     -10.312865      -280.6273
  31   2.0000     -10.312009      -280.6040
  32   2.0000     -10.311081      -280.5788
  33   2.0000     -10.310327      -280.5583
  34   2.0000     -10.303957      -280.3849
  35   2.0000     -10.303690      -280.3777
  36   2.0000     -10.303354      -280.3685
  37   2.0000     -10.299657      -280.2679
  38   2.0000     -10.299579      -280.2658
  39   2.0000     -10.299028      -280.2508
  40   2.0000     -10.297954      -280.2216
  41   2.0000     -10.297885      -280.2197
  42   2.0000     -10.297820      -280.2179
  43   2.0000     -10.295987      -280.1681
  44   2.0000     -10.295182      -280.1462
  45   2.0000     -10.293323      -280.0955
  46   2.0000     -10.292382      -280.0699
  47   2.0000     -10.292095      -280.0621
  48   2.0000     -10.290969      -280.0315
  49   2.0000     -10.290872      -280.0289
  50   2.0000     -10.289170      -279.9826
  51   2.0000     -10.285963      -279.8953
  52   2.0000     -10.267116      -279.3824
  53   2.0000     -10.259893      -279.1859
  54   2.0000     -10.258942      -279.1600
  55   2.0000     -10.258483      -279.1475
  56   2.0000      -8.072575      -219.6659
  57   2.0000      -8.068221      -219.5475
  58   2.0000      -6.041824      -164.4064
  59   2.0000      -6.037348      -164.2846
  60   2.0000      -6.037305      -164.2834
  61   2.0000      -6.035027      -164.2214
  62   2.0000      -6.033143      -164.1702
  63   2.0000      -6.030683      -164.1032
  64   2.0000      -1.389615       -37.8133
  65   2.0000      -1.381081       -37.5811
  66   2.0000      -1.328418       -36.1481
  67   2.0000      -1.325678       -36.0735
  68   2.0000      -1.292923       -35.1822
  69   2.0000      -1.289625       -35.0925
  70   2.0000      -1.285575       -34.9823
  71   2.0000      -1.280366       -34.8405
  72   2.0000      -1.146925       -31.2094
  73   2.0000      -1.144116       -31.1330
  74   2.0000      -1.132762       -30.8240
  75   2.0000      -1.126084       -30.6423
  76   2.0000      -1.062872       -28.9222
  77   2.0000      -1.054784       -28.7021
  78   2.0000      -1.011254       -27.5176
  79   2.0000      -1.001550       -27.2536
  80   2.0000      -0.991301       -26.9747
  81   2.0000      -0.989975       -26.9386
  82   2.0000      -0.931298       -25.3419
  83   2.0000      -0.926364       -25.2076
  84   2.0000      -0.920893       -25.0588
  85   2.0000      -0.909541       -24.7499
  86   2.0000      -0.904425       -24.6106
  87   2.0000      -0.891744       -24.2656
  88   2.0000      -0.881701       -23.9923
  89   2.0000      -0.876978       -23.8638
  90   2.0000      -0.872744       -23.7486
  91   2.0000      -0.867764       -23.6130
  92   2.0000      -0.857488       -23.3334
  93   2.0000      -0.831726       -22.6324
  94   2.0000      -0.822560       -22.3830
  95   2.0000      -0.819764       -22.3069
  96   2.0000      -0.805242       -21.9117
  97   2.0000      -0.792354       -21.5611
  98   2.0000      -0.789040       -21.4709
  99   2.0000      -0.780111       -21.2279
 100   2.0000      -0.769661       -20.9435
 101   2.0000      -0.763648       -20.7799
 102   2.0000      -0.760248       -20.6874
 103   2.0000      -0.735478       -20.0134
 104   2.0000      -0.727242       -19.7893
 105   2.0000      -0.715150       -19.4602
 106   2.0000      -0.708605       -19.2821
 107   2.0000      -0.705754       -19.2045
 108   2.0000      -0.701106       -19.0781
 109   2.0000      -0.694854       -18.9079
 110   2.0000      -0.692433       -18.8421
 111   2.0000      -0.686870       -18.6907
 112   2.0000      -0.680065       -18.5055
 113   2.0000      -0.672426       -18.2976
 114   2.0000      -0.663618       -18.0580
 115   2.0000      -0.663457       -18.0536
 116   2.0000      -0.662230       -18.0202
 117   2.0000      -0.652336       -17.7510
 118   2.0000      -0.649309       -17.6686
 119   2.0000      -0.647345       -17.6151
 120   2.0000      -0.641859       -17.4659
 121   2.0000      -0.640799       -17.4370
 122   2.0000      -0.637869       -17.3573
 123   2.0000      -0.633959       -17.2509
 124   2.0000      -0.621719       -16.9178
 125   2.0000      -0.618668       -16.8348
 126   2.0000      -0.610164       -16.6034
 127   2.0000      -0.606413       -16.5013
 128   2.0000      -0.597815       -16.2674
 129   2.0000      -0.596500       -16.2316
 130   2.0000      -0.593814       -16.1585
 131   2.0000      -0.586138       -15.9496
 132   2.0000      -0.581528       -15.8242
 133   2.0000      -0.574471       -15.6321
 134   2.0000      -0.572758       -15.5855
 135   2.0000      -0.566221       -15.4077
 136   2.0000      -0.565724       -15.3941
 137   2.0000      -0.561498       -15.2791
 138   2.0000      -0.558549       -15.1989
 139   2.0000      -0.550748       -14.9866
 140   2.0000      -0.549063       -14.9408
 141   2.0000      -0.547121       -14.8879
 142   2.0000      -0.540854       -14.7174
 143   2.0000      -0.540386       -14.7047
 144   2.0000      -0.537114       -14.6156
 145   2.0000      -0.535313       -14.5666
 146   2.0000      -0.534822       -14.5532
 147   2.0000      -0.532056       -14.4780
 148   2.0000      -0.527841       -14.3633
 149   2.0000      -0.524395       -14.2695
 150   2.0000      -0.518011       -14.0958
 151   2.0000      -0.516581       -14.0569
 152   2.0000      -0.515078       -14.0160
 153   2.0000      -0.508251       -13.8302
 154   2.0000      -0.507202       -13.8017
 155   2.0000      -0.505459       -13.7542
 156   2.0000      -0.504649       -13.7322
 157   2.0000      -0.501308       -13.6413
 158   2.0000      -0.498315       -13.5598
 159   2.0000      -0.496686       -13.5155
 160   2.0000      -0.494156       -13.4467
 161   2.0000      -0.487220       -13.2579
 162   2.0000      -0.486278       -13.2323
 163   2.0000      -0.484817       -13.1926
 164   2.0000      -0.484073       -13.1723
 165   2.0000      -0.482522       -13.1301
 166   2.0000      -0.480207       -13.0671
 167   2.0000      -0.477602       -12.9962
 168   2.0000      -0.476747       -12.9730
 169   2.0000      -0.474816       -12.9204
 170   2.0000      -0.471899       -12.8410
 171   2.0000      -0.469618       -12.7790
 172   2.0000      -0.466730       -12.7004
 173   2.0000      -0.464806       -12.6480
 174   2.0000      -0.462187       -12.5768
 175   2.0000      -0.455855       -12.4045
 176   2.0000      -0.453885       -12.3508
 177   2.0000      -0.452422       -12.3110
 178   2.0000      -0.449663       -12.2360
 179   2.0000      -0.442753       -12.0479
 180   2.0000      -0.440583       -11.9889
 181   2.0000      -0.437064       -11.8931
 182   2.0000      -0.434696       -11.8287
 183   2.0000      -0.432402       -11.7663
 184   2.0000      -0.430017       -11.7013
 185   2.0000      -0.427826       -11.6417
 186   2.0000      -0.421492       -11.4694
 187   2.0000      -0.412025       -11.2118
 188   2.0000      -0.396957       -10.8018
 189   2.0000      -0.388491       -10.5714
 190   2.0000      -0.386941       -10.5292
 191   2.0000      -0.385252       -10.4832
 192   2.0000      -0.382068       -10.3966
 193   2.0000      -0.379328       -10.3220
 194   2.0000      -0.373272       -10.1573
 195   2.0000      -0.370962       -10.0944
 196   2.0000      -0.347523        -9.4566
 197   2.0000      -0.344185        -9.3658
 198   2.0000      -0.343999        -9.3607
 199   2.0000      -0.343610        -9.3501
 200   2.0000      -0.338767        -9.2183
 201   2.0000      -0.338230        -9.2037
 202   2.0000      -0.331097        -9.0096
 203   2.0000      -0.327548        -8.9130
 204   2.0000      -0.313939        -8.5427
 205   2.0000      -0.299951        -8.1621
 206   2.0000      -0.278858        -7.5881
 207   2.0000      -0.236537        -6.4365
 208   0.0000      -0.089090        -2.4243
 209   0.0000      -0.062211        -1.6928
 210   0.0000      -0.042417        -1.1542
 211   0.0000      -0.031542        -0.8583
 212   0.0000      -0.024547        -0.6680

MULLIKEN ATOMIC CHARGES
-----------------------
   0 C :   -0.065922
   1 S :    0.148547
   2 C :   -0.130894
   3 C :   -0.075194
   4 C :    0.032533
   5 C :    0.521071
   6 F :   -0.159288
   7 F :   -0.162613
   8 F :   -0.156884
   9 C :    0.069665
  10 C :   -0.012278
  11 C :    0.093629
  12 N :    0.217800
  13 O :   -0.226749
  14 O :   -0.218336
  15 C :    0.091121
  16 C :   -0.018153
  17 C :    0.014879
  18 C :   -0.009921
  19 C :    0.013723
  20 C :    0.106081
  21 N :   -0.255374
  22 C :    0.094754
  23 C :    0.003679
  24 C :    0.166081
  25 O :   -0.210331
  26 C :   -0.067511
  27 C :   -0.065780
  28 C :    0.165209
  29 O :   -0.219648
  30 N :   -0.258189
  31 C :    0.101518
  32 C :    0.002530
  33 C :    0.126340
  34 C :    0.006624
  35 C :    0.004103
  36 C :    0.102424
  37 C :   -0.057201
  38 C :    0.130417
  39 N :    0.243828
  40 O :   -0.220981
  41 O :   -0.233650
  42 C :    0.096874
  43 C :   -0.043923
  44 C :    0.023367
  45 C :   -0.048192
  46 C :    0.100657
  47 C :   -0.113224
  48 S :    0.139460
  49 C :   -0.086631
  50 C :   -0.084457
  51 C :    0.014689
  52 C :    0.526185
  53 F :   -0.162754
  54 F :   -0.163171
  55 F :   -0.166013
  56 H :    0.039000
  57 H :    0.006914
  58 H :    0.000567
  59 H :    0.004299
  60 H :   -0.005669
  61 H :    0.022641
  62 H :   -0.012821
  63 H :    0.035773
  64 H :    0.043018
  65 H :    0.015496
  66 H :    0.027686
  67 H :    0.027963
  68 H :    0.041752
  69 H :    0.020538
  70 H :    0.031754
  71 H :    0.022143
  72 H :    0.015660
  73 H :   -0.036385
  74 H :    0.010014
  75 H :    0.018184
  76 H :   -0.019250
  77 H :   -0.022999
  78 H :    0.013944
  79 H :   -0.019340
  80 H :    0.039805
  81 H :    0.014786
Sum of atomic charges:   -0.0000000

LOEWDIN ATOMIC CHARGES
----------------------
   0 C :   -0.177155
   1 S :    0.469259
   2 C :   -0.150975
   3 C :   -0.122429
   4 C :   -0.045176
   5 C :    0.170709
   6 F :   -0.056384
   7 F :   -0.063957
   8 F :   -0.054282
   9 C :   -0.040361
  10 C :    0.010908
  11 C :   -0.017161
  12 N :    0.277922
  13 O :   -0.195031
  14 O :   -0.192442
  15 C :   -0.009157
  16 C :    0.004835
  17 C :   -0.002797
  18 C :    0.025519
  19 C :   -0.032897
  20 C :    0.079548
  21 N :    0.004054
  22 C :    0.037074
  23 C :   -0.060748
  24 C :    0.080732
  25 O :   -0.200778
  26 C :   -0.121635
  27 C :   -0.123276
  28 C :    0.080264
  29 O :   -0.208843
  30 N :   -0.000870
  31 C :    0.035571
  32 C :   -0.061475
  33 C :    0.075364
  34 C :   -0.048418
  35 C :    0.033217
  36 C :   -0.030710
  37 C :    0.019549
  38 C :   -0.024361
  39 N :    0.285052
  40 O :   -0.188635
  41 O :   -0.199619
  42 C :   -0.001164
  43 C :   -0.007815
  44 C :    0.010319
  45 C :   -0.022596
  46 C :   -0.022061
  47 C :   -0.169296
  48 S :    0.460541
  49 C :   -0.165602
  50 C :   -0.121580
  51 C :   -0.031895
  52 C :    0.167436
  53 F :   -0.060914
  54 F :   -0.060797
  55 F :   -0.067601
  56 H :    0.029057
  57 H :    0.037730
  58 H :    0.036537
  59 H :    0.042346
  60 H :    0.029431
  61 H :    0.039779
  62 H :    0.025851
  63 H :    0.028165
  64 H :    0.038070
  65 H :    0.021557
  66 H :    0.032576
  67 H :    0.031460
  68 H :    0.037187
  69 H :    0.021282
  70 H :    0.033305
  71 H :    0.029784
  72 H :    0.021807
  73 H :    0.024053
  74 H :    0.038801
  75 H :    0.047177
  76 H :    0.031457
  77 H :    0.030144
  78 H :    0.029235
  79 H :    0.024141
  80 H :    0.031943
  81 H :    0.040142

  Mayer bond orders larger than 0.100000
B(  0-C ,  1-S ) :   1.1643 B(  0-C ,  4-C ) :   1.5734 B(  0-C , 56-H ) :   0.9731
B(  1-S ,  2-C ) :   1.1798 B(  2-C ,  3-C ) :   1.5632 B(  2-C ,  9-C ) :   1.0237
B(  3-C ,  4-C ) :   1.2604 B(  3-C ,  5-C ) :   0.9598 B(  4-C , 57-H ) :   1.0010
B(  5-C ,  6-F ) :   1.1538 B(  5-C ,  7-F ) :   1.1398 B(  5-C ,  8-F ) :   1.1691
B(  9-C , 10-C ) :   1.3242 B(  9-C , 17-C ) :   1.3451 B( 10-C , 11-C ) :   1.4142
B( 10-C , 58-H ) :   0.9794 B( 11-C , 12-N ) :   0.8518 B( 11-C , 15-C ) :   1.3505
B( 12-N , 13-O ) :   1.5343 B( 12-N , 14-O ) :   1.5493 B( 13-O , 14-O ) :   0.2743
B( 15-C , 16-C ) :   1.3419 B( 15-C , 18-C ) :   1.0616 B( 16-C , 17-C ) :   1.3873
B( 16-C , 59-H ) :   0.9968 B( 17-C , 60-H ) :   0.9918 B( 18-C , 19-C ) :   1.6621
B( 18-C , 61-H ) :   0.9365 B( 19-C , 20-C ) :   1.1728 B( 19-C , 62-H ) :   0.9466
B( 20-C , 21-N ) :   1.1670 B( 20-C , 27-C ) :   1.3504 B( 21-N , 22-C ) :   0.9403
B( 21-N , 24-C ) :   1.0616 B( 22-C , 23-C ) :   1.1196 B( 22-C , 63-H ) :   0.9501
B( 22-C , 64-H ) :   0.9289 B( 23-C , 65-H ) :   0.9690 B( 23-C , 66-H ) :   0.9682
B( 23-C , 67-H ) :   0.9636 B( 24-C , 25-O ) :   2.0244 B( 24-C , 26-C ) :   0.9858
B( 25-O , 74-H ) :   0.1153 B( 26-C , 27-C ) :   1.2427 B( 26-C , 33-C ) :   1.3632
B( 27-C , 28-C ) :   0.9921 B( 28-C , 29-O ) :   2.0141 B( 28-C , 30-N ) :   1.0634
B( 29-O , 61-H ) :   0.1145 B( 30-N , 31-C ) :   0.9490 B( 30-N , 33-C ) :   1.1531
B( 31-C , 32-C ) :   1.1197 B( 31-C , 68-H ) :   0.9272 B( 31-C , 69-H ) :   0.9493
B( 32-C , 70-H ) :   0.9638 B( 32-C , 71-H ) :   0.9681 B( 32-C , 72-H ) :   0.9683
B( 33-C , 34-C ) :   1.1479 B( 34-C , 35-C ) :   1.6072 B( 34-C , 73-H ) :   0.9559
B( 35-C , 36-C ) :   1.0811 B( 35-C , 74-H ) :   0.9680 B( 36-C , 37-C ) :   1.2974
B( 36-C , 44-C ) :   1.2931 B( 37-C , 38-C ) :   1.3647 B( 37-C , 75-H ) :   1.0067
B( 38-C , 39-N ) :   0.8695 B( 38-C , 42-C ) :   1.3532 B( 39-N , 40-O ) :   1.5663
B( 39-N , 41-O ) :   1.5129 B( 40-O , 41-O ) :   0.2665 B( 42-C , 43-C ) :   1.3069
B( 42-C , 45-C ) :   1.0889 B( 43-C , 44-C ) :   1.4470 B( 43-C , 76-H ) :   0.9864
B( 44-C , 77-H ) :   0.9900 B( 45-C , 46-C ) :   1.7162 B( 45-C , 78-H ) :   0.9670
B( 46-C , 47-C ) :   1.0993 B( 46-C , 79-H ) :   0.9552 B( 47-C , 48-S ) :   1.1384
B( 47-C , 51-C ) :   1.5224 B( 48-S , 49-C ) :   1.1866 B( 49-C , 50-C ) :   1.5587
B( 49-C , 80-H ) :   0.9737 B( 50-C , 51-C ) :   1.2567 B( 50-C , 52-C ) :   0.9561
B( 51-C , 81-H ) :   0.9980 B( 52-C , 53-F ) :   1.1672 B( 52-C , 54-F ) :   1.1720
B( 52-C , 55-F ) :   1.1796

-----------------------------------------------------------------------------
         ABSORPTION SPECTRUM VIA TRANSITION ELECTRIC DIPOLE MOMENTS
-----------------------------------------------------------------------------
State   Energy  Wavelength   fosc         T2         TX        TY        TZ
        (cm-1)    (nm)                  (au**2)     (au)      (au)      (au)
-----------------------------------------------------------------------------
   0   16475.6    607.0   0.994499868  19.87183  -0.48041  -4.22995   1.32232
   1   22975.4    435.2   0.033540085   0.48059  -0.13978  -0.65746   0.16969
   2   26083.7    383.4   0.065189936   0.82279   0.03959  -0.89766   0.12420
   3   26829.0    372.7   0.469559545   5.76186   0.28675   2.36867  -0.26271
   4   27683.9    361.2   0.165186667   1.96437  -0.09013  -1.39554   0.09328
   5   29179.9    342.7   0.164751404   1.85875  -0.09453   1.34574   0.19697
   6   29763.4    336.0   0.000683057   0.00756   0.07478  -0.00329   0.04419
   7   30827.0    324.4   0.203530003   2.17356  -0.11591  -1.46794   0.07258
   8   32106.6    311.5   0.290614918   2.97988   0.02055  -1.38683  -1.02769
   9   32594.5    306.8   0.408815331   4.12913  -0.23109  -2.01677  -0.09138
  10   33316.2    300.2   0.034205499   0.33800   0.04338   0.57769   0.04886
  11   35568.5    281.1   0.045199956   0.41836  -0.02014   0.24083   0.59996
  12   36409.4    274.7   0.158519001   1.43332   0.01555   0.60105   1.03529
  13   36668.2    272.7   0.030505890   0.27389   0.16992   0.45973   0.18348
  14   37474.5    266.8   0.033590380   0.29509   0.11753   0.36863   0.38130
  15   37944.0    263.5   0.197890538   1.71695  -0.10214  -1.30286  -0.09528
  16   39250.5    254.8   0.010132795   0.08499   0.02981  -0.19186   0.21746
  17   39523.0    253.0   0.018188134   0.15150   0.01043  -0.20061  -0.33339
  18   39552.1    252.8   0.004749177   0.03953   0.05623  -0.10504  -0.15917
  19   40146.5    249.1   0.065822585   0.53976  -0.14517  -0.71966   0.02780

FINAL SINGLE POINT ENERGY     -3525.864299356511

DIPOLE MOMENT
-------------
                                X             Y             Z
Electronic contribution:      6.92277     -18.99795     -18.19574
Nuclear contribution   :     -6.88585      21.18665      21.92569
                        -----------------------------------------
Total Dipole Moment    :      0.03692       2.18870       3.72994
                        -----------------------------------------
Magnitude (a.u.)       :      4.32484
Magnitude (Debye)      :     10.99287

Rotational constants in cm-1:     0.005155     0.000284     0.000273
Rotational constants in MHz :   154.528053     8.526318     8.195057

                             ****ORCA TERMINATED NORMALLY****
TOTAL RUN TIME: 0 days 0 hours 5 minutes 57 seconds 476 msec
