                         Program Version 4.2.0 -  RELEASE  -
|  1> # ORCA input file
|  2> # SCF done       -169.319049418240          0.000902539117
|  3> ! CAM-B3LYP def2-SVP def2/J RIJCOSX Grid4 TightSCF
|  4> %maxcore 5000
|  5> %tddft
|  6>     Mode sTDDFT
|  7>     Ethresh 5.0
|  8>     maxcore 5000
|  9> end
| 10>
| 11> %pal
| 12>   nprocs 6
| 13>   end
| 14> * xyz 0 1
| 15>    C       -0.89525        -1.34442        -1.65086
| 16>    S        0.75438        -1.36347        -2.07816
| 17>    C        1.01993        -2.86445        -1.22971
| 18>    C       -0.15453        -3.30551        -0.65038
| 19>    C       -1.25110        -2.42862        -0.89327
| 20>    C       -2.57496        -2.59689        -0.43174
| 21>    N       -3.66046        -2.67733        -0.07793
| 22>    C       -0.29091        -4.57793         0.12246
| 23>    F        0.41003        -4.55878         1.27555
| 24>    F       -1.54916        -4.85936         0.45672
| 25>    F        0.16000        -5.64432        -0.56944
| 26>    C        2.33916        -3.41503        -1.24349
| 27>    S        2.86840        -4.70782        -0.20913
| 28>    C        4.46832        -4.67326        -0.88457
| 29>    C        4.56186        -3.68367        -1.86658
| 30>    C        3.36538        -2.97927        -2.05570
| 31>    C        5.73225        -3.40619        -2.59788
| 32>    N        6.66264        -3.14297        -3.21294
| 33>    C        5.49116        -5.55637        -0.47519
| 34>    C        5.33551        -6.47668         0.51634
| 35>    C        6.35803        -7.37256         0.89793
| 36>    N        6.23635        -8.29982         1.90442
| 37>    C        5.06568        -8.55078         2.71122
| 38>    C        4.02955        -9.38860         1.96634
| 39>    C        7.40425        -9.06776         2.05710
| 40>    O        7.52588        -9.94591         2.88668
| 41>    C        8.30991        -8.54673         1.05358
| 42>    C        7.64478        -7.51112         0.36654
| 43>    C        8.54883        -6.98325        -0.63634
| 44>    O        8.42042        -6.09382        -1.45178
| 45>    N        9.71683        -7.74354        -0.48321
| 46>    C       10.85454        -7.54597        -1.35125
| 47>    C       10.90685        -8.58788        -2.46533
| 48>    C        9.59637        -8.68590         0.51187
| 49>    C       10.61937        -9.58612         0.86278
| 50>    C       10.48692       -10.52123         1.85137
| 51>    C       11.50114       -11.44033         2.19590
| 52>    C       12.74604       -11.61813         1.61958
| 53>    C       13.42044       -12.68154         2.27328
| 54>    C       12.50835       -13.15501         3.33624
| 55>    C       11.37542       -12.41243         3.27797
| 56>    C       12.77281       -14.15020         4.28642
| 57>    N       12.96265       -14.93838         5.09895
| 58>    C       14.66615       -13.18543         1.96678
| 59>    C       15.31673       -14.31890         2.53943
| 60>    C       16.54733       -14.47270         1.94164
| 61>    C       16.71545       -13.41029         0.96714
| 62>    C       15.59188       -12.64358         0.95942
| 63>    C       15.38824       -11.53010         0.13845
| 64>    N       15.24506       -10.62145        -0.55054
| 65>    C       17.53373       -15.47217         2.17904
| 66>    S       19.12973       -15.31087         1.50244
| 67>    C       19.64081       -16.78522         2.19852
| 68>    C       18.64793       -17.38637         2.91173
| 69>    C       17.43220       -16.64734         2.91036
| 70>    C       16.26397       -17.11376         3.54065
| 71>    N       15.32492       -17.53492         4.04455
| 72>    C       18.80249       -18.69334         3.62137
| 73>    F       20.04456       -19.18662         3.49097
| 74>    F       18.56748       -18.59240         4.93740
| 75>    F       17.96831       -19.63200         3.14885
| 76>    H       -1.53350        -0.54519        -1.97167
| 77>    H        3.25488        -2.18482        -2.77315
| 78>    H        6.43547        -5.47578        -1.00129
| 79>    H        4.38945        -6.53239         1.03867
| 80>    H        4.63699        -7.59940         3.03741
| 81>    H        5.41592        -9.09918         3.59009
| 82>    H        3.69425        -8.88597         1.06186
| 83>    H        3.17033        -9.56262         2.60769
| 84>    H        4.45724       -10.34934         1.69062
| 85>    H       11.77318        -7.56188        -0.75917
| 86>    H       10.73237        -6.55034        -1.78647
| 87>    H       10.97255        -9.59462        -2.05861
| 88>    H       11.77552        -8.40858        -3.09202
| 89>    H       10.01322        -8.51965        -3.08088
| 90>    H       11.54937        -9.52345         0.31729
| 91>    H        9.56023       -10.57650         2.40760
| 92>    H       13.14906       -11.07082         0.79167
| 93>    H       10.51536       -12.49800         3.91586
| 94>    H       14.89794       -14.94011         3.30602
| 95>    H       17.58743       -13.27641         0.35335
| 96>    H       20.64151       -17.14030         2.05025
| 97> *
| 98>
| 99>                          ****END OF INPUT****

CARTESIAN COORDINATES (ANGSTROEM)
---------------------------------
  C     -0.895250   -1.344420   -1.650860
  S      0.754380   -1.363470   -2.078160
  C      1.019930   -2.864450   -1.229710
  C     -0.154530   -3.305510   -0.650380
  C     -1.251100   -2.428620   -0.893270
  C     -2.574960   -2.596890   -0.431740
  N     -3.660460   -2.677330   -0.077930
  C     -0.290910   -4.577930    0.122460
  F      0.410030   -4.558780    1.275550
  F     -1.549160   -4.859360    0.456720
  F      0.160000   -5.644320   -0.569440
  C      2.339160   -3.415030   -1.243490
  S      2.868400   -4.707820   -0.209130
  C      4.468320   -4.673260   -0.884570
  C      4.561860   -3.683670   -1.866580
  C      3.365380   -2.979270   -2.055700
  C      5.732250   -3.406190   -2.597880
  N      6.662640   -3.142970   -3.212940
  C      5.491160   -5.556370   -0.475190
  C      5.335510   -6.476680    0.516340
  C      6.358030   -7.372560    0.897930
  N      6.236350   -8.299820    1.904420
  C      5.065680   -8.550780    2.711220
  C      4.029550   -9.388600    1.966340
  C      7.404250   -9.067760    2.057100
  O      7.525880   -9.945910    2.886680
  C      8.309910   -8.546730    1.053580
  C      7.644780   -7.511120    0.366540
  C      8.548830   -6.983250   -0.636340
  O      8.420420   -6.093820   -1.451780
  N      9.716830   -7.743540   -0.483210
  C     10.854540   -7.545970   -1.351250
  C     10.906850   -8.587880   -2.465330
  C      9.596370   -8.685900    0.511870
  C     10.619370   -9.586120    0.862780
  C     10.486920  -10.521230    1.851370
  C     11.501140  -11.440330    2.195900
  C     12.746040  -11.618130    1.619580
  C     13.420440  -12.681540    2.273280
  C     12.508350  -13.155010    3.336240
  C     11.375420  -12.412430    3.277970
  C     12.772810  -14.150200    4.286420
  N     12.962650  -14.938380    5.098950
  C     14.666150  -13.185430    1.966780
  C     15.316730  -14.318900    2.539430
  C     16.547330  -14.472700    1.941640
  C     16.715450  -13.410290    0.967140
  C     15.591880  -12.643580    0.959420
  C     15.388240  -11.530100    0.138450
  N     15.245060  -10.621450   -0.550540
  C     17.533730  -15.472170    2.179040
  S     19.129730  -15.310870    1.502440
  C     19.640810  -16.785220    2.198520
  C     18.647930  -17.386370    2.911730
  C     17.432200  -16.647340    2.910360
  C     16.263970  -17.113760    3.540650
  N     15.324920  -17.534920    4.044550
  C     18.802490  -18.693340    3.621370
  F     20.044560  -19.186620    3.490970
  F     18.567480  -18.592400    4.937400
  F     17.968310  -19.632000    3.148850
  H     -1.533500   -0.545190   -1.971670
  H      3.254880   -2.184820   -2.773150
  H      6.435470   -5.475780   -1.001290
  H      4.389450   -6.532390    1.038670
  H      4.636990   -7.599400    3.037410
  H      5.415920   -9.099180    3.590090
  H      3.694250   -8.885970    1.061860
  H      3.170330   -9.562620    2.607690
  H      4.457240  -10.349340    1.690620
  H     11.773180   -7.561880   -0.759170
  H     10.732370   -6.550340   -1.786470
  H     10.972550   -9.594620   -2.058610
  H     11.775520   -8.408580   -3.092020
  H     10.013220   -8.519650   -3.080880
  H     11.549370   -9.523450    0.317290
  H      9.560230  -10.576500    2.407600
  H     13.149060  -11.070820    0.791670
  H     10.515360  -12.498000    3.915860
  H     14.897940  -14.940110    3.306020
  H     17.587430  -13.276410    0.353350
  H     20.641510  -17.140300    2.050250

 Total Charge           Charge          ....    0
 Multiplicity           Mult            ....    1
 Number of Electrons    NEL             ....  446
 Basis Dimension        Dim             ....  971

ORBITAL ENERGIES
----------------

  NO   OCC          E(Eh)            E(eV)
   0   2.0000     -89.006230     -2421.9827
   1   2.0000     -88.997405     -2421.7425
   2   2.0000     -88.993425     -2421.6342
   3   2.0000     -24.820017      -675.3870
   4   2.0000     -24.816943      -675.3033
   5   2.0000     -24.815413      -675.2617
   6   2.0000     -24.805480      -674.9914
   7   2.0000     -24.800297      -674.8504
   8   2.0000     -24.800130      -674.8458
   9   2.0000     -19.205948      -522.6204
  10   2.0000     -19.201029      -522.4866
  11   2.0000     -14.466459      -393.6524
  12   2.0000     -14.463086      -393.5606
  13   2.0000     -14.418086      -392.3361
  14   2.0000     -14.417389      -392.3171
  15   2.0000     -14.414609      -392.2414
  16   2.0000     -14.414343      -392.2342
  17   2.0000     -14.407164      -392.0389
  18   2.0000     -10.542536      -286.8770
  19   2.0000     -10.526758      -286.4477
  20   2.0000     -10.387760      -282.6653
  21   2.0000     -10.383650      -282.5535
  22   2.0000     -10.361625      -281.9541
  23   2.0000     -10.352956      -281.7183
  24   2.0000     -10.350267      -281.6451
  25   2.0000     -10.348739      -281.6035
  26   2.0000     -10.348284      -281.5911
  27   2.0000     -10.346778      -281.5502
  28   2.0000     -10.345011      -281.5021
  29   2.0000     -10.342869      -281.4438
  30   2.0000     -10.336356      -281.2665
  31   2.0000     -10.335965      -281.2559
  32   2.0000     -10.335771      -281.2506
  33   2.0000     -10.333845      -281.1982
  34   2.0000     -10.331892      -281.1451
  35   2.0000     -10.327795      -281.0336
  36   2.0000     -10.323924      -280.9282
  37   2.0000     -10.323218      -280.9090
  38   2.0000     -10.320512      -280.8354
  39   2.0000     -10.320044      -280.8227
  40   2.0000     -10.319921      -280.8193
  41   2.0000     -10.319345      -280.8037
  42   2.0000     -10.318679      -280.7855
  43   2.0000     -10.317985      -280.7667
  44   2.0000     -10.317358      -280.7496
  45   2.0000     -10.313528      -280.6454
  46   2.0000     -10.313279      -280.6386
  47   2.0000     -10.313047      -280.6323
  48   2.0000     -10.312283      -280.6115
  49   2.0000     -10.312131      -280.6073
  50   2.0000     -10.310904      -280.5740
  51   2.0000     -10.309399      -280.5330
  52   2.0000     -10.307747      -280.4881
  53   2.0000     -10.307210      -280.4734
  54   2.0000     -10.302236      -280.3381
  55   2.0000     -10.295923      -280.1663
  56   2.0000     -10.289024      -279.9786
  57   2.0000     -10.277461      -279.6639
  58   2.0000     -10.275478      -279.6100
  59   2.0000     -10.272985      -279.5421
  60   2.0000     -10.266485      -279.3653
  61   2.0000      -8.102024      -220.4673
  62   2.0000      -8.093088      -220.2241
  63   2.0000      -8.088414      -220.0969
  64   2.0000      -6.071323      -165.2091
  65   2.0000      -6.066786      -165.0856
  66   2.0000      -6.064369      -165.0199
  67   2.0000      -6.062283      -164.9631
  68   2.0000      -6.057928      -164.8446
  69   2.0000      -6.057654      -164.8371
  70   2.0000      -6.055532      -164.7794
  71   2.0000      -6.053463      -164.7231
  72   2.0000      -6.050546      -164.6437
  73   2.0000      -1.409247       -38.3475
  74   2.0000      -1.392698       -37.8972
  75   2.0000      -1.312529       -35.7157
  76   2.0000      -1.307071       -35.5672
  77   2.0000      -1.295964       -35.2650
  78   2.0000      -1.292739       -35.1772
  79   2.0000      -1.146622       -31.2012
  80   2.0000      -1.139125       -30.9972
  81   2.0000      -1.076669       -29.2977
  82   2.0000      -1.067570       -29.0501
  83   2.0000      -1.045305       -28.4442
  84   2.0000      -1.035069       -28.1657
  85   2.0000      -1.024552       -27.8795
  86   2.0000      -1.020170       -27.7602
  87   2.0000      -1.005211       -27.3532
  88   2.0000      -0.999984       -27.2110
  89   2.0000      -0.994688       -27.0668
  90   2.0000      -0.992929       -27.0190
  91   2.0000      -0.990479       -26.9523
  92   2.0000      -0.983951       -26.7747
  93   2.0000      -0.941776       -25.6270
  94   2.0000      -0.934342       -25.4247
  95   2.0000      -0.922662       -25.1069
  96   2.0000      -0.910041       -24.7635
  97   2.0000      -0.906948       -24.6793
  98   2.0000      -0.905364       -24.6362
  99   2.0000      -0.892516       -24.2866
 100   2.0000      -0.883039       -24.0287
 101   2.0000      -0.877260       -23.8715
 102   2.0000      -0.869893       -23.6710
 103   2.0000      -0.857605       -23.3366
 104   2.0000      -0.854152       -23.2427
 105   2.0000      -0.845713       -23.0130
 106   2.0000      -0.829444       -22.5703
 107   2.0000      -0.816548       -22.2194
 108   2.0000      -0.808739       -22.0069
 109   2.0000      -0.795034       -21.6340
 110   2.0000      -0.787378       -21.4256
 111   2.0000      -0.770998       -20.9799
 112   2.0000      -0.769029       -20.9263
 113   2.0000      -0.748185       -20.3592
 114   2.0000      -0.740883       -20.1604
 115   2.0000      -0.738925       -20.1072
 116   2.0000      -0.730247       -19.8710
 117   2.0000      -0.724839       -19.7239
 118   2.0000      -0.719442       -19.5770
 119   2.0000      -0.717183       -19.5155
 120   2.0000      -0.711972       -19.3738
 121   2.0000      -0.707452       -19.2507
 122   2.0000      -0.706092       -19.2138
 123   2.0000      -0.697611       -18.9830
 124   2.0000      -0.691008       -18.8033
 125   2.0000      -0.690211       -18.7816
 126   2.0000      -0.680259       -18.5108
 127   2.0000      -0.675010       -18.3680
 128   2.0000      -0.674531       -18.3549
 129   2.0000      -0.673108       -18.3162
 130   2.0000      -0.659485       -17.9455
 131   2.0000      -0.655565       -17.8388
 132   2.0000      -0.648729       -17.6528
 133   2.0000      -0.641204       -17.4481
 134   2.0000      -0.628184       -17.0937
 135   2.0000      -0.620363       -16.8809
 136   2.0000      -0.614968       -16.7341
 137   2.0000      -0.601966       -16.3803
 138   2.0000      -0.598753       -16.2929
 139   2.0000      -0.592556       -16.1243
 140   2.0000      -0.589843       -16.0504
 141   2.0000      -0.585734       -15.9386
 142   2.0000      -0.571249       -15.5445
 143   2.0000      -0.569161       -15.4876
 144   2.0000      -0.563943       -15.3457
 145   2.0000      -0.562431       -15.3045
 146   2.0000      -0.559247       -15.2179
 147   2.0000      -0.553726       -15.0677
 148   2.0000      -0.553266       -15.0551
 149   2.0000      -0.550359       -14.9760
 150   2.0000      -0.548442       -14.9239
 151   2.0000      -0.545498       -14.8438
 152   2.0000      -0.544429       -14.8147
 153   2.0000      -0.542436       -14.7604
 154   2.0000      -0.541197       -14.7267
 155   2.0000      -0.540162       -14.6985
 156   2.0000      -0.535174       -14.5628
 157   2.0000      -0.533889       -14.5278
 158   2.0000      -0.531431       -14.4610
 159   2.0000      -0.528194       -14.3729
 160   2.0000      -0.523451       -14.2438
 161   2.0000      -0.522977       -14.2309
 162   2.0000      -0.522229       -14.2106
 163   2.0000      -0.521251       -14.1840
 164   2.0000      -0.517399       -14.0791
 165   2.0000      -0.514001       -13.9867
 166   2.0000      -0.513023       -13.9601
 167   2.0000      -0.510027       -13.8785
 168   2.0000      -0.507808       -13.8182
 169   2.0000      -0.506852       -13.7922
 170   2.0000      -0.505462       -13.7543
 171   2.0000      -0.505096       -13.7444
 172   2.0000      -0.503464       -13.7000
 173   2.0000      -0.501234       -13.6393
 174   2.0000      -0.494548       -13.4573
 175   2.0000      -0.490187       -13.3387
 176   2.0000      -0.488302       -13.2874
 177   2.0000      -0.486894       -13.2490
 178   2.0000      -0.485713       -13.2169
 179   2.0000      -0.483961       -13.1693
 180   2.0000      -0.478305       -13.0153
 181   2.0000      -0.473952       -12.8969
 182   2.0000      -0.469761       -12.7828
 183   2.0000      -0.466511       -12.6944
 184   2.0000      -0.462443       -12.5837
 185   2.0000      -0.461260       -12.5515
 186   2.0000      -0.458977       -12.4894
 187   2.0000      -0.454200       -12.3594
 188   2.0000      -0.453582       -12.3426
 189   2.0000      -0.451016       -12.2728
 190   2.0000      -0.449059       -12.2195
 191   2.0000      -0.447641       -12.1809
 192   2.0000      -0.446113       -12.1393
 193   2.0000      -0.445163       -12.1135
 194   2.0000      -0.443938       -12.0802
 195   2.0000      -0.440831       -11.9956
 196   2.0000      -0.439604       -11.9622
 197   2.0000      -0.439419       -11.9572
 198   2.0000      -0.438022       -11.9192
 199   2.0000      -0.435401       -11.8479
 200   2.0000      -0.434233       -11.8161
 201   2.0000      -0.432992       -11.7823
 202   2.0000      -0.426155       -11.5963
 203   2.0000      -0.421552       -11.4710
 204   2.0000      -0.420706       -11.4480
 205   2.0000      -0.416839       -11.3428
 206   2.0000      -0.413774       -11.2594
 207   2.0000      -0.406248       -11.0546
 208   2.0000      -0.400033       -10.8854
 209   2.0000      -0.389809       -10.6072
 210   2.0000      -0.368316       -10.0224
 211   2.0000      -0.362153        -9.8547
 212   2.0000      -0.360267        -9.8034
 213   2.0000      -0.353773        -9.6267
 214   2.0000      -0.351248        -9.5579
 215   2.0000      -0.349184        -9.5018
 216   2.0000      -0.343961        -9.3596
 217   2.0000      -0.332265        -9.0414
 218   2.0000      -0.327972        -8.9246
 219   2.0000      -0.308755        -8.4017
 220   2.0000      -0.302991        -8.2448
 221   2.0000      -0.292847        -7.9688
 222   2.0000      -0.242521        -6.5993
 223   0.0000      -0.139841        -3.8053
 224   0.0000      -0.098191        -2.6719
 225   0.0000      -0.058076        -1.5803
 226   0.0000      -0.038087        -1.0364
 227   0.0000      -0.032649        -0.8884

MULLIKEN ATOMIC CHARGES
-----------------------
   0 C :   -0.051755
   1 S :    0.179672
   2 C :   -0.104545
   3 C :   -0.038624
   4 C :   -0.090422
   5 C :   -0.184638
   6 N :    0.150092
   7 C :    0.524920
   8 F :   -0.165755
   9 F :   -0.128015
  10 F :   -0.163763
  11 C :   -0.051140
  12 S :    0.155542
  13 C :   -0.035835
  14 C :   -0.035667
  15 C :   -0.010836
  16 C :   -0.186386
  17 N :    0.156622
  18 C :   -0.001739
  19 C :   -0.033266
  20 C :    0.139004
  21 N :   -0.254997
  22 C :    0.097080
  23 C :    0.002458
  24 C :    0.166340
  25 O :   -0.201856
  26 C :   -0.059282
  27 C :   -0.065587
  28 C :    0.166875
  29 O :   -0.195265
  30 N :   -0.253676
  31 C :    0.094142
  32 C :    0.003339
  33 C :    0.143597
  34 C :   -0.008352
  35 C :    0.000692
  36 C :    0.114410
  37 C :   -0.127273
  38 C :    0.123747
  39 C :   -0.075462
  40 C :    0.003529
  41 C :   -0.190095
  42 N :    0.156784
  43 C :    0.105514
  44 C :   -0.137487
  45 C :    0.085463
  46 C :   -0.024366
  47 C :   -0.089859
  48 C :   -0.171508
  49 N :    0.125852
  50 C :   -0.067326
  51 S :    0.165132
  52 C :   -0.094570
  53 C :   -0.056700
  54 C :   -0.021644
  55 C :   -0.244040
  56 N :    0.190576
  57 C :    0.535130
  58 F :   -0.158944
  59 F :   -0.151917
  60 F :   -0.153832
  61 H :    0.050779
  62 H :    0.012505
  63 H :    0.044449
  64 H :   -0.013687
  65 H :    0.026239
  66 H :    0.046353
  67 H :    0.016671
  68 H :    0.029590
  69 H :    0.031613
  70 H :    0.032575
  71 H :    0.049183
  72 H :    0.016040
  73 H :    0.032887
  74 H :    0.030155
  75 H :   -0.011545
  76 H :    0.007185
  77 H :   -0.001282
  78 H :    0.013271
  79 H :    0.030047
  80 H :    0.006023
  81 H :    0.050859
Sum of atomic charges:   -0.0000000

LOEWDIN ATOMIC CHARGES
----------------------
   0 C :   -0.139003
   1 S :    0.502888
   2 C :   -0.152901
   3 C :   -0.108479
   4 C :   -0.089845
   5 C :   -0.043165
   6 N :   -0.035650
   7 C :    0.163214
   8 F :   -0.067096
   9 F :   -0.026176
  10 F :   -0.065411
  11 C :   -0.188511
  12 S :    0.487935
  13 C :   -0.140803
  14 C :   -0.089985
  15 C :   -0.025414
  16 C :   -0.035101
  17 N :   -0.032332
  18 C :    0.010715
  19 C :   -0.041573
  20 C :    0.074192
  21 N :    0.001701
  22 C :    0.037095
  23 C :   -0.060190
  24 C :    0.081726
  25 O :   -0.192723
  26 C :   -0.108327
  27 C :   -0.112931
  28 C :    0.078897
  29 O :   -0.185716
  30 N :    0.003734
  31 C :    0.037586
  32 C :   -0.059493
  33 C :    0.071687
  34 C :   -0.013320
  35 C :    0.020667
  36 C :   -0.009893
  37 C :   -0.029390
  38 C :    0.050941
  39 C :   -0.075750
  40 C :    0.062393
  41 C :   -0.038612
  42 N :   -0.041459
  43 C :    0.027300
  44 C :   -0.003820
  45 C :   -0.045501
  46 C :    0.037194
  47 C :   -0.080139
  48 C :   -0.027057
  49 N :   -0.069192
  50 C :   -0.131461
  51 S :    0.487404
  52 C :   -0.153163
  53 C :   -0.097426
  54 C :   -0.084305
  55 C :   -0.041741
  56 N :   -0.018844
  57 C :    0.168832
  58 F :   -0.058248
  59 F :   -0.051776
  60 F :   -0.053275
  61 H :    0.041782
  62 H :    0.036001
  63 H :    0.048681
  64 H :    0.024555
  65 H :    0.024359
  66 H :    0.039175
  67 H :    0.022182
  68 H :    0.033378
  69 H :    0.033075
  70 H :    0.026474
  71 H :    0.040634
  72 H :    0.022169
  73 H :    0.035053
  74 H :    0.032265
  75 H :    0.036075
  76 H :    0.038295
  77 H :    0.030515
  78 H :    0.043377
  79 H :    0.041250
  80 H :    0.031611
  81 H :    0.038187

  Mayer bond orders larger than 0.100000
B(  0-C ,  1-S ) :   1.1757 B(  0-C ,  4-C ) :   1.5737 B(  0-C , 61-H ) :   0.9734
B(  1-S ,  2-C ) :   1.1819 B(  2-C ,  3-C ) :   1.5250 B(  2-C , 11-C ) :   1.1107
B(  3-C ,  4-C ) :   1.2811 B(  3-C ,  7-C ) :   0.9396 B(  4-C ,  5-C ) :   1.0949
B(  5-C ,  6-N ) :   3.0483 B(  7-C ,  8-F ) :   1.1547 B(  7-C ,  9-F ) :   1.1847
B(  7-C , 10-F ) :   1.1639 B( 11-C , 12-S ) :   1.1428 B( 11-C , 15-C ) :   1.4742
B( 12-S , 13-C ) :   1.1204 B( 13-C , 14-C ) :   1.4278 B( 13-C , 18-C ) :   1.1966
B( 14-C , 15-C ) :   1.3017 B( 14-C , 16-C ) :   1.0982 B( 15-C , 62-H ) :   0.9973
B( 16-C , 17-N ) :   3.0257 B( 18-C , 19-C ) :   1.5598 B( 18-C , 63-H ) :   0.9399
B( 19-C , 20-C ) :   1.1778 B( 19-C , 64-H ) :   0.9612 B( 20-C , 21-N ) :   1.1669
B( 20-C , 27-C ) :   1.3186 B( 21-N , 22-C ) :   0.9408 B( 21-N , 24-C ) :   1.0564
B( 22-C , 23-C ) :   1.1209 B( 22-C , 65-H ) :   0.9503 B( 22-C , 66-H ) :   0.9284
B( 23-C , 67-H ) :   0.9686 B( 23-C , 68-H ) :   0.9680 B( 23-C , 69-H ) :   0.9636
B( 24-C , 25-O ) :   2.0360 B( 24-C , 26-C ) :   0.9827 B( 25-O , 76-H ) :   0.1081
B( 26-C , 27-C ) :   1.2828 B( 26-C , 33-C ) :   1.3018 B( 27-C , 28-C ) :   0.9792
B( 28-C , 29-O ) :   2.0380 B( 28-C , 30-N ) :   1.0625 B( 29-O , 63-H ) :   0.1128
B( 30-N , 31-C ) :   0.9382 B( 30-N , 33-C ) :   1.1649 B( 31-C , 32-C ) :   1.1195
B( 31-C , 70-H ) :   0.9503 B( 31-C , 71-H ) :   0.9278 B( 32-C , 72-H ) :   0.9686
B( 32-C , 73-H ) :   0.9683 B( 32-C , 74-H ) :   0.9641 B( 33-C , 34-C ) :   1.1795
B( 34-C , 35-C ) :   1.5488 B( 34-C , 75-H ) :   0.9645 B( 35-C , 36-C ) :   1.1293
B( 35-C , 76-H ) :   0.9581 B( 36-C , 37-C ) :   1.5094 B( 36-C , 40-C ) :   1.0200
B( 37-C , 38-C ) :   1.1503 B( 37-C , 77-H ) :   0.9952 B( 38-C , 39-C ) :   1.0945
B( 38-C , 43-C ) :   1.3834 B( 39-C , 40-C ) :   1.6813 B( 39-C , 41-C ) :   1.0854
B( 40-C , 78-H ) :   1.0273 B( 41-C , 42-N ) :   2.9804 B( 43-C , 44-C ) :   1.1175
B( 43-C , 47-C ) :   1.1209 B( 44-C , 45-C ) :   1.5591 B( 44-C , 79-H ) :   0.9959
B( 45-C , 46-C ) :   1.0530 B( 45-C , 50-C ) :   1.0925 B( 46-C , 47-C ) :   1.6636
B( 46-C , 80-H ) :   1.0102 B( 47-C , 48-C ) :   1.0834 B( 48-C , 49-N ) :   2.9613
B( 50-C , 51-S ) :   1.1549 B( 50-C , 54-C ) :   1.5187 B( 51-S , 52-C ) :   1.1705
B( 52-C , 53-C ) :   1.5801 B( 52-C , 81-H ) :   0.9693 B( 53-C , 54-C ) :   1.2632
B( 53-C , 57-C ) :   0.9417 B( 54-C , 55-C ) :   1.1473 B( 55-C , 56-N ) :   2.9818
B( 57-C , 58-F ) :   1.1715 B( 57-C , 59-F ) :   1.1816 B( 57-C , 60-F ) :   1.1768

-----------------------------------------------------------------------------
         ABSORPTION SPECTRUM VIA TRANSITION ELECTRIC DIPOLE MOMENTS
-----------------------------------------------------------------------------
State   Energy  Wavelength   fosc         T2         TX        TY        TZ
        (cm-1)    (nm)                  (au**2)     (au)      (au)      (au)
-----------------------------------------------------------------------------
   0    8778.7   1139.1   0.776555600  29.12183  -4.42229   3.05009  -0.51201
   1   16252.0    615.3   0.060120108   1.21784  -0.81457   0.60799  -0.42972
   2   16605.4    602.2   0.287753079   5.70487   2.02934  -1.25349   0.12405
   3   17979.5    556.2   0.004807273   0.08802   0.27073  -0.11481   0.03929
   4   23615.1    423.5   0.266286367   3.71223   1.35179  -1.25035   0.56701
   5   24349.2    410.7   0.164780442   2.22790   0.97150  -0.99575   0.54089
   6   25112.8    398.2   0.469342631   6.15276  -1.97948   1.49405  -0.04701
   7   25922.0    385.8   0.189884474   2.41155   0.86933  -1.08654   0.68938
   8   26334.6    379.7   0.000818331   0.01023   0.08694  -0.01170   0.05035
   9   29457.9    339.5   0.005681273   0.06349   0.09473  -0.18823   0.13816
  10   29736.3    336.3   0.054934404   0.60818  -0.38823   0.53749  -0.41057
  11   30087.2    332.4   0.217627730   2.38126  -0.92623   1.05173  -0.64593
  12   30147.8    331.7   0.104306514   1.13902   1.01968  -0.30086  -0.09356
  13   31188.0    320.6   0.044448237   0.46918   0.23253   0.38524  -0.51643
  14   31779.1    314.7   0.017369742   0.17994   0.05894  -0.31174   0.28157
  15   32106.6    311.5   0.008835162   0.09059   0.26118  -0.14210   0.04676
  16   33217.8    301.0   0.124484436   1.23373  -0.80116   0.75502  -0.14772
  17   33478.2    298.7   0.047767925   0.46973   0.33105  -0.56313   0.20742
  18   34293.3    291.6   0.000295115   0.00283   0.00701  -0.03293  -0.04122
  19   34602.7    289.0   0.036904940   0.35112   0.50689   0.08555  -0.29472
  20   35429.4    282.3   0.000643861   0.00598   0.06014   0.01812  -0.04514
  21   36379.7    274.9   0.038762992   0.35078  -0.40731  -0.16760   0.39596
  22   37266.9    268.3   0.078014297   0.68917   0.00375  -0.61213   0.56076
  23   37995.6    263.2   0.002225725   0.01928   0.10763  -0.07549   0.04474
  24   38062.2    262.7   0.192892226   1.66839  -0.87385   0.84895  -0.42903
  25   38400.7    260.4   0.118558249   1.01641   0.76167  -0.64936   0.12084
  26   38792.9    257.8   0.047942526   0.40686  -0.54574  -0.04311   0.32736
  27   38953.1    256.7   0.093563145   0.79075  -0.56735   0.67746  -0.09960
  28   39371.0    254.0   0.148550133   1.24214   0.74838  -0.81609   0.12672
  29   39726.5    251.7   0.089987707   0.74572  -0.14921  -0.58511   0.61734
  30   40197.5    248.8   0.104172076   0.85315  -0.25140   0.66292  -0.59203

FINAL SINGLE POINT ENERGY     -3974.745325852884

DIPOLE MOMENT
-------------
                                X             Y             Z
Electronic contribution:      4.40684     -20.41356      13.81852
Nuclear contribution   :     -4.06520      22.65300     -15.42200
                        -----------------------------------------
Total Dipole Moment    :      0.34164       2.23944      -1.60348
                        -----------------------------------------
Magnitude (a.u.)       :      2.77542
Magnitude (Debye)      :      7.05456

Rotational constants in cm-1:     0.004244     0.000253     0.000241
Rotational constants in MHz :   127.244060     7.596293     7.225947

                             ****ORCA TERMINATED NORMALLY****
TOTAL RUN TIME: 0 days 0 hours 7 minutes 31 seconds 121 msec
