                         Program Version 4.2.0 -  RELEASE  -
|  1> # ORCA input file
|  2> # SCF done       -177.190021840486          0.000475183954
|  3> ! CAM-B3LYP def2-SVP def2/J RIJCOSX Grid4 TightSCF
|  4> %maxcore 5000
|  5> %tddft
|  6>     Mode sTDDFT
|  7>     Ethresh 5.0
|  8>     maxcore 5000
|  9> end
| 10>
| 11> %pal
| 12>   nprocs 6
| 13>   end
| 14> * xyz 0 1
| 15>    C        2.34114        -3.80556        -4.28758
| 16>    C        3.16466        -2.97045        -3.53054
| 17>    N        4.39447        -2.55286        -4.13599
| 18>    O        4.52440        -2.74103        -5.32959
| 19>    O        5.24357        -2.03916        -3.43308
| 20>    C        2.78206        -2.57999        -2.23797
| 21>    C        3.61159        -1.67243        -1.36107
| 22>    O        2.94361        -1.24554        -0.20350
| 23>    C        1.57584        -3.05489        -1.74900
| 24>    C        0.74350        -3.89521        -2.49353
| 25>    C        1.15114        -4.26523        -3.78232
| 26>    C       -0.50408        -4.36873        -1.95166
| 27>    C       -1.16422        -3.93529        -0.81996
| 28>    C       -2.36449        -4.61731        -0.61246
| 29>    C       -2.61611        -5.59230        -1.59472
| 30>    S       -1.38621        -5.65240        -2.77138
| 31>    C       -3.84925        -6.22962        -1.31011
| 32>    C       -4.37873        -5.64753        -0.14075
| 33>    C       -3.46666        -4.61770         0.33383
| 34>    C       -3.62153        -3.81517         1.42616
| 35>    C       -4.74360        -3.90709         2.27652
| 36>    N       -5.65125        -3.97414         2.97396
| 37>    C       -2.67021        -2.83150         1.76843
| 38>    N       -1.89849        -2.02688         2.03706
| 39>    C       -5.60325        -6.19092         0.22205
| 40>    C       -6.01022        -7.18524        -0.65931
| 41>    S       -4.85768        -7.45704        -1.95283
| 42>    C       -7.21374        -7.93174        -0.60240
| 43>    C       -7.49271        -8.93174        -1.56542
| 44>    C       -8.70076        -9.70350        -1.57452
| 45>    N       -8.87222       -10.63495        -2.53282
| 46>    C       -7.94075       -10.81117        -3.42734
| 47>    C       -6.75531       -10.04894        -3.42111
| 48>    N       -6.55595        -9.14082        -2.50814
| 49>    C       -9.71163        -9.49320        -0.59919
| 50>    C       -9.42846        -8.50300         0.36495
| 51>    C       -8.20826        -7.73516         0.37784
| 52>    N       -8.18929        -6.86664         1.39161
| 53>    S       -9.54346        -6.99583         2.23404
| 54>    N      -10.23821        -8.15604         1.36830
| 55>    C      -10.94598       -10.19680        -0.56190
| 56>    C      -11.38348       -11.21137        -1.40455
| 57>    C      -12.65747       -11.65138        -1.07366
| 58>    C      -13.20467       -10.96772         0.03062
| 59>    S      -12.14050        -9.79100         0.66385
| 60>    C      -14.50070       -11.48602         0.27157
| 61>    C      -14.77213       -12.49417        -0.67180
| 62>    C      -13.62071       -12.63482        -1.54600
| 63>    C      -13.46917       -13.50656        -2.58442
| 64>    C      -14.47881       -14.42616        -2.93830
| 65>    N      -15.29970       -15.17549        -3.22030
| 66>    C      -12.29589       -13.55155        -3.36676
| 67>    N      -11.34667       -13.59646        -4.00839
| 68>    C      -16.03811       -13.05905        -0.51216
| 69>    C      -16.73729       -12.49637         0.53686
| 70>    S      -15.80139       -11.23986         1.34244
| 71>    C      -18.06326       -12.81160         0.99888
| 72>    C      -18.65522       -12.07326         2.03326
| 73>    C      -19.92224       -12.37657         2.46140
| 74>    C      -20.64649       -13.41470         1.87131
| 75>    C      -20.07978       -14.18019         0.83973
| 76>    C      -18.79693       -13.85924         0.43026
| 77>    C      -20.79169       -15.32616         0.14961
| 78>    O      -21.77415       -14.88471        -0.74717
| 79>    N      -21.96195       -13.64667         2.38724
| 80>    O      -22.23697       -13.16408         3.46641
| 81>    O      -22.74390       -14.30719         1.72470
| 82>    H        2.66794        -4.08257        -5.27830
| 83>    H        3.97969        -0.81784        -1.94372
| 84>    H        4.49238        -2.22239        -1.01406
| 85>    H        2.26109        -0.60843        -0.44193
| 86>    H        1.29998        -2.77871        -0.74339
| 87>    H        0.52570        -4.91180        -4.37888
| 88>    H       -0.80050        -3.15100        -0.18229
| 89>    H       -6.19673        -5.90412         1.07054
| 90>    H       -8.12618       -11.57217        -4.17222
| 91>    H       -5.97733       -10.18472        -4.15850
| 92>    H      -10.77429       -11.58067        -2.20809
| 93>    H      -16.42971       -13.83741        -1.14022
| 94>    H      -18.11366       -11.25935         2.49102
| 95>    H      -20.38923       -11.81366         3.25537
| 96>    H      -18.35688       -14.44676        -0.35914
| 97>    H      -21.22136       -16.00316         0.90127
| 98>    H      -20.06699       -15.88514        -0.44759
| 99>    H      -22.53855       -14.59880        -0.22362
|100> *
|101>
|102>                          ****END OF INPUT****

CARTESIAN COORDINATES (ANGSTROEM)
---------------------------------
  C      2.341140   -3.805560   -4.287580
  C      3.164660   -2.970450   -3.530540
  N      4.394470   -2.552860   -4.135990
  O      4.524400   -2.741030   -5.329590
  O      5.243570   -2.039160   -3.433080
  C      2.782060   -2.579990   -2.237970
  C      3.611590   -1.672430   -1.361070
  O      2.943610   -1.245540   -0.203500
  C      1.575840   -3.054890   -1.749000
  C      0.743500   -3.895210   -2.493530
  C      1.151140   -4.265230   -3.782320
  C     -0.504080   -4.368730   -1.951660
  C     -1.164220   -3.935290   -0.819960
  C     -2.364490   -4.617310   -0.612460
  C     -2.616110   -5.592300   -1.594720
  S     -1.386210   -5.652400   -2.771380
  C     -3.849250   -6.229620   -1.310110
  C     -4.378730   -5.647530   -0.140750
  C     -3.466660   -4.617700    0.333830
  C     -3.621530   -3.815170    1.426160
  C     -4.743600   -3.907090    2.276520
  N     -5.651250   -3.974140    2.973960
  C     -2.670210   -2.831500    1.768430
  N     -1.898490   -2.026880    2.037060
  C     -5.603250   -6.190920    0.222050
  C     -6.010220   -7.185240   -0.659310
  S     -4.857680   -7.457040   -1.952830
  C     -7.213740   -7.931740   -0.602400
  C     -7.492710   -8.931740   -1.565420
  C     -8.700760   -9.703500   -1.574520
  N     -8.872220  -10.634950   -2.532820
  C     -7.940750  -10.811170   -3.427340
  C     -6.755310  -10.048940   -3.421110
  N     -6.555950   -9.140820   -2.508140
  C     -9.711630   -9.493200   -0.599190
  C     -9.428460   -8.503000    0.364950
  C     -8.208260   -7.735160    0.377840
  N     -8.189290   -6.866640    1.391610
  S     -9.543460   -6.995830    2.234040
  N    -10.238210   -8.156040    1.368300
  C    -10.945980  -10.196800   -0.561900
  C    -11.383480  -11.211370   -1.404550
  C    -12.657470  -11.651380   -1.073660
  C    -13.204670  -10.967720    0.030620
  S    -12.140500   -9.791000    0.663850
  C    -14.500700  -11.486020    0.271570
  C    -14.772130  -12.494170   -0.671800
  C    -13.620710  -12.634820   -1.546000
  C    -13.469170  -13.506560   -2.584420
  C    -14.478810  -14.426160   -2.938300
  N    -15.299700  -15.175490   -3.220300
  C    -12.295890  -13.551550   -3.366760
  N    -11.346670  -13.596460   -4.008390
  C    -16.038110  -13.059050   -0.512160
  C    -16.737290  -12.496370    0.536860
  S    -15.801390  -11.239860    1.342440
  C    -18.063260  -12.811600    0.998880
  C    -18.655220  -12.073260    2.033260
  C    -19.922240  -12.376570    2.461400
  C    -20.646490  -13.414700    1.871310
  C    -20.079780  -14.180190    0.839730
  C    -18.796930  -13.859240    0.430260
  C    -20.791690  -15.326160    0.149610
  O    -21.774150  -14.884710   -0.747170
  N    -21.961950  -13.646670    2.387240
  O    -22.236970  -13.164080    3.466410
  O    -22.743900  -14.307190    1.724700
  H      2.667940   -4.082570   -5.278300
  H      3.979690   -0.817840   -1.943720
  H      4.492380   -2.222390   -1.014060
  H      2.261090   -0.608430   -0.441930
  H      1.299980   -2.778710   -0.743390
  H      0.525700   -4.911800   -4.378880
  H     -0.800500   -3.151000   -0.182290
  H     -6.196730   -5.904120    1.070540
  H     -8.126180  -11.572170   -4.172220
  H     -5.977330  -10.184720   -4.158500
  H    -10.774290  -11.580670   -2.208090
  H    -16.429710  -13.837410   -1.140220
  H    -18.113660  -11.259350    2.491020
  H    -20.389230  -11.813660    3.255370
  H    -18.356880  -14.446760   -0.359140
  H    -21.221360  -16.003160    0.901270
  H    -20.066990  -15.885140   -0.447590
  H    -22.538550  -14.598800   -0.223620

 Total Charge           Charge          ....    0
 Multiplicity           Mult            ....    1
 Number of Electrons    NEL             ....  492
 Basis Dimension        Dim             .... 1048

ORBITAL ENERGIES
----------------

  NO   OCC          E(Eh)            E(eV)
   0   2.0000     -89.053874     -2423.2791
   1   2.0000     -88.994597     -2421.6661
   2   2.0000     -88.993260     -2421.6297
   3   2.0000     -88.986255     -2421.4391
   4   2.0000     -88.984936     -2421.4032
   5   2.0000     -19.252038      -523.8746
   6   2.0000     -19.249789      -523.8134
   7   2.0000     -19.242245      -523.6081
   8   2.0000     -19.239582      -523.5356
   9   2.0000     -19.218439      -522.9603
  10   2.0000     -19.193152      -522.2722
  11   2.0000     -14.656329      -398.8190
  12   2.0000     -14.647575      -398.5808
  13   2.0000     -14.461842      -393.5267
  14   2.0000     -14.461751      -393.5243
  15   2.0000     -14.455527      -393.3549
  16   2.0000     -14.448685      -393.1687
  17   2.0000     -14.432553      -392.7297
  18   2.0000     -14.432419      -392.7261
  19   2.0000     -14.431552      -392.7025
  20   2.0000     -14.430250      -392.6671
  21   2.0000     -10.365735      -282.0660
  22   2.0000     -10.364344      -282.0281
  23   2.0000     -10.353639      -281.7368
  24   2.0000     -10.352213      -281.6980
  25   2.0000     -10.349170      -281.6152
  26   2.0000     -10.348786      -281.6048
  27   2.0000     -10.347974      -281.5827
  28   2.0000     -10.346740      -281.5491
  29   2.0000     -10.344517      -281.4886
  30   2.0000     -10.344143      -281.4784
  31   2.0000     -10.338106      -281.3142
  32   2.0000     -10.335520      -281.2438
  33   2.0000     -10.333442      -281.1873
  34   2.0000     -10.333121      -281.1785
  35   2.0000     -10.333081      -281.1774
  36   2.0000     -10.332188      -281.1531
  37   2.0000     -10.330752      -281.1141
  38   2.0000     -10.330097      -281.0962
  39   2.0000     -10.328231      -281.0454
  40   2.0000     -10.327013      -281.0123
  41   2.0000     -10.326799      -281.0065
  42   2.0000     -10.326041      -280.9859
  43   2.0000     -10.323693      -280.9220
  44   2.0000     -10.323151      -280.9072
  45   2.0000     -10.322911      -280.9007
  46   2.0000     -10.322578      -280.8916
  47   2.0000     -10.322386      -280.8864
  48   2.0000     -10.319059      -280.7959
  49   2.0000     -10.316924      -280.7378
  50   2.0000     -10.316027      -280.7134
  51   2.0000     -10.309541      -280.5369
  52   2.0000     -10.307926      -280.4929
  53   2.0000     -10.307702      -280.4868
  54   2.0000     -10.306724      -280.4602
  55   2.0000     -10.305823      -280.4357
  56   2.0000     -10.305391      -280.4239
  57   2.0000     -10.303388      -280.3694
  58   2.0000     -10.300938      -280.3028
  59   2.0000     -10.300089      -280.2797
  60   2.0000     -10.299505      -280.2638
  61   2.0000     -10.298399      -280.2337
  62   2.0000     -10.296891      -280.1927
  63   2.0000     -10.295313      -280.1497
  64   2.0000     -10.295137      -280.1449
  65   2.0000     -10.294547      -280.1289
  66   2.0000     -10.290202      -280.0106
  67   2.0000      -8.144801      -221.6313
  68   2.0000      -8.089121      -220.1162
  69   2.0000      -8.087734      -220.0784
  70   2.0000      -8.079389      -219.8514
  71   2.0000      -8.076915      -219.7840
  72   2.0000      -6.115869      -166.4213
  73   2.0000      -6.108086      -166.2095
  74   2.0000      -6.107640      -166.1973
  75   2.0000      -6.058301      -164.8548
  76   2.0000      -6.056892      -164.8164
  77   2.0000      -6.054121      -164.7410
  78   2.0000      -6.052723      -164.7030
  79   2.0000      -6.051645      -164.6736
  80   2.0000      -6.050324      -164.6377
  81   2.0000      -6.048821      -164.5968
  82   2.0000      -6.046585      -164.5359
  83   2.0000      -6.044201      -164.4711
  84   2.0000      -6.041846      -164.4070
  85   2.0000      -6.041607      -164.4005
  86   2.0000      -6.039432      -164.3413
  87   2.0000      -1.330220       -36.1971
  88   2.0000      -1.321591       -35.9623
  89   2.0000      -1.150475       -31.3060
  90   2.0000      -1.148489       -31.2520
  91   2.0000      -1.139380       -31.0041
  92   2.0000      -1.109991       -30.2044
  93   2.0000      -1.108988       -30.1771
  94   2.0000      -1.086259       -29.5586
  95   2.0000      -1.046505       -28.4769
  96   2.0000      -1.044701       -28.4278
  97   2.0000      -1.035084       -28.1661
  98   2.0000      -1.024149       -27.8685
  99   2.0000      -1.022420       -27.8215
 100   2.0000      -1.010568       -27.4990
 101   2.0000      -1.009377       -27.4666
 102   2.0000      -1.008584       -27.4450
 103   2.0000      -1.003606       -27.3095
 104   2.0000      -0.998418       -27.1683
 105   2.0000      -0.989680       -26.9306
 106   2.0000      -0.984646       -26.7936
 107   2.0000      -0.975490       -26.5444
 108   2.0000      -0.959152       -26.0999
 109   2.0000      -0.954398       -25.9705
 110   2.0000      -0.926750       -25.2182
 111   2.0000      -0.923451       -25.1284
 112   2.0000      -0.908062       -24.7096
 113   2.0000      -0.898905       -24.4605
 114   2.0000      -0.893241       -24.3063
 115   2.0000      -0.883043       -24.0288
 116   2.0000      -0.877416       -23.8757
 117   2.0000      -0.874890       -23.8070
 118   2.0000      -0.868397       -23.6303
 119   2.0000      -0.864487       -23.5239
 120   2.0000      -0.853873       -23.2351
 121   2.0000      -0.852566       -23.1995
 122   2.0000      -0.834861       -22.7177
 123   2.0000      -0.822560       -22.3830
 124   2.0000      -0.813184       -22.1279
 125   2.0000      -0.795516       -21.6471
 126   2.0000      -0.786136       -21.3918
 127   2.0000      -0.782115       -21.2824
 128   2.0000      -0.775677       -21.1072
 129   2.0000      -0.770465       -20.9654
 130   2.0000      -0.762301       -20.7433
 131   2.0000      -0.757135       -20.6027
 132   2.0000      -0.738868       -20.1056
 133   2.0000      -0.721843       -19.6423
 134   2.0000      -0.714877       -19.4528
 135   2.0000      -0.710561       -19.3353
 136   2.0000      -0.706622       -19.2282
 137   2.0000      -0.704117       -19.1600
 138   2.0000      -0.703041       -19.1307
 139   2.0000      -0.685067       -18.6416
 140   2.0000      -0.684508       -18.6264
 141   2.0000      -0.682254       -18.5651
 142   2.0000      -0.676331       -18.4039
 143   2.0000      -0.663581       -18.0569
 144   2.0000      -0.657217       -17.8838
 145   2.0000      -0.654883       -17.8203
 146   2.0000      -0.650996       -17.7145
 147   2.0000      -0.643931       -17.5223
 148   2.0000      -0.639594       -17.4042
 149   2.0000      -0.638166       -17.3654
 150   2.0000      -0.637143       -17.3376
 151   2.0000      -0.632107       -17.2005
 152   2.0000      -0.627331       -17.0705
 153   2.0000      -0.621188       -16.9034
 154   2.0000      -0.618067       -16.8184
 155   2.0000      -0.615906       -16.7597
 156   2.0000      -0.614726       -16.7275
 157   2.0000      -0.603519       -16.4226
 158   2.0000      -0.598467       -16.2851
 159   2.0000      -0.593147       -16.1404
 160   2.0000      -0.589925       -16.0527
 161   2.0000      -0.587795       -15.9947
 162   2.0000      -0.580280       -15.7902
 163   2.0000      -0.579832       -15.7780
 164   2.0000      -0.571728       -15.5575
 165   2.0000      -0.569931       -15.5086
 166   2.0000      -0.565989       -15.4013
 167   2.0000      -0.561436       -15.2774
 168   2.0000      -0.552855       -15.0440
 169   2.0000      -0.549161       -14.9434
 170   2.0000      -0.548862       -14.9353
 171   2.0000      -0.545819       -14.8525
 172   2.0000      -0.544766       -14.8238
 173   2.0000      -0.543612       -14.7924
 174   2.0000      -0.537138       -14.6163
 175   2.0000      -0.531857       -14.4726
 176   2.0000      -0.529425       -14.4064
 177   2.0000      -0.525384       -14.2964
 178   2.0000      -0.523491       -14.2449
 179   2.0000      -0.516639       -14.0585
 180   2.0000      -0.513906       -13.9841
 181   2.0000      -0.509195       -13.8559
 182   2.0000      -0.507232       -13.8025
 183   2.0000      -0.506331       -13.7780
 184   2.0000      -0.502287       -13.6679
 185   2.0000      -0.500886       -13.6298
 186   2.0000      -0.497643       -13.5415
 187   2.0000      -0.495616       -13.4864
 188   2.0000      -0.493736       -13.4352
 189   2.0000      -0.493269       -13.4225
 190   2.0000      -0.490726       -13.3533
 191   2.0000      -0.486052       -13.2261
 192   2.0000      -0.484492       -13.1837
 193   2.0000      -0.478181       -13.0120
 194   2.0000      -0.471803       -12.8384
 195   2.0000      -0.471717       -12.8361
 196   2.0000      -0.469984       -12.7889
 197   2.0000      -0.465069       -12.6552
 198   2.0000      -0.464242       -12.6327
 199   2.0000      -0.462903       -12.5962
 200   2.0000      -0.462015       -12.5721
 201   2.0000      -0.461350       -12.5540
 202   2.0000      -0.458178       -12.4677
 203   2.0000      -0.455315       -12.3897
 204   2.0000      -0.453189       -12.3319
 205   2.0000      -0.451816       -12.2945
 206   2.0000      -0.446261       -12.1434
 207   2.0000      -0.442761       -12.0481
 208   2.0000      -0.441651       -12.0179
 209   2.0000      -0.441173       -12.0049
 210   2.0000      -0.440182       -11.9780
 211   2.0000      -0.438991       -11.9456
 212   2.0000      -0.437909       -11.9161
 213   2.0000      -0.430495       -11.7144
 214   2.0000      -0.429156       -11.6779
 215   2.0000      -0.427615       -11.6360
 216   2.0000      -0.416365       -11.3299
 217   2.0000      -0.412832       -11.2337
 218   2.0000      -0.412486       -11.2243
 219   2.0000      -0.408972       -11.1287
 220   2.0000      -0.408088       -11.1046
 221   2.0000      -0.395478       -10.7615
 222   2.0000      -0.393182       -10.6990
 223   2.0000      -0.390007       -10.6126
 224   2.0000      -0.389045       -10.5864
 225   2.0000      -0.388078       -10.5601
 226   2.0000      -0.383500       -10.4356
 227   2.0000      -0.379514       -10.3271
 228   2.0000      -0.379387       -10.3236
 229   2.0000      -0.374586       -10.1930
 230   2.0000      -0.371191       -10.1006
 231   2.0000      -0.360448        -9.8083
 232   2.0000      -0.357971        -9.7409
 233   2.0000      -0.356641        -9.7047
 234   2.0000      -0.351356        -9.5609
 235   2.0000      -0.347964        -9.4686
 236   2.0000      -0.346556        -9.4303
 237   2.0000      -0.342857        -9.3296
 238   2.0000      -0.340697        -9.2708
 239   2.0000      -0.338332        -9.2065
 240   2.0000      -0.335640        -9.1332
 241   2.0000      -0.323210        -8.7950
 242   2.0000      -0.321666        -8.7530
 243   2.0000      -0.308382        -8.3915
 244   2.0000      -0.277729        -7.5574
 245   2.0000      -0.240463        -6.5433
 246   0.0000      -0.128568        -3.4985
 247   0.0000      -0.104344        -2.8393
 248   0.0000      -0.098219        -2.6727
 249   0.0000      -0.068374        -1.8605
 250   0.0000      -0.062474        -1.7000

MULLIKEN ATOMIC CHARGES
-----------------------
   0 C :   -0.003918
   1 C :    0.111092
   2 N :    0.249938
   3 O :   -0.240000
   4 O :   -0.244636
   5 C :   -0.130689
   6 C :    0.316003
   7 O :   -0.296701
   8 C :   -0.129651
   9 C :    0.208703
  10 C :   -0.055718
  11 C :   -0.076627
  12 C :   -0.039526
  13 C :    0.012638
  14 C :   -0.102162
  15 S :    0.173639
  16 C :   -0.064993
  17 C :    0.033251
  18 C :    0.308597
  19 C :   -0.303086
  20 C :   -0.186482
  21 N :    0.172792
  22 C :   -0.187766
  23 N :    0.164932
  24 C :   -0.064319
  25 C :   -0.171706
  26 S :    0.200850
  27 C :    0.170783
  28 C :   -0.046612
  29 C :   -0.073214
  30 N :   -0.018931
  31 C :    0.036441
  32 C :    0.052714
  33 N :   -0.090894
  34 C :    0.199367
  35 C :   -0.023314
  36 C :   -0.007008
  37 N :   -0.277863
  38 S :    0.570802
  39 N :   -0.343255
  40 C :   -0.186396
  41 C :   -0.066312
  42 C :    0.044152
  43 C :   -0.072787
  44 S :    0.207110
  45 C :   -0.093562
  46 C :    0.010010
  47 C :    0.313013
  48 C :   -0.303881
  49 C :   -0.188357
  50 N :    0.166253
  51 C :   -0.184065
  52 N :    0.169265
  53 C :   -0.040878
  54 C :   -0.073688
  55 S :    0.171776
  56 C :    0.197100
  57 C :   -0.055199
  58 C :   -0.002461
  59 C :    0.109328
  60 C :   -0.076073
  61 C :   -0.115948
  62 C :    0.323429
  63 O :   -0.322616
  64 N :    0.261302
  65 O :   -0.226943
  66 O :   -0.266261
  67 H :    0.009841
  68 H :    0.023278
  69 H :    0.039634
  70 H :    0.170752
  71 H :   -0.018453
  72 H :   -0.005308
  73 H :    0.007562
  74 H :    0.018757
  75 H :    0.034746
  76 H :    0.022651
  77 H :    0.020360
  78 H :    0.009789
  79 H :   -0.002818
  80 H :    0.011135
  81 H :   -0.018956
  82 H :    0.006792
  83 H :   -0.001920
  84 H :    0.171374
Sum of atomic charges:   -0.0000000

LOEWDIN ATOMIC CHARGES
----------------------
   0 C :    0.011631
   1 C :   -0.044877
   2 N :    0.285178
   3 O :   -0.207340
   4 O :   -0.200025
   5 C :   -0.012375
   6 C :    0.067372
   7 O :   -0.122251
   8 C :   -0.021071
   9 C :   -0.011379
  10 C :   -0.035794
  11 C :   -0.162057
  12 C :   -0.020652
  13 C :   -0.069469
  14 C :   -0.173698
  15 S :    0.481211
  16 C :   -0.187194
  17 C :   -0.074031
  18 C :    0.082718
  19 C :   -0.105363
  20 C :   -0.016499
  21 N :   -0.034350
  22 C :   -0.016018
  23 N :   -0.036958
  24 C :   -0.012232
  25 C :   -0.164699
  26 S :    0.508447
  27 C :   -0.040603
  28 C :   -0.016713
  29 C :   -0.006506
  30 N :   -0.017654
  31 C :    0.021844
  32 C :    0.023344
  33 N :   -0.050309
  34 C :   -0.046909
  35 C :   -0.047589
  36 C :   -0.040290
  37 N :   -0.271055
  38 S :    0.689745
  39 N :   -0.309308
  40 C :   -0.160397
  41 C :   -0.013802
  42 C :   -0.072256
  43 C :   -0.188373
  44 S :    0.511404
  45 C :   -0.170552
  46 C :   -0.070832
  47 C :    0.083240
  48 C :   -0.105124
  49 C :   -0.016523
  50 N :   -0.035448
  51 C :   -0.013792
  52 N :   -0.037803
  53 C :   -0.018236
  54 C :   -0.164120
  55 S :    0.481702
  56 C :   -0.008870
  57 C :   -0.032780
  58 C :    0.012512
  59 C :   -0.043438
  60 C :   -0.007609
  61 C :   -0.009820
  62 C :    0.074551
  63 O :   -0.138697
  64 N :    0.292031
  65 O :   -0.193329
  66 O :   -0.206954
  67 H :    0.042528
  68 H :    0.020300
  69 H :    0.041608
  70 H :    0.079124
  71 H :    0.029356
  72 H :    0.023440
  73 H :    0.040648
  74 H :    0.037596
  75 H :    0.035796
  76 H :    0.031621
  77 H :    0.036203
  78 H :    0.040820
  79 H :    0.024078
  80 H :    0.042753
  81 H :    0.034085
  82 H :    0.014376
  83 H :    0.023631
  84 H :    0.059130

  Mayer bond orders larger than 0.100000
B(  0-C ,  1-C ) :   1.3648 B(  0-C , 10-C ) :   1.3915 B(  0-C , 67-H ) :   0.9839
B(  1-C ,  2-N ) :   0.9039 B(  1-C ,  5-C ) :   1.3714 B(  2-N ,  3-O ) :   1.5586
B(  2-N ,  4-O ) :   1.5147 B(  3-O ,  4-O ) :   0.2597 B(  5-C ,  6-C ) :   0.9860
B(  5-C ,  8-C ) :   1.4079 B(  6-C ,  7-O ) :   1.0527 B(  6-C , 68-H ) :   0.9359
B(  6-C , 69-H ) :   0.9139 B(  7-O , 70-H ) :   0.9769 B(  8-C ,  9-C ) :   1.2957
B(  8-C , 71-H ) :   0.9879 B(  9-C , 10-C ) :   1.3026 B(  9-C , 11-C ) :   1.0726
B( 10-C , 72-H ) :   0.9874 B( 11-C , 12-C ) :   1.4857 B( 11-C , 15-S ) :   1.0990
B( 12-C , 13-C ) :   1.2794 B( 12-C , 73-H ) :   0.9900 B( 13-C , 14-C ) :   1.4331
B( 13-C , 18-C ) :   0.9984 B( 14-C , 15-S ) :   1.1310 B( 14-C , 16-C ) :   1.1923
B( 16-C , 17-C ) :   1.4125 B( 16-C , 26-S ) :   1.0717 B( 17-C , 18-C ) :   0.9904
B( 17-C , 24-C ) :   1.2743 B( 18-C , 19-C ) :   1.7049 B( 19-C , 20-C ) :   1.1387
B( 19-C , 22-C ) :   1.1333 B( 20-C , 21-N ) :   2.9875 B( 22-C , 23-N ) :   2.9862
B( 24-C , 25-C ) :   1.4176 B( 24-C , 74-H ) :   0.9844 B( 25-C , 26-S ) :   1.0900
B( 25-C , 27-C ) :   1.1994 B( 27-C , 28-C ) :   1.2711 B( 27-C , 34-C ) :   0.1334
B( 27-C , 36-C ) :   1.2115 B( 28-C , 29-C ) :   1.1243 B( 28-C , 33-N ) :   1.3892
B( 29-C , 30-N ) :   1.4697 B( 29-C , 34-C ) :   1.2738 B( 30-N , 31-C ) :   1.6703
B( 31-C , 32-C ) :   1.1910 B( 31-C , 75-H ) :   0.9756 B( 32-C , 33-N ) :   1.6540
B( 32-C , 76-H ) :   0.9734 B( 34-C , 35-C ) :   1.1999 B( 34-C , 40-C ) :   1.1868
B( 35-C , 36-C ) :   1.1076 B( 35-C , 39-N ) :   1.4584 B( 36-C , 37-N ) :   1.5068
B( 37-N , 38-S ) :   1.2928 B( 37-N , 39-N ) :   0.1541 B( 38-S , 39-N ) :   1.2721
B( 40-C , 41-C ) :   1.4130 B( 40-C , 44-S ) :   1.1015 B( 41-C , 42-C ) :   1.2565
B( 41-C , 77-H ) :   0.9826 B( 42-C , 43-C ) :   1.4070 B( 42-C , 47-C ) :   0.9930
B( 43-C , 44-S ) :   1.0969 B( 43-C , 45-C ) :   1.1871 B( 45-C , 46-C ) :   1.4315
B( 45-C , 55-S ) :   1.1338 B( 46-C , 47-C ) :   0.9987 B( 46-C , 53-C ) :   1.2810
B( 47-C , 48-C ) :   1.7047 B( 48-C , 49-C ) :   1.1326 B( 48-C , 51-C ) :   1.1396
B( 49-C , 50-N ) :   2.9862 B( 51-C , 52-N ) :   2.9886 B( 53-C , 54-C ) :   1.4847
B( 53-C , 78-H ) :   0.9891 B( 54-C , 55-S ) :   1.0954 B( 54-C , 56-C ) :   1.0822
B( 56-C , 57-C ) :   1.3005 B( 56-C , 61-C ) :   1.3190 B( 57-C , 58-C ) :   1.3946
B( 57-C , 79-H ) :   0.9874 B( 58-C , 59-C ) :   1.3643 B( 58-C , 80-H ) :   0.9850
B( 59-C , 60-C ) :   1.3664 B( 59-C , 64-N ) :   0.9082 B( 60-C , 61-C ) :   1.4242
B( 60-C , 62-C ) :   1.0018 B( 61-C , 81-H ) :   0.9956 B( 62-C , 63-O ) :   1.0893
B( 62-C , 82-H ) :   0.9300 B( 62-C , 83-H ) :   0.9250 B( 63-O , 84-H ) :   0.9641
B( 64-N , 65-O ) :   1.5773 B( 64-N , 66-O ) :   1.4818 B( 65-O , 66-O ) :   0.2521

-----------------------------------------------------------------------------
         ABSORPTION SPECTRUM VIA TRANSITION ELECTRIC DIPOLE MOMENTS
-----------------------------------------------------------------------------
State   Energy  Wavelength   fosc         T2         TX        TY        TZ
        (cm-1)    (nm)                  (au**2)     (au)      (au)      (au)
-----------------------------------------------------------------------------
   0    9298.9   1075.4   0.848916245  30.05430   4.77525   2.65928  -0.42366
   1   12738.0    785.0   0.000660491   0.01707  -0.10502   0.07439   0.02253
   2   13649.3    732.6   0.012395272   0.29896  -0.39481  -0.35140  -0.14005
   3   18248.7    548.0   0.001211076   0.02185   0.01882  -0.14591   0.01431
   4   22657.2    441.4   0.126943424   1.84450   1.19787   0.62931  -0.11654
   5   23635.6    423.1   0.002472524   0.03444  -0.16049   0.03098  -0.08787
   6   24061.7    415.6   0.040196212   0.54997   0.70590   0.08113  -0.21234
   7   25080.7    398.7   1.557853673  20.44855  -4.10175  -1.47554   1.20290
   8   25926.8    385.7   0.018290861   0.23225  -0.06481   0.36043   0.31328
   9   26222.3    381.4   0.173826604   2.18234  -1.24251  -0.51170   0.61374
  10   26631.2    375.5   0.020937954   0.25883   0.34599   0.00616  -0.37294
  11   26853.5    372.4   0.152490288   1.86947   1.03851   0.88195   0.11458
  12   27230.2    367.2   0.007368342   0.08908  -0.12910   0.08305   0.25597
  13   30226.3    330.8   0.104197633   1.13488  -0.26439   0.57664   0.85583
  14   31036.4    322.2   0.045852564   0.48637   0.08280  -0.47869  -0.50037
  15   31510.9    317.4   0.832417221   8.69671   1.11794   2.17379   1.64972
  16   31598.6    316.5   0.141231079   1.47142  -1.03329  -0.12223   0.62354
  17   31666.5    315.8   0.158756920   1.65047  -0.62971   0.39087   1.04936
  18   31967.2    312.8   0.051217802   0.52746   0.47241  -0.23474  -0.49919
  19   32253.5    310.0   0.049261732   0.50282  -0.57486  -0.39103  -0.13945
  20   32634.4    306.4   0.249460909   2.51653   1.45140   0.44028  -0.46490
  21   32859.1    304.3   0.034022063   0.34086  -0.45065   0.02826   0.37010
  22   33119.8    301.9   0.058234867   0.57886   0.49655  -0.01686  -0.57621
  23   33287.9    300.4   0.131339338   1.29892  -0.26275   0.68609   0.87130
  24   34033.3    293.8   0.188685358   1.82520  -0.83339   0.33083   1.01055
  25   34101.7    293.2   0.168134507   1.62314   1.12151   0.59959   0.07640
  26   34288.6    291.6   0.020729657   0.19903   0.18062  -0.00929  -0.40782
  27   34804.0    287.3   0.075665647   0.71572   0.59840  -0.00803  -0.59798
  28   35207.0    284.0   0.056329583   0.52672   0.17512  -0.45520  -0.53744
  29   35357.5    282.8   0.445593326   4.14889  -1.36865   0.35799   1.46545
  30   35616.6    280.8   0.003803330   0.03515  -0.06148   0.14118   0.10697
  31   35797.0    279.4   0.019514660   0.17947  -0.06766  -0.36056  -0.21187
  32   35916.7    278.4   0.130570201   1.19680   0.16324   0.76092   0.76887
  33   35997.4    277.8   0.249924799   2.28567  -0.21300  -1.08988  -1.02590
  34   36319.3    275.3   0.128782391   1.16733  -0.93845  -0.21200   0.49164
  35   36587.5    273.3   0.189405807   1.70426  -0.79555   0.38636   0.96025
  36   37161.9    269.1   0.014272374   0.12644  -0.01118  -0.23549  -0.26619
  37   37578.6    266.1   0.029812693   0.26118   0.10763  -0.28603  -0.40961
  38   37811.7    264.5   0.026860525   0.23386   0.39889  -0.00702  -0.27332
  39   38069.4    262.7   0.007044725   0.06092   0.10034  -0.08027  -0.21073
  40   38249.5    261.4   0.016901999   0.14547  -0.30261  -0.05004   0.22671
  41   38397.8    260.4   0.130584491   1.11960   0.51126  -0.42964  -0.82074
  42   38610.1    259.0   0.014731670   0.12561   0.15842  -0.14304  -0.28294
  43   38710.3    258.3   0.044064608   0.37475   0.10660   0.34013   0.49769
  44   38818.2    257.6   0.026230067   0.22245  -0.13426   0.19094   0.40984
  45   39199.8    255.1   0.002929598   0.02460   0.11394   0.02940  -0.10371
  46   39418.3    253.7   0.004005216   0.03345  -0.02338   0.08320   0.16119
  47   39565.0    252.7   0.008137773   0.06771  -0.03089   0.15211   0.20886
  48   39644.9    252.2   0.005946503   0.04938   0.08714  -0.11796  -0.16695

FINAL SINGLE POINT ENERGY     -4749.215051276778

DIPOLE MOMENT
-------------
                                X             Y             Z
Electronic contribution:     -0.96809       2.76269       6.84441
Nuclear contribution   :      1.21104      -2.69683      -6.94370
                        -----------------------------------------
Total Dipole Moment    :      0.24295       0.06586      -0.09929
                        -----------------------------------------
Magnitude (a.u.)       :      0.27059
Magnitude (Debye)      :      0.68780

Rotational constants in cm-1:     0.003353     0.000228     0.000214
Rotational constants in MHz :   100.507901     6.849070     6.429773

                             ****ORCA TERMINATED NORMALLY****
TOTAL RUN TIME: 0 days 0 hours 7 minutes 6 seconds 722 msec
