                         Program Version 4.2.0 -  RELEASE  -
|  1> # ORCA input file
|  2> # SCF done       -194.560842048926          0.000944923615
|  3> ! CAM-B3LYP def2-SVP def2/J RIJCOSX Grid4 TightSCF
|  4> %maxcore 5000
|  5> %tddft
|  6>     Mode sTDDFT
|  7>     Ethresh 5.0
|  8>     maxcore 5000
|  9> end
| 10>
| 11> %pal
| 12>   nprocs 6
| 13>   end
| 14> * xyz 0 1
| 15>    C        8.10313         2.13734        -5.76991
| 16>    C        8.12446         3.44686        -6.17449
| 17>    C        8.07704         4.49954        -5.23502
| 18>    N        8.04872         5.35889        -4.47648
| 19>    C        8.20336         3.88228        -7.50936
| 20>    N        8.26613         4.30117        -8.57681
| 21>    C        8.16535         0.93904        -6.56767
| 22>    C        8.14346        -0.23541        -5.78732
| 23>    C        8.19770        -1.47914        -6.41149
| 24>    C        8.27386        -1.54510        -7.78831
| 25>    C        8.29690        -0.38547        -8.55578
| 26>    C        8.24344         0.85725        -7.95629
| 27>    C        8.06142         0.01392        -4.36830
| 28>    S        7.99551         1.74586        -4.06925
| 29>    C        8.06280        -0.93990        -3.39718
| 30>    C        7.98051        -0.77583        -1.99789
| 31>    C        7.76944         0.35662        -1.22008
| 32>    C        7.76458         0.06496         0.13808
| 33>    C        7.98033        -1.30297         0.41629
| 34>    S        8.16928        -2.22348        -1.00564
| 35>    C        7.98439        -1.49295         1.81360
| 36>    C        7.76430        -0.24004         2.43006
| 37>    C        7.61061         0.77366         1.39944
| 38>    C        7.36682         2.10321         1.57648
| 39>    C        7.24140         2.67967         2.85866
| 40>    N        7.13922         3.15404         3.89727
| 41>    C        7.21530         2.98631         0.48542
| 42>    N        7.07983         3.70162        -0.39986
| 43>    C        7.76515        -0.31461         3.81365
| 44>    C        7.99037        -1.61174         4.26528
| 45>    S        8.19260        -2.75775         2.94821
| 46>    C        8.09287        -2.03712         5.61172
| 47>    C        8.37197        -3.38621         5.92807
| 48>    C        8.55287        -3.83817         7.28338
| 49>    N        8.83262        -5.12353         7.51806
| 50>    C        8.93579        -5.96718         6.51730
| 51>    C        8.75241        -5.51886         5.17103
| 52>    N        8.48197        -4.25844         4.92175
| 53>    C        8.85987        -6.42777         4.09026
| 54>    N        8.95125        -7.18405         3.23496
| 55>    C        9.23047        -7.32546         6.78927
| 56>    N        9.46614        -8.42931         6.98327
| 57>    C        8.45699        -2.96546         8.39122
| 58>    C        8.13179        -1.62211         8.08194
| 59>    C        7.95594        -1.16714         6.72100
| 60>    N        7.66736         0.13300         6.67577
| 61>    S        7.61761         0.72502         8.16524
| 62>    N        7.96227        -0.62838         8.95339
| 63>    C        8.70781        -3.42822         9.70548
| 64>    C        8.66265        -2.68041        10.87856
| 65>    C        9.02039        -3.43172        11.98656
| 66>    C        9.34004        -4.76964        11.66101
| 67>    S        9.18289        -5.09657         9.98828
| 68>    C        9.72431        -5.43150        12.84541
| 69>    C        9.65597        -4.52216        13.92396
| 70>    C        9.18655        -3.24109        13.41832
| 71>    C        8.93573        -2.11021        14.13726
| 72>    C        8.47652        -0.92123        13.53107
| 73>    N        8.10499         0.04779        13.04419
| 74>    C        9.09784        -2.06485        15.53901
| 75>    N        9.21626        -2.03851        16.67874
| 76>    C       10.06581        -5.07214        15.13214
| 77>    C       10.44458        -6.40269        14.99957
| 78>    S       10.26763        -6.97013        13.33766
| 79>    C       10.93863        -7.32570        15.94646
| 80>    C       11.32719        -7.09775        17.23069
| 81>    C       11.83568        -8.09377        18.14267
| 82>    C       12.23032        -7.56896        19.39069
| 83>    C       12.03652        -6.14394        19.48034
| 84>    C       12.32869        -5.29509        20.51628
| 85>    C       12.88540        -5.68078        21.74871
| 86>    N       13.33893        -5.93250        22.77336
| 87>    C       12.09355        -3.90752        20.40601
| 88>    N       11.91579        -2.77812        20.31781
| 89>    S       11.33760        -5.51832        18.00477
| 90>    C       12.74806        -8.41024        20.37316
| 91>    C       12.86597        -9.76056        20.10968
| 92>    C       12.47451       -10.28071        18.88065
| 93>    C       11.96130        -9.45877        17.89735
| 94>    H        8.17885        -2.38642        -5.82856
| 95>    H        8.31534        -2.50809        -8.27392
| 96>    H        8.35625        -0.45475        -9.63069
| 97>    H        8.26058         1.75123        -8.55731
| 98>    H        8.15363        -1.96638        -3.72743
| 99>    H        7.61711         1.33857        -1.62717
|100>    H        7.62009         0.50515         4.49294
|101>    H        8.38714        -1.64184        10.87869
|102>    H       10.07785        -4.54016        16.06495
|103>    H       11.04348        -8.33864        15.58056
|104>    H       13.05206        -8.01474        21.32809
|105>    H       13.26529       -10.41677        20.86710
|106>    H       12.57237       -11.33901        18.69276
|107>    H       11.65949        -9.87531        16.94933
|108> *
|109>
|110>                          ****END OF INPUT****

CARTESIAN COORDINATES (ANGSTROEM)
---------------------------------
  C      8.103130    2.137340   -5.769910
  C      8.124460    3.446860   -6.174490
  C      8.077040    4.499540   -5.235020
  N      8.048720    5.358890   -4.476480
  C      8.203360    3.882280   -7.509360
  N      8.266130    4.301170   -8.576810
  C      8.165350    0.939040   -6.567670
  C      8.143460   -0.235410   -5.787320
  C      8.197700   -1.479140   -6.411490
  C      8.273860   -1.545100   -7.788310
  C      8.296900   -0.385470   -8.555780
  C      8.243440    0.857250   -7.956290
  C      8.061420    0.013920   -4.368300
  S      7.995510    1.745860   -4.069250
  C      8.062800   -0.939900   -3.397180
  C      7.980510   -0.775830   -1.997890
  C      7.769440    0.356620   -1.220080
  C      7.764580    0.064960    0.138080
  C      7.980330   -1.302970    0.416290
  S      8.169280   -2.223480   -1.005640
  C      7.984390   -1.492950    1.813600
  C      7.764300   -0.240040    2.430060
  C      7.610610    0.773660    1.399440
  C      7.366820    2.103210    1.576480
  C      7.241400    2.679670    2.858660
  N      7.139220    3.154040    3.897270
  C      7.215300    2.986310    0.485420
  N      7.079830    3.701620   -0.399860
  C      7.765150   -0.314610    3.813650
  C      7.990370   -1.611740    4.265280
  S      8.192600   -2.757750    2.948210
  C      8.092870   -2.037120    5.611720
  C      8.371970   -3.386210    5.928070
  C      8.552870   -3.838170    7.283380
  N      8.832620   -5.123530    7.518060
  C      8.935790   -5.967180    6.517300
  C      8.752410   -5.518860    5.171030
  N      8.481970   -4.258440    4.921750
  C      8.859870   -6.427770    4.090260
  N      8.951250   -7.184050    3.234960
  C      9.230470   -7.325460    6.789270
  N      9.466140   -8.429310    6.983270
  C      8.456990   -2.965460    8.391220
  C      8.131790   -1.622110    8.081940
  C      7.955940   -1.167140    6.721000
  N      7.667360    0.133000    6.675770
  S      7.617610    0.725020    8.165240
  N      7.962270   -0.628380    8.953390
  C      8.707810   -3.428220    9.705480
  C      8.662650   -2.680410   10.878560
  C      9.020390   -3.431720   11.986560
  C      9.340040   -4.769640   11.661010
  S      9.182890   -5.096570    9.988280
  C      9.724310   -5.431500   12.845410
  C      9.655970   -4.522160   13.923960
  C      9.186550   -3.241090   13.418320
  C      8.935730   -2.110210   14.137260
  C      8.476520   -0.921230   13.531070
  N      8.104990    0.047790   13.044190
  C      9.097840   -2.064850   15.539010
  N      9.216260   -2.038510   16.678740
  C     10.065810   -5.072140   15.132140
  C     10.444580   -6.402690   14.999570
  S     10.267630   -6.970130   13.337660
  C     10.938630   -7.325700   15.946460
  C     11.327190   -7.097750   17.230690
  C     11.835680   -8.093770   18.142670
  C     12.230320   -7.568960   19.390690
  C     12.036520   -6.143940   19.480340
  C     12.328690   -5.295090   20.516280
  C     12.885400   -5.680780   21.748710
  N     13.338930   -5.932500   22.773360
  C     12.093550   -3.907520   20.406010
  N     11.915790   -2.778120   20.317810
  S     11.337600   -5.518320   18.004770
  C     12.748060   -8.410240   20.373160
  C     12.865970   -9.760560   20.109680
  C     12.474510  -10.280710   18.880650
  C     11.961300   -9.458770   17.897350
  H      8.178850   -2.386420   -5.828560
  H      8.315340   -2.508090   -8.273920
  H      8.356250   -0.454750   -9.630690
  H      8.260580    1.751230   -8.557310
  H      8.153630   -1.966380   -3.727430
  H      7.617110    1.338570   -1.627170
  H      7.620090    0.505150    4.492940
  H      8.387140   -1.641840   10.878690
  H     10.077850   -4.540160   16.064950
  H     11.043480   -8.338640   15.580560
  H     13.052060   -8.014740   21.328090
  H     13.265290  -10.416770   20.867100
  H     12.572370  -11.339010   18.692760
  H     11.659490   -9.875310   16.949330

 Total Charge           Charge          ....    0
 Multiplicity           Mult            ....    1
 Number of Electrons    NEL             ....  572
 Basis Dimension        Dim             .... 1204

ORBITAL ENERGIES
----------------

  NO   OCC          E(Eh)            E(eV)
   0   2.0000     -89.060050     -2423.4472
   1   2.0000     -88.999860     -2421.8093
   2   2.0000     -88.999812     -2421.8080
   3   2.0000     -88.994257     -2421.6569
   4   2.0000     -88.994118     -2421.6531
   5   2.0000     -88.981369     -2421.3061
   6   2.0000     -88.981346     -2421.3055
   7   2.0000     -14.486590      -394.2001
   8   2.0000     -14.486438      -394.1960
   9   2.0000     -14.468828      -393.7168
  10   2.0000     -14.468760      -393.7150
  11   2.0000     -14.448056      -393.1516
  12   2.0000     -14.447984      -393.1496
  13   2.0000     -14.435373      -392.8065
  14   2.0000     -14.435257      -392.8033
  15   2.0000     -14.433594      -392.7581
  16   2.0000     -14.433509      -392.7557
  17   2.0000     -14.416567      -392.2947
  18   2.0000     -14.416514      -392.2933
  19   2.0000     -14.411188      -392.1484
  20   2.0000     -14.410873      -392.1398
  21   2.0000     -10.403591      -283.0961
  22   2.0000     -10.403347      -283.0895
  23   2.0000     -10.371288      -282.2171
  24   2.0000     -10.371266      -282.2165
  25   2.0000     -10.366452      -282.0855
  26   2.0000     -10.366202      -282.0787
  27   2.0000     -10.364042      -282.0199
  28   2.0000     -10.363971      -282.0180
  29   2.0000     -10.361189      -281.9423
  30   2.0000     -10.360940      -281.9355
  31   2.0000     -10.357694      -281.8472
  32   2.0000     -10.357602      -281.8447
  33   2.0000     -10.346213      -281.5348
  34   2.0000     -10.346199      -281.5344
  35   2.0000     -10.342834      -281.4428
  36   2.0000     -10.342803      -281.4420
  37   2.0000     -10.341469      -281.4057
  38   2.0000     -10.341398      -281.4037
  39   2.0000     -10.338803      -281.3331
  40   2.0000     -10.338735      -281.3313
  41   2.0000     -10.338543      -281.3260
  42   2.0000     -10.338500      -281.3249
  43   2.0000     -10.338037      -281.3123
  44   2.0000     -10.337854      -281.3073
  45   2.0000     -10.335335      -281.2388
  46   2.0000     -10.335302      -281.2379
  47   2.0000     -10.335216      -281.2355
  48   2.0000     -10.335168      -281.2342
  49   2.0000     -10.334528      -281.2168
  50   2.0000     -10.334402      -281.2134
  51   2.0000     -10.333060      -281.1769
  52   2.0000     -10.332911      -281.1728
  53   2.0000     -10.320819      -280.8438
  54   2.0000     -10.320771      -280.8425
  55   2.0000     -10.319843      -280.8172
  56   2.0000     -10.319798      -280.8160
  57   2.0000     -10.317905      -280.7645
  58   2.0000     -10.317903      -280.7644
  59   2.0000     -10.316042      -280.7138
  60   2.0000     -10.316014      -280.7130
  61   2.0000     -10.314737      -280.6783
  62   2.0000     -10.314608      -280.6747
  63   2.0000     -10.313244      -280.6376
  64   2.0000     -10.313209      -280.6367
  65   2.0000     -10.311914      -280.6014
  66   2.0000     -10.311525      -280.5909
  67   2.0000     -10.309080      -280.5243
  68   2.0000     -10.309036      -280.5231
  69   2.0000     -10.307313      -280.4763
  70   2.0000     -10.307265      -280.4749
  71   2.0000     -10.303972      -280.3853
  72   2.0000     -10.303831      -280.3815
  73   2.0000     -10.302850      -280.3548
  74   2.0000     -10.302721      -280.3513
  75   2.0000     -10.301933      -280.3298
  76   2.0000     -10.301781      -280.3257
  77   2.0000     -10.296834      -280.1911
  78   2.0000     -10.296797      -280.1901
  79   2.0000      -8.151085      -221.8023
  80   2.0000      -8.094614      -220.2656
  81   2.0000      -8.094594      -220.2651
  82   2.0000      -8.086759      -220.0519
  83   2.0000      -8.086681      -220.0498
  84   2.0000      -8.076546      -219.7740
  85   2.0000      -8.076544      -219.7739
  86   2.0000      -6.122156      -166.5923
  87   2.0000      -6.114226      -166.3766
  88   2.0000      -6.113978      -166.3698
  89   2.0000      -6.063781      -165.0039
  90   2.0000      -6.063745      -165.0029
  91   2.0000      -6.059696      -164.8927
  92   2.0000      -6.059681      -164.8923
  93   2.0000      -6.057042      -164.8205
  94   2.0000      -6.057000      -164.8194
  95   2.0000      -6.056367      -164.8021
  96   2.0000      -6.056296      -164.8002
  97   2.0000      -6.051515      -164.6701
  98   2.0000      -6.051425      -164.6676
  99   2.0000      -6.049168      -164.6062
 100   2.0000      -6.049070      -164.6036
 101   2.0000      -6.046361      -164.5299
 102   2.0000      -6.046345      -164.5294
 103   2.0000      -6.042062      -164.4129
 104   2.0000      -6.042061      -164.4128
 105   2.0000      -6.037568      -164.2906
 106   2.0000      -6.037564      -164.2905
 107   2.0000      -1.158250       -31.5176
 108   2.0000      -1.145097       -31.1597
 109   2.0000      -1.074069       -29.2269
 110   2.0000      -1.052305       -28.6347
 111   2.0000      -1.051773       -28.6202
 112   2.0000      -1.033409       -28.1205
 113   2.0000      -1.030634       -28.0450
 114   2.0000      -1.030520       -28.0419
 115   2.0000      -1.026619       -27.9357
 116   2.0000      -1.026415       -27.9302
 117   2.0000      -1.023261       -27.8443
 118   2.0000      -1.015451       -27.6318
 119   2.0000      -1.012708       -27.5572
 120   2.0000      -1.011665       -27.5288
 121   2.0000      -1.010733       -27.5035
 122   2.0000      -1.006076       -27.3767
 123   2.0000      -1.005097       -27.3501
 124   2.0000      -1.000820       -27.2337
 125   2.0000      -0.991559       -26.9817
 126   2.0000      -0.991346       -26.9759
 127   2.0000      -0.991052       -26.9679
 128   2.0000      -0.968027       -26.3414
 129   2.0000      -0.963380       -26.2149
 130   2.0000      -0.957774       -26.0624
 131   2.0000      -0.957629       -26.0584
 132   2.0000      -0.938855       -25.5475
 133   2.0000      -0.938246       -25.5310
 134   2.0000      -0.928475       -25.2651
 135   2.0000      -0.926509       -25.2116
 136   2.0000      -0.915795       -24.9200
 137   2.0000      -0.900807       -24.5122
 138   2.0000      -0.883581       -24.0435
 139   2.0000      -0.882857       -24.0238
 140   2.0000      -0.875938       -23.8355
 141   2.0000      -0.873874       -23.7793
 142   2.0000      -0.866447       -23.5772
 143   2.0000      -0.864053       -23.5121
 144   2.0000      -0.861126       -23.4324
 145   2.0000      -0.858558       -23.3626
 146   2.0000      -0.855167       -23.2703
 147   2.0000      -0.855072       -23.2677
 148   2.0000      -0.852611       -23.2007
 149   2.0000      -0.825668       -22.4676
 150   2.0000      -0.819424       -22.2976
 151   2.0000      -0.797039       -21.6885
 152   2.0000      -0.793633       -21.5959
 153   2.0000      -0.785380       -21.3713
 154   2.0000      -0.777208       -21.1489
 155   2.0000      -0.761947       -20.7336
 156   2.0000      -0.756902       -20.5964
 157   2.0000      -0.742523       -20.2051
 158   2.0000      -0.734209       -19.9789
 159   2.0000      -0.733084       -19.9482
 160   2.0000      -0.725524       -19.7425
 161   2.0000      -0.719829       -19.5876
 162   2.0000      -0.717305       -19.5189
 163   2.0000      -0.709732       -19.3128
 164   2.0000      -0.709603       -19.3093
 165   2.0000      -0.707303       -19.2467
 166   2.0000      -0.706171       -19.2159
 167   2.0000      -0.695286       -18.9197
 168   2.0000      -0.687151       -18.6983
 169   2.0000      -0.686840       -18.6899
 170   2.0000      -0.679461       -18.4891
 171   2.0000      -0.673978       -18.3399
 172   2.0000      -0.665120       -18.0988
 173   2.0000      -0.661172       -17.9914
 174   2.0000      -0.648363       -17.6429
 175   2.0000      -0.646994       -17.6056
 176   2.0000      -0.642368       -17.4797
 177   2.0000      -0.641743       -17.4627
 178   2.0000      -0.640970       -17.4417
 179   2.0000      -0.638994       -17.3879
 180   2.0000      -0.628143       -17.0926
 181   2.0000      -0.624145       -16.9839
 182   2.0000      -0.620644       -16.8886
 183   2.0000      -0.614529       -16.7222
 184   2.0000      -0.601753       -16.3745
 185   2.0000      -0.601701       -16.3731
 186   2.0000      -0.594753       -16.1840
 187   2.0000      -0.586899       -15.9703
 188   2.0000      -0.580443       -15.7946
 189   2.0000      -0.576203       -15.6793
 190   2.0000      -0.576011       -15.6741
 191   2.0000      -0.574678       -15.6378
 192   2.0000      -0.572306       -15.5732
 193   2.0000      -0.560919       -15.2634
 194   2.0000      -0.555864       -15.1258
 195   2.0000      -0.555166       -15.1068
 196   2.0000      -0.553823       -15.0703
 197   2.0000      -0.550890       -14.9905
 198   2.0000      -0.545187       -14.8353
 199   2.0000      -0.543357       -14.7855
 200   2.0000      -0.539027       -14.6677
 201   2.0000      -0.537778       -14.6337
 202   2.0000      -0.536302       -14.5935
 203   2.0000      -0.536243       -14.5919
 204   2.0000      -0.529621       -14.4117
 205   2.0000      -0.527850       -14.3635
 206   2.0000      -0.518526       -14.1098
 207   2.0000      -0.516451       -14.0534
 208   2.0000      -0.514519       -14.0008
 209   2.0000      -0.511901       -13.9295
 210   2.0000      -0.509670       -13.8688
 211   2.0000      -0.507854       -13.8194
 212   2.0000      -0.506221       -13.7750
 213   2.0000      -0.505342       -13.7511
 214   2.0000      -0.499083       -13.5807
 215   2.0000      -0.497644       -13.5416
 216   2.0000      -0.496250       -13.5037
 217   2.0000      -0.494909       -13.4672
 218   2.0000      -0.492974       -13.4145
 219   2.0000      -0.488216       -13.2850
 220   2.0000      -0.486081       -13.2269
 221   2.0000      -0.483561       -13.1584
 222   2.0000      -0.482593       -13.1320
 223   2.0000      -0.477969       -13.0062
 224   2.0000      -0.474825       -12.9206
 225   2.0000      -0.471336       -12.8257
 226   2.0000      -0.468372       -12.7450
 227   2.0000      -0.465514       -12.6673
 228   2.0000      -0.465460       -12.6658
 229   2.0000      -0.464431       -12.6378
 230   2.0000      -0.462881       -12.5956
 231   2.0000      -0.462704       -12.5908
 232   2.0000      -0.461474       -12.5573
 233   2.0000      -0.461407       -12.5555
 234   2.0000      -0.461310       -12.5529
 235   2.0000      -0.458830       -12.4854
 236   2.0000      -0.457481       -12.4487
 237   2.0000      -0.453718       -12.3463
 238   2.0000      -0.452756       -12.3201
 239   2.0000      -0.450925       -12.2703
 240   2.0000      -0.446946       -12.1620
 241   2.0000      -0.446800       -12.1581
 242   2.0000      -0.445855       -12.1323
 243   2.0000      -0.445531       -12.1235
 244   2.0000      -0.444241       -12.0884
 245   2.0000      -0.443635       -12.0719
 246   2.0000      -0.443481       -12.0677
 247   2.0000      -0.443268       -12.0619
 248   2.0000      -0.442628       -12.0445
 249   2.0000      -0.442490       -12.0408
 250   2.0000      -0.437426       -11.9030
 251   2.0000      -0.437043       -11.8925
 252   2.0000      -0.436775       -11.8852
 253   2.0000      -0.435054       -11.8384
 254   2.0000      -0.431872       -11.7518
 255   2.0000      -0.431209       -11.7338
 256   2.0000      -0.425645       -11.5824
 257   2.0000      -0.425266       -11.5721
 258   2.0000      -0.424289       -11.5455
 259   2.0000      -0.420136       -11.4325
 260   2.0000      -0.419984       -11.4284
 261   2.0000      -0.419823       -11.4240
 262   2.0000      -0.418537       -11.3890
 263   2.0000      -0.409276       -11.1370
 264   2.0000      -0.409068       -11.1313
 265   2.0000      -0.407494       -11.0885
 266   2.0000      -0.407311       -11.0835
 267   2.0000      -0.403071       -10.9681
 268   2.0000      -0.394010       -10.7216
 269   2.0000      -0.387595       -10.5470
 270   2.0000      -0.380287       -10.3481
 271   2.0000      -0.368903       -10.0384
 272   2.0000      -0.367388        -9.9971
 273   2.0000      -0.357919        -9.7395
 274   2.0000      -0.357211        -9.7202
 275   2.0000      -0.353468        -9.6183
 276   2.0000      -0.346726        -9.4349
 277   2.0000      -0.346690        -9.4339
 278   2.0000      -0.339684        -9.2433
 279   2.0000      -0.329559        -8.9678
 280   2.0000      -0.328677        -8.9438
 281   2.0000      -0.326569        -8.8864
 282   2.0000      -0.315034        -8.5725
 283   2.0000      -0.292006        -7.9459
 284   2.0000      -0.268214        -7.2985
 285   2.0000      -0.242637        -6.6025
 286   0.0000      -0.147712        -4.0194
 287   0.0000      -0.112550        -3.0626
 288   0.0000      -0.107522        -2.9258
 289   0.0000      -0.087074        -2.3694
 290   0.0000      -0.086816        -2.3624

MULLIKEN ATOMIC CHARGES
-----------------------
   0 C :    0.092138
   1 C :   -0.280115
   2 C :   -0.208968
   3 N :    0.168817
   4 C :   -0.178138
   5 N :    0.156399
   6 C :    0.038757
   7 C :    0.145720
   8 C :   -0.052965
   9 C :    0.050552
  10 C :    0.028259
  11 C :   -0.020505
  12 C :   -0.033808
  13 S :    0.115895
  14 C :    0.014266
  15 C :   -0.103675
  16 C :   -0.035152
  17 C :   -0.004065
  18 C :   -0.102151
  19 S :    0.193682
  20 C :   -0.059266
  21 C :    0.035741
  22 C :    0.308637
  23 C :   -0.292355
  24 C :   -0.184180
  25 N :    0.173903
  26 C :   -0.192909
  27 N :    0.187443
  28 C :   -0.061039
  29 C :   -0.180888
  30 S :    0.203595
  31 C :    0.191743
  32 C :   -0.062919
  33 C :   -0.060764
  34 N :   -0.003052
  35 C :   -0.099916
  36 C :   -0.098476
  37 N :   -0.002396
  38 C :   -0.248234
  39 N :    0.255299
  40 C :   -0.245677
  41 N :    0.254384
  42 C :    0.191314
  43 C :   -0.011503
  44 C :   -0.011487
  45 N :   -0.281150
  46 S :    0.590306
  47 N :   -0.282358
  48 C :   -0.180449
  49 C :   -0.061512
  50 C :    0.037047
  51 C :   -0.059728
  52 S :    0.204541
  53 C :   -0.101009
  54 C :    0.000257
  55 C :    0.307901
  56 C :   -0.295288
  57 C :   -0.184260
  58 N :    0.177336
  59 C :   -0.191674
  60 N :    0.184155
  61 C :   -0.040551
  62 C :   -0.098973
  63 S :    0.193825
  64 C :    0.010790
  65 C :   -0.034865
  66 C :    0.147316
  67 C :    0.039862
  68 C :    0.089796
  69 C :   -0.282167
  70 C :   -0.173871
  71 N :    0.157979
  72 C :   -0.207997
  73 N :    0.162842
  74 S :    0.118217
  75 C :   -0.021847
  76 C :    0.032615
  77 C :    0.048701
  78 C :   -0.052952
  79 H :   -0.016380
  80 H :   -0.000483
  81 H :    0.003777
  82 H :    0.008748
  83 H :   -0.010420
  84 H :    0.029819
  85 H :    0.022623
  86 H :    0.023543
  87 H :    0.029932
  88 H :   -0.010791
  89 H :    0.007949
  90 H :    0.002565
  91 H :    0.001008
  92 H :   -0.016669
Sum of atomic charges:   -0.0000000

LOEWDIN ATOMIC CHARGES
----------------------
   0 C :   -0.064424
   1 C :   -0.160497
   2 C :   -0.041609
   3 N :   -0.030089
   4 C :   -0.022485
   5 N :   -0.049245
   6 C :   -0.049321
   7 C :   -0.016647
   8 C :   -0.012466
   9 C :    0.003938
  10 C :   -0.011843
  11 C :    0.011684
  12 C :   -0.143535
  13 S :    0.445731
  14 C :   -0.056481
  15 C :   -0.163695
  16 C :   -0.031688
  17 C :   -0.057671
  18 C :   -0.179879
  19 S :    0.481266
  20 C :   -0.176131
  21 C :   -0.071288
  22 C :    0.076614
  23 C :   -0.094975
  24 C :   -0.015731
  25 N :   -0.028714
  26 C :   -0.021764
  27 N :   -0.017921
  28 C :   -0.005545
  29 C :   -0.166156
  30 S :    0.507352
  31 C :   -0.039056
  32 C :   -0.015398
  33 C :   -0.015344
  34 N :   -0.016957
  35 C :   -0.022898
  36 C :   -0.022888
  37 N :   -0.016998
  38 C :   -0.039622
  39 N :    0.000589
  40 C :   -0.039583
  41 N :    0.000576
  42 C :   -0.039243
  43 C :   -0.036971
  44 C :   -0.037021
  45 N :   -0.269961
  46 S :    0.707351
  47 N :   -0.270013
  48 C :   -0.166138
  49 C :   -0.005503
  50 C :   -0.071057
  51 C :   -0.176111
  52 S :    0.507366
  53 C :   -0.179738
  54 C :   -0.057793
  55 C :    0.076793
  56 C :   -0.095126
  57 C :   -0.016005
  58 N :   -0.028538
  59 C :   -0.021050
  60 N :   -0.018870
  61 C :   -0.032113
  62 C :   -0.163598
  63 S :    0.481257
  64 C :   -0.056523
  65 C :   -0.143109
  66 C :   -0.016636
  67 C :   -0.049143
  68 C :   -0.064298
  69 C :   -0.160864
  70 C :   -0.022394
  71 N :   -0.049321
  72 C :   -0.041110
  73 N :   -0.031180
  74 S :    0.445471
  75 C :    0.011724
  76 C :   -0.011541
  77 C :    0.003773
  78 C :   -0.012333
  79 H :    0.030599
  80 H :    0.035802
  81 H :    0.037204
  82 H :    0.042173
  83 H :    0.035709
  84 H :    0.029440
  85 H :    0.038966
  86 H :    0.039164
  87 H :    0.029856
  88 H :    0.035698
  89 H :    0.042058
  90 H :    0.037055
  91 H :    0.036071
  92 H :    0.030569

  Mayer bond orders larger than 0.100000
B(  0-C ,  1-C ) :   1.6380 B(  0-C ,  6-C ) :   1.0778 B(  0-C , 13-S ) :   1.0963
B(  1-C ,  2-C ) :   1.1278 B(  1-C ,  4-C ) :   1.1682 B(  2-C ,  3-N ) :   3.0364
B(  4-C ,  5-N ) :   2.9689 B(  6-C ,  7-C ) :   1.3209 B(  6-C , 11-C ) :   1.3440
B(  7-C ,  8-C ) :   1.3478 B(  7-C , 12-C ) :   1.0642 B(  8-C ,  9-C ) :   1.4153
B(  8-C , 79-H ) :   0.9908 B(  9-C , 10-C ) :   1.3440 B(  9-C , 80-H ) :   0.9875
B( 10-C , 11-C ) :   1.4133 B( 10-C , 81-H ) :   0.9879 B( 11-C , 82-H ) :   0.9816
B( 12-C , 13-S ) :   1.0029 B( 12-C , 14-C ) :   1.6960 B( 14-C , 15-C ) :   1.1524
B( 14-C , 83-H ) :   0.9410 B( 15-C , 16-C ) :   1.4177 B( 15-C , 19-S ) :   1.1028
B( 16-C , 17-C ) :   1.3418 B( 16-C , 84-H ) :   0.9714 B( 17-C , 18-C ) :   1.4088
B( 17-C , 22-C ) :   0.9955 B( 18-C , 19-S ) :   1.1233 B( 18-C , 20-C ) :   1.2190
B( 20-C , 21-C ) :   1.3905 B( 20-C , 30-S ) :   1.0844 B( 21-C , 22-C ) :   0.9901
B( 21-C , 28-C ) :   1.2911 B( 22-C , 23-C ) :   1.7146 B( 23-C , 24-C ) :   1.1385
B( 23-C , 26-C ) :   1.1316 B( 24-C , 25-N ) :   2.9845 B( 26-C , 27-N ) :   2.9854
B( 28-C , 29-C ) :   1.4003 B( 28-C , 85-H ) :   0.9818 B( 29-C , 30-S ) :   1.0827
B( 29-C , 31-C ) :   1.2223 B( 31-C , 32-C ) :   1.2489 B( 31-C , 42-C ) :   0.1201
B( 31-C , 44-C ) :   1.1908 B( 32-C , 33-C ) :   1.1048 B( 32-C , 37-N ) :   1.4088
B( 33-C , 34-N ) :   1.4084 B( 33-C , 42-C ) :   1.2514 B( 34-N , 35-C ) :   1.6861
B( 35-C , 36-C ) :   1.2235 B( 35-C , 40-C ) :   1.1693 B( 36-C , 37-N ) :   1.6859
B( 36-C , 38-C ) :   1.1711 B( 38-C , 39-N ) :   3.0402 B( 40-C , 41-N ) :   3.0404
B( 42-C , 43-C ) :   1.1891 B( 42-C , 48-C ) :   1.2205 B( 43-C , 44-C ) :   1.0980
B( 43-C , 47-N ) :   1.5222 B( 44-C , 45-N ) :   1.5230 B( 45-N , 46-S ) :   1.2826
B( 45-N , 47-N ) :   0.1448 B( 46-S , 47-N ) :   1.2830 B( 48-C , 49-C ) :   1.4015
B( 48-C , 52-S ) :   1.0838 B( 49-C , 50-C ) :   1.2883 B( 49-C , 86-H ) :   0.9817
B( 50-C , 51-C ) :   1.3916 B( 50-C , 55-C ) :   0.9907 B( 51-C , 52-S ) :   1.0848
B( 51-C , 53-C ) :   1.2162 B( 53-C , 54-C ) :   1.4109 B( 53-C , 63-S ) :   1.1246
B( 54-C , 55-C ) :   0.9948 B( 54-C , 61-C ) :   1.3386 B( 55-C , 56-C ) :   1.7143
B( 56-C , 57-C ) :   1.1403 B( 56-C , 59-C ) :   1.1306 B( 57-C , 58-N ) :   2.9862
B( 59-C , 60-N ) :   2.9857 B( 61-C , 62-C ) :   1.4185 B( 61-C , 87-H ) :   0.9726
B( 62-C , 63-S ) :   1.1023 B( 62-C , 64-C ) :   1.1500 B( 64-C , 65-C ) :   1.6997
B( 64-C , 88-H ) :   0.9406 B( 65-C , 66-C ) :   1.0626 B( 65-C , 74-S ) :   1.0031
B( 66-C , 67-C ) :   1.3197 B( 66-C , 78-C ) :   1.3499 B( 67-C , 68-C ) :   1.0786
B( 67-C , 75-C ) :   1.3455 B( 68-C , 69-C ) :   1.6370 B( 68-C , 74-S ) :   1.0985
B( 69-C , 70-C ) :   1.1686 B( 69-C , 72-C ) :   1.1279 B( 70-C , 71-N ) :   2.9694
B( 72-C , 73-N ) :   3.0341 B( 75-C , 76-C ) :   1.4143 B( 75-C , 89-H ) :   0.9804
B( 76-C , 77-C ) :   1.3453 B( 76-C , 90-H ) :   0.9868 B( 77-C , 78-C ) :   1.4148
B( 77-C , 91-H ) :   0.9870 B( 78-C , 92-H ) :   0.9893

-----------------------------------------------------------------------------
         ABSORPTION SPECTRUM VIA TRANSITION ELECTRIC DIPOLE MOMENTS
-----------------------------------------------------------------------------
State   Energy  Wavelength   fosc         T2         TX        TY        TZ
        (cm-1)    (nm)                  (au**2)     (au)      (au)      (au)
-----------------------------------------------------------------------------
   0    6316.0   1583.3   0.707008624  36.85201   0.83337  -1.88740   5.70922
   1   12200.7    819.6   0.007839674   0.21154  -0.43142  -0.15416   0.04059
   2   12889.1    775.8   0.052549342   1.34221   0.19502  -0.34820   1.08763
   3   14325.3    698.1   0.009397647   0.21597   0.39956   0.23723   0.00661
   4   18997.6    526.4   0.273924315   4.74688   0.35187  -0.66021   2.04626
   5   20336.3    491.7   1.803502341  29.19574  -0.78682   1.69815  -5.06882
   6   20462.9    488.7   0.062579192   1.00679   0.68406   0.59804   0.42568
   7   21923.0    456.1   0.198518996   2.98110  -0.29798   0.51733  -1.62009
   8   22328.5    447.9   0.029819504   0.43966  -0.59349  -0.29568  -0.00149
   9   22707.6    440.4   0.036142572   0.52399  -0.54971   0.41010   0.23157
  10   23500.8    425.5   0.033577408   0.47037   0.11234   0.65292   0.17732
  11   23809.7    420.0   0.018274188   0.25267  -0.13091   0.13643  -0.46575
  12   24044.6    415.9   0.012778367   0.17496   0.02998  -0.13033   0.39632
  13   25034.2    399.5   0.011602559   0.15258   0.24370  -0.27252  -0.13757
  14   25204.1    396.8   0.001386171   0.01811  -0.12646   0.04590   0.00264
  15   26845.1    372.5   0.037046233   0.45431   0.08735  -0.20709   0.63545
  16   27311.2    366.2   0.014879656   0.17936   0.04731  -0.40188  -0.12497
  17   28310.5    353.2   0.035810655   0.41643  -0.12938   0.18567  -0.60433
  18   28665.1    348.9   0.004822835   0.05539   0.05795   0.10053  -0.20476
  19   28865.7    346.4   0.036621317   0.41767   0.44954   0.45512   0.09192
  20   29484.4    339.2   0.501788284   5.60277  -0.31935   0.73555  -2.22705
  21   29667.8    337.1   0.021598190   0.23967   0.17958   0.44287   0.10623
  22   29903.6    334.4   0.136706445   1.50502   0.16963  -1.14473  -0.40722
  23   30191.4    331.2   0.103480402   1.12837  -0.16179   0.32632  -0.99785
  24   30891.4    323.7   0.013181008   0.14047   0.07959  -0.09656   0.35329
  25   30937.5    323.2   0.069653590   0.74120   0.17720  -0.29446   0.78936
  26   30977.6    322.8   0.047099559   0.50055  -0.15974   0.62688   0.28645
  27   31381.5    318.7   0.268334850   2.81500  -0.18337   0.53974  -1.57799
  28   31600.6    316.4   0.930225382   9.69100  -0.67457   2.85640   1.03776
  29   31756.1    314.9   0.001091025   0.01131   0.07188   0.00525  -0.07821
  30   31984.2    312.7   0.002041742   0.02102   0.01978  -0.13506  -0.04882
  31   32583.8    306.9   0.019018640   0.19216   0.01713  -0.40558  -0.16544
  32   32637.5    306.4   0.184871957   1.86479   0.13142  -0.47342   1.27413
  33   32705.1    305.8   0.000855662   0.00861  -0.01102   0.00174   0.09213
  34   32898.7    304.0   0.400960101   4.01234   0.23050  -1.86384  -0.69665
  35   32992.9    303.1   0.316983751   3.16295  -0.04997   1.68865   0.55580
  36   33573.3    297.9   0.001487460   0.01459  -0.02968   0.05533  -0.10317
  37   33760.9    296.2   0.013303648   0.12973   0.07984  -0.07327   0.34349
  38   34111.9    293.2   0.018358643   0.17718  -0.08809  -0.22419  -0.34519
  39   34145.7    292.9   0.119599925   1.15311   0.11674   1.04476   0.21898
  40   35130.1    284.7   0.126343865   1.18400   0.30063  -0.97110  -0.38804
  41   35493.4    281.7   0.223220288   2.07043   0.23475  -0.46131   1.34258
  42   36073.2    277.2   0.576556928   5.26179   0.31911  -2.13755  -0.76865
  43   36156.3    276.6   0.013086748   0.11916  -0.04337   0.30368  -0.15829
  44   36427.5    274.5   0.407281524   3.68079  -0.27519   1.78830   0.63801
  45   36661.1    272.8   0.026201296   0.23528   0.07877  -0.15403   0.45316
  46   36915.0    270.9   0.205979562   1.83695   0.18463  -1.26836  -0.44059
  47   37507.6    266.6   0.050492918   0.44319   0.09954  -0.64595  -0.12662
  48   37510.2    266.6   0.304516779   2.67262  -0.14797   1.52994   0.55679
  49   37662.4    265.5   0.044840508   0.39196  -0.00374  -0.59952  -0.18033
  50   37789.0    264.6   0.002618114   0.02281   0.03344  -0.07652   0.12584
  51   37875.3    264.0   0.026552358   0.23079  -0.06043   0.45082   0.15461
  52   37945.3    263.5   0.006113600   0.05304  -0.04412   0.16133  -0.15833
  53   37997.9    263.2   0.237685023   2.05929   0.15553  -1.34418  -0.47777
  54   38260.5    261.4   0.005435673   0.04677  -0.01951   0.03555  -0.21243
  55   38360.0    260.7   0.000897715   0.00770  -0.01508   0.04147  -0.07588
  56   38480.1    259.9   0.000292020   0.00250   0.00328  -0.02924  -0.04041
  57   38553.9    259.4   0.034693096   0.29624  -0.09537   0.50064   0.19107
  58   38932.1    256.9   0.001518093   0.01284  -0.06603   0.08693   0.03033
  59   39166.9    255.3   0.012408691   0.10430   0.05753  -0.11550   0.29606
  60   39263.1    254.7   0.014985713   0.12565   0.03507  -0.32823  -0.12918
  61   39334.1    254.2   0.016286226   0.13631  -0.04322   0.10930  -0.34999
  62   39571.9    252.7   0.006240333   0.05192  -0.21590   0.06726   0.02787
  63   39629.6    252.3   0.001760396   0.01462  -0.08597  -0.00204   0.08503
  64   39998.2    250.0   0.005406421   0.04450  -0.12648   0.15472   0.06755

FINAL SINGLE POINT ENERGY     -5767.572790432866

DIPOLE MOMENT
-------------
                                X             Y             Z
Electronic contribution:     -8.70685      14.84853       6.24368
Nuclear contribution   :      8.62858     -20.63371      -8.09556
                        -----------------------------------------
Total Dipole Moment    :     -0.07828      -5.78518      -1.85188
                        -----------------------------------------
Magnitude (a.u.)       :      6.07485
Magnitude (Debye)      :     15.44105

Rotational constants in cm-1:     0.002222     0.000172     0.000162
Rotational constants in MHz :    66.615344     5.143860     4.849865

                             ****ORCA TERMINATED NORMALLY****
TOTAL RUN TIME: 0 days 0 hours 22 minutes 7 seconds 857 msec
