                         Program Version 4.2.0 -  RELEASE  -
|  1> # ORCA input file
|  2> # SCF done       -201.643898711443          0.000885801794
|  3> ! CAM-B3LYP def2-SVP def2/J RIJCOSX Grid4 TightSCF
|  4> %maxcore 5000
|  5> %tddft
|  6>     Mode sTDDFT
|  7>     Ethresh 5.0
|  8>     maxcore 5000
|  9> end
| 10>
| 11> %pal
| 12>   nprocs 6
| 13>   end
| 14> * xyz 0 1
| 15>    C        3.69336        -6.20040        -6.40868
| 16>    C        3.11407        -7.33437        -5.90756
| 17>    C        3.72849        -8.04117        -4.86294
| 18>    C        4.91211        -7.60417        -4.33328
| 19>    C        5.53699        -6.44036        -4.82562
| 20>    C        6.76442        -5.98912        -4.28807
| 21>    C        7.34356        -4.85700        -4.79426
| 22>    C        6.70651        -4.13509        -5.84696
| 23>    C        5.52434        -4.55228        -6.38796
| 24>    C        4.91186        -5.72283        -5.88668
| 25>    C        7.51294        -2.94958        -6.18687
| 26>    O        7.32344        -2.13790        -7.06225
| 27>    C        8.60048        -2.91742        -5.16351
| 28>    C        8.60174        -4.19367        -4.47535
| 29>    C        9.68623        -4.77639        -3.87658
| 30>    C       10.97093        -4.19250        -3.87699
| 31>    N       12.03918        -3.77431        -3.91595
| 32>    C        9.66287        -6.05964        -3.29453
| 33>    N        9.68651        -7.09213        -2.79375
| 34>    C        9.29399        -1.77244        -4.95427
| 35>    C       10.06470        -1.38369        -3.82268
| 36>    C       11.05219        -0.43414        -3.81839
| 37>    C       11.62921        -0.21574        -2.54917
| 38>    C       11.01123        -1.00722        -1.54035
| 39>    S        9.75532        -2.01176        -2.20987
| 40>    C       11.39276        -0.95315        -0.22143
| 41>    C       12.43816        -0.08656         0.11814
| 42>    C       13.06168         0.70057        -0.89015
| 43>    C       12.67212         0.64808        -2.20735
| 44>    S       14.34037         1.68988        -0.23442
| 45>    C       14.03872         1.05553         1.36933
| 46>    C       13.01239         0.13820         1.38482
| 47>    C       14.81800         1.49272         2.48027
| 48>    C       15.85612         2.43424         2.30982
| 49>    C       16.66739         2.89808         3.40391
| 50>    N       17.64016         3.78828         3.17135
| 51>    C       17.84815         4.23464         1.95884
| 52>    C       17.03608         3.77594         0.86908
| 53>    N       16.08207         2.90447         1.07690
| 54>    C       17.25881         4.26290        -0.44296
| 55>    N       17.46713         4.68022        -1.48897
| 56>    C       18.88231         5.17690         1.73256
| 57>    N       19.70698         5.94013         1.51066
| 58>    C       16.47916         2.45314         4.73026
| 59>    C       15.44238         1.50953         4.90801
| 60>    C       14.62927         1.03721         3.80460
| 61>    N       13.71921         0.15144         4.21471
| 62>    S       13.86262        -0.06854         5.79503
| 63>    N       15.07899         0.94039         6.05904
| 64>    C       17.29626         2.94735         5.78914
| 65>    C       17.20670         2.62672         7.12490
| 66>    C       18.15510         3.28906         7.92898
| 67>    C       18.99650         4.14123         7.15729
| 68>    S       18.57682         4.09560         5.46293
| 69>    C       19.99740         4.89036         7.72391
| 70>    C       20.17941         4.80507         9.10896
| 71>    C       19.33412         3.95499         9.88170
| 72>    C       18.33359         3.20035         9.31350
| 73>    S       19.75019         4.02913        11.56671
| 74>    C       21.04348         5.18874        11.23807
| 75>    C       21.12883         5.48117         9.89762
| 76>    C       21.76930         5.63564        12.36871
| 77>    C       22.81132         6.50899        12.49796
| 78>    C       23.41803         6.85094        13.78123
| 79>    C       23.07288         6.37759        15.02041
| 80>    C       23.71634         6.75977        16.21806
| 81>    N       24.18725         7.01835        17.23255
| 82>    C       22.05119         5.45299        15.32709
| 83>    N       21.25090         4.71210        15.68865
| 84>    C       24.48946         7.80856        13.53179
| 85>    C       24.55887         8.05368        12.13290
| 86>    C       25.47342         8.90860        11.58811
| 87>    C       26.38192         9.57593        12.43826
| 88>    C       27.35010        10.46785        11.93673
| 89>    C       28.21898        11.10327        12.78169
| 90>    C       28.15660        10.87498        14.16462
| 91>    C       27.22796        10.01446        14.68364
| 92>    C       26.31824         9.34165        13.84229
| 93>    C       25.36006         8.44910        14.37500
| 94>    C       23.52930         7.26620        11.43885
| 95>    O       23.33936         7.26268        10.24006
| 96>    H        3.22516        -5.65198        -7.21297
| 97>    H        2.17960        -7.69273        -6.31288
| 98>    H        3.25909        -8.93502        -4.48027
| 99>    H        5.39077        -8.14708        -3.53153
|100>    H        7.21446        -6.54452        -3.47976
|101>    H        5.06161        -3.99680        -7.19016
|102>    H        9.18867        -1.01605        -5.72688
|103>    H       11.38106         0.06664        -4.71165
|104>    H       10.91439        -1.55923         0.53134
|105>    H       13.15609         1.24948        -2.96005
|106>    H       12.69319        -0.35325         2.28553
|107>    H       16.47542         1.93613         7.50320
|108>    H       20.62960         5.52993         7.12927
|109>    H       17.70161         2.56108         9.90914
|110>    H       21.85373         6.16439         9.49466
|111>    H       21.40917         5.19048        13.28877
|112>    H       25.50070         9.07261        10.52105
|113>    H       27.39271        10.63912        10.87106
|114>    H       28.95904        11.78469        12.38949
|115>    H       28.84878        11.38543        14.81734
|116>    H       27.17627         9.83609        15.74767
|117>    H       25.34263         8.29678        15.44198
|118> *
|119>
|120>                          ****END OF INPUT****

CARTESIAN COORDINATES (ANGSTROEM)
---------------------------------
  C      3.693360   -6.200400   -6.408680
  C      3.114070   -7.334370   -5.907560
  C      3.728490   -8.041170   -4.862940
  C      4.912110   -7.604170   -4.333280
  C      5.536990   -6.440360   -4.825620
  C      6.764420   -5.989120   -4.288070
  C      7.343560   -4.857000   -4.794260
  C      6.706510   -4.135090   -5.846960
  C      5.524340   -4.552280   -6.387960
  C      4.911860   -5.722830   -5.886680
  C      7.512940   -2.949580   -6.186870
  O      7.323440   -2.137900   -7.062250
  C      8.600480   -2.917420   -5.163510
  C      8.601740   -4.193670   -4.475350
  C      9.686230   -4.776390   -3.876580
  C     10.970930   -4.192500   -3.876990
  N     12.039180   -3.774310   -3.915950
  C      9.662870   -6.059640   -3.294530
  N      9.686510   -7.092130   -2.793750
  C      9.293990   -1.772440   -4.954270
  C     10.064700   -1.383690   -3.822680
  C     11.052190   -0.434140   -3.818390
  C     11.629210   -0.215740   -2.549170
  C     11.011230   -1.007220   -1.540350
  S      9.755320   -2.011760   -2.209870
  C     11.392760   -0.953150   -0.221430
  C     12.438160   -0.086560    0.118140
  C     13.061680    0.700570   -0.890150
  C     12.672120    0.648080   -2.207350
  S     14.340370    1.689880   -0.234420
  C     14.038720    1.055530    1.369330
  C     13.012390    0.138200    1.384820
  C     14.818000    1.492720    2.480270
  C     15.856120    2.434240    2.309820
  C     16.667390    2.898080    3.403910
  N     17.640160    3.788280    3.171350
  C     17.848150    4.234640    1.958840
  C     17.036080    3.775940    0.869080
  N     16.082070    2.904470    1.076900
  C     17.258810    4.262900   -0.442960
  N     17.467130    4.680220   -1.488970
  C     18.882310    5.176900    1.732560
  N     19.706980    5.940130    1.510660
  C     16.479160    2.453140    4.730260
  C     15.442380    1.509530    4.908010
  C     14.629270    1.037210    3.804600
  N     13.719210    0.151440    4.214710
  S     13.862620   -0.068540    5.795030
  N     15.078990    0.940390    6.059040
  C     17.296260    2.947350    5.789140
  C     17.206700    2.626720    7.124900
  C     18.155100    3.289060    7.928980
  C     18.996500    4.141230    7.157290
  S     18.576820    4.095600    5.462930
  C     19.997400    4.890360    7.723910
  C     20.179410    4.805070    9.108960
  C     19.334120    3.954990    9.881700
  C     18.333590    3.200350    9.313500
  S     19.750190    4.029130   11.566710
  C     21.043480    5.188740   11.238070
  C     21.128830    5.481170    9.897620
  C     21.769300    5.635640   12.368710
  C     22.811320    6.508990   12.497960
  C     23.418030    6.850940   13.781230
  C     23.072880    6.377590   15.020410
  C     23.716340    6.759770   16.218060
  N     24.187250    7.018350   17.232550
  C     22.051190    5.452990   15.327090
  N     21.250900    4.712100   15.688650
  C     24.489460    7.808560   13.531790
  C     24.558870    8.053680   12.132900
  C     25.473420    8.908600   11.588110
  C     26.381920    9.575930   12.438260
  C     27.350100   10.467850   11.936730
  C     28.218980   11.103270   12.781690
  C     28.156600   10.874980   14.164620
  C     27.227960   10.014460   14.683640
  C     26.318240    9.341650   13.842290
  C     25.360060    8.449100   14.375000
  C     23.529300    7.266200   11.438850
  O     23.339360    7.262680   10.240060
  H      3.225160   -5.651980   -7.212970
  H      2.179600   -7.692730   -6.312880
  H      3.259090   -8.935020   -4.480270
  H      5.390770   -8.147080   -3.531530
  H      7.214460   -6.544520   -3.479760
  H      5.061610   -3.996800   -7.190160
  H      9.188670   -1.016050   -5.726880
  H     11.381060    0.066640   -4.711650
  H     10.914390   -1.559230    0.531340
  H     13.156090    1.249480   -2.960050
  H     12.693190   -0.353250    2.285530
  H     16.475420    1.936130    7.503200
  H     20.629600    5.529930    7.129270
  H     17.701610    2.561080    9.909140
  H     21.853730    6.164390    9.494660
  H     21.409170    5.190480   13.288770
  H     25.500700    9.072610   10.521050
  H     27.392710   10.639120   10.871060
  H     28.959040   11.784690   12.389490
  H     28.848780   11.385430   14.817340
  H     27.176270    9.836090   15.747670
  H     25.342630    8.296780   15.441980

 Total Charge           Charge          ....    0
 Multiplicity           Mult            ....    1
 Number of Electrons    NEL             ....  572
 Basis Dimension        Dim             .... 1264

ORBITAL ENERGIES
----------------

  NO   OCC          E(Eh)            E(eV)
   0   2.0000     -89.059586     -2423.4345
   1   2.0000     -88.958152     -2420.6744
   2   2.0000     -88.954872     -2420.5851
   3   2.0000     -88.952707     -2420.5262
   4   2.0000     -88.952570     -2420.5225
   5   2.0000     -19.219231      -522.9819
   6   2.0000     -19.215638      -522.8841
   7   2.0000     -14.474989      -393.8845
   8   2.0000     -14.474790      -393.8790
   9   2.0000     -14.467727      -393.6869
  10   2.0000     -14.467519      -393.6812
  11   2.0000     -14.437772      -392.8718
  12   2.0000     -14.437508      -392.8646
  13   2.0000     -14.416718      -392.2988
  14   2.0000     -14.416545      -392.2941
  15   2.0000     -14.413165      -392.2022
  16   2.0000     -14.410811      -392.1381
  17   2.0000     -10.394193      -282.8404
  18   2.0000     -10.393815      -282.8301
  19   2.0000     -10.369952      -282.1807
  20   2.0000     -10.366973      -282.0997
  21   2.0000     -10.359610      -281.8993
  22   2.0000     -10.359295      -281.8908
  23   2.0000     -10.358091      -281.8580
  24   2.0000     -10.357861      -281.8517
  25   2.0000     -10.344394      -281.4853
  26   2.0000     -10.341485      -281.4061
  27   2.0000     -10.340792      -281.3872
  28   2.0000     -10.340641      -281.3832
  29   2.0000     -10.332587      -281.1640
  30   2.0000     -10.331616      -281.1376
  31   2.0000     -10.330839      -281.1164
  32   2.0000     -10.330642      -281.1111
  33   2.0000     -10.323364      -280.9130
  34   2.0000     -10.322509      -280.8898
  35   2.0000     -10.321691      -280.8675
  36   2.0000     -10.321279      -280.8563
  37   2.0000     -10.320320      -280.8302
  38   2.0000     -10.319192      -280.7995
  39   2.0000     -10.318784      -280.7884
  40   2.0000     -10.316906      -280.7373
  41   2.0000     -10.316442      -280.7246
  42   2.0000     -10.313230      -280.6372
  43   2.0000     -10.311822      -280.5989
  44   2.0000     -10.311780      -280.5978
  45   2.0000     -10.304312      -280.3946
  46   2.0000     -10.302949      -280.3575
  47   2.0000     -10.301916      -280.3294
  48   2.0000     -10.300593      -280.2934
  49   2.0000     -10.300399      -280.2881
  50   2.0000     -10.300318      -280.2859
  51   2.0000     -10.298742      -280.2430
  52   2.0000     -10.298282      -280.2305
  53   2.0000     -10.297896      -280.2200
  54   2.0000     -10.297264      -280.2028
  55   2.0000     -10.297095      -280.1982
  56   2.0000     -10.296822      -280.1908
  57   2.0000     -10.296395      -280.1791
  58   2.0000     -10.295883      -280.1652
  59   2.0000     -10.295739      -280.1613
  60   2.0000     -10.294553      -280.1290
  61   2.0000     -10.292850      -280.0827
  62   2.0000     -10.292166      -280.0641
  63   2.0000     -10.291787      -280.0538
  64   2.0000     -10.291705      -280.0515
  65   2.0000     -10.291250      -280.0391
  66   2.0000     -10.290279      -280.0127
  67   2.0000     -10.290266      -280.0124
  68   2.0000     -10.289975      -280.0044
  69   2.0000     -10.288437      -279.9626
  70   2.0000     -10.287931      -279.9488
  71   2.0000     -10.287345      -279.9329
  72   2.0000     -10.287211      -279.9293
  73   2.0000     -10.286826      -279.9188
  74   2.0000     -10.286575      -279.9119
  75   2.0000     -10.286461      -279.9088
  76   2.0000     -10.286145      -279.9002
  77   2.0000     -10.286045      -279.8975
  78   2.0000     -10.285576      -279.8847
  79   2.0000     -10.285330      -279.8781
  80   2.0000     -10.284823      -279.8643
  81   2.0000      -8.150788      -221.7942
  82   2.0000      -8.053617      -219.1501
  83   2.0000      -8.050820      -219.0740
  84   2.0000      -8.046783      -218.9641
  85   2.0000      -8.046632      -218.9600
  86   2.0000      -6.121858      -166.5842
  87   2.0000      -6.113932      -166.3685
  88   2.0000      -6.113734      -166.3632
  89   2.0000      -6.023347      -163.9036
  90   2.0000      -6.020379      -163.8228
  91   2.0000      -6.019280      -163.7929
  92   2.0000      -6.016671      -163.7219
  93   2.0000      -6.016536      -163.7183
  94   2.0000      -6.016437      -163.7156
  95   2.0000      -6.014693      -163.6681
  96   2.0000      -6.012132      -163.5984
  97   2.0000      -6.012050      -163.5962
  98   2.0000      -6.011994      -163.5947
  99   2.0000      -6.008006      -163.4861
 100   2.0000      -6.007825      -163.4812
 101   2.0000      -1.156384       -31.4668
 102   2.0000      -1.135709       -30.9042
 103   2.0000      -1.134080       -30.8599
 104   2.0000      -1.130895       -30.7732
 105   2.0000      -1.063524       -28.9400
 106   2.0000      -1.023509       -27.8511
 107   2.0000      -1.019122       -27.7317
 108   2.0000      -1.018314       -27.7097
 109   2.0000      -1.015146       -27.6235
 110   2.0000      -1.010377       -27.4938
 111   2.0000      -1.008907       -27.4538
 112   2.0000      -1.005423       -27.3589
 113   2.0000      -0.998574       -27.1726
 114   2.0000      -0.998313       -27.1655
 115   2.0000      -0.996490       -27.1159
 116   2.0000      -0.992954       -27.0197
 117   2.0000      -0.991512       -26.9804
 118   2.0000      -0.983288       -26.7566
 119   2.0000      -0.976088       -26.5607
 120   2.0000      -0.971178       -26.4271
 121   2.0000      -0.969988       -26.3947
 122   2.0000      -0.933686       -25.4069
 123   2.0000      -0.928160       -25.2565
 124   2.0000      -0.922375       -25.0991
 125   2.0000      -0.920929       -25.0598
 126   2.0000      -0.916966       -24.9519
 127   2.0000      -0.903856       -24.5952
 128   2.0000      -0.895954       -24.3802
 129   2.0000      -0.888029       -24.1645
 130   2.0000      -0.883387       -24.0382
 131   2.0000      -0.882253       -24.0073
 132   2.0000      -0.881843       -23.9962
 133   2.0000      -0.880311       -23.9545
 134   2.0000      -0.870220       -23.6799
 135   2.0000      -0.863969       -23.5098
 136   2.0000      -0.848237       -23.0817
 137   2.0000      -0.841986       -22.9116
 138   2.0000      -0.838945       -22.8288
 139   2.0000      -0.828928       -22.5563
 140   2.0000      -0.827739       -22.5239
 141   2.0000      -0.826302       -22.4848
 142   2.0000      -0.822030       -22.3686
 143   2.0000      -0.809361       -22.0238
 144   2.0000      -0.797436       -21.6993
 145   2.0000      -0.790573       -21.5126
 146   2.0000      -0.788587       -21.4585
 147   2.0000      -0.775242       -21.0954
 148   2.0000      -0.762505       -20.7488
 149   2.0000      -0.761832       -20.7305
 150   2.0000      -0.756812       -20.5939
 151   2.0000      -0.744445       -20.2574
 152   2.0000      -0.730458       -19.8768
 153   2.0000      -0.717274       -19.5180
 154   2.0000      -0.715433       -19.4679
 155   2.0000      -0.708033       -19.2666
 156   2.0000      -0.704664       -19.1749
 157   2.0000      -0.703057       -19.1311
 158   2.0000      -0.701902       -19.0997
 159   2.0000      -0.697370       -18.9764
 160   2.0000      -0.692996       -18.8574
 161   2.0000      -0.691848       -18.8261
 162   2.0000      -0.679484       -18.4897
 163   2.0000      -0.677215       -18.4280
 164   2.0000      -0.673193       -18.3185
 165   2.0000      -0.672582       -18.3019
 166   2.0000      -0.660018       -17.9600
 167   2.0000      -0.659545       -17.9471
 168   2.0000      -0.653199       -17.7744
 169   2.0000      -0.648851       -17.6561
 170   2.0000      -0.638159       -17.3652
 171   2.0000      -0.635569       -17.2947
 172   2.0000      -0.633225       -17.2309
 173   2.0000      -0.629792       -17.1375
 174   2.0000      -0.621124       -16.9016
 175   2.0000      -0.616016       -16.7627
 176   2.0000      -0.609905       -16.5964
 177   2.0000      -0.607979       -16.5439
 178   2.0000      -0.606360       -16.4999
 179   2.0000      -0.603359       -16.4182
 180   2.0000      -0.598663       -16.2904
 181   2.0000      -0.593450       -16.1486
 182   2.0000      -0.580963       -15.8088
 183   2.0000      -0.577693       -15.7198
 184   2.0000      -0.575178       -15.6514
 185   2.0000      -0.570368       -15.5205
 186   2.0000      -0.569899       -15.5077
 187   2.0000      -0.568306       -15.4644
 188   2.0000      -0.561036       -15.2666
 189   2.0000      -0.551374       -15.0037
 190   2.0000      -0.548221       -14.9179
 191   2.0000      -0.546630       -14.8746
 192   2.0000      -0.546040       -14.8585
 193   2.0000      -0.545556       -14.8453
 194   2.0000      -0.542471       -14.7614
 195   2.0000      -0.539250       -14.6737
 196   2.0000      -0.538036       -14.6407
 197   2.0000      -0.536704       -14.6045
 198   2.0000      -0.534616       -14.5476
 199   2.0000      -0.531956       -14.4753
 200   2.0000      -0.525929       -14.3112
 201   2.0000      -0.523048       -14.2329
 202   2.0000      -0.520478       -14.1629
 203   2.0000      -0.519305       -14.1310
 204   2.0000      -0.517836       -14.0910
 205   2.0000      -0.516990       -14.0680
 206   2.0000      -0.514393       -13.9973
 207   2.0000      -0.513216       -13.9653
 208   2.0000      -0.511607       -13.9215
 209   2.0000      -0.509396       -13.8614
 210   2.0000      -0.505133       -13.7454
 211   2.0000      -0.503969       -13.7137
 212   2.0000      -0.503608       -13.7039
 213   2.0000      -0.498925       -13.5764
 214   2.0000      -0.498432       -13.5630
 215   2.0000      -0.497643       -13.5415
 216   2.0000      -0.496898       -13.5213
 217   2.0000      -0.493695       -13.4341
 218   2.0000      -0.490752       -13.3540
 219   2.0000      -0.486919       -13.2498
 220   2.0000      -0.486015       -13.2251
 221   2.0000      -0.483747       -13.1634
 222   2.0000      -0.480625       -13.0785
 223   2.0000      -0.476744       -12.9729
 224   2.0000      -0.470808       -12.8113
 225   2.0000      -0.466084       -12.6828
 226   2.0000      -0.464796       -12.6477
 227   2.0000      -0.464538       -12.6407
 228   2.0000      -0.462797       -12.5933
 229   2.0000      -0.461010       -12.5447
 230   2.0000      -0.459604       -12.5065
 231   2.0000      -0.457064       -12.4373
 232   2.0000      -0.456892       -12.4327
 233   2.0000      -0.452670       -12.3178
 234   2.0000      -0.450733       -12.2651
 235   2.0000      -0.448435       -12.2025
 236   2.0000      -0.448055       -12.1922
 237   2.0000      -0.445490       -12.1224
 238   2.0000      -0.443690       -12.0734
 239   2.0000      -0.442399       -12.0383
 240   2.0000      -0.439999       -11.9730
 241   2.0000      -0.439116       -11.9490
 242   2.0000      -0.436687       -11.8829
 243   2.0000      -0.435165       -11.8415
 244   2.0000      -0.433251       -11.7894
 245   2.0000      -0.432991       -11.7823
 246   2.0000      -0.432499       -11.7689
 247   2.0000      -0.431846       -11.7511
 248   2.0000      -0.430130       -11.7044
 249   2.0000      -0.427783       -11.6406
 250   2.0000      -0.426232       -11.5984
 251   2.0000      -0.425967       -11.5912
 252   2.0000      -0.421342       -11.4653
 253   2.0000      -0.420163       -11.4332
 254   2.0000      -0.418709       -11.3937
 255   2.0000      -0.416455       -11.3323
 256   2.0000      -0.415833       -11.3154
 257   2.0000      -0.415142       -11.2966
 258   2.0000      -0.414748       -11.2859
 259   2.0000      -0.403746       -10.9865
 260   2.0000      -0.402923       -10.9641
 261   2.0000      -0.392109       -10.6698
 262   2.0000      -0.390431       -10.6242
 263   2.0000      -0.386085       -10.5059
 264   2.0000      -0.385183       -10.4814
 265   2.0000      -0.383278       -10.4295
 266   2.0000      -0.376518       -10.2456
 267   2.0000      -0.375533       -10.2188
 268   2.0000      -0.373587       -10.1658
 269   2.0000      -0.360874        -9.8199
 270   2.0000      -0.354813        -9.6550
 271   2.0000      -0.349229        -9.5030
 272   2.0000      -0.347093        -9.4449
 273   2.0000      -0.339155        -9.2289
 274   2.0000      -0.338838        -9.2203
 275   2.0000      -0.335775        -9.1369
 276   2.0000      -0.328391        -8.9360
 277   2.0000      -0.317681        -8.6445
 278   2.0000      -0.316743        -8.6190
 279   2.0000      -0.307325        -8.3627
 280   2.0000      -0.297957        -8.1078
 281   2.0000      -0.293383        -7.9834
 282   2.0000      -0.288579        -7.8526
 283   2.0000      -0.281885        -7.6705
 284   2.0000      -0.269193        -7.3251
 285   2.0000      -0.248676        -6.7668
 286   0.0000      -0.138786        -3.7766
 287   0.0000      -0.095510        -2.5990
 288   0.0000      -0.093139        -2.5345
 289   0.0000      -0.063367        -1.7243
 290   0.0000      -0.058268        -1.5855

MULLIKEN ATOMIC CHARGES
-----------------------
   0 C :   -0.015816
   1 C :    0.036408
   2 C :    0.037006
   3 C :   -0.018212
   4 C :    0.093737
   5 C :   -0.080365
   6 C :    0.040858
   7 C :    0.009934
   8 C :   -0.077998
   9 C :    0.092662
  10 C :    0.141276
  11 O :   -0.139379
  12 C :   -0.128455
  13 C :    0.252448
  14 C :   -0.315747
  15 C :   -0.202064
  16 N :    0.173891
  17 C :   -0.177688
  18 N :    0.155756
  19 C :    0.051159
  20 C :   -0.088318
  21 C :    0.030463
  22 C :    0.120538
  23 C :   -0.035128
  24 S :    0.126362
  25 C :   -0.045633
  26 C :    0.125441
  27 C :   -0.016010
  28 C :   -0.049576
  29 S :    0.139289
  30 C :   -0.152702
  31 C :   -0.037137
  32 C :    0.200863
  33 C :   -0.058122
  34 C :   -0.059107
  35 N :    0.012973
  36 C :   -0.099724
  37 C :   -0.106849
  38 N :    0.014362
  39 C :   -0.234728
  40 N :    0.251697
  41 C :   -0.233980
  42 N :    0.247539
  43 C :    0.196676
  44 C :   -0.012112
  45 C :   -0.014221
  46 N :   -0.286869
  47 S :    0.564033
  48 N :   -0.285522
  49 C :   -0.151470
  50 C :   -0.039138
  51 C :    0.128137
  52 C :   -0.012580
  53 S :    0.139083
  54 C :   -0.047648
  55 C :    0.095480
  56 C :   -0.028386
  57 C :   -0.053224
  58 S :    0.123114
  59 C :   -0.097758
  60 C :   -0.008691
  61 C :    0.054750
  62 C :   -0.078194
  63 C :    0.327317
  64 C :   -0.361633
  65 C :   -0.184242
  66 N :    0.150696
  67 C :   -0.183836
  68 N :    0.149507
  69 C :    0.045723
  70 C :   -0.001118
  71 C :   -0.081548
  72 C :    0.099324
  73 C :   -0.016654
  74 C :    0.036799
  75 C :    0.036033
  76 C :   -0.020057
  77 C :    0.095497
  78 C :   -0.081804
  79 C :    0.159319
  80 O :   -0.154509
  81 H :   -0.016812
  82 H :   -0.005253
  83 H :   -0.004631
  84 H :   -0.010565
  85 H :   -0.006093
  86 H :   -0.011425
  87 H :    0.030991
  88 H :   -0.007117
  89 H :   -0.027199
  90 H :   -0.023814
  91 H :   -0.006762
  92 H :   -0.006138
  93 H :   -0.018142
  94 H :   -0.025881
  95 H :    0.011901
  96 H :   -0.000659
  97 H :   -0.012941
  98 H :   -0.016499
  99 H :   -0.004767
 100 H :   -0.004485
 101 H :   -0.007812
 102 H :   -0.008097
Sum of atomic charges:   -0.0000000

LOEWDIN ATOMIC CHARGES
----------------------
   0 C :   -0.008859
   1 C :   -0.013238
   2 C :   -0.012460
   3 C :   -0.006865
   4 C :   -0.004892
   5 C :    0.015030
   6 C :   -0.021826
   7 C :   -0.057773
   8 C :    0.033635
   9 C :   -0.009418
  10 C :    0.084168
  11 O :   -0.140118
  12 C :   -0.086233
  13 C :    0.059848
  14 C :   -0.133288
  15 C :   -0.034502
  16 N :   -0.046388
  17 C :   -0.017715
  18 N :   -0.049861
  19 C :    0.051268
  20 C :   -0.162175
  21 C :   -0.002776
  22 C :   -0.039416
  23 C :   -0.142635
  24 S :    0.415913
  25 C :   -0.026612
  26 C :   -0.042488
  27 C :   -0.156702
  28 C :   -0.022743
  29 S :    0.430730
  30 C :   -0.154322
  31 C :   -0.020041
  32 C :   -0.028696
  33 C :   -0.010745
  34 C :   -0.009486
  35 N :   -0.009470
  36 C :   -0.019165
  37 C :   -0.020246
  38 N :   -0.008695
  39 C :   -0.037345
  40 N :    0.002363
  41 C :   -0.036932
  42 N :    0.002597
  43 C :   -0.032209
  44 C :   -0.034297
  45 C :   -0.034916
  46 N :   -0.274291
  47 S :    0.688085
  48 N :   -0.274868
  49 C :   -0.151522
  50 C :   -0.023605
  51 C :   -0.039448
  52 C :   -0.158876
  53 S :    0.428923
  54 C :   -0.018847
  55 C :   -0.047534
  56 C :   -0.147418
  57 C :   -0.030833
  58 S :    0.405044
  59 C :   -0.166088
  60 C :    0.003571
  61 C :    0.051756
  62 C :   -0.087858
  63 C :    0.077223
  64 C :   -0.139412
  65 C :   -0.016043
  66 N :   -0.054381
  67 C :   -0.024596
  68 N :   -0.048951
  69 C :   -0.026864
  70 C :   -0.055564
  71 C :    0.032177
  72 C :   -0.008064
  73 C :   -0.009729
  74 C :   -0.011938
  75 C :   -0.013480
  76 C :   -0.005153
  77 C :   -0.006113
  78 C :    0.019979
  79 C :    0.089041
  80 O :   -0.140792
  81 H :    0.032001
  82 H :    0.032737
  83 H :    0.033146
  84 H :    0.034201
  85 H :    0.038554
  86 H :    0.039538
  87 H :    0.052805
  88 H :    0.038102
  89 H :    0.032769
  90 H :    0.034231
  91 H :    0.030411
  92 H :    0.030448
  93 H :    0.036166
  94 H :    0.032701
  95 H :    0.034951
  96 H :    0.042640
  97 H :    0.038744
  98 H :    0.032055
  99 H :    0.032919
 100 H :    0.033278
 101 H :    0.035047
 102 H :    0.039023

  Mayer bond orders larger than 0.100000
B(  0-C ,  1-C ) :   1.4908 B(  0-C ,  9-C ) :   1.2439 B(  0-C , 81-H ) :   0.9975
B(  1-C ,  2-C ) :   1.2608 B(  1-C , 82-H ) :   0.9884 B(  2-C ,  3-C ) :   1.4898
B(  2-C , 83-H ) :   0.9887 B(  3-C ,  4-C ) :   1.2407 B(  3-C , 84-H ) :   0.9975
B(  4-C ,  5-C ) :   1.2043 B(  4-C ,  9-C ) :   1.2584 B(  5-C ,  6-C ) :   1.4588
B(  5-C , 85-H ) :   0.9942 B(  6-C ,  7-C ) :   1.2160 B(  6-C , 13-C ) :   1.0015
B(  7-C ,  8-C ) :   1.4735 B(  7-C , 10-C ) :   0.9221 B(  8-C ,  9-C ) :   1.1869
B(  8-C , 86-H ) :   1.0158 B( 10-C , 11-O ) :   2.2767 B( 10-C , 12-C ) :   0.9290
B( 12-C , 13-C ) :   1.0221 B( 12-C , 19-C ) :   1.6882 B( 13-C , 14-C ) :   1.6690
B( 14-C , 15-C ) :   1.1485 B( 14-C , 17-C ) :   1.1391 B( 15-C , 16-N ) :   3.0245
B( 17-C , 18-N ) :   2.9889 B( 19-C , 20-C ) :   1.0959 B( 19-C , 87-H ) :   0.9476
B( 20-C , 21-C ) :   1.5150 B( 20-C , 24-S ) :   1.0760 B( 21-C , 22-C ) :   1.1650
B( 21-C , 88-H ) :   1.0051 B( 22-C , 23-C ) :   1.2616 B( 22-C , 28-C ) :   1.3023
B( 23-C , 24-S ) :   1.0414 B( 23-C , 25-C ) :   1.4056 B( 25-C , 26-C ) :   1.2959
B( 25-C , 89-H ) :   1.0021 B( 26-C , 27-C ) :   1.2659 B( 26-C , 31-C ) :   1.1469
B( 27-C , 28-C ) :   1.3998 B( 27-C , 29-S ) :   0.9936 B( 28-C , 90-H ) :   1.0027
B( 29-S , 30-C ) :   1.0776 B( 30-C , 31-C ) :   1.5093 B( 30-C , 32-C ) :   1.1836
B( 31-C , 91-H ) :   0.9890 B( 32-C , 33-C ) :   1.2642 B( 32-C , 43-C ) :   0.1238
B( 32-C , 45-C ) :   1.2024 B( 33-C , 34-C ) :   1.1118 B( 33-C , 38-N ) :   1.3974
B( 34-C , 35-N ) :   1.3957 B( 34-C , 43-C ) :   1.2643 B( 35-N , 36-C ) :   1.7102
B( 36-C , 37-C ) :   1.2081 B( 36-C , 41-C ) :   1.1610 B( 37-C , 38-N ) :   1.7096
B( 37-C , 39-C ) :   1.1650 B( 39-C , 40-N ) :   3.0403 B( 41-C , 42-N ) :   3.0394
B( 43-C , 44-C ) :   1.2044 B( 43-C , 49-C ) :   1.1810 B( 44-C , 45-C ) :   1.0973
B( 44-C , 48-N ) :   1.5117 B( 45-C , 46-N ) :   1.5099 B( 46-N , 47-S ) :   1.2861
B( 46-N , 48-N ) :   0.1504 B( 47-S , 48-N ) :   1.2847 B( 49-C , 50-C ) :   1.5121
B( 49-C , 53-S ) :   1.0782 B( 50-C , 51-C ) :   1.1436 B( 50-C , 92-H ) :   0.9894
B( 51-C , 52-C ) :   1.2560 B( 51-C , 57-C ) :   1.3056 B( 52-C , 53-S ) :   0.9890
B( 52-C , 54-C ) :   1.4089 B( 54-C , 55-C ) :   1.2889 B( 54-C , 93-H ) :   1.0037
B( 55-C , 56-C ) :   1.2543 B( 55-C , 60-C ) :   1.1619 B( 56-C , 57-C ) :   1.3841
B( 56-C , 58-S ) :   1.0564 B( 57-C , 94-H ) :   1.0039 B( 58-S , 59-C ) :   1.0661
B( 59-C , 60-C ) :   1.5019 B( 59-C , 61-C ) :   1.1977 B( 60-C , 95-H ) :   0.9809
B( 61-C , 62-C ) :   1.6142 B( 61-C , 96-H ) :   0.9065 B( 62-C , 63-C ) :   1.0770
B( 62-C , 79-C ) :   0.9286 B( 63-C , 64-C ) :   1.6175 B( 63-C , 69-C ) :   0.9838
B( 64-C , 65-C ) :   1.1527 B( 64-C , 67-C ) :   1.1382 B( 65-C , 66-N ) :   2.9599
B( 67-C , 68-N ) :   2.9545 B( 69-C , 70-C ) :   1.2162 B( 69-C , 78-C ) :   1.4465
B( 70-C , 71-C ) :   1.4699 B( 70-C , 79-C ) :   0.9588 B( 71-C , 72-C ) :   1.1787
B( 71-C , 97-H ) :   1.0157 B( 72-C , 73-C ) :   1.2441 B( 72-C , 77-C ) :   1.2554
B( 73-C , 74-C ) :   1.4896 B( 73-C , 98-H ) :   0.9974 B( 74-C , 75-C ) :   1.2593
B( 74-C , 99-H ) :   0.9886 B( 75-C , 76-C ) :   1.4908 B( 75-C ,100-H ) :   0.9882
B( 76-C , 77-C ) :   1.2395 B( 76-C ,101-H ) :   0.9967 B( 77-C , 78-C ) :   1.2097
B( 78-C ,102-H ) :   0.9881 B( 79-C , 80-O ) :   2.1634

-----------------------------------------------------------------------------
         ABSORPTION SPECTRUM VIA TRANSITION ELECTRIC DIPOLE MOMENTS
-----------------------------------------------------------------------------
State   Energy  Wavelength   fosc         T2         TX        TY        TZ
        (cm-1)    (nm)                  (au**2)     (au)      (au)      (au)
-----------------------------------------------------------------------------
   0    9223.9   1084.1   0.887251234  31.66697  -3.22471  -2.11545  -4.09793
   1   13703.8    729.7   0.022644882   0.54401   0.41527   0.49161  -0.36039
   2   15093.7    662.5   0.031163331   0.67971   0.45933   0.30168   0.61458
   3   19266.7    519.0   0.030771797   0.52580   0.31585  -0.07760   0.64809
   4   20183.8    495.4   1.292455959  21.08082   2.54097   1.99931   3.25992
   5   20563.3    486.3   0.186964875   2.99325   0.93177   1.45749   0.02800
   6   23248.6    430.1   0.105801483   1.49820   0.62864   0.57682   0.87766
   7   23319.5    428.8   0.027360447   0.38626   0.21048   0.38502   0.44013
   8   23934.5    417.8   0.055789468   0.76737  -0.32504  -0.54486  -0.60402
   9   24498.6    408.2   0.195509342   2.62725  -0.90739  -0.65251  -1.17394
  10   25027.2    399.6   0.009134530   0.12016   0.15609   0.28959   0.10923
  11   25065.4    399.0   0.097768102   1.28410  -0.95407  -0.49278  -0.36196
  12   25306.3    395.2   0.062786376   0.81679  -0.78199  -0.31078  -0.32969
  13   25718.7    388.8   0.111146631   1.42273  -0.83573  -0.68494  -0.50511
  14   26724.7    374.2   0.019934406   0.24556   0.36143   0.01129   0.33883
  15   27718.8    360.8   0.011078489   0.13158   0.04227   0.33131   0.14150
  16   27775.6    360.0   0.000054065   0.00064  -0.02435  -0.00073  -0.00689
  17   27952.4    357.8   0.037948950   0.44695   0.59105   0.30189   0.08044
  18   28102.9    355.8   0.026977239   0.31603   0.36921   0.24318   0.34723
  19   28171.7    355.0   0.017875862   0.20890  -0.20852  -0.24394  -0.32544
  20   28293.0    353.4   0.027155649   0.31598   0.47548  -0.24096   0.17843
  21   28806.7    347.1   0.024372583   0.27854   0.24221  -0.25947   0.39058
  22   28956.6    345.3   0.048041890   0.54619   0.62439   0.09198   0.38454
  23   29401.4    340.1   0.398955771   4.46716   1.61213   1.05222   0.87238
  24   29710.8    336.6   0.089867573   0.99578   0.76499   0.62053  -0.15975
  25   29981.9    333.5   0.040484979   0.44454  -0.52875  -0.00574  -0.40611
  26   30428.0    328.6   0.001853254   0.02005  -0.07870  -0.09935   0.06314
  27   30521.6    327.6   0.310215084   3.34604   1.35154   1.23208  -0.03665
  28   30827.0    324.4   0.025820755   0.27575   0.26535   0.21041  -0.40133
  29   30921.5    323.4   0.236789213   2.52103  -0.51567  -0.83440   1.24856
  30   31418.7    318.3   0.031289564   0.32786   0.10280   0.19005  -0.53026
  31   31499.9    317.5   0.003489498   0.03647  -0.02071  -0.06690   0.17766
  32   31682.6    315.6   0.051878191   0.53906  -0.48950  -0.40149   0.37183
  33   32480.8    307.9   0.566049347   5.73724   1.78572   1.17702   1.07846
  34   32733.9    305.5   0.396177033   3.98444  -0.41677  -0.84834   1.75814
  35   33059.8    302.5   0.038960572   0.38797  -0.10893  -0.27767  -0.54681
  36   33310.6    300.2   0.036149836   0.35727   0.58799   0.06028  -0.08892
  37   33359.0    299.8   0.015716416   0.15510  -0.19216  -0.25288  -0.23287
  38   33894.4    295.0   0.384744710   3.73697  -1.56790  -1.08077  -0.33256
  39   33901.0    295.0   0.042007016   0.40793   0.50951   0.36461   0.12405
  40   34162.4    292.7   0.404747870   3.90042  -0.58775  -1.00881   1.59288
  41   34316.5    291.4   0.184899100   1.77381   0.19542  -0.78874   1.05523
  42   34384.4    290.8   0.405209759   3.87967   1.75712   0.83541  -0.30706
  43   34703.3    288.2   0.046530395   0.44141  -0.44812  -0.42559   0.24387
  44   34893.0    286.6   0.073775537   0.69606  -0.64653  -0.42946  -0.30598
  45   35058.7    285.2   0.000035940   0.00034  -0.00490   0.00419  -0.01720
  46   35328.7    283.1   0.373339067   3.47897   1.67977   0.78216   0.21346
  47   35617.7    280.8   0.135859366   1.25574  -0.79086  -0.69750   0.37918
  48   35942.9    278.2   0.005288678   0.04844  -0.07850  -0.10556   0.17645
  49   36006.4    277.7   0.090683696   0.82913   0.81540   0.37147   0.16209
  50   36181.0    276.4   0.016443577   0.14962   0.33671   0.00032   0.19039
  51   36498.6    274.0   0.012530923   0.11303   0.13418   0.29308  -0.09553
  52   37012.4    270.2   0.011599386   0.10317  -0.27142  -0.17131  -0.01246
  53   37387.6    267.5   0.011593319   0.10208   0.01316   0.06582  -0.31237
  54   37705.2    265.2   0.150427148   1.31341   0.92340   0.62043   0.27533
  55   37953.8    263.5   0.005017598   0.04352   0.01163   0.15518  -0.13895
  56   38379.7    260.6   0.052817086   0.45305   0.44093   0.27618   0.42703
  57   38536.2    259.5   0.076335781   0.65213  -0.31568  -0.41411   0.61724
  58   38808.9    257.7   0.019074135   0.16180  -0.22048  -0.14766  -0.30231
  59   38941.3    256.8   0.017543114   0.14831  -0.20611   0.00537  -0.32527
  60   39017.4    256.3   0.030989282   0.26147   0.30711   0.25105  -0.32270
  61   39145.7    255.5   0.012971856   0.10909   0.20832   0.17661  -0.18575
  62   39214.7    255.0   0.076417784   0.64154  -0.18082   0.17006  -0.76152
  63   39267.2    254.7   0.000867939   0.00728  -0.03931  -0.00230   0.07567
  64   39673.1    252.1   0.060511098   0.50213  -0.21873   0.02581   0.67351
  65   39769.3    251.5   0.072477598   0.59997  -0.55000  -0.40882  -0.36102
  66   39965.0    250.2   0.027515094   0.22666   0.10901  -0.38447  -0.25876

FINAL SINGLE POINT ENERGY     -5136.302508880522

DIPOLE MOMENT
-------------
                                X             Y             Z
Electronic contribution:      1.77190       0.56650      -0.89864
Nuclear contribution   :     -4.09553      -0.81471       0.72882
                        -----------------------------------------
Total Dipole Moment    :     -2.32363      -0.24821      -0.16982
                        -----------------------------------------
Magnitude (a.u.)       :      2.34301
Magnitude (Debye)      :      5.95547

Rotational constants in cm-1:     0.002524     0.000136     0.000130
Rotational constants in MHz :    75.672924     4.068492     3.893728

                             ****ORCA TERMINATED NORMALLY****
TOTAL RUN TIME: 0 days 0 hours 12 minutes 9 seconds 249 msec
