                         Program Version 4.2.0 -  RELEASE  -
|  1> # ORCA input file
|  2> # SCF done       -195.965785055675          0.000908496854
|  3> ! CAM-B3LYP def2-SVP def2/J RIJCOSX Grid4 TightSCF
|  4> %maxcore 5000
|  5> %tddft
|  6>     Mode sTDDFT
|  7>     Ethresh 5.0
|  8>     maxcore 5000
|  9> end
| 10>
| 11> %pal
| 12>   nprocs 6
| 13>   end
| 14> * xyz 0 1
| 15>    C        0.81116         4.72794         2.79010
| 16>    C        1.61278         4.03551         1.92110
| 17>    C        3.00444         3.87216         2.09067
| 18>    N        4.13570         3.69942         2.17795
| 19>    C        1.18659         3.41517         0.72723
| 20>    N        0.92109         2.90159        -0.26472
| 21>    C        1.26795         5.42077         3.99047
| 22>    C        0.17010         6.10857         4.56559
| 23>    C        0.27996         6.86063         5.71009
| 24>    C        1.53522         6.93398         6.32249
| 25>    C        2.62637         6.24120         5.74442
| 26>    C        2.51464         5.48447         4.58413
| 27>    S        4.08277         6.46208         6.66421
| 28>    C        3.21937         7.46623         7.79852
| 29>    C        1.90743         7.63100         7.50392
| 30>   Br        4.13086         8.20412         9.26135
| 31>    C       -1.03032         5.86320         3.75197
| 32>    O       -2.14380         6.31996         3.94866
| 33>    C       -0.61961         4.95432         2.67580
| 34>    C       -1.46098         4.35986         1.77261
| 35>    C       -2.84558         4.50718         1.58829
| 36>    C       -3.54625         3.74381         0.64658
| 37>    C       -4.89333         4.04904         0.61462
| 38>    C       -5.23064         5.07373         1.53006
| 39>    S       -3.90435         5.62904         2.44160
| 40>    C       -6.62261         5.31684         1.41531
| 41>    C       -7.16320         4.45435         0.44332
| 42>    C       -6.09438         3.62740        -0.09185
| 43>    C       -6.19743         2.65921        -1.04581
| 44>    C       -5.08294         1.90840        -1.47809
| 45>    N       -4.18210         1.29182        -1.82770
| 46>    C       -7.42551         2.33549        -1.66185
| 47>    N       -8.41883         2.06651        -2.16676
| 48>    C       -8.53573         4.62873         0.26908
| 49>    C       -9.03497         5.61855         1.09271
| 50>    S       -7.80048         6.34360         2.10120
| 51>    C      -10.40206         6.05076         1.15282
| 52>    C      -10.83643         7.13258         1.93771
| 53>    N      -12.08936         7.51608         1.96950
| 54>    C      -12.97258         6.83659         1.22146
| 55>    C      -12.53847         5.75347         0.43800
| 56>    N      -11.28540         5.37226         0.40377
| 57>    C      -14.33750         7.27743         1.26267
| 58>    C      -14.81280         8.39416         1.92164
| 59>    C      -16.18880         8.54803         1.75402
| 60>    C      -16.75773         7.53149         0.96484
| 61>    S      -15.60126         6.40047         0.42570
| 62>    C      -18.15087         7.77126         0.84641
| 63>    C      -18.45891         8.94535         1.56094
| 64>    C      -17.23767         9.47640         2.14427
| 65>    C      -17.11415        10.62658         2.86597
| 66>    C      -15.87792        11.07083         3.38151
| 67>    N      -14.87755        11.43051         3.80977
| 68>    C      -18.23185        11.44555         3.13431
| 69>    N      -19.15143        12.09717         3.34537
| 70>    C      -19.80138         9.29138         1.47832
| 71>    C      -20.52705         8.39594         0.70627
| 72>    S      -19.51907         7.08576         0.10480
| 73>    C      -21.90839         8.40135         0.40792
| 74>    C      -22.78693         9.43905         0.46559
| 75>    C      -22.62729        10.87558         0.56886
| 76>    C      -21.58342        11.62459         0.09104
| 77>    C      -21.56079        13.03561         0.09788
| 78>    N      -21.49725        14.18093         0.07342
| 79>    C      -20.45448        11.08570        -0.55569
| 80>    N      -19.52920        10.69769        -1.11416
| 81>    C      -23.90568        11.41981         1.01464
| 82>    C      -24.88577        10.39671         0.95089
| 83>    C      -24.24702         9.13800         0.52421
| 84>    O      -24.76990         8.06952         0.30967
| 85>    C      -26.20407        10.61893         1.26833
| 86>    C      -26.56845        11.90585         1.67814
| 87>    C      -25.57758        12.91490         1.75711
| 88>    C      -24.24568        12.69309         1.42923
| 89>    S      -26.24373        14.42421         2.29827
| 90>    C      -27.82361        13.69388         2.40376
| 91>    C      -27.85245        12.38522         2.05528
| 92>   Br      -29.28423        14.72634         2.96508
| 93>    H       -0.57532         7.37331         6.12145
| 94>    H        3.37574         4.97426         4.18656
| 95>    H        1.22923         8.21890         8.09494
| 96>    H       -1.02078         3.64262         1.09016
| 97>    H       -3.06050         3.00752         0.03087
| 98>    H       -9.16564         4.08599        -0.41130
| 99>    H      -10.14650         7.69867         2.55012
|100>    H      -13.22778         5.18889        -0.17661
|101>    H      -14.16397         9.04183         2.48196
|102>    H      -20.25124        10.12652         1.98354
|103>    H      -22.35104         7.44191         0.15736
|104>    H      -26.93207         9.82575         1.20229
|105>    H      -23.52291        13.48768         1.51333
|106>    H      -28.74160        11.78171         2.06321
|107> *
|108>
|109>                          ****END OF INPUT****

CARTESIAN COORDINATES (ANGSTROEM)
---------------------------------
  C      0.811160    4.727940    2.790100
  C      1.612780    4.035510    1.921100
  C      3.004440    3.872160    2.090670
  N      4.135700    3.699420    2.177950
  C      1.186590    3.415170    0.727230
  N      0.921090    2.901590   -0.264720
  C      1.267950    5.420770    3.990470
  C      0.170100    6.108570    4.565590
  C      0.279960    6.860630    5.710090
  C      1.535220    6.933980    6.322490
  C      2.626370    6.241200    5.744420
  C      2.514640    5.484470    4.584130
  S      4.082770    6.462080    6.664210
  C      3.219370    7.466230    7.798520
  C      1.907430    7.631000    7.503920
  Br     4.130860    8.204120    9.261350
  C     -1.030320    5.863200    3.751970
  O     -2.143800    6.319960    3.948660
  C     -0.619610    4.954320    2.675800
  C     -1.460980    4.359860    1.772610
  C     -2.845580    4.507180    1.588290
  C     -3.546250    3.743810    0.646580
  C     -4.893330    4.049040    0.614620
  C     -5.230640    5.073730    1.530060
  S     -3.904350    5.629040    2.441600
  C     -6.622610    5.316840    1.415310
  C     -7.163200    4.454350    0.443320
  C     -6.094380    3.627400   -0.091850
  C     -6.197430    2.659210   -1.045810
  C     -5.082940    1.908400   -1.478090
  N     -4.182100    1.291820   -1.827700
  C     -7.425510    2.335490   -1.661850
  N     -8.418830    2.066510   -2.166760
  C     -8.535730    4.628730    0.269080
  C     -9.034970    5.618550    1.092710
  S     -7.800480    6.343600    2.101200
  C    -10.402060    6.050760    1.152820
  C    -10.836430    7.132580    1.937710
  N    -12.089360    7.516080    1.969500
  C    -12.972580    6.836590    1.221460
  C    -12.538470    5.753470    0.438000
  N    -11.285400    5.372260    0.403770
  C    -14.337500    7.277430    1.262670
  C    -14.812800    8.394160    1.921640
  C    -16.188800    8.548030    1.754020
  C    -16.757730    7.531490    0.964840
  S    -15.601260    6.400470    0.425700
  C    -18.150870    7.771260    0.846410
  C    -18.458910    8.945350    1.560940
  C    -17.237670    9.476400    2.144270
  C    -17.114150   10.626580    2.865970
  C    -15.877920   11.070830    3.381510
  N    -14.877550   11.430510    3.809770
  C    -18.231850   11.445550    3.134310
  N    -19.151430   12.097170    3.345370
  C    -19.801380    9.291380    1.478320
  C    -20.527050    8.395940    0.706270
  S    -19.519070    7.085760    0.104800
  C    -21.908390    8.401350    0.407920
  C    -22.786930    9.439050    0.465590
  C    -22.627290   10.875580    0.568860
  C    -21.583420   11.624590    0.091040
  C    -21.560790   13.035610    0.097880
  N    -21.497250   14.180930    0.073420
  C    -20.454480   11.085700   -0.555690
  N    -19.529200   10.697690   -1.114160
  C    -23.905680   11.419810    1.014640
  C    -24.885770   10.396710    0.950890
  C    -24.247020    9.138000    0.524210
  O    -24.769900    8.069520    0.309670
  C    -26.204070   10.618930    1.268330
  C    -26.568450   11.905850    1.678140
  C    -25.577580   12.914900    1.757110
  C    -24.245680   12.693090    1.429230
  S    -26.243730   14.424210    2.298270
  C    -27.823610   13.693880    2.403760
  C    -27.852450   12.385220    2.055280
  Br   -29.284230   14.726340    2.965080
  H     -0.575320    7.373310    6.121450
  H      3.375740    4.974260    4.186560
  H      1.229230    8.218900    8.094940
  H     -1.020780    3.642620    1.090160
  H     -3.060500    3.007520    0.030870
  H     -9.165640    4.085990   -0.411300
  H    -10.146500    7.698670    2.550120
  H    -13.227780    5.188890   -0.176610
  H    -14.163970    9.041830    2.481960
  H    -20.251240   10.126520    1.983540
  H    -22.351040    7.441910    0.157360
  H    -26.932070    9.825750    1.202290
  H    -23.522910   13.487680    1.513330
  H    -28.741600   11.781710    2.063210

 Total Charge           Charge          ....    0
 Multiplicity           Mult            ....    1
 Number of Electrons    NEL             ....  614
 Basis Dimension        Dim             .... 1222

ORBITAL ENERGIES
----------------

  NO   OCC          E(Eh)            E(eV)
   0   2.0000    -482.889839    -13140.1005
   1   2.0000    -482.887728    -13140.0431
   2   2.0000     -89.002177     -2421.8724
   3   2.0000     -89.001613     -2421.8570
   4   2.0000     -89.001416     -2421.8517
   5   2.0000     -88.995556     -2421.6922
   6   2.0000     -88.980775     -2421.2900
   7   2.0000     -88.978405     -2421.2255
   8   2.0000     -62.567554     -1702.5497
   9   2.0000     -62.565445     -1702.4923
  10   2.0000     -56.401510     -1534.7631
  11   2.0000     -56.399402     -1534.7058
  12   2.0000     -56.398783     -1534.6889
  13   2.0000     -56.398750     -1534.6880
  14   2.0000     -56.396674     -1534.6315
  15   2.0000     -56.396644     -1534.6307
  16   2.0000     -19.231356      -523.3118
  17   2.0000     -19.220510      -523.0167
  18   2.0000     -14.443868      -393.0376
  19   2.0000     -14.443651      -393.0317
  20   2.0000     -14.437727      -392.8705
  21   2.0000     -14.435309      -392.8047
  22   2.0000     -14.434239      -392.7756
  23   2.0000     -14.434093      -392.7716
  24   2.0000     -14.422104      -392.4454
  25   2.0000     -14.421229      -392.4216
  26   2.0000     -14.419123      -392.3643
  27   2.0000     -14.417971      -392.3329
  28   2.0000     -10.378916      -282.4247
  29   2.0000     -10.372596      -282.2527
  30   2.0000     -10.371702      -282.2283
  31   2.0000     -10.370779      -282.2032
  32   2.0000     -10.363969      -282.0179
  33   2.0000     -10.361494      -281.9506
  34   2.0000     -10.359410      -281.8939
  35   2.0000     -10.358236      -281.8619
  36   2.0000     -10.348836      -281.6061
  37   2.0000     -10.348105      -281.5862
  38   2.0000     -10.347894      -281.5805
  39   2.0000     -10.347881      -281.5801
  40   2.0000     -10.347862      -281.5796
  41   2.0000     -10.347540      -281.5709
  42   2.0000     -10.347319      -281.5649
  43   2.0000     -10.343933      -281.4727
  44   2.0000     -10.342141      -281.4240
  45   2.0000     -10.339531      -281.3530
  46   2.0000     -10.337968      -281.3104
  47   2.0000     -10.337834      -281.3068
  48   2.0000     -10.337707      -281.3033
  49   2.0000     -10.335019      -281.2302
  50   2.0000     -10.333937      -281.2007
  51   2.0000     -10.333826      -281.1977
  52   2.0000     -10.333213      -281.1810
  53   2.0000     -10.333052      -281.1767
  54   2.0000     -10.332767      -281.1689
  55   2.0000     -10.332274      -281.1555
  56   2.0000     -10.332040      -281.1491
  57   2.0000     -10.331276      -281.1283
  58   2.0000     -10.329779      -281.0876
  59   2.0000     -10.329300      -281.0746
  60   2.0000     -10.323585      -280.9190
  61   2.0000     -10.323531      -280.9176
  62   2.0000     -10.321973      -280.8752
  63   2.0000     -10.320332      -280.8305
  64   2.0000     -10.317977      -280.7664
  65   2.0000     -10.317067      -280.7417
  66   2.0000     -10.315683      -280.7040
  67   2.0000     -10.315006      -280.6856
  68   2.0000     -10.314434      -280.6700
  69   2.0000     -10.313440      -280.6430
  70   2.0000     -10.313062      -280.6327
  71   2.0000     -10.312966      -280.6301
  72   2.0000     -10.311295      -280.5846
  73   2.0000     -10.310977      -280.5759
  74   2.0000     -10.310958      -280.5754
  75   2.0000     -10.309288      -280.5300
  76   2.0000     -10.309211      -280.5279
  77   2.0000     -10.308626      -280.5120
  78   2.0000     -10.308246      -280.5016
  79   2.0000     -10.305889      -280.4375
  80   2.0000     -10.305419      -280.4247
  81   2.0000     -10.305404      -280.4243
  82   2.0000     -10.301774      -280.3255
  83   2.0000     -10.299484      -280.2632
  84   2.0000     -10.299337      -280.2592
  85   2.0000     -10.297335      -280.2047
  86   2.0000      -8.796991      -239.3783
  87   2.0000      -8.794875      -239.3207
  88   2.0000      -8.096733      -220.3233
  89   2.0000      -8.096147      -220.3074
  90   2.0000      -8.096129      -220.3069
  91   2.0000      -8.087858      -220.0818
  92   2.0000      -8.076776      -219.7803
  93   2.0000      -8.074415      -219.7160
  94   2.0000      -6.633331      -180.5021
  95   2.0000      -6.631214      -180.4445
  96   2.0000      -6.618702      -180.1040
  97   2.0000      -6.618501      -180.0986
  98   2.0000      -6.616599      -180.0468
  99   2.0000      -6.616377      -180.0408
 100   2.0000      -6.065904      -165.0617
 101   2.0000      -6.065316      -165.0456
 102   2.0000      -6.065267      -165.0443
 103   2.0000      -6.061780      -164.9494
 104   2.0000      -6.061172      -164.9329
 105   2.0000      -6.061119      -164.9314
 106   2.0000      -6.059203      -164.8793
 107   2.0000      -6.058649      -164.8642
 108   2.0000      -6.058645      -164.8641
 109   2.0000      -6.057283      -164.8271
 110   2.0000      -6.052501      -164.6969
 111   2.0000      -6.050435      -164.6407
 112   2.0000      -6.046440      -164.5320
 113   2.0000      -6.044092      -164.4681
 114   2.0000      -6.042181      -164.4161
 115   2.0000      -6.039819      -164.3518
 116   2.0000      -6.038024      -164.3030
 117   2.0000      -6.035653      -164.2385
 118   2.0000      -2.749183       -74.8091
 119   2.0000      -2.747048       -74.7510
 120   2.0000      -2.745121       -74.6985
 121   2.0000      -2.744923       -74.6931
 122   2.0000      -2.742999       -74.6408
 123   2.0000      -2.742829       -74.6362
 124   2.0000      -2.733316       -74.3773
 125   2.0000      -2.733306       -74.3770
 126   2.0000      -2.731209       -74.3200
 127   2.0000      -2.731204       -74.3198
 128   2.0000      -1.146817       -31.2065
 129   2.0000      -1.136222       -30.9182
 130   2.0000      -1.102125       -29.9903
 131   2.0000      -1.055473       -28.7209
 132   2.0000      -1.052645       -28.6439
 133   2.0000      -1.029368       -28.0105
 134   2.0000      -1.028919       -27.9983
 135   2.0000      -1.028167       -27.9779
 136   2.0000      -1.026876       -27.9427
 137   2.0000      -1.024555       -27.8796
 138   2.0000      -1.018657       -27.7191
 139   2.0000      -1.017833       -27.6966
 140   2.0000      -1.013903       -27.5897
 141   2.0000      -1.011617       -27.5275
 142   2.0000      -1.007109       -27.4048
 143   2.0000      -1.004587       -27.3362
 144   2.0000      -0.999057       -27.1857
 145   2.0000      -0.998267       -27.1642
 146   2.0000      -0.995856       -27.0986
 147   2.0000      -0.993748       -27.0413
 148   2.0000      -0.969363       -26.3777
 149   2.0000      -0.966931       -26.3115
 150   2.0000      -0.948426       -25.8080
 151   2.0000      -0.947053       -25.7706
 152   2.0000      -0.931553       -25.3488
 153   2.0000      -0.926070       -25.1996
 154   2.0000      -0.914381       -24.8816
 155   2.0000      -0.912686       -24.8354
 156   2.0000      -0.910116       -24.7655
 157   2.0000      -0.900859       -24.5136
 158   2.0000      -0.892977       -24.2991
 159   2.0000      -0.891694       -24.2642
 160   2.0000      -0.889688       -24.2096
 161   2.0000      -0.880055       -23.9475
 162   2.0000      -0.878339       -23.9008
 163   2.0000      -0.868113       -23.6225
 164   2.0000      -0.866100       -23.5678
 165   2.0000      -0.864377       -23.5209
 166   2.0000      -0.858244       -23.3540
 167   2.0000      -0.835611       -22.7381
 168   2.0000      -0.833421       -22.6786
 169   2.0000      -0.830235       -22.5918
 170   2.0000      -0.805503       -21.9189
 171   2.0000      -0.797580       -21.7033
 172   2.0000      -0.786823       -21.4105
 173   2.0000      -0.785280       -21.3686
 174   2.0000      -0.772084       -21.0095
 175   2.0000      -0.768252       -20.9052
 176   2.0000      -0.765714       -20.8361
 177   2.0000      -0.761950       -20.7337
 178   2.0000      -0.750838       -20.4313
 179   2.0000      -0.725911       -19.7530
 180   2.0000      -0.720328       -19.6011
 181   2.0000      -0.710615       -19.3368
 182   2.0000      -0.706660       -19.2292
 183   2.0000      -0.703041       -19.1307
 184   2.0000      -0.699640       -19.0382
 185   2.0000      -0.696989       -18.9660
 186   2.0000      -0.694606       -18.9012
 187   2.0000      -0.689718       -18.7682
 188   2.0000      -0.686529       -18.6814
 189   2.0000      -0.674834       -18.3632
 190   2.0000      -0.672648       -18.3037
 191   2.0000      -0.662292       -18.0219
 192   2.0000      -0.662259       -18.0210
 193   2.0000      -0.652570       -17.7573
 194   2.0000      -0.647237       -17.6122
 195   2.0000      -0.644123       -17.5275
 196   2.0000      -0.634620       -17.2689
 197   2.0000      -0.630313       -17.1517
 198   2.0000      -0.628540       -17.1035
 199   2.0000      -0.625387       -17.0176
 200   2.0000      -0.624034       -16.9808
 201   2.0000      -0.621198       -16.9037
 202   2.0000      -0.617579       -16.8052
 203   2.0000      -0.608731       -16.5644
 204   2.0000      -0.603456       -16.4209
 205   2.0000      -0.598797       -16.2941
 206   2.0000      -0.593372       -16.1465
 207   2.0000      -0.587927       -15.9983
 208   2.0000      -0.581596       -15.8260
 209   2.0000      -0.578636       -15.7455
 210   2.0000      -0.563030       -15.3208
 211   2.0000      -0.560022       -15.2390
 212   2.0000      -0.559278       -15.2187
 213   2.0000      -0.556692       -15.1484
 214   2.0000      -0.553365       -15.0578
 215   2.0000      -0.550033       -14.9672
 216   2.0000      -0.549432       -14.9508
 217   2.0000      -0.547056       -14.8861
 218   2.0000      -0.545659       -14.8481
 219   2.0000      -0.545011       -14.8305
 220   2.0000      -0.542561       -14.7638
 221   2.0000      -0.538795       -14.6614
 222   2.0000      -0.535487       -14.5713
 223   2.0000      -0.528091       -14.3701
 224   2.0000      -0.525485       -14.2992
 225   2.0000      -0.522183       -14.2093
 226   2.0000      -0.520150       -14.1540
 227   2.0000      -0.519469       -14.1355
 228   2.0000      -0.515824       -14.0363
 229   2.0000      -0.514289       -13.9945
 230   2.0000      -0.512663       -13.9503
 231   2.0000      -0.511139       -13.9088
 232   2.0000      -0.510029       -13.8786
 233   2.0000      -0.506200       -13.7744
 234   2.0000      -0.505231       -13.7480
 235   2.0000      -0.503745       -13.7076
 236   2.0000      -0.502218       -13.6660
 237   2.0000      -0.501184       -13.6379
 238   2.0000      -0.499834       -13.6012
 239   2.0000      -0.497040       -13.5251
 240   2.0000      -0.493912       -13.4400
 241   2.0000      -0.489747       -13.3267
 242   2.0000      -0.485683       -13.2161
 243   2.0000      -0.482380       -13.1262
 244   2.0000      -0.481695       -13.1076
 245   2.0000      -0.478633       -13.0243
 246   2.0000      -0.474503       -12.9119
 247   2.0000      -0.467540       -12.7224
 248   2.0000      -0.465644       -12.6708
 249   2.0000      -0.464283       -12.6338
 250   2.0000      -0.464047       -12.6274
 251   2.0000      -0.462017       -12.5721
 252   2.0000      -0.461783       -12.5658
 253   2.0000      -0.460121       -12.5205
 254   2.0000      -0.455916       -12.4061
 255   2.0000      -0.455004       -12.3813
 256   2.0000      -0.454901       -12.3785
 257   2.0000      -0.453076       -12.3288
 258   2.0000      -0.451593       -12.2885
 259   2.0000      -0.450698       -12.2641
 260   2.0000      -0.450194       -12.2504
 261   2.0000      -0.447986       -12.1903
 262   2.0000      -0.446378       -12.1466
 263   2.0000      -0.445912       -12.1339
 264   2.0000      -0.444940       -12.1074
 265   2.0000      -0.444753       -12.1023
 266   2.0000      -0.443878       -12.0785
 267   2.0000      -0.443134       -12.0583
 268   2.0000      -0.441895       -12.0246
 269   2.0000      -0.439504       -11.9595
 270   2.0000      -0.434525       -11.8240
 271   2.0000      -0.432722       -11.7750
 272   2.0000      -0.431602       -11.7445
 273   2.0000      -0.431326       -11.7370
 274   2.0000      -0.430957       -11.7269
 275   2.0000      -0.427899       -11.6437
 276   2.0000      -0.424671       -11.5559
 277   2.0000      -0.422380       -11.4936
 278   2.0000      -0.417474       -11.3600
 279   2.0000      -0.414876       -11.2893
 280   2.0000      -0.414213       -11.2713
 281   2.0000      -0.412179       -11.2160
 282   2.0000      -0.404632       -11.0106
 283   2.0000      -0.400648       -10.9022
 284   2.0000      -0.396211       -10.7815
 285   2.0000      -0.393450       -10.7063
 286   2.0000      -0.390578       -10.6282
 287   2.0000      -0.384885       -10.4733
 288   2.0000      -0.379141       -10.3170
 289   2.0000      -0.377103       -10.2615
 290   2.0000      -0.369389       -10.0516
 291   2.0000      -0.360559        -9.8113
 292   2.0000      -0.357033        -9.7154
 293   2.0000      -0.356893        -9.7116
 294   2.0000      -0.347885        -9.4664
 295   2.0000      -0.346412        -9.4263
 296   2.0000      -0.345516        -9.4020
 297   2.0000      -0.338105        -9.2003
 298   2.0000      -0.331258        -9.0140
 299   2.0000      -0.328955        -8.9513
 300   2.0000      -0.322333        -8.7711
 301   2.0000      -0.318834        -8.6759
 302   2.0000      -0.318421        -8.6647
 303   2.0000      -0.299339        -8.1454
 304   2.0000      -0.297550        -8.0967
 305   2.0000      -0.282213        -7.6794
 306   2.0000      -0.262105        -7.1322
 307   0.0000      -0.120457        -3.2778
 308   0.0000      -0.113518        -3.0890
 309   0.0000      -0.093601        -2.5470
 310   0.0000      -0.092249        -2.5102
 311   0.0000      -0.071561        -1.9473

MULLIKEN ATOMIC CHARGES
-----------------------
   0 C :    0.321238
   1 C :   -0.347392
   2 C :   -0.184386
   3 N :    0.150235
   4 C :   -0.195690
   5 N :    0.159245
   6 C :    0.009951
   7 C :   -0.011426
   8 C :   -0.070096
   9 C :    0.116926
  10 C :   -0.089643
  11 C :   -0.018735
  12 S :    0.191319
  13 C :   -0.123818
  14 C :    0.038109
  15 Br:    0.027867
  16 C :    0.166864
  17 O :   -0.191133
  18 C :   -0.088189
  19 C :   -0.032442
  20 C :   -0.053009
  21 C :   -0.059584
  22 C :    0.046168
  23 C :   -0.070616
  24 S :    0.245787
  25 C :   -0.101115
  26 C :    0.030468
  27 C :    0.302348
  28 C :   -0.290846
  29 C :   -0.195077
  30 N :    0.184149
  31 C :   -0.191434
  32 N :    0.182509
  33 C :   -0.043177
  34 C :   -0.041507
  35 S :    0.195028
  36 C :   -0.009502
  37 C :   -0.010261
  38 N :   -0.022686
  39 C :   -0.007796
  40 C :   -0.011792
  41 N :   -0.021668
  42 C :   -0.044169
  43 C :   -0.039462
  44 C :    0.027536
  45 C :   -0.099657
  46 S :    0.191996
  47 C :   -0.070481
  48 C :    0.001206
  49 C :    0.303072
  50 C :   -0.285745
  51 C :   -0.190372
  52 N :    0.187238
  53 C :   -0.183772
  54 N :    0.167029
  55 C :   -0.006517
  56 C :   -0.111213
  57 S :    0.218321
  58 C :    0.079498
  59 C :   -0.130457
  60 C :    0.265782
  61 C :   -0.330167
  62 C :   -0.173806
  63 N :    0.159946
  64 C :   -0.197514
  65 N :    0.166366
  66 C :   -0.003728
  67 C :    0.006694
  68 C :    0.132230
  69 O :   -0.142469
  70 C :   -0.071293
  71 C :    0.111824
  72 C :   -0.088326
  73 C :   -0.016956
  74 S :    0.190480
  75 C :   -0.125139
  76 C :    0.040987
  77 Br:    0.026010
  78 H :   -0.010612
  79 H :   -0.005365
  80 H :   -0.001863
  81 H :    0.021998
  82 H :    0.028374
  83 H :    0.022658
  84 H :    0.013839
  85 H :    0.014165
  86 H :    0.022378
  87 H :    0.025914
  88 H :    0.022909
  89 H :   -0.007089
  90 H :    0.004357
  91 H :   -0.001832
Sum of atomic charges:   -0.0000000

LOEWDIN ATOMIC CHARGES
----------------------
   0 C :    0.076031
   1 C :   -0.139159
   2 C :   -0.017988
   3 N :   -0.050837
   4 C :   -0.024135
   5 N :   -0.045440
   6 C :   -0.019885
   7 C :   -0.051937
   8 C :    0.023311
   9 C :   -0.032688
  10 C :   -0.143245
  11 C :   -0.007958
  12 S :    0.436967
  13 C :   -0.270805
  14 C :   -0.070383
  15 Br:    0.140025
  16 C :    0.086744
  17 O :   -0.174638
  18 C :   -0.109452
  19 C :    0.056478
  20 C :   -0.183223
  21 C :    0.012024
  22 C :   -0.076038
  23 C :   -0.168919
  24 S :    0.549114
  25 C :   -0.181926
  26 C :   -0.056218
  27 C :    0.076199
  28 C :   -0.096471
  29 C :   -0.019564
  30 N :   -0.022838
  31 C :   -0.018468
  32 N :   -0.025723
  33 C :   -0.005839
  34 C :   -0.170710
  35 S :    0.487604
  36 C :   -0.029165
  37 C :    0.006461
  38 N :   -0.036314
  39 C :   -0.027311
  40 C :    0.005299
  41 N :   -0.034958
  42 C :   -0.173931
  43 C :   -0.002838
  44 C :   -0.059241
  45 C :   -0.178223
  46 S :    0.487770
  47 C :   -0.161731
  48 C :   -0.063796
  49 C :    0.080996
  50 C :   -0.094077
  51 C :   -0.018837
  52 N :   -0.023500
  53 C :   -0.012359
  54 N :   -0.031378
  55 C :    0.007129
  56 C :   -0.180274
  57 S :    0.502559
  58 C :    0.041792
  59 C :   -0.088387
  60 C :    0.065576
  61 C :   -0.135930
  62 C :   -0.019293
  63 N :   -0.044623
  64 C :   -0.015651
  65 N :   -0.046835
  66 C :   -0.018019
  67 C :   -0.053902
  68 C :    0.083697
  69 O :   -0.142092
  70 C :    0.023684
  71 C :   -0.032760
  72 C :   -0.142190
  73 C :   -0.008786
  74 S :    0.436619
  75 C :   -0.271047
  76 C :   -0.070238
  77 Br:    0.139062
  78 H :    0.041078
  79 H :    0.041687
  80 H :    0.039234
  81 H :    0.054392
  82 H :    0.048234
  83 H :    0.046753
  84 H :    0.022592
  85 H :    0.022383
  86 H :    0.047070
  87 H :    0.042753
  88 H :    0.046361
  89 H :    0.042039
  90 H :    0.043149
  91 H :    0.039307

  Mayer bond orders larger than 0.100000
B(  0-C ,  1-C ) :   1.6338 B(  0-C ,  6-C ) :   0.9999 B(  0-C , 18-C ) :   1.0715
B(  1-C ,  2-C ) :   1.1435 B(  1-C ,  4-C ) :   1.1406 B(  2-C ,  3-N ) :   2.9689
B(  4-C ,  5-N ) :   2.9715 B(  6-C ,  7-C ) :   1.2726 B(  6-C , 11-C ) :   1.4156
B(  7-C ,  8-C ) :   1.4162 B(  7-C , 16-C ) :   0.9649 B(  8-C ,  9-C ) :   1.2463
B(  8-C , 78-H ) :   1.0179 B(  9-C , 10-C ) :   1.3043 B(  9-C , 14-C ) :   1.1632
B( 10-C , 11-C ) :   1.3257 B( 10-C , 12-S ) :   1.0892 B( 11-C , 79-H ) :   0.9803
B( 12-S , 13-C ) :   1.0879 B( 13-C , 14-C ) :   1.6168 B( 13-C , 15-Br) :   1.0215
B( 14-C , 80-H ) :   1.0005 B( 16-C , 17-O ) :   2.1097 B( 16-C , 18-C ) :   0.9828
B( 18-C , 19-C ) :   1.4995 B( 19-C , 20-C ) :   1.2608 B( 19-C , 81-H ) :   0.9427
B( 20-C , 21-C ) :   1.3315 B( 20-C , 24-S ) :   1.0739 B( 21-C , 22-C ) :   1.3297
B( 21-C , 82-H ) :   1.0089 B( 22-C , 23-C ) :   1.3599 B( 22-C , 27-C ) :   0.9867
B( 23-C , 24-S ) :   1.1275 B( 23-C , 25-C ) :   1.2026 B( 25-C , 26-C ) :   1.4263
B( 25-C , 35-S ) :   1.1272 B( 26-C , 27-C ) :   0.9953 B( 26-C , 33-C ) :   1.2534
B( 27-C , 28-C ) :   1.7214 B( 28-C , 29-C ) :   1.1339 B( 28-C , 31-C ) :   1.1325
B( 29-C , 30-N ) :   2.9933 B( 31-C , 32-N ) :   2.9978 B( 33-C , 34-C ) :   1.4675
B( 33-C , 83-H ) :   1.0092 B( 34-C , 35-S ) :   1.1188 B( 34-C , 36-C ) :   1.0652
B( 36-C , 37-C ) :   1.2934 B( 36-C , 41-N ) :   1.5451 B( 37-C , 38-N ) :   1.6078
B( 37-C , 84-H ) :   0.9761 B( 38-N , 39-C ) :   1.5467 B( 39-C , 40-C ) :   1.2908
B( 39-C , 42-C ) :   1.0668 B( 40-C , 41-N ) :   1.6105 B( 40-C , 85-H ) :   0.9759
B( 42-C , 43-C ) :   1.4683 B( 42-C , 46-S ) :   1.1171 B( 43-C , 44-C ) :   1.2555
B( 43-C , 86-H ) :   1.0096 B( 44-C , 45-C ) :   1.4343 B( 44-C , 49-C ) :   0.9912
B( 45-C , 46-S ) :   1.1302 B( 45-C , 47-C ) :   1.1931 B( 47-C , 48-C ) :   1.4162
B( 47-C , 57-S ) :   1.1543 B( 48-C , 49-C ) :   0.9984 B( 48-C , 55-C ) :   1.3522
B( 49-C , 50-C ) :   1.7238 B( 50-C , 51-C ) :   1.1297 B( 50-C , 53-C ) :   1.1344
B( 51-C , 52-N ) :   3.0021 B( 53-C , 54-N ) :   2.9803 B( 55-C , 56-C ) :   1.4037
B( 55-C , 87-H ) :   0.9817 B( 56-C , 57-S ) :   1.0925 B( 56-C , 58-C ) :   1.1221
B( 58-C , 59-C ) :   1.6821 B( 58-C , 88-H ) :   0.9294 B( 59-C , 60-C ) :   1.0340
B( 59-C , 68-C ) :   0.9407 B( 60-C , 61-C ) :   1.6515 B( 60-C , 66-C ) :   1.0132
B( 61-C , 62-C ) :   1.1246 B( 61-C , 64-C ) :   1.1716 B( 62-C , 63-N ) :   2.9938
B( 64-C , 65-N ) :   2.9967 B( 66-C , 67-C ) :   1.2743 B( 66-C , 73-C ) :   1.4152
B( 67-C , 68-C ) :   0.9240 B( 67-C , 70-C ) :   1.4207 B( 68-C , 69-O ) :   2.2659
B( 70-C , 71-C ) :   1.2528 B( 70-C , 89-H ) :   1.0173 B( 71-C , 72-C ) :   1.3046
B( 71-C , 76-C ) :   1.1658 B( 72-C , 73-C ) :   1.3276 B( 72-C , 74-S ) :   1.0870
B( 73-C , 90-H ) :   0.9838 B( 74-S , 75-C ) :   1.0887 B( 75-C , 76-C ) :   1.6152
B( 75-C , 77-Br) :   1.0199 B( 76-C , 91-H ) :   1.0005

-----------------------------------------------------------------------------
         ABSORPTION SPECTRUM VIA TRANSITION ELECTRIC DIPOLE MOMENTS
-----------------------------------------------------------------------------
State   Energy  Wavelength   fosc         T2         TX        TY        TZ
        (cm-1)    (nm)                  (au**2)     (au)      (au)      (au)
-----------------------------------------------------------------------------
   0   14219.2    703.3   0.663538492  15.36264   3.76819  -1.01601   0.36209
   1   15257.3    655.4   0.150948738   3.25708   1.77438  -0.09680   0.31508
   2   20349.8    491.4   1.733354723  28.04166  -4.99019   1.62042  -0.71689
   3   21949.0    455.6   0.530130131   7.95138   2.69817   0.56019   0.59786
   4   23474.9    426.0   0.004110630   0.05765  -0.02939   0.23542  -0.03692
   5   24697.8    404.9   0.032267190   0.43011   0.17715   0.19335   0.60112
   6   25520.6    391.8   0.021327869   0.27513  -0.46524  -0.02697   0.24072
   7   26174.0    382.1   0.101504993   1.27671   0.73054  -0.53060  -0.67933
   8   27269.8    366.7   0.399400709   4.82173   2.07570  -0.05937   0.71392
   9   27923.1    358.1   0.370805174   4.37178  -1.59629   0.97049   0.93904
  10   28292.1    353.5   0.046936012   0.54616  -0.25051   0.47848   0.50444
  11   29001.6    344.8   0.008362733   0.09493  -0.18184  -0.22872  -0.09774
  12   29090.4    343.8   0.007603174   0.08604  -0.02259   0.08094   0.28104
  13   29380.3    340.4   0.123460608   1.38340   0.01084  -0.65298  -0.97821
  14   29586.1    338.0   0.052198010   0.58082  -0.26901   0.36003   0.61549
  15   30075.7    332.5   0.059453980   0.65079   0.70554   0.38066   0.08996
  16   30185.6    331.3   0.355456037   3.87669   0.92120  -1.19076  -1.26893
  17   30512.7    327.7   0.408049437   4.40259  -1.06959  -1.33504  -1.21500
  18   30686.2    325.9   0.002112895   0.02267   0.02863   0.10539  -0.10364
  19   30820.6    324.5   0.076025104   0.81207  -0.15600  -0.67277  -0.57889
  20   31042.4    322.1   0.106703041   1.13161   0.86777  -0.28243   0.54665
  21   31378.8    318.7   0.175345938   1.83965  -0.23061   1.17271   0.64126
  22   31806.9    314.4   0.235795969   2.44057  -1.55769  -0.11900   0.00036
  23   32162.2    310.9   0.259754734   2.65885   1.04669   0.41844   1.17822
  24   32511.0    307.6   0.361523577   3.66085   0.25700  -1.20375  -1.46485
  25   32530.1    307.4   0.309863331   3.13589   1.27164  -0.82025  -0.91979
  26   33163.6    301.5   0.224217528   2.22579   1.36776  -0.57551   0.15435
  27   33217.4    301.0   0.119358622   1.18294  -0.59624  -0.63492  -0.65139
  28   33629.8    297.4   0.039468795   0.38637   0.44875  -0.08511  -0.42161
  29   34041.6    293.8   0.002209630   0.02137  -0.13480  -0.03982  -0.04015
  30   34118.8    293.1   0.059617260   0.57525   0.74532   0.13875   0.02231
  31   34295.8    291.6   0.008622031   0.08276   0.23345   0.08228   0.14662
  32   34428.7    290.5   0.000203104   0.00194   0.03891   0.01937  -0.00727
  33   34561.8    289.3   0.251158766   2.39237  -1.33571   0.26352   0.73403
  34   34705.1    288.1   0.259096975   2.45779  -0.62437  -1.14159  -0.87449
  35   34925.4    286.3   0.339132286   3.19671   0.41612   1.24779   1.21102
  36   35259.8    283.6   0.022928285   0.21408  -0.12868  -0.14319  -0.42073
  37   35558.7    281.2   0.071340488   0.66049   0.49921  -0.56607  -0.30140
  38   35833.3    279.1   0.053008508   0.48701   0.27614  -0.40129  -0.49972
  39   36121.3    276.8   0.086036699   0.78414   0.68690  -0.40344  -0.38672
  40   36414.5    274.6   0.063836611   0.57713   0.54282   0.32967   0.41689
  41   36518.6    273.8   0.007852997   0.07079  -0.18436  -0.17814   0.07122
  42   36654.3    272.8   0.024426571   0.21939  -0.09884  -0.13230  -0.43831
  43   36783.4    271.9   0.024949342   0.22330  -0.16152   0.35588   0.26563
  44   37247.6    268.5   0.054178577   0.47886   0.49457   0.15990   0.45683
  45   37459.2    267.0   0.048788702   0.42878   0.59904   0.17656  -0.19687
  46   37808.7    264.5   0.013517074   0.11770  -0.26002   0.15665   0.15984
  47   38097.1    262.5   0.012622314   0.10907  -0.26040   0.18008  -0.09401
  48   38269.0    261.3   0.014498908   0.12473  -0.33127   0.12175   0.01276
  49   38593.8    259.1   0.127291653   1.08582   0.88966  -0.51763  -0.16244
  50   38707.1    258.4   0.062948196   0.53539   0.57786   0.44548   0.05489
  51   39014.9    256.3   0.014027256   0.11836   0.29808   0.14221   0.09638
  52   39233.4    254.9   0.093054485   0.78083  -0.33072  -0.73737  -0.35742
  53   39501.6    253.2   0.042747898   0.35627  -0.55727   0.17403  -0.12421
  54   39811.4    251.2   0.027518458   0.22756   0.26524  -0.32492   0.22723
  55   40050.0    249.7   0.028095460   0.23095  -0.27251  -0.38459   0.09366
  56   40132.3    249.2   0.110770287   0.90867   0.78876  -0.48861  -0.21861
  57   40183.0    248.9   0.066928736   0.54833   0.46112   0.57739   0.04820

FINAL SINGLE POINT ENERGY    -10449.036666315331

DIPOLE MOMENT
-------------
                                X             Y             Z
Electronic contribution:    -14.24707      70.31903      74.77285
Nuclear contribution   :     12.10644     -70.08420     -71.91757
                        -----------------------------------------
Total Dipole Moment    :     -2.14063       0.23483       2.85528
                        -----------------------------------------
Magnitude (a.u.)       :      3.57632
Magnitude (Debye)      :      9.09029

Rotational constants in cm-1:     0.001282     0.000105     0.000098
Rotational constants in MHz :    38.424202     3.149172     2.936774

                             ****ORCA TERMINATED NORMALLY****
TOTAL RUN TIME: 0 days 0 hours 9 minutes 33 seconds 838 msec
