                         Program Version 4.2.0 -  RELEASE  -
|  1> # ORCA input file
|  2> # SCF done       -195.973926307773          0.000879043167
|  3> ! CAM-B3LYP def2-SVP def2/J RIJCOSX Grid4 TightSCF
|  4> %maxcore 5000
|  5> %tddft
|  6>     Mode sTDDFT
|  7>     Ethresh 5.0
|  8>     maxcore 5000
|  9> end
| 10>
| 11> %pal
| 12>   nprocs 6
| 13>   end
| 14> * xyz 0 1
| 15>    C       -1.38819         1.47138         5.63133
| 16>    C       -0.40262         0.90666         4.86502
| 17>    C        0.74889         0.28388         5.39287
| 18>    N        1.70419        -0.23674         5.75831
| 19>    C       -0.37339         0.86791         3.45464
| 20>    N       -0.26937         0.80008         2.31304
| 21>    C       -1.39155         1.52863         7.08995
| 22>    C       -2.54797         2.22820         7.51631
| 23>    C       -2.83946         2.45049         8.84034
| 24>    C       -1.94595         1.95452         9.79493
| 25>    C       -0.79307         1.25545         9.36245
| 26>    C       -0.49868         1.03394         8.02234
| 27>    S        0.17405         0.72728        10.70480
| 28>    C       -0.96767         1.43973        11.81376
| 29>    C       -2.01931         2.04502        11.21136
| 30>   Br       -0.66247         1.32067        13.65972
| 31>    C       -3.32499         2.63512         6.33684
| 32>    O       -4.36971         3.26484         6.34277
| 33>    C       -2.59722         2.13135         5.16718
| 34>    C       -3.01550         2.23282         3.86596
| 35>    C       -4.16751         2.82803         3.32627
| 36>    C       -4.44642         2.78086         1.95453
| 37>    C       -5.63230         3.41333         1.63317
| 38>    C       -6.26723         3.96322         2.77110
| 39>    S       -5.41826         3.69173         4.22012
| 40>    C       -7.47303         4.57385         2.34314
| 41>    C       -7.60430         4.41211         0.95381
| 42>    C       -6.45009         3.68049         0.45822
| 43>    C       -6.19690         3.31676        -0.83121
| 44>    C       -5.03999         2.59706        -1.19937
| 45>    N       -4.10416         2.01048        -1.50566
| 46>    C       -7.08316         3.63527        -1.88202
| 47>    N       -7.80958         3.89578        -2.73000
| 48>    C       -8.78215         4.97098         0.45214
| 49>    C       -9.54074         5.55804         1.44426
| 50>    S       -8.78504         5.42085         3.02642
| 51>    C      -10.81420         6.20559         1.31750
| 52>    C      -11.58734         6.16386         0.14363
| 53>    N      -12.76766         6.72640         0.05987
| 54>    C      -13.23651         7.35950         1.13956
| 55>    N      -12.57685         7.48703         2.29502
| 56>    C      -11.39762         6.92343         2.37557
| 57>    C      -14.54956         7.92579         1.05004
| 58>    C      -15.23211         8.62635         2.02433
| 59>    C      -16.50521         8.99099         1.58865
| 60>    C      -16.77482         8.55297         0.27602
| 61>    S      -15.46610         7.70801        -0.41769
| 62>    C      -18.09734         8.94123        -0.06439
| 63>    C      -18.65590         9.62755         1.03147
| 64>    C      -17.67700         9.67692         2.10544
| 65>    C      -17.85518        10.22148         3.34303
| 66>    C      -16.84522        10.21341         4.32847
| 67>    N      -16.02585        10.21812         5.13021
| 68>    C      -19.07568        10.82912         3.70708
| 69>    N      -20.07316        11.32099         3.98668
| 70>    C      -19.97340        10.01023         0.81689
| 71>    C      -20.43652         9.61637        -0.43024
| 72>    S      -19.18885         8.79445        -1.35978
| 73>    C      -21.70846         9.82128        -1.01014
| 74>    C      -22.88726        10.12359        -0.40073
| 75>    C      -23.33685        10.09711         0.97670
| 76>    C      -22.91173         9.25035         1.96727
| 77>    C      -23.49734         9.18542         3.24972
| 78>    N      -23.94191         9.09022         4.30315
| 79>    C      -21.91217         8.27307         1.79682
| 80>    N      -21.12617         7.44187         1.69858
| 81>    C      -24.52969        10.93428         1.05599
| 82>    C      -24.95019        11.25659        -0.25950
| 83>    C      -23.99048        10.69430        -1.22747
| 84>    O      -24.04392        10.72128        -2.43474
| 85>    C      -26.07993        11.99716        -0.51098
| 86>    C      -26.81970        12.45131         0.58593
| 87>    C      -26.37783        12.14289         1.89581
| 88>    C      -25.24047        11.38644         2.15096
| 89>    S      -27.43082        12.81656         3.10085
| 90>    C      -28.44147        13.48797         1.84843
| 91>    C      -28.01201        13.22538         0.59094
| 92>   Br      -29.96603        14.47246         2.31854
| 93>    H       -3.72923         2.98717         9.12998
| 94>    H        0.39203         0.49467         7.74733
| 95>    H       -2.81453         2.53503        11.74279
| 96>    H       -2.38616         1.77719         3.11099
| 97>    H       -3.79129         2.29390         1.25375
| 98>    H       -9.06874         4.95703        -0.58322
| 99>    H      -11.24636         5.65080        -0.74541
|100>    H      -10.87953         7.04063         3.32025
|101>    H      -14.80199         8.83869         2.98577
|102>    H      -20.56541        10.58208         1.50786
|103>    H      -21.75176         9.79363        -2.09490
|104>    H      -26.38428        12.21921        -1.52169
|105>    H      -24.93541        11.18350         3.16419
|106>    H      -28.51412        13.56263        -0.29735
|107> *
|108>
|109>                          ****END OF INPUT****

CARTESIAN COORDINATES (ANGSTROEM)
---------------------------------
  C     -1.388190    1.471380    5.631330
  C     -0.402620    0.906660    4.865020
  C      0.748890    0.283880    5.392870
  N      1.704190   -0.236740    5.758310
  C     -0.373390    0.867910    3.454640
  N     -0.269370    0.800080    2.313040
  C     -1.391550    1.528630    7.089950
  C     -2.547970    2.228200    7.516310
  C     -2.839460    2.450490    8.840340
  C     -1.945950    1.954520    9.794930
  C     -0.793070    1.255450    9.362450
  C     -0.498680    1.033940    8.022340
  S      0.174050    0.727280   10.704800
  C     -0.967670    1.439730   11.813760
  C     -2.019310    2.045020   11.211360
  Br    -0.662470    1.320670   13.659720
  C     -3.324990    2.635120    6.336840
  O     -4.369710    3.264840    6.342770
  C     -2.597220    2.131350    5.167180
  C     -3.015500    2.232820    3.865960
  C     -4.167510    2.828030    3.326270
  C     -4.446420    2.780860    1.954530
  C     -5.632300    3.413330    1.633170
  C     -6.267230    3.963220    2.771100
  S     -5.418260    3.691730    4.220120
  C     -7.473030    4.573850    2.343140
  C     -7.604300    4.412110    0.953810
  C     -6.450090    3.680490    0.458220
  C     -6.196900    3.316760   -0.831210
  C     -5.039990    2.597060   -1.199370
  N     -4.104160    2.010480   -1.505660
  C     -7.083160    3.635270   -1.882020
  N     -7.809580    3.895780   -2.730000
  C     -8.782150    4.970980    0.452140
  C     -9.540740    5.558040    1.444260
  S     -8.785040    5.420850    3.026420
  C    -10.814200    6.205590    1.317500
  C    -11.587340    6.163860    0.143630
  N    -12.767660    6.726400    0.059870
  C    -13.236510    7.359500    1.139560
  N    -12.576850    7.487030    2.295020
  C    -11.397620    6.923430    2.375570
  C    -14.549560    7.925790    1.050040
  C    -15.232110    8.626350    2.024330
  C    -16.505210    8.990990    1.588650
  C    -16.774820    8.552970    0.276020
  S    -15.466100    7.708010   -0.417690
  C    -18.097340    8.941230   -0.064390
  C    -18.655900    9.627550    1.031470
  C    -17.677000    9.676920    2.105440
  C    -17.855180   10.221480    3.343030
  C    -16.845220   10.213410    4.328470
  N    -16.025850   10.218120    5.130210
  C    -19.075680   10.829120    3.707080
  N    -20.073160   11.320990    3.986680
  C    -19.973400   10.010230    0.816890
  C    -20.436520    9.616370   -0.430240
  S    -19.188850    8.794450   -1.359780
  C    -21.708460    9.821280   -1.010140
  C    -22.887260   10.123590   -0.400730
  C    -23.336850   10.097110    0.976700
  C    -22.911730    9.250350    1.967270
  C    -23.497340    9.185420    3.249720
  N    -23.941910    9.090220    4.303150
  C    -21.912170    8.273070    1.796820
  N    -21.126170    7.441870    1.698580
  C    -24.529690   10.934280    1.055990
  C    -24.950190   11.256590   -0.259500
  C    -23.990480   10.694300   -1.227470
  O    -24.043920   10.721280   -2.434740
  C    -26.079930   11.997160   -0.510980
  C    -26.819700   12.451310    0.585930
  C    -26.377830   12.142890    1.895810
  C    -25.240470   11.386440    2.150960
  S    -27.430820   12.816560    3.100850
  C    -28.441470   13.487970    1.848430
  C    -28.012010   13.225380    0.590940
  Br   -29.966030   14.472460    2.318540
  H     -3.729230    2.987170    9.129980
  H      0.392030    0.494670    7.747330
  H     -2.814530    2.535030   11.742790
  H     -2.386160    1.777190    3.110990
  H     -3.791290    2.293900    1.253750
  H     -9.068740    4.957030   -0.583220
  H    -11.246360    5.650800   -0.745410
  H    -10.879530    7.040630    3.320250
  H    -14.801990    8.838690    2.985770
  H    -20.565410   10.582080    1.507860
  H    -21.751760    9.793630   -2.094900
  H    -26.384280   12.219210   -1.521690
  H    -24.935410   11.183500    3.164190
  H    -28.514120   13.562630   -0.297350

 Total Charge           Charge          ....    0
 Multiplicity           Mult            ....    1
 Number of Electrons    NEL             ....  614
 Basis Dimension        Dim             .... 1222

ORBITAL ENERGIES
----------------

  NO   OCC          E(Eh)            E(eV)
   0   2.0000    -482.890465    -13140.1176
   1   2.0000    -482.886766    -13140.0169
   2   2.0000     -89.003905     -2421.9194
   3   2.0000     -88.998996     -2421.7858
   4   2.0000     -88.997456     -2421.7439
   5   2.0000     -88.995177     -2421.6819
   6   2.0000     -88.981499     -2421.3097
   7   2.0000     -88.977148     -2421.1913
   8   2.0000     -62.568189     -1702.5670
   9   2.0000     -62.564494     -1702.4664
  10   2.0000     -56.402145     -1534.7804
  11   2.0000     -56.399415     -1534.7061
  12   2.0000     -56.399386     -1534.7053
  13   2.0000     -56.398448     -1534.6798
  14   2.0000     -56.395725     -1534.6057
  15   2.0000     -56.395693     -1534.6048
  16   2.0000     -19.232860      -523.3527
  17   2.0000     -19.218971      -522.9748
  18   2.0000     -14.439766      -392.9260
  19   2.0000     -14.437242      -392.8573
  20   2.0000     -14.436553      -392.8386
  21   2.0000     -14.435051      -392.7977
  22   2.0000     -14.434468      -392.7818
  23   2.0000     -14.432140      -392.7185
  24   2.0000     -14.422907      -392.4673
  25   2.0000     -14.420476      -392.4011
  26   2.0000     -14.420279      -392.3957
  27   2.0000     -14.416507      -392.2931
  28   2.0000     -10.380245      -282.4608
  29   2.0000     -10.374456      -282.3033
  30   2.0000     -10.370679      -282.2005
  31   2.0000     -10.370205      -282.1876
  32   2.0000     -10.368500      -282.1412
  33   2.0000     -10.364726      -282.0385
  34   2.0000     -10.362404      -281.9754
  35   2.0000     -10.360350      -281.9194
  36   2.0000     -10.356007      -281.8013
  37   2.0000     -10.349368      -281.6206
  38   2.0000     -10.348788      -281.6048
  39   2.0000     -10.347707      -281.5754
  40   2.0000     -10.347334      -281.5653
  41   2.0000     -10.347089      -281.5586
  42   2.0000     -10.346629      -281.5461
  43   2.0000     -10.344726      -281.4943
  44   2.0000     -10.344301      -281.4827
  45   2.0000     -10.343441      -281.4593
  46   2.0000     -10.341395      -281.4037
  47   2.0000     -10.340018      -281.3662
  48   2.0000     -10.338790      -281.3328
  49   2.0000     -10.336751      -281.2773
  50   2.0000     -10.334813      -281.2246
  51   2.0000     -10.334534      -281.2170
  52   2.0000     -10.334182      -281.2074
  53   2.0000     -10.332168      -281.1526
  54   2.0000     -10.332047      -281.1493
  55   2.0000     -10.331066      -281.1226
  56   2.0000     -10.328030      -281.0400
  57   2.0000     -10.327998      -281.0391
  58   2.0000     -10.325253      -280.9644
  59   2.0000     -10.323165      -280.9076
  60   2.0000     -10.323142      -280.9070
  61   2.0000     -10.322675      -280.8943
  62   2.0000     -10.321872      -280.8724
  63   2.0000     -10.320475      -280.8344
  64   2.0000     -10.320004      -280.8216
  65   2.0000     -10.318872      -280.7908
  66   2.0000     -10.315908      -280.7101
  67   2.0000     -10.315507      -280.6992
  68   2.0000     -10.314790      -280.6797
  69   2.0000     -10.314345      -280.6676
  70   2.0000     -10.313366      -280.6410
  71   2.0000     -10.312255      -280.6107
  72   2.0000     -10.311605      -280.5930
  73   2.0000     -10.310472      -280.5622
  74   2.0000     -10.310064      -280.5511
  75   2.0000     -10.309697      -280.5411
  76   2.0000     -10.309145      -280.5261
  77   2.0000     -10.307973      -280.4942
  78   2.0000     -10.307149      -280.4718
  79   2.0000     -10.306973      -280.4670
  80   2.0000     -10.304239      -280.3926
  81   2.0000     -10.304178      -280.3909
  82   2.0000     -10.302504      -280.3454
  83   2.0000     -10.300337      -280.2864
  84   2.0000     -10.298184      -280.2278
  85   2.0000     -10.295952      -280.1671
  86   2.0000      -8.797635      -239.3958
  87   2.0000      -8.793934      -239.2951
  88   2.0000      -8.098511      -220.3717
  89   2.0000      -8.093597      -220.2380
  90   2.0000      -8.089768      -220.1338
  91   2.0000      -8.089214      -220.1187
  92   2.0000      -8.077530      -219.8008
  93   2.0000      -8.073215      -219.6833
  94   2.0000      -6.633972      -180.5195
  95   2.0000      -6.630262      -180.4186
  96   2.0000      -6.619364      -180.1221
  97   2.0000      -6.619130      -180.1157
  98   2.0000      -6.615651      -180.0210
  99   2.0000      -6.615458      -180.0158
 100   2.0000      -6.067712      -165.1108
 101   2.0000      -6.063525      -164.9969
 102   2.0000      -6.062753      -164.9759
 103   2.0000      -6.060947      -164.9268
 104   2.0000      -6.059184      -164.8788
 105   2.0000      -6.058575      -164.8622
 106   2.0000      -6.058383      -164.8570
 107   2.0000      -6.056155      -164.7964
 108   2.0000      -6.054407      -164.7488
 109   2.0000      -6.054106      -164.7406
 110   2.0000      -6.052337      -164.6925
 111   2.0000      -6.051863      -164.6796
 112   2.0000      -6.047210      -164.5529
 113   2.0000      -6.042929      -164.4365
 114   2.0000      -6.042912      -164.4360
 115   2.0000      -6.038750      -164.3227
 116   2.0000      -6.038601      -164.3187
 117   2.0000      -6.034426      -164.2051
 118   2.0000      -2.749830       -74.8267
 119   2.0000      -2.746118       -74.7257
 120   2.0000      -2.745740       -74.7154
 121   2.0000      -2.745581       -74.7111
 122   2.0000      -2.742035       -74.6146
 123   2.0000      -2.741881       -74.6104
 124   2.0000      -2.733956       -74.3947
 125   2.0000      -2.733951       -74.3946
 126   2.0000      -2.730284       -74.2948
 127   2.0000      -2.730263       -74.2942
 128   2.0000      -1.148407       -31.2497
 129   2.0000      -1.134758       -30.8783
 130   2.0000      -1.110282       -30.2123
 131   2.0000      -1.056206       -28.7408
 132   2.0000      -1.051326       -28.6080
 133   2.0000      -1.030820       -28.0500
 134   2.0000      -1.029959       -28.0266
 135   2.0000      -1.026484       -27.9320
 136   2.0000      -1.025148       -27.8957
 137   2.0000      -1.019925       -27.7536
 138   2.0000      -1.016504       -27.6605
 139   2.0000      -1.016128       -27.6502
 140   2.0000      -1.011081       -27.5129
 141   2.0000      -1.010641       -27.5009
 142   2.0000      -1.005480       -27.3605
 143   2.0000      -1.003851       -27.3162
 144   2.0000      -1.000454       -27.2237
 145   2.0000      -0.997195       -27.1350
 146   2.0000      -0.996740       -27.1227
 147   2.0000      -0.992202       -26.9992
 148   2.0000      -0.972870       -26.4731
 149   2.0000      -0.965365       -26.2689
 150   2.0000      -0.949665       -25.8417
 151   2.0000      -0.945517       -25.7288
 152   2.0000      -0.938669       -25.5425
 153   2.0000      -0.925133       -25.1741
 154   2.0000      -0.915749       -24.9188
 155   2.0000      -0.914852       -24.8944
 156   2.0000      -0.911190       -24.7947
 157   2.0000      -0.900540       -24.5049
 158   2.0000      -0.894937       -24.3525
 159   2.0000      -0.892691       -24.2913
 160   2.0000      -0.888378       -24.1740
 161   2.0000      -0.882326       -24.0093
 162   2.0000      -0.876415       -23.8485
 163   2.0000      -0.868114       -23.6226
 164   2.0000      -0.867556       -23.6074
 165   2.0000      -0.862622       -23.4731
 166   2.0000      -0.858366       -23.3573
 167   2.0000      -0.836419       -22.7601
 168   2.0000      -0.832489       -22.6532
 169   2.0000      -0.829783       -22.5795
 170   2.0000      -0.806393       -21.9431
 171   2.0000      -0.797131       -21.6910
 172   2.0000      -0.789217       -21.4757
 173   2.0000      -0.782519       -21.2934
 174   2.0000      -0.771974       -21.0065
 175   2.0000      -0.768755       -20.9189
 176   2.0000      -0.767232       -20.8774
 177   2.0000      -0.762153       -20.7392
 178   2.0000      -0.750090       -20.4110
 179   2.0000      -0.726273       -19.7629
 180   2.0000      -0.719866       -19.5886
 181   2.0000      -0.712056       -19.3760
 182   2.0000      -0.706667       -19.2294
 183   2.0000      -0.703019       -19.1301
 184   2.0000      -0.701413       -19.0864
 185   2.0000      -0.698344       -19.0029
 186   2.0000      -0.694053       -18.8861
 187   2.0000      -0.691606       -18.8196
 188   2.0000      -0.683892       -18.6096
 189   2.0000      -0.675462       -18.3803
 190   2.0000      -0.673923       -18.3384
 191   2.0000      -0.663208       -18.0468
 192   2.0000      -0.661848       -18.0098
 193   2.0000      -0.654773       -17.8173
 194   2.0000      -0.649134       -17.6638
 195   2.0000      -0.642413       -17.4809
 196   2.0000      -0.635098       -17.2819
 197   2.0000      -0.634661       -17.2700
 198   2.0000      -0.627785       -17.0829
 199   2.0000      -0.626097       -17.0370
 200   2.0000      -0.622082       -16.9277
 201   2.0000      -0.621391       -16.9089
 202   2.0000      -0.618496       -16.8301
 203   2.0000      -0.609314       -16.5803
 204   2.0000      -0.603541       -16.4232
 205   2.0000      -0.599660       -16.3176
 206   2.0000      -0.591612       -16.0986
 207   2.0000      -0.585042       -15.9198
 208   2.0000      -0.583112       -15.8673
 209   2.0000      -0.572167       -15.5695
 210   2.0000      -0.565237       -15.3809
 211   2.0000      -0.561125       -15.2690
 212   2.0000      -0.556925       -15.1547
 213   2.0000      -0.555152       -15.1065
 214   2.0000      -0.550775       -14.9874
 215   2.0000      -0.550587       -14.9822
 216   2.0000      -0.547368       -14.8946
 217   2.0000      -0.547006       -14.8848
 218   2.0000      -0.546779       -14.8786
 219   2.0000      -0.542399       -14.7594
 220   2.0000      -0.541869       -14.7450
 221   2.0000      -0.536048       -14.5866
 222   2.0000      -0.533349       -14.5132
 223   2.0000      -0.530244       -14.4287
 224   2.0000      -0.528653       -14.3854
 225   2.0000      -0.523180       -14.2365
 226   2.0000      -0.519787       -14.1441
 227   2.0000      -0.517654       -14.0861
 228   2.0000      -0.517236       -14.0747
 229   2.0000      -0.513617       -13.9762
 230   2.0000      -0.511698       -13.9240
 231   2.0000      -0.509573       -13.8662
 232   2.0000      -0.508731       -13.8433
 233   2.0000      -0.506482       -13.7821
 234   2.0000      -0.505642       -13.7592
 235   2.0000      -0.504035       -13.7155
 236   2.0000      -0.503137       -13.6910
 237   2.0000      -0.501315       -13.6415
 238   2.0000      -0.500448       -13.6179
 239   2.0000      -0.498584       -13.5672
 240   2.0000      -0.494798       -13.4641
 241   2.0000      -0.488489       -13.2925
 242   2.0000      -0.486470       -13.2375
 243   2.0000      -0.483883       -13.1671
 244   2.0000      -0.480211       -13.0672
 245   2.0000      -0.478353       -13.0166
 246   2.0000      -0.472505       -12.8575
 247   2.0000      -0.469410       -12.7733
 248   2.0000      -0.466717       -12.7000
 249   2.0000      -0.465362       -12.6631
 250   2.0000      -0.464609       -12.6427
 251   2.0000      -0.461010       -12.5447
 252   2.0000      -0.460359       -12.5270
 253   2.0000      -0.458512       -12.4768
 254   2.0000      -0.457772       -12.4566
 255   2.0000      -0.456368       -12.4184
 256   2.0000      -0.454483       -12.3671
 257   2.0000      -0.453404       -12.3378
 258   2.0000      -0.449523       -12.2322
 259   2.0000      -0.449200       -12.2234
 260   2.0000      -0.448935       -12.2161
 261   2.0000      -0.448353       -12.2003
 262   2.0000      -0.447596       -12.1797
 263   2.0000      -0.447416       -12.1748
 264   2.0000      -0.446004       -12.1364
 265   2.0000      -0.444609       -12.0984
 266   2.0000      -0.443264       -12.0618
 267   2.0000      -0.441884       -12.0243
 268   2.0000      -0.441360       -12.0100
 269   2.0000      -0.440781       -11.9943
 270   2.0000      -0.434857       -11.8331
 271   2.0000      -0.433929       -11.8078
 272   2.0000      -0.432193       -11.7606
 273   2.0000      -0.430017       -11.7013
 274   2.0000      -0.429694       -11.6926
 275   2.0000      -0.425827       -11.5873
 276   2.0000      -0.423651       -11.5281
 277   2.0000      -0.420987       -11.4556
 278   2.0000      -0.419150       -11.4056
 279   2.0000      -0.413165       -11.2428
 280   2.0000      -0.413114       -11.2414
 281   2.0000      -0.412677       -11.2295
 282   2.0000      -0.406871       -11.0715
 283   2.0000      -0.406351       -11.0574
 284   2.0000      -0.396779       -10.7969
 285   2.0000      -0.393535       -10.7086
 286   2.0000      -0.391068       -10.6415
 287   2.0000      -0.385701       -10.4955
 288   2.0000      -0.379735       -10.3331
 289   2.0000      -0.376168       -10.2360
 290   2.0000      -0.369125       -10.0444
 291   2.0000      -0.361087        -9.8257
 292   2.0000      -0.359704        -9.7880
 293   2.0000      -0.352393        -9.5891
 294   2.0000      -0.348935        -9.4950
 295   2.0000      -0.346682        -9.4337
 296   2.0000      -0.345839        -9.4107
 297   2.0000      -0.337455        -9.1826
 298   2.0000      -0.332689        -9.0529
 299   2.0000      -0.327387        -8.9086
 300   2.0000      -0.322968        -8.7884
 301   2.0000      -0.319247        -8.6871
 302   2.0000      -0.317485        -8.6392
 303   2.0000      -0.300219        -8.1694
 304   2.0000      -0.296357        -8.0643
 305   2.0000      -0.281984        -7.6732
 306   2.0000      -0.263205        -7.1622
 307   0.0000      -0.120555        -3.2805
 308   0.0000      -0.112531        -3.0621
 309   0.0000      -0.094907        -2.5826
 310   0.0000      -0.090912        -2.4738
 311   0.0000      -0.072127        -1.9627

MULLIKEN ATOMIC CHARGES
-----------------------
   0 C :    0.327204
   1 C :   -0.351702
   2 C :   -0.185517
   3 N :    0.155853
   4 C :   -0.191108
   5 N :    0.152795
   6 C :    0.011650
   7 C :   -0.011941
   8 C :   -0.070473
   9 C :    0.119202
  10 C :   -0.092030
  11 C :   -0.019029
  12 S :    0.191942
  13 C :   -0.123248
  14 C :    0.037157
  15 Br:    0.028899
  16 C :    0.167237
  17 O :   -0.192978
  18 C :   -0.090900
  19 C :   -0.028604
  20 C :   -0.054049
  21 C :   -0.059037
  22 C :    0.045399
  23 C :   -0.069428
  24 S :    0.245868
  25 C :   -0.099709
  26 C :    0.019877
  27 C :    0.306003
  28 C :   -0.293062
  29 C :   -0.192549
  30 N :    0.187455
  31 C :   -0.185068
  32 N :    0.169012
  33 C :   -0.043839
  34 C :   -0.049416
  35 S :    0.189261
  36 C :    0.026208
  37 C :    0.037379
  38 N :   -0.063934
  39 C :   -0.078273
  40 N :   -0.036264
  41 C :    0.014957
  42 C :   -0.035457
  43 C :   -0.035042
  44 C :    0.015562
  45 C :   -0.100593
  46 S :    0.248094
  47 C :   -0.074710
  48 C :    0.000138
  49 C :    0.304159
  50 C :   -0.292966
  51 C :   -0.190494
  52 N :    0.184126
  53 C :   -0.185499
  54 N :    0.170157
  55 C :   -0.006800
  56 C :   -0.109906
  57 S :    0.217855
  58 C :    0.077929
  59 C :   -0.131732
  60 C :    0.269109
  61 C :   -0.329384
  62 C :   -0.173706
  63 N :    0.162376
  64 C :   -0.201995
  65 N :    0.168886
  66 C :   -0.003916
  67 C :    0.006379
  68 C :    0.132945
  69 O :   -0.143808
  70 C :   -0.072506
  71 C :    0.114138
  72 C :   -0.086576
  73 C :   -0.018180
  74 S :    0.189816
  75 C :   -0.126145
  76 C :    0.041627
  77 Br:    0.025652
  78 H :   -0.009479
  79 H :   -0.005180
  80 H :   -0.001384
  81 H :    0.016642
  82 H :    0.029501
  83 H :    0.010265
  84 H :    0.017935
  85 H :    0.019728
  86 H :    0.020826
  87 H :    0.025957
  88 H :    0.022728
  89 H :   -0.008500
  90 H :    0.003383
  91 H :   -0.003153
Sum of atomic charges:   -0.0000000

LOEWDIN ATOMIC CHARGES
----------------------
   0 C :    0.076129
   1 C :   -0.138935
   2 C :   -0.018135
   3 N :   -0.050118
   4 C :   -0.023127
   5 N :   -0.045872
   6 C :   -0.019873
   7 C :   -0.052104
   8 C :    0.023395
   9 C :   -0.032311
  10 C :   -0.143062
  11 C :   -0.007946
  12 S :    0.437092
  13 C :   -0.270445
  14 C :   -0.070348
  15 Br:    0.140654
  16 C :    0.087011
  17 O :   -0.175560
  18 C :   -0.109471
  19 C :    0.056470
  20 C :   -0.183280
  21 C :    0.012516
  22 C :   -0.077459
  23 C :   -0.169148
  24 S :    0.551281
  25 C :   -0.183775
  26 C :   -0.055278
  27 C :    0.077766
  28 C :   -0.098233
  29 C :   -0.020615
  30 N :   -0.020504
  31 C :   -0.015446
  32 N :   -0.031728
  33 C :   -0.029213
  34 C :   -0.152564
  35 S :    0.487709
  36 C :   -0.091171
  37 C :    0.063627
  38 N :   -0.089267
  39 C :    0.012862
  40 N :   -0.070382
  41 C :    0.046776
  42 C :   -0.184946
  43 C :    0.001393
  44 C :   -0.064302
  45 C :   -0.177571
  46 S :    0.521885
  47 C :   -0.161661
  48 C :   -0.062829
  49 C :    0.081499
  50 C :   -0.097626
  51 C :   -0.018413
  52 N :   -0.026423
  53 C :   -0.012473
  54 N :   -0.033815
  55 C :    0.007243
  56 C :   -0.180206
  57 S :    0.502737
  58 C :    0.041790
  59 C :   -0.089135
  60 C :    0.065836
  61 C :   -0.135932
  62 C :   -0.019211
  63 N :   -0.044808
  64 C :   -0.015962
  65 N :   -0.046134
  66 C :   -0.017709
  67 C :   -0.053772
  68 C :    0.083828
  69 O :   -0.142475
  70 C :    0.023581
  71 C :   -0.032870
  72 C :   -0.142174
  73 C :   -0.008892
  74 S :    0.435980
  75 C :   -0.271403
  76 C :   -0.069961
  77 Br:    0.138524
  78 H :    0.041323
  79 H :    0.041735
  80 H :    0.039437
  81 H :    0.053970
  82 H :    0.048538
  83 H :    0.040630
  84 H :    0.031145
  85 H :    0.022035
  86 H :    0.047124
  87 H :    0.042510
  88 H :    0.046288
  89 H :    0.041700
  90 H :    0.043021
  91 H :    0.039032

  Mayer bond orders larger than 0.100000
B(  0-C ,  1-C ) :   1.6300 B(  0-C ,  6-C ) :   1.0002 B(  0-C , 18-C ) :   1.0711
B(  1-C ,  2-C ) :   1.1451 B(  1-C ,  4-C ) :   1.1429 B(  2-C ,  3-N ) :   2.9687
B(  4-C ,  5-N ) :   2.9605 B(  6-C ,  7-C ) :   1.2724 B(  6-C , 11-C ) :   1.4153
B(  7-C ,  8-C ) :   1.4179 B(  7-C , 16-C ) :   0.9667 B(  8-C ,  9-C ) :   1.2461
B(  8-C , 78-H ) :   1.0169 B(  9-C , 10-C ) :   1.3032 B(  9-C , 14-C ) :   1.1632
B( 10-C , 11-C ) :   1.3278 B( 10-C , 12-S ) :   1.0900 B( 11-C , 79-H ) :   0.9789
B( 12-S , 13-C ) :   1.0872 B( 13-C , 14-C ) :   1.6177 B( 13-C , 15-Br) :   1.0221
B( 14-C , 80-H ) :   1.0000 B( 16-C , 17-O ) :   2.1045 B( 16-C , 18-C ) :   0.9829
B( 18-C , 19-C ) :   1.5014 B( 19-C , 20-C ) :   1.2600 B( 19-C , 81-H ) :   0.9397
B( 20-C , 21-C ) :   1.3324 B( 20-C , 24-S ) :   1.0732 B( 21-C , 22-C ) :   1.3279
B( 21-C , 82-H ) :   1.0094 B( 22-C , 23-C ) :   1.3610 B( 22-C , 27-C ) :   0.9846
B( 23-C , 24-S ) :   1.1276 B( 23-C , 25-C ) :   1.1935 B( 25-C , 26-C ) :   1.4411
B( 25-C , 35-S ) :   1.1211 B( 26-C , 27-C ) :   1.0005 B( 26-C , 33-C ) :   1.2820
B( 27-C , 28-C ) :   1.7158 B( 28-C , 29-C ) :   1.1339 B( 28-C , 31-C ) :   1.1327
B( 29-C , 30-N ) :   2.9953 B( 31-C , 32-N ) :   2.9857 B( 33-C , 34-C ) :   1.4897
B( 33-C , 83-H ) :   0.9898 B( 34-C , 35-S ) :   1.1162 B( 34-C , 36-C ) :   1.0756
B( 36-C , 37-C ) :   1.3214 B( 36-C , 41-C ) :   1.2967 B( 37-C , 38-N ) :   1.5810
B( 37-C , 84-H ) :   0.9836 B( 38-N , 39-C ) :   1.5705 B( 39-C , 40-N ) :   1.5755
B( 39-C , 42-C ) :   1.0319 B( 40-N , 41-C ) :   1.5911 B( 41-C , 85-H ) :   0.9813
B( 42-C , 43-C ) :   1.4739 B( 42-C , 46-S ) :   1.1153 B( 43-C , 44-C ) :   1.2687
B( 43-C , 86-H ) :   1.0058 B( 44-C , 45-C ) :   1.4279 B( 44-C , 49-C ) :   0.9957
B( 45-C , 46-S ) :   1.1315 B( 45-C , 47-C ) :   1.1939 B( 47-C , 48-C ) :   1.4184
B( 47-C , 57-S ) :   1.1547 B( 48-C , 49-C ) :   0.9978 B( 48-C , 55-C ) :   1.3563
B( 49-C , 50-C ) :   1.7203 B( 50-C , 51-C ) :   1.1317 B( 50-C , 53-C ) :   1.1364
B( 51-C , 52-N ) :   3.0027 B( 53-C , 54-N ) :   2.9816 B( 55-C , 56-C ) :   1.4010
B( 55-C , 87-H ) :   0.9797 B( 56-C , 57-S ) :   1.0939 B( 56-C , 58-C ) :   1.1263
B( 58-C , 59-C ) :   1.6809 B( 58-C , 88-H ) :   0.9292 B( 59-C , 60-C ) :   1.0324
B( 59-C , 68-C ) :   0.9422 B( 60-C , 61-C ) :   1.6507 B( 60-C , 66-C ) :   1.0122
B( 61-C , 62-C ) :   1.1255 B( 61-C , 64-C ) :   1.1721 B( 62-C , 63-N ) :   2.9947
B( 64-C , 65-N ) :   2.9978 B( 66-C , 67-C ) :   1.2746 B( 66-C , 73-C ) :   1.4133
B( 67-C , 68-C ) :   0.9219 B( 67-C , 70-C ) :   1.4237 B( 68-C , 69-O ) :   2.2638
B( 70-C , 71-C ) :   1.2515 B( 70-C , 89-H ) :   1.0174 B( 71-C , 72-C ) :   1.3040
B( 71-C , 76-C ) :   1.1636 B( 72-C , 73-C ) :   1.3286 B( 72-C , 74-S ) :   1.0862
B( 73-C , 90-H ) :   0.9843 B( 74-S , 75-C ) :   1.0880 B( 75-C , 76-C ) :   1.6174
B( 75-C , 77-Br) :   1.0204 B( 76-C , 91-H ) :   1.0007

-----------------------------------------------------------------------------
         ABSORPTION SPECTRUM VIA TRANSITION ELECTRIC DIPOLE MOMENTS
-----------------------------------------------------------------------------
State   Energy  Wavelength   fosc         T2         TX        TY        TZ
        (cm-1)    (nm)                  (au**2)     (au)      (au)      (au)
-----------------------------------------------------------------------------
   0   14512.9    689.0   0.697475522  15.82162   3.58113  -1.43053   0.97504
   1   15222.3    656.9   0.022636742   0.48957   0.60050   0.04117  -0.35676
   2   20533.1    487.0   1.706211770  27.35612   4.92580  -1.57154   0.78924
   3   22020.2    454.1   0.587581170   8.78462  -1.67207   1.37147  -2.02679
   4   23601.9    423.7   0.040546867   0.56557   0.42274  -0.23129   0.57738
   5   25092.1    398.5   0.019123302   0.25090   0.09478  -0.43790  -0.22396
   6   25816.4    387.3   0.017313592   0.22078  -0.13070   0.35867  -0.27396
   7   26120.8    382.8   0.083598592   1.05363   0.63932  -0.41981  -0.68459
   8   27386.9    365.1   0.329534361   3.96126  -1.31110   0.69249  -1.32768
   9   28044.6    356.6   0.516684111   6.06530   2.19093  -1.10538  -0.20795
  10   28522.7    350.6   0.047096237   0.54359   0.31588  -0.50300  -0.43681
  11   28894.4    346.1   0.003666758   0.04178   0.08881   0.07846  -0.16653
  12   29064.8    344.1   0.069244149   0.78432   0.12370   0.06000  -0.87488
  13   29352.9    340.7   0.081313720   0.91199   0.51049  -0.50838  -0.62685
  14   29697.9    336.7   0.038868707   0.43087  -0.29105   0.43935   0.39133
  15   29979.0    333.6   0.054961491   0.60356   0.73832  -0.13464   0.20077
  16   30225.5    330.8   0.511031014   5.56608  -0.97390   1.23184   1.76073
  17   30648.2    326.3   0.268771255   2.88704   0.79258  -0.47969   1.42434
  18   30747.2    325.2   0.227853392   2.43964  -0.07640   0.39644   1.50885
  19   31091.6    321.6   0.027263656   0.28868   0.23383  -0.14439  -0.46168
  20   31164.5    320.9   0.187420980   1.97986  -0.35454   0.26708   1.33523
  21   31450.2    318.0   0.057817910   0.60522  -0.76630   0.02492   0.13183
  22   31701.7    315.4   0.087485914   0.90851  -0.34591   0.02527  -0.88782
  23   32263.1    310.0   0.488524658   4.98489  -1.87030   0.96035   0.75138
  24   32408.5    308.6   0.455274923   4.62477   0.50161  -0.08716   2.08939
  25   32667.9    306.1   0.295575352   2.97868   1.36023  -1.00136  -0.35459
  26   33051.9    302.6   0.061419437   0.61177   0.75460  -0.14916  -0.14175
  27   33222.2    301.0   0.006101954   0.06047   0.08995  -0.15702   0.16649
  28   33352.3    299.8   0.090038818   0.88875  -0.48194   0.49329  -0.64277
  29   33573.3    297.9   0.093876725   0.92053   0.53800  -0.32355   0.72554
  30   33684.4    296.9   0.002901974   0.02836   0.05342  -0.09557  -0.12796
  31   34521.2    289.7   0.181131409   1.72736  -0.00563  -0.63008  -1.15340
  32   34694.0    288.2   0.046457322   0.44083   0.36796  -0.38277  -0.39866
  33   34747.3    287.8   0.203353464   1.92667   1.07132  -0.73277   0.49193
  34   34898.7    286.5   0.463691516   4.37417  -0.06471  -0.23685  -2.07699
  35   35125.5    284.7   0.011538609   0.10814  -0.22647   0.21816   0.09624
  36   35174.9    284.3   0.023865176   0.22336  -0.02022   0.16113   0.44383
  37   35371.9    282.7   0.004000976   0.03724   0.12257   0.08037   0.12552
  38   35703.6    280.1   0.041085122   0.37883  -0.35890   0.30192   0.39858
  39   35776.9    279.5   0.019674992   0.18105   0.11521  -0.05478   0.40592
  40   35869.0    278.8   0.065379459   0.60006  -0.71525   0.29304  -0.05103
  41   36510.1    273.9   0.023792023   0.21453   0.17424   0.10684   0.41564
  42   36934.9    270.7   0.052732956   0.47003   0.22939  -0.06301   0.64299
  43   37519.5    266.5   0.034537887   0.30305   0.30500  -0.28069   0.36226
  44   37811.0    264.5   0.050751380   0.44188  -0.54169   0.38158  -0.05344
  45   37892.3    263.9   0.014201565   0.12338  -0.33757  -0.01545  -0.09589
  46   37954.1    263.5   0.027679302   0.24009   0.15106  -0.21033  -0.41597
  47   38076.2    262.6   0.005252104   0.04541  -0.00887   0.11328   0.18028
  48   38232.3    261.6   0.020607096   0.17744   0.16810  -0.35032   0.16267
  49   38626.5    258.9   0.017249976   0.14702  -0.21324   0.05714  -0.31350
  50   38981.5    256.5   0.177438534   1.49853   1.01394  -0.66096   0.18329
  51   39216.0    255.0   0.041644912   0.34960   0.24707  -0.14575  -0.51702
  52   39479.0    253.3   0.017301457   0.14428  -0.17263   0.04937  -0.33472
  53   39588.2    252.6   0.046361797   0.38554   0.11294  -0.06687   0.60689
  54   39885.5    250.7   0.189819246   1.56676  -0.34708   0.02994   1.20225
  55   39958.5    250.3   0.025617237   0.21106  -0.22149   0.36373   0.17233
  56   39975.3    250.2   0.028518847   0.23486   0.26479  -0.07836  -0.39826
  57   40141.3    249.1   0.075989478   0.62321   0.72342  -0.31234  -0.04818

FINAL SINGLE POINT ENERGY    -10449.044430035643

DIPOLE MOMENT
-------------
                                X             Y             Z
Electronic contribution:    -45.89853      24.21685      94.39869
Nuclear contribution   :     44.86298     -22.64858     -93.70041
                        -----------------------------------------
Total Dipole Moment    :     -1.03555       1.56827       0.69828
                        -----------------------------------------
Magnitude (a.u.)       :      2.00485
Magnitude (Debye)      :      5.09592

Rotational constants in cm-1:     0.001186     0.000108     0.000100
Rotational constants in MHz :    35.553208     3.234426     2.986395

                             ****ORCA TERMINATED NORMALLY****
TOTAL RUN TIME: 0 days 0 hours 9 minutes 46 seconds 57 msec
