                         Program Version 4.2.0 -  RELEASE  -
|  1> # ORCA input file
|  2> # SCF done       -199.339974454776          0.000415228265
|  3> ! CAM-B3LYP def2-SVP def2/J RIJCOSX Grid4 TightSCF
|  4> %maxcore 5000
|  5> %tddft
|  6>     Mode sTDDFT
|  7>     Ethresh 5.0
|  8>     maxcore 5000
|  9> end
| 10>
| 11> %pal
| 12>   nprocs 6
| 13>   end
| 14> * xyz 0 1
| 15>    C        2.69873         1.24798         0.64687
| 16>    C        3.75055         1.50860         1.47988
| 17>    F        4.42397         2.66097         1.37381
| 18>    C        4.14027         0.57162         2.45815
| 19>    F        5.17506         0.85338         3.26062
| 20>    C        3.47260        -0.61379         2.58955
| 21>    C        2.38565        -0.91192         1.74515
| 22>    C        1.98997         0.03468         0.75611
| 23>    C        0.90267        -0.24274        -0.10417
| 24>    C        0.23313        -1.43187         0.01803
| 25>    C        0.63873        -2.37152         1.00643
| 26>    C        1.68118        -2.13132         1.85423
| 27>    C       -0.22295        -3.56327         0.92304
| 28>    O       -0.15775        -4.55035         1.63169
| 29>    C       -1.15952        -3.31439        -0.18305
| 30>    C       -0.89984        -1.98973        -0.71807
| 31>    C       -1.58217        -1.34593        -1.71749
| 32>    C       -2.68971        -1.85645        -2.42734
| 33>    N       -3.59400        -2.19367        -3.04988
| 34>    C       -1.26967        -0.04823        -2.17673
| 35>    N       -1.06844         1.00094        -2.59638
| 36>    C       -2.09422        -4.19921        -0.65500
| 37>    C       -2.41607        -5.50057        -0.23561
| 38>    C       -3.38927        -6.25566        -0.90195
| 39>    C       -3.55231        -7.50909        -0.35007
| 40>    C       -2.71280        -7.73930         0.76045
| 41>    S       -1.70524        -6.38065         1.10913
| 42>    C       -2.87037        -9.00083         1.31679
| 43>    C       -3.82288        -9.75403         0.64222
| 44>    S       -4.54209        -8.88929        -0.70332
| 45>    C       -4.21769       -11.08510         0.94030
| 46>    C       -5.17882       -11.75436         0.14759
| 47>    C       -5.58679       -13.10860         0.40756
| 48>    N       -6.48624       -13.69142        -0.39296
| 49>    C       -6.99708       -13.02966        -1.40067
| 50>    C       -6.60080       -11.67473        -1.65153
| 51>    N       -5.71629       -11.09124        -0.88230
| 52>    C       -7.15835       -10.95550        -2.73834
| 53>    N       -7.62593       -10.40513        -3.62672
| 54>    C       -7.93884       -13.67024        -2.24445
| 55>    N       -8.69766       -14.16144        -2.94724
| 56>    C       -5.06850       -13.86607         1.48276
| 57>    C       -4.11339       -13.19914         2.28515
| 58>    C       -3.69500       -11.83865         2.01803
| 59>    N       -2.78648       -11.42679         2.90356
| 60>    S       -2.48852       -12.60145         3.95090
| 61>    N       -3.48560       -13.70163         3.34956
| 62>    C       -5.49787       -15.20067         1.70833
| 63>    C       -5.07044       -16.04966         2.72023
| 64>    C       -5.69090       -17.28812         2.64678
| 65>    C       -6.60499       -17.40443         1.58214
| 66>    S       -6.68392       -15.94605         0.65370
| 67>    C       -7.24253       -18.63457         1.52491
| 68>    C       -6.82468       -19.48776         2.53752
| 69>    S       -5.60273       -18.74639         3.55940
| 70>    C       -7.18433       -20.83012         2.78424
| 71>    C       -8.26526       -21.53528         2.34584
| 72>    C       -8.19780       -23.02487         2.35783
| 73>    O       -7.37120       -23.70481         2.91886
| 74>    C       -9.31179       -23.46963         1.49741
| 75>    C       -9.61977       -24.73115         1.07661
| 76>    C      -10.72619       -24.91726         0.21780
| 77>    C      -11.49030       -23.78666        -0.19404
| 78>    C      -12.58618       -23.97848        -1.05919
| 79>    C      -12.91057       -25.23367        -1.49186
| 80>    C      -12.15576       -26.35137        -1.08186
| 81>    C      -11.08624       -26.19796        -0.24485
| 82>    F      -12.49614       -27.56954        -1.52230
| 83>    F      -13.95238       -25.41443        -2.31296
| 84>    C      -11.15256       -22.49282         0.26536
| 85>    C      -10.08280       -22.33813         1.10558
| 86>    C       -9.52726       -21.15135         1.75339
| 87>    C      -10.21085       -19.98347         1.97229
| 88>    C       -9.74911       -18.95466         2.81732
| 89>    N       -9.42599       -18.10765         3.52123
| 90>    C      -11.49533       -19.71974         1.45302
| 91>    N      -12.53336       -19.45567         1.04134
| 92>    H        2.41340         1.97624        -0.09618
| 93>    H        3.78331        -1.32058         3.34294
| 94>    H        0.63141         0.49501        -0.84143
| 95>    H        1.96534        -2.86293         2.59522
| 96>    H       -2.68850        -3.87383        -1.50042
| 97>    H       -3.93359        -5.88033        -1.74974
| 98>    H       -2.33202        -9.37794         2.16569
| 99>    H       -4.34678       -15.75509         3.45638
|100>    H       -7.94217       -18.91677         0.75950
|101>    H       -6.46341       -21.41513         3.34830
|102>    H       -9.02675       -25.57555         1.39321
|103>    H      -13.17668       -23.13446        -1.37975
|104>    H      -10.51842       -27.06323         0.05941
|105>    H      -11.74281       -21.65412        -0.06800
|106> *
|107>
|108>                          ****END OF INPUT****

CARTESIAN COORDINATES (ANGSTROEM)
---------------------------------
  C      2.698730    1.247980    0.646870
  C      3.750550    1.508600    1.479880
  F      4.423970    2.660970    1.373810
  C      4.140270    0.571620    2.458150
  F      5.175060    0.853380    3.260620
  C      3.472600   -0.613790    2.589550
  C      2.385650   -0.911920    1.745150
  C      1.989970    0.034680    0.756110
  C      0.902670   -0.242740   -0.104170
  C      0.233130   -1.431870    0.018030
  C      0.638730   -2.371520    1.006430
  C      1.681180   -2.131320    1.854230
  C     -0.222950   -3.563270    0.923040
  O     -0.157750   -4.550350    1.631690
  C     -1.159520   -3.314390   -0.183050
  C     -0.899840   -1.989730   -0.718070
  C     -1.582170   -1.345930   -1.717490
  C     -2.689710   -1.856450   -2.427340
  N     -3.594000   -2.193670   -3.049880
  C     -1.269670   -0.048230   -2.176730
  N     -1.068440    1.000940   -2.596380
  C     -2.094220   -4.199210   -0.655000
  C     -2.416070   -5.500570   -0.235610
  C     -3.389270   -6.255660   -0.901950
  C     -3.552310   -7.509090   -0.350070
  C     -2.712800   -7.739300    0.760450
  S     -1.705240   -6.380650    1.109130
  C     -2.870370   -9.000830    1.316790
  C     -3.822880   -9.754030    0.642220
  S     -4.542090   -8.889290   -0.703320
  C     -4.217690  -11.085100    0.940300
  C     -5.178820  -11.754360    0.147590
  C     -5.586790  -13.108600    0.407560
  N     -6.486240  -13.691420   -0.392960
  C     -6.997080  -13.029660   -1.400670
  C     -6.600800  -11.674730   -1.651530
  N     -5.716290  -11.091240   -0.882300
  C     -7.158350  -10.955500   -2.738340
  N     -7.625930  -10.405130   -3.626720
  C     -7.938840  -13.670240   -2.244450
  N     -8.697660  -14.161440   -2.947240
  C     -5.068500  -13.866070    1.482760
  C     -4.113390  -13.199140    2.285150
  C     -3.695000  -11.838650    2.018030
  N     -2.786480  -11.426790    2.903560
  S     -2.488520  -12.601450    3.950900
  N     -3.485600  -13.701630    3.349560
  C     -5.497870  -15.200670    1.708330
  C     -5.070440  -16.049660    2.720230
  C     -5.690900  -17.288120    2.646780
  C     -6.604990  -17.404430    1.582140
  S     -6.683920  -15.946050    0.653700
  C     -7.242530  -18.634570    1.524910
  C     -6.824680  -19.487760    2.537520
  S     -5.602730  -18.746390    3.559400
  C     -7.184330  -20.830120    2.784240
  C     -8.265260  -21.535280    2.345840
  C     -8.197800  -23.024870    2.357830
  O     -7.371200  -23.704810    2.918860
  C     -9.311790  -23.469630    1.497410
  C     -9.619770  -24.731150    1.076610
  C    -10.726190  -24.917260    0.217800
  C    -11.490300  -23.786660   -0.194040
  C    -12.586180  -23.978480   -1.059190
  C    -12.910570  -25.233670   -1.491860
  C    -12.155760  -26.351370   -1.081860
  C    -11.086240  -26.197960   -0.244850
  F    -12.496140  -27.569540   -1.522300
  F    -13.952380  -25.414430   -2.312960
  C    -11.152560  -22.492820    0.265360
  C    -10.082800  -22.338130    1.105580
  C     -9.527260  -21.151350    1.753390
  C    -10.210850  -19.983470    1.972290
  C     -9.749110  -18.954660    2.817320
  N     -9.425990  -18.107650    3.521230
  C    -11.495330  -19.719740    1.453020
  N    -12.533360  -19.455670    1.041340
  H      2.413400    1.976240   -0.096180
  H      3.783310   -1.320580    3.342940
  H      0.631410    0.495010   -0.841430
  H      1.965340   -2.862930    2.595220
  H     -2.688500   -3.873830   -1.500420
  H     -3.933590   -5.880330   -1.749740
  H     -2.332020   -9.377940    2.165690
  H     -4.346780  -15.755090    3.456380
  H     -7.942170  -18.916770    0.759500
  H     -6.463410  -21.415130    3.348300
  H     -9.026750  -25.575550    1.393210
  H    -13.176680  -23.134460   -1.379750
  H    -10.518420  -27.063230    0.059410
  H    -11.742810  -21.654120   -0.068000

 Total Charge           Charge          ....    0
 Multiplicity           Mult            ....    1
 Number of Electrons    NEL             ....  552
 Basis Dimension        Dim             .... 1168

ORBITAL ENERGIES
----------------

  NO   OCC          E(Eh)            E(eV)
   0   2.0000     -89.064394     -2423.5654
   1   2.0000     -88.975263     -2421.1400
   2   2.0000     -88.970995     -2421.0238
   3   2.0000     -88.968134     -2420.9460
   4   2.0000     -88.968028     -2420.9431
   5   2.0000     -24.800924      -674.8674
   6   2.0000     -24.800240      -674.8488
   7   2.0000     -24.799777      -674.8362
   8   2.0000     -24.799585      -674.8310
   9   2.0000     -19.226161      -523.1704
  10   2.0000     -19.220396      -523.0136
  11   2.0000     -14.481632      -394.0652
  12   2.0000     -14.481181      -394.0530
  13   2.0000     -14.473010      -393.8306
  14   2.0000     -14.472452      -393.8154
  15   2.0000     -14.442556      -393.0019
  16   2.0000     -14.442426      -392.9984
  17   2.0000     -14.420996      -392.4153
  18   2.0000     -14.420615      -392.4049
  19   2.0000     -14.420354      -392.3978
  20   2.0000     -14.417668      -392.3247
  21   2.0000     -10.400522      -283.0126
  22   2.0000     -10.400223      -283.0045
  23   2.0000     -10.384169      -282.5676
  24   2.0000     -10.383636      -282.5531
  25   2.0000     -10.383266      -282.5430
  26   2.0000     -10.383146      -282.5398
  27   2.0000     -10.374683      -282.3095
  28   2.0000     -10.371670      -282.2275
  29   2.0000     -10.365547      -282.0609
  30   2.0000     -10.365213      -282.0518
  31   2.0000     -10.363695      -282.0105
  32   2.0000     -10.363463      -282.0042
  33   2.0000     -10.349393      -281.6213
  34   2.0000     -10.347893      -281.5805
  35   2.0000     -10.346101      -281.5317
  36   2.0000     -10.345533      -281.5163
  37   2.0000     -10.338691      -281.3301
  38   2.0000     -10.337385      -281.2945
  39   2.0000     -10.335498      -281.2432
  40   2.0000     -10.335272      -281.2371
  41   2.0000     -10.332539      -281.1627
  42   2.0000     -10.332335      -281.1571
  43   2.0000     -10.328655      -281.0570
  44   2.0000     -10.328480      -281.0522
  45   2.0000     -10.327970      -281.0384
  46   2.0000     -10.325837      -280.9803
  47   2.0000     -10.323677      -280.9215
  48   2.0000     -10.323020      -280.9037
  49   2.0000     -10.321073      -280.8507
  50   2.0000     -10.320785      -280.8428
  51   2.0000     -10.319383      -280.8047
  52   2.0000     -10.313500      -280.6446
  53   2.0000     -10.313269      -280.6383
  54   2.0000     -10.313103      -280.6338
  55   2.0000     -10.312899      -280.6283
  56   2.0000     -10.311739      -280.5967
  57   2.0000     -10.311470      -280.5894
  58   2.0000     -10.310375      -280.5596
  59   2.0000     -10.309725      -280.5419
  60   2.0000     -10.309167      -280.5267
  61   2.0000     -10.306949      -280.4664
  62   2.0000     -10.306484      -280.4537
  63   2.0000     -10.306078      -280.4426
  64   2.0000     -10.305789      -280.4348
  65   2.0000     -10.305674      -280.4316
  66   2.0000     -10.305195      -280.4186
  67   2.0000     -10.304876      -280.4099
  68   2.0000     -10.303806      -280.3808
  69   2.0000     -10.303699      -280.3779
  70   2.0000     -10.303449      -280.3711
  71   2.0000     -10.302695      -280.3506
  72   2.0000     -10.302526      -280.3460
  73   2.0000     -10.301983      -280.3312
  74   2.0000     -10.298320      -280.2315
  75   2.0000     -10.297347      -280.2050
  76   2.0000     -10.296500      -280.1820
  77   2.0000      -8.155642      -221.9263
  78   2.0000      -8.070761      -219.6166
  79   2.0000      -8.064493      -219.4460
  80   2.0000      -8.061686      -219.3696
  81   2.0000      -8.061505      -219.3647
  82   2.0000      -6.126731      -166.7168
  83   2.0000      -6.118773      -166.5003
  84   2.0000      -6.118551      -166.4942
  85   2.0000      -6.040200      -164.3622
  86   2.0000      -6.036249      -164.2547
  87   2.0000      -6.034306      -164.2018
  88   2.0000      -6.032342      -164.1484
  89   2.0000      -6.031509      -164.1257
  90   2.0000      -6.031143      -164.1157
  91   2.0000      -6.029747      -164.0778
  92   2.0000      -6.026972      -164.0022
  93   2.0000      -6.026696      -163.9947
  94   2.0000      -6.025971      -163.9750
  95   2.0000      -6.023146      -163.8981
  96   2.0000      -6.023075      -163.8962
  97   2.0000      -1.323463       -36.0132
  98   2.0000      -1.323074       -36.0027
  99   2.0000      -1.308579       -35.6083
 100   2.0000      -1.308186       -35.5976
 101   2.0000      -1.161941       -31.6180
 102   2.0000      -1.142143       -31.0793
 103   2.0000      -1.142046       -31.0767
 104   2.0000      -1.136196       -30.9175
 105   2.0000      -1.070022       -29.1168
 106   2.0000      -1.030297       -28.0358
 107   2.0000      -1.027155       -27.9503
 108   2.0000      -1.023935       -27.8627
 109   2.0000      -1.023200       -27.8427
 110   2.0000      -1.020695       -27.7745
 111   2.0000      -1.016213       -27.6526
 112   2.0000      -1.013223       -27.5712
 113   2.0000      -1.007924       -27.4270
 114   2.0000      -1.007674       -27.4202
 115   2.0000      -0.999389       -27.1948
 116   2.0000      -0.997982       -27.1565
 117   2.0000      -0.997069       -27.1316
 118   2.0000      -0.985411       -26.8144
 119   2.0000      -0.984944       -26.8017
 120   2.0000      -0.967423       -26.3249
 121   2.0000      -0.958347       -26.0779
 122   2.0000      -0.935084       -25.4449
 123   2.0000      -0.933750       -25.4086
 124   2.0000      -0.926550       -25.2127
 125   2.0000      -0.915093       -24.9009
 126   2.0000      -0.907517       -24.6948
 127   2.0000      -0.901935       -24.5429
 128   2.0000      -0.895713       -24.3736
 129   2.0000      -0.894774       -24.3480
 130   2.0000      -0.883736       -24.0477
 131   2.0000      -0.880461       -23.9585
 132   2.0000      -0.873551       -23.7705
 133   2.0000      -0.870051       -23.6753
 134   2.0000      -0.854661       -23.2565
 135   2.0000      -0.843712       -22.9586
 136   2.0000      -0.843570       -22.9547
 137   2.0000      -0.834259       -22.7014
 138   2.0000      -0.830691       -22.6042
 139   2.0000      -0.822049       -22.3691
 140   2.0000      -0.815494       -22.1907
 141   2.0000      -0.809855       -22.0373
 142   2.0000      -0.803230       -21.8570
 143   2.0000      -0.777453       -21.1556
 144   2.0000      -0.771939       -21.0055
 145   2.0000      -0.769677       -20.9440
 146   2.0000      -0.760930       -20.7060
 147   2.0000      -0.750473       -20.4214
 148   2.0000      -0.741745       -20.1839
 149   2.0000      -0.731219       -19.8975
 150   2.0000      -0.724089       -19.7035
 151   2.0000      -0.721118       -19.6226
 152   2.0000      -0.719008       -19.5652
 153   2.0000      -0.714032       -19.4298
 154   2.0000      -0.712307       -19.3829
 155   2.0000      -0.698889       -19.0177
 156   2.0000      -0.690155       -18.7801
 157   2.0000      -0.687477       -18.7072
 158   2.0000      -0.678231       -18.4556
 159   2.0000      -0.677686       -18.4408
 160   2.0000      -0.670670       -18.2499
 161   2.0000      -0.667205       -18.1556
 162   2.0000      -0.659754       -17.9528
 163   2.0000      -0.658419       -17.9165
 164   2.0000      -0.653599       -17.7853
 165   2.0000      -0.648988       -17.6599
 166   2.0000      -0.645452       -17.5637
 167   2.0000      -0.645143       -17.5552
 168   2.0000      -0.643631       -17.5141
 169   2.0000      -0.639207       -17.3937
 170   2.0000      -0.632321       -17.2063
 171   2.0000      -0.625594       -17.0233
 172   2.0000      -0.618758       -16.8373
 173   2.0000      -0.615731       -16.7549
 174   2.0000      -0.607765       -16.5381
 175   2.0000      -0.599426       -16.3112
 176   2.0000      -0.596240       -16.2245
 177   2.0000      -0.591864       -16.1054
 178   2.0000      -0.591108       -16.0849
 179   2.0000      -0.589669       -16.0457
 180   2.0000      -0.587841       -15.9960
 181   2.0000      -0.587496       -15.9866
 182   2.0000      -0.585735       -15.9387
 183   2.0000      -0.582046       -15.8383
 184   2.0000      -0.576310       -15.6822
 185   2.0000      -0.575887       -15.6707
 186   2.0000      -0.571712       -15.5571
 187   2.0000      -0.557882       -15.1807
 188   2.0000      -0.557348       -15.1662
 189   2.0000      -0.554718       -15.0947
 190   2.0000      -0.549862       -14.9625
 191   2.0000      -0.549412       -14.9503
 192   2.0000      -0.549040       -14.9401
 193   2.0000      -0.545867       -14.8538
 194   2.0000      -0.545310       -14.8386
 195   2.0000      -0.540941       -14.7197
 196   2.0000      -0.536999       -14.6125
 197   2.0000      -0.535946       -14.5838
 198   2.0000      -0.532771       -14.4974
 199   2.0000      -0.531302       -14.4575
 200   2.0000      -0.529418       -14.4062
 201   2.0000      -0.527939       -14.3659
 202   2.0000      -0.525949       -14.3118
 203   2.0000      -0.520284       -14.1576
 204   2.0000      -0.519350       -14.1322
 205   2.0000      -0.518038       -14.0965
 206   2.0000      -0.512481       -13.9453
 207   2.0000      -0.509349       -13.8601
 208   2.0000      -0.506187       -13.7741
 209   2.0000      -0.504341       -13.7238
 210   2.0000      -0.503999       -13.7145
 211   2.0000      -0.501995       -13.6600
 212   2.0000      -0.499502       -13.5921
 213   2.0000      -0.497665       -13.5422
 214   2.0000      -0.494997       -13.4696
 215   2.0000      -0.493546       -13.4301
 216   2.0000      -0.489605       -13.3228
 217   2.0000      -0.489413       -13.3176
 218   2.0000      -0.486821       -13.2471
 219   2.0000      -0.482164       -13.1203
 220   2.0000      -0.478792       -13.0286
 221   2.0000      -0.473292       -12.8789
 222   2.0000      -0.472858       -12.8671
 223   2.0000      -0.471262       -12.8237
 224   2.0000      -0.468914       -12.7598
 225   2.0000      -0.467508       -12.7215
 226   2.0000      -0.466735       -12.7005
 227   2.0000      -0.465512       -12.6672
 228   2.0000      -0.464975       -12.6526
 229   2.0000      -0.461410       -12.5556
 230   2.0000      -0.456428       -12.4200
 231   2.0000      -0.455412       -12.3924
 232   2.0000      -0.453253       -12.3336
 233   2.0000      -0.452827       -12.3221
 234   2.0000      -0.449938       -12.2434
 235   2.0000      -0.448900       -12.2152
 236   2.0000      -0.447338       -12.1727
 237   2.0000      -0.446891       -12.1605
 238   2.0000      -0.443770       -12.0756
 239   2.0000      -0.439784       -11.9671
 240   2.0000      -0.437737       -11.9114
 241   2.0000      -0.435402       -11.8479
 242   2.0000      -0.433439       -11.7945
 243   2.0000      -0.433092       -11.7850
 244   2.0000      -0.432783       -11.7766
 245   2.0000      -0.431934       -11.7535
 246   2.0000      -0.430693       -11.7197
 247   2.0000      -0.428395       -11.6572
 248   2.0000      -0.425316       -11.5734
 249   2.0000      -0.424391       -11.5483
 250   2.0000      -0.417534       -11.3617
 251   2.0000      -0.413084       -11.2406
 252   2.0000      -0.409874       -11.1532
 253   2.0000      -0.400744       -10.9048
 254   2.0000      -0.398566       -10.8455
 255   2.0000      -0.397803       -10.8248
 256   2.0000      -0.389553       -10.6003
 257   2.0000      -0.387678       -10.5493
 258   2.0000      -0.387335       -10.5399
 259   2.0000      -0.374928       -10.2023
 260   2.0000      -0.372679       -10.1411
 261   2.0000      -0.366414        -9.9706
 262   2.0000      -0.366013        -9.9597
 263   2.0000      -0.359469        -9.7817
 264   2.0000      -0.354943        -9.6585
 265   2.0000      -0.341627        -9.2961
 266   2.0000      -0.339076        -9.2267
 267   2.0000      -0.325204        -8.8493
 268   2.0000      -0.321289        -8.7427
 269   2.0000      -0.320227        -8.7138
 270   2.0000      -0.309979        -8.4349
 271   2.0000      -0.306680        -8.3452
 272   2.0000      -0.303994        -8.2721
 273   2.0000      -0.302229        -8.2241
 274   2.0000      -0.286870        -7.8061
 275   2.0000      -0.252517        -6.8713
 276   0.0000      -0.147254        -4.0070
 277   0.0000      -0.099039        -2.6950
 278   0.0000      -0.096303        -2.6205
 279   0.0000      -0.068729        -1.8702
 280   0.0000      -0.064433        -1.7533

MULLIKEN ATOMIC CHARGES
-----------------------
   0 C :   -0.109232
   1 C :    0.242679
   2 F :   -0.169873
   3 C :    0.239768
   4 F :   -0.171388
   5 C :   -0.107234
   6 C :    0.117449
   7 C :    0.114950
   8 C :   -0.085332
   9 C :    0.048299
  10 C :   -0.001919
  11 C :   -0.083157
  12 C :    0.165815
  13 O :   -0.172028
  14 C :   -0.093259
  15 C :    0.332566
  16 C :   -0.354609
  17 C :   -0.189571
  18 N :    0.147861
  19 C :   -0.183120
  20 N :    0.151855
  21 C :   -0.021552
  22 C :   -0.055534
  23 C :   -0.061308
  24 C :    0.056778
  25 C :    0.019039
  26 S :    0.201996
  27 C :   -0.049362
  28 C :   -0.168204
  29 S :    0.167380
  30 C :    0.192309
  31 C :   -0.055192
  32 C :   -0.058098
  33 N :    0.005105
  34 C :   -0.095913
  35 C :   -0.102967
  36 N :    0.009289
  37 C :   -0.235291
  38 N :    0.257064
  39 C :   -0.236087
  40 N :    0.252086
  41 C :    0.196871
  42 C :   -0.009449
  43 C :   -0.010773
  44 N :   -0.289778
  45 S :    0.569506
  46 N :   -0.290751
  47 C :   -0.174811
  48 C :   -0.043177
  49 C :    0.021149
  50 C :    0.009441
  51 S :    0.175159
  52 C :    0.009610
  53 C :   -0.117652
  54 S :    0.166476
  55 C :    0.083156
  56 C :   -0.133709
  57 C :    0.135755
  58 O :   -0.139724
  59 C :    0.017197
  60 C :   -0.078668
  61 C :    0.108750
  62 C :    0.108290
  63 C :   -0.103656
  64 C :    0.240536
  65 C :    0.237949
  66 C :   -0.100381
  67 F :   -0.170670
  68 F :   -0.169770
  69 C :   -0.078926
  70 C :    0.034282
  71 C :    0.265677
  72 C :   -0.334704
  73 C :   -0.204038
  74 N :    0.176400
  75 C :   -0.175023
  76 N :    0.160623
  77 H :    0.009192
  78 H :   -0.001047
  79 H :   -0.006660
  80 H :   -0.010822
  81 H :    0.010306
  82 H :    0.011383
  83 H :    0.002132
  84 H :    0.004326
  85 H :    0.005439
  86 H :    0.026882
  87 H :   -0.008711
  88 H :    0.007056
  89 H :    0.000071
  90 H :   -0.002773
Sum of atomic charges:   -0.0000000

LOEWDIN ATOMIC CHARGES
----------------------
   0 C :   -0.028914
   1 C :    0.066555
   2 F :   -0.047943
   3 C :    0.067778
   4 F :   -0.048860
   5 C :   -0.033714
   6 C :   -0.008871
   7 C :   -0.006346
   8 C :    0.017986
   9 C :   -0.022040
  10 C :   -0.051998
  11 C :    0.029466
  12 C :    0.083328
  13 O :   -0.162040
  14 C :   -0.105929
  15 C :    0.076056
  16 C :   -0.140511
  17 C :   -0.021798
  18 N :   -0.050916
  19 C :   -0.017441
  20 N :   -0.053147
  21 C :    0.057526
  22 C :   -0.170938
  23 C :   -0.023529
  24 C :   -0.202658
  25 C :   -0.192149
  26 S :    0.488626
  27 C :   -0.043746
  28 C :   -0.147697
  29 S :    0.453425
  30 C :   -0.035894
  31 C :   -0.009494
  32 C :   -0.011090
  33 N :   -0.010812
  34 C :   -0.017462
  35 C :   -0.016821
  36 N :   -0.010433
  37 C :   -0.038671
  38 N :    0.007391
  39 C :   -0.038393
  40 N :    0.006225
  41 C :   -0.031759
  42 C :   -0.035031
  43 C :   -0.033845
  44 N :   -0.273907
  45 S :    0.691143
  46 N :   -0.274470
  47 C :   -0.151828
  48 C :   -0.039401
  49 C :   -0.185430
  50 C :   -0.192307
  51 S :    0.463986
  52 C :   -0.024312
  53 C :   -0.167146
  54 S :    0.445189
  55 C :    0.047415
  56 C :   -0.089920
  57 C :    0.082740
  58 O :   -0.140603
  59 C :   -0.054465
  60 C :    0.031428
  61 C :   -0.009412
  62 C :   -0.005499
  63 C :   -0.029636
  64 C :    0.067443
  65 C :    0.067334
  66 C :   -0.032694
  67 F :   -0.048456
  68 F :   -0.047514
  69 C :    0.014497
  70 C :   -0.020561
  71 C :    0.063533
  72 C :   -0.137780
  73 C :   -0.019733
  74 N :   -0.038155
  75 C :   -0.020756
  76 N :   -0.047737
  77 H :    0.048252
  78 H :    0.044581
  79 H :    0.040137
  80 H :    0.040002
  81 H :    0.051594
  82 H :    0.042548
  83 H :    0.033035
  84 H :    0.034024
  85 H :    0.038256
  86 H :    0.047404
  87 H :    0.040938
  88 H :    0.047762
  89 H :    0.045031
  90 H :    0.039980

  Mayer bond orders larger than 0.100000
B(  0-C ,  1-C ) :   1.4386 B(  0-C ,  5-C ) :   0.1086 B(  0-C ,  7-C ) :   1.1885
B(  0-C , 77-H ) :   1.0071 B(  1-C ,  2-F ) :   1.1366 B(  1-C ,  3-C ) :   1.1917
B(  3-C ,  4-F ) :   1.1342 B(  3-C ,  5-C ) :   1.4415 B(  5-C ,  6-C ) :   1.1924
B(  5-C , 78-H ) :   1.0073 B(  6-C ,  7-C ) :   1.2572 B(  6-C , 11-C ) :   1.1859
B(  7-C ,  8-C ) :   1.2145 B(  8-C ,  9-C ) :   1.4515 B(  8-C , 79-H ) :   0.9895
B(  9-C , 10-C ) :   1.2230 B(  9-C , 15-C ) :   0.9819 B( 10-C , 11-C ) :   1.4694
B( 10-C , 12-C ) :   0.9554 B( 11-C , 80-H ) :   1.0170 B( 12-C , 13-O ) :   2.1477
B( 12-C , 14-C ) :   0.9695 B( 14-C , 15-C ) :   1.0797 B( 14-C , 21-C ) :   1.4938
B( 15-C , 16-C ) :   1.6241 B( 16-C , 17-C ) :   1.1437 B( 16-C , 19-C ) :   1.1476
B( 17-C , 18-N ) :   2.9581 B( 19-C , 20-N ) :   2.9604 B( 21-C , 22-C ) :   1.2689
B( 21-C , 81-H ) :   0.9397 B( 22-C , 23-C ) :   1.3579 B( 22-C , 26-S ) :   1.0841
B( 23-C , 24-C ) :   1.3142 B( 23-C , 82-H ) :   1.0164 B( 24-C , 25-C ) :   1.3236
B( 24-C , 29-S ) :   1.0068 B( 25-C , 26-S ) :   1.0465 B( 25-C , 27-C ) :   1.2565
B( 27-C , 28-C ) :   1.4516 B( 27-C , 83-H ) :   0.9917 B( 28-C , 29-S ) :   1.0929
B( 28-C , 30-C ) :   1.2160 B( 30-C , 31-C ) :   1.2512 B( 30-C , 41-C ) :   0.1226
B( 30-C , 43-C ) :   1.1969 B( 31-C , 32-C ) :   1.1149 B( 31-C , 36-N ) :   1.4011
B( 32-C , 33-N ) :   1.4009 B( 32-C , 41-C ) :   1.2487 B( 33-N , 34-C ) :   1.7016
B( 34-C , 35-C ) :   1.2128 B( 34-C , 39-C ) :   1.1627 B( 35-C , 36-N ) :   1.7050
B( 35-C , 37-C ) :   1.1652 B( 37-C , 38-N ) :   3.0402 B( 39-C , 40-N ) :   3.0392
B( 41-C , 42-C ) :   1.1962 B( 41-C , 47-C ) :   1.2213 B( 42-C , 43-C ) :   1.0991
B( 42-C , 46-N ) :   1.5098 B( 43-C , 44-N ) :   1.5107 B( 44-N , 45-S ) :   1.2843
B( 44-N , 46-N ) :   0.1488 B( 45-S , 46-N ) :   1.2846 B( 47-C , 48-C ) :   1.4521
B( 47-C , 51-S ) :   1.0946 B( 48-C , 49-C ) :   1.2569 B( 48-C , 84-H ) :   0.9892
B( 49-C , 50-C ) :   1.3656 B( 49-C , 54-S ) :   1.0800 B( 50-C , 51-S ) :   1.0193
B( 50-C , 52-C ) :   1.3331 B( 52-C , 53-C ) :   1.4316 B( 52-C , 85-H ) :   0.9914
B( 53-C , 54-S ) :   1.0917 B( 53-C , 55-C ) :   1.1455 B( 55-C , 56-C ) :   1.6596
B( 55-C , 86-H ) :   0.9271 B( 56-C , 57-C ) :   0.9422 B( 56-C , 71-C ) :   1.0423
B( 57-C , 58-O ) :   2.2704 B( 57-C , 59-C ) :   0.9177 B( 59-C , 60-C ) :   1.4735
B( 59-C , 70-C ) :   1.2221 B( 60-C , 61-C ) :   1.1956 B( 60-C , 87-H ) :   1.0157
B( 61-C , 62-C ) :   1.2568 B( 61-C , 66-C ) :   1.1928 B( 62-C , 63-C ) :   1.1917
B( 62-C , 69-C ) :   1.2149 B( 63-C , 64-C ) :   1.4417 B( 63-C , 66-C ) :   0.1082
B( 63-C , 88-H ) :   1.0062 B( 64-C , 65-C ) :   1.1913 B( 64-C , 68-F ) :   1.1357
B( 65-C , 66-C ) :   1.4442 B( 65-C , 67-F ) :   1.1346 B( 66-C , 89-H ) :   1.0062
B( 69-C , 70-C ) :   1.4588 B( 69-C , 90-H ) :   0.9935 B( 70-C , 71-C ) :   0.9943
B( 71-C , 72-C ) :   1.6486 B( 72-C , 73-C ) :   1.1638 B( 72-C , 75-C ) :   1.1321
B( 73-C , 74-N ) :   3.0058 B( 75-C , 76-N ) :   2.9881

-----------------------------------------------------------------------------
         ABSORPTION SPECTRUM VIA TRANSITION ELECTRIC DIPOLE MOMENTS
-----------------------------------------------------------------------------
State   Energy  Wavelength   fosc         T2         TX        TY        TZ
        (cm-1)    (nm)                  (au**2)     (au)      (au)      (au)
-----------------------------------------------------------------------------
   0    8192.3   1220.7   0.866182981  34.80792  -2.22792  -5.41526   0.72063
   1   16434.2    608.5   0.004507395   0.09029  -0.10599  -0.14818  -0.23896
   2   17922.1    558.0   0.008893442   0.16336   0.24342   0.32198  -0.02089
   3   18702.7    534.7   0.017477110   0.30764  -0.17559   0.42411  -0.31135
   4   19280.2    518.7   0.914782831  15.62001  -2.11646  -3.32656   0.27321
   5   20247.7    493.9   0.613516246   9.97531   1.25952   2.89497  -0.08990
   6   23223.0    430.6   0.025986182   0.36838  -0.23896  -0.45581   0.32175
   7   23479.1    425.9   0.002540679   0.03562   0.13050   0.04063  -0.13016
   8   24091.6    415.1   0.003208239   0.04384  -0.13621   0.08475   0.13455
   9   24608.3    406.4   0.107553039   1.43886   0.42116  -0.93573   0.62120
  10   24981.1    400.3   0.046830191   0.61715   0.42500   0.62536   0.21318
  11   25669.0    389.6   0.080538824   1.03293  -0.68034  -0.73425  -0.17595
  12   26405.7    378.7   0.000170857   0.00213   0.01278  -0.04001  -0.01913
  13   26954.0    371.0   0.009295626   0.11354   0.32359  -0.05853   0.07347
  14   27134.8    368.5   0.101065802   1.22618  -0.54280  -0.88711  -0.38023
  15   27460.2    364.2   0.087716443   1.05160  -0.73409  -0.57741  -0.42345
  16   27758.2    360.3   0.125434698   1.48766   0.23968   1.19356  -0.07494
  17   28166.9    355.0   0.137173629   1.60327   0.39594  -1.10169   0.48247
  18   28227.1    354.3   0.010693307   0.12472  -0.28124   0.18120  -0.11307
  19   28355.6    352.7   0.041787790   0.48516  -0.43539   0.00015  -0.54369
  20   28985.8    345.0   0.016543872   0.18790  -0.18813   0.05271   0.38695
  21   29279.6    341.5   0.079756367   0.89676   0.70842  -0.41820   0.46905
  22   30136.3    331.8   0.350797807   3.83216   0.94800   1.50790   0.81221
  23   30799.7    324.7   0.097032334   1.03716  -0.52348  -0.84119   0.23563
  24   30869.7    323.9   0.003618647   0.03859   0.15964   0.10661   0.04171
  25   30914.7    323.5   0.033401618   0.35570  -0.34334  -0.44050  -0.20921
  26   31205.5    320.5   0.146179469   1.54217  -0.80208  -0.53988  -0.77934
  27   31243.6    320.1   0.008135756   0.08573   0.12867   0.24729   0.08954
  28   31347.5    319.0   0.658912322   6.91991   1.72163   0.15270   1.98307
  29   31948.5    313.0   0.035592664   0.36676  -0.39612   0.12829  -0.43977
  30   32356.8    309.1   0.150401389   1.53025  -0.35868  -1.14097   0.31588
  31   33055.3    302.5   0.068517657   0.68240   0.20769  -0.77094   0.21192
  32   33218.9    301.0   0.002403678   0.02382   0.01701  -0.15232   0.01818
  33   33577.0    297.8   0.074894561   0.73432  -0.15992  -0.80436   0.24847
  34   33699.9    296.7   0.057003487   0.55686   0.39056   0.63286   0.06179
  35   33882.3    295.1   0.006643730   0.06455  -0.08407   0.23347  -0.05457
  36   34007.0    294.1   0.068560160   0.66371   0.17457   0.63833   0.47516
  37   34207.4    292.3   0.100584444   0.96802  -0.15760   0.92883   0.28366
  38   34746.2    287.8   0.115484886   1.09419   0.78213  -0.17568   0.67201
  39   34898.3    286.5   0.013469367   0.12706   0.31571  -0.15460   0.05904
  40   35067.2    285.2   0.249345701   2.34087  -1.12952   0.13234  -1.02349
  41   35216.5    284.0   0.068864485   0.64376   0.69801   0.18481   0.34983
  42   35334.7    283.0   0.923857209   8.60754  -1.44335  -1.81392  -1.79832
  43   35453.6    282.1   0.050166644   0.46583   0.50672  -0.12673   0.43933
  44   35791.1    279.4   0.028649641   0.26352   0.38815  -0.31289  -0.12232
  45   35910.8    278.5   0.154751694   1.41868  -0.41063   1.06396  -0.34360
  46   36614.7    273.1   0.119967270   1.07866   0.80333  -0.00462   0.65826
  47   36953.0    270.6   0.013114474   0.11684  -0.13602   0.11381  -0.29221
  48   37322.5    267.9   0.010644185   0.09389   0.18303  -0.09914   0.22485
  49   37376.7    267.5   0.006536572   0.05757  -0.06686   0.16459  -0.16128
  50   37582.2    266.1   0.005445438   0.04770   0.00097   0.16052  -0.14810
  51   37842.2    264.3   0.102777175   0.89412  -0.54784  -0.73390  -0.23532
  52   37990.7    263.2   0.029343506   0.25428   0.13565  -0.25580   0.41285
  53   38349.9    260.8   0.005115331   0.04391   0.13902  -0.07388  -0.13830
  54   38458.8    260.0   0.000723478   0.00619   0.03811  -0.05859   0.03616
  55   38520.4    259.6   0.012638649   0.10802  -0.11958   0.30219  -0.04898
  56   38924.1    256.9   0.004296738   0.03634  -0.02588   0.02064  -0.18774
  57   39021.2    256.3   0.075798332   0.63949   0.64762   0.17580   0.43495
  58   39180.9    255.2   0.168941081   1.41951   0.15005  -1.05903   0.52482
  59   39319.3    254.3   0.011276015   0.09441   0.12799   0.14482  -0.23887
  60   39360.6    254.1   0.006435399   0.05383   0.21154  -0.05401  -0.07848
  61   39738.0    251.6   0.037877212   0.31380   0.01316   0.41599  -0.37494
  62   39877.1    250.8   0.045989806   0.37968   0.55638   0.25956   0.05244

FINAL SINGLE POINT ENERGY     -5225.946208053265

DIPOLE MOMENT
-------------
                                X             Y             Z
Electronic contribution:      0.94825       0.58844      -1.03367
Nuclear contribution   :      2.11433      -2.61958       3.43688
                        -----------------------------------------
Total Dipole Moment    :      3.06258      -2.03114       2.40321
                        -----------------------------------------
Magnitude (a.u.)       :      4.39094
Magnitude (Debye)      :     11.16088

Rotational constants in cm-1:     0.002516     0.000163     0.000155
Rotational constants in MHz :    75.415123     4.895880     4.646888

                             ****ORCA TERMINATED NORMALLY****
TOTAL RUN TIME: 0 days 0 hours 10 minutes 12 seconds 309 msec
