                         Program Version 4.2.0 -  RELEASE  -
|  1> # ORCA input file
|  2> # SCF done       -193.775209196321          0.000193447227
|  3> ! CAM-B3LYP def2-SVP def2/J RIJCOSX Grid4 TightSCF
|  4> %maxcore 5000
|  5> %tddft
|  6>     Mode sTDDFT
|  7>     Ethresh 5.0
|  8>     maxcore 5000
|  9> end
| 10>
| 11> %pal
| 12>   nprocs 6
| 13>   end
| 14> * xyz 0 1
| 15>    C       -0.59491         8.70244        -5.25327
| 16>    C       -0.49805         9.54876        -4.18064
| 17>    C       -1.12703        10.80700        -4.10735
| 18>    N       -1.60397        11.84372        -3.98023
| 19>    C        0.30209         9.27857        -3.05190
| 20>    N        0.97764         9.11271        -2.13748
| 21>    C       -1.18273         9.04629        -6.54000
| 22>    C       -0.60706         8.20608        -7.53799
| 23>    C       -0.94320         8.33320        -8.85487
| 24>    C       -1.89451         9.30923        -9.23149
| 25>    C       -2.49415        10.12828        -8.23097
| 26>    C       -2.12126         9.98258        -6.87502
| 27>    C       -3.45448        11.08302        -8.62224
| 28>    C       -3.80352        11.22942        -9.93700
| 29>    C       -3.21005        10.42553       -10.92160
| 30>    C       -2.27673         9.48634       -10.57604
| 31>    C        0.30611         7.23960        -6.89544
| 32>    O        1.00878         6.40925        -7.42572
| 33>    C        0.11758         7.45156        -5.43350
| 34>    C        0.45571         6.47765        -4.54270
| 35>    C       -0.06354         6.32085        -3.23994
| 36>    C        0.48982         5.54152        -2.21423
| 37>    O        1.61578         4.85644        -2.47010
| 38>    C        2.14398         3.99348        -1.48252
| 39>    C       -0.26060         5.62073        -1.02277
| 40>    O        0.06127         5.03864         0.18034
| 41>    C        0.72276         5.91414         1.08289
| 42>    C       -1.40955         6.40030        -1.16673
| 43>    S       -1.55697         7.06527        -2.75306
| 44>    C       -2.40510         6.71439        -0.22741
| 45>    C       -3.40571         7.65832        -0.49347
| 46>    C       -4.31839         7.85248         0.59279
| 47>    N       -5.29083         8.76094         0.51239
| 48>    C       -5.37112         9.45154        -0.60693
| 49>    C       -6.41607        10.50520        -0.68636
| 50>    O       -7.20738        10.72317         0.20447
| 51>    C       -6.41304        11.29355        -1.93452
| 52>    C       -5.58633        11.07083        -2.96105
| 53>    C       -4.57934         9.99937        -2.96896
| 54>    O       -3.89472         9.75260        -3.94123
| 55>    C       -4.47410         9.23457        -1.70235
| 56>    N       -3.50709         8.34561        -1.62651
| 57>    C       -4.02287         7.02318         1.68645
| 58>    S       -2.60530         6.06199         1.36447
| 59>    C       -4.73910         6.91762         2.88398
| 60>    C       -4.34103         6.11253         3.96657
| 61>    O       -3.20070         5.40376         3.82591
| 62>    C       -2.84752         4.45377         4.81230
| 63>    C       -5.24524         6.18819         5.02397
| 64>    O       -5.12114         5.52186         6.21615
| 65>    C       -4.60893         6.29749         7.29193
| 66>    C       -6.36380         7.00448         4.73405
| 67>    S       -6.24627         7.72640         3.15266
| 68>    C       -7.40821         7.13978         5.66181
| 69>    C       -8.59053         7.82478         5.55614
| 70>    C       -9.61679         7.92278         6.57335
| 71>    C       -9.49493         7.59185         7.89981
| 72>    C      -10.53607         7.71400         8.84255
| 73>    N      -11.34366         7.78064         9.65612
| 74>    C       -8.30967         7.14037         8.51408
| 75>    N       -7.37111         6.80577         9.08663
| 76>    C      -10.79369         8.52281         5.95267
| 77>    C      -10.46840         8.87184         4.60970
| 78>    C       -9.08079         8.47257         4.33117
| 79>    O       -8.47408         8.61522         3.28604
| 80>    C      -11.36884         9.47142         3.77837
| 81>    C      -12.66888         9.74741         4.25985
| 82>    C      -13.00709         9.39243         5.59759
| 83>    C      -12.04843         8.77818         6.43735
| 84>    C      -14.30873         9.66580         6.06372
| 85>    C      -15.23340        10.26227         5.24976
| 86>    C      -14.89887        10.61275         3.93361
| 87>    C      -13.64346        10.36123         3.44935
| 88>    H       -0.49449         7.69572        -9.60235
| 89>    H       -2.60283        10.58739        -6.12318
| 90>    H       -3.90490        11.70079        -7.85939
| 91>    H       -4.53829        11.96596       -10.22679
| 92>    H       -3.49677        10.55351       -11.95488
| 93>    H       -1.81777         8.86382       -11.33044
| 94>    H        1.12951         5.70266        -4.89165
| 95>    H        2.89607         3.39546        -1.99510
| 96>    H        1.37362         3.34374        -1.06327
| 97>    H        2.62130         4.55692        -0.67680
| 98>    H        0.11991         6.79935         1.30046
| 99>    H        1.68768         6.23959         0.68122
|100>    H        0.87464         5.34070         1.99456
|101>    H       -7.14883        12.08594        -1.96946
|102>    H       -5.62401        11.67467        -3.85743
|103>    H       -2.04520         3.86411         4.37163
|104>    H       -3.69128         3.80944         5.06401
|105>    H       -2.48305         4.94227         5.71942
|106>    H       -3.56281         6.57118         7.11493
|107>    H       -4.68294         5.66543         8.17353
|108>    H       -5.19163         7.20729         7.45224
|109>    H       -7.24828         6.57213         6.57140
|110>    H      -11.09154         9.73139         2.76771
|111>    H      -12.33666         8.51982         7.44402
|112>    H      -14.56148         9.39552         7.07854
|113>    H      -16.22796        10.46743         5.61662
|114>    H      -15.64050        11.08277         3.30512
|115>    H      -13.37929        10.62872         2.43675
|116> *
|117>
|118>                          ****END OF INPUT****

CARTESIAN COORDINATES (ANGSTROEM)
---------------------------------
  C     -0.594910    8.702440   -5.253270
  C     -0.498050    9.548760   -4.180640
  C     -1.127030   10.807000   -4.107350
  N     -1.603970   11.843720   -3.980230
  C      0.302090    9.278570   -3.051900
  N      0.977640    9.112710   -2.137480
  C     -1.182730    9.046290   -6.540000
  C     -0.607060    8.206080   -7.537990
  C     -0.943200    8.333200   -8.854870
  C     -1.894510    9.309230   -9.231490
  C     -2.494150   10.128280   -8.230970
  C     -2.121260    9.982580   -6.875020
  C     -3.454480   11.083020   -8.622240
  C     -3.803520   11.229420   -9.937000
  C     -3.210050   10.425530  -10.921600
  C     -2.276730    9.486340  -10.576040
  C      0.306110    7.239600   -6.895440
  O      1.008780    6.409250   -7.425720
  C      0.117580    7.451560   -5.433500
  C      0.455710    6.477650   -4.542700
  C     -0.063540    6.320850   -3.239940
  C      0.489820    5.541520   -2.214230
  O      1.615780    4.856440   -2.470100
  C      2.143980    3.993480   -1.482520
  C     -0.260600    5.620730   -1.022770
  O      0.061270    5.038640    0.180340
  C      0.722760    5.914140    1.082890
  C     -1.409550    6.400300   -1.166730
  S     -1.556970    7.065270   -2.753060
  C     -2.405100    6.714390   -0.227410
  C     -3.405710    7.658320   -0.493470
  C     -4.318390    7.852480    0.592790
  N     -5.290830    8.760940    0.512390
  C     -5.371120    9.451540   -0.606930
  C     -6.416070   10.505200   -0.686360
  O     -7.207380   10.723170    0.204470
  C     -6.413040   11.293550   -1.934520
  C     -5.586330   11.070830   -2.961050
  C     -4.579340    9.999370   -2.968960
  O     -3.894720    9.752600   -3.941230
  C     -4.474100    9.234570   -1.702350
  N     -3.507090    8.345610   -1.626510
  C     -4.022870    7.023180    1.686450
  S     -2.605300    6.061990    1.364470
  C     -4.739100    6.917620    2.883980
  C     -4.341030    6.112530    3.966570
  O     -3.200700    5.403760    3.825910
  C     -2.847520    4.453770    4.812300
  C     -5.245240    6.188190    5.023970
  O     -5.121140    5.521860    6.216150
  C     -4.608930    6.297490    7.291930
  C     -6.363800    7.004480    4.734050
  S     -6.246270    7.726400    3.152660
  C     -7.408210    7.139780    5.661810
  C     -8.590530    7.824780    5.556140
  C     -9.616790    7.922780    6.573350
  C     -9.494930    7.591850    7.899810
  C    -10.536070    7.714000    8.842550
  N    -11.343660    7.780640    9.656120
  C     -8.309670    7.140370    8.514080
  N     -7.371110    6.805770    9.086630
  C    -10.793690    8.522810    5.952670
  C    -10.468400    8.871840    4.609700
  C     -9.080790    8.472570    4.331170
  O     -8.474080    8.615220    3.286040
  C    -11.368840    9.471420    3.778370
  C    -12.668880    9.747410    4.259850
  C    -13.007090    9.392430    5.597590
  C    -12.048430    8.778180    6.437350
  C    -14.308730    9.665800    6.063720
  C    -15.233400   10.262270    5.249760
  C    -14.898870   10.612750    3.933610
  C    -13.643460   10.361230    3.449350
  H     -0.494490    7.695720   -9.602350
  H     -2.602830   10.587390   -6.123180
  H     -3.904900   11.700790   -7.859390
  H     -4.538290   11.965960  -10.226790
  H     -3.496770   10.553510  -11.954880
  H     -1.817770    8.863820  -11.330440
  H      1.129510    5.702660   -4.891650
  H      2.896070    3.395460   -1.995100
  H      1.373620    3.343740   -1.063270
  H      2.621300    4.556920   -0.676800
  H      0.119910    6.799350    1.300460
  H      1.687680    6.239590    0.681220
  H      0.874640    5.340700    1.994560
  H     -7.148830   12.085940   -1.969460
  H     -5.624010   11.674670   -3.857430
  H     -2.045200    3.864110    4.371630
  H     -3.691280    3.809440    5.064010
  H     -2.483050    4.942270    5.719420
  H     -3.562810    6.571180    7.114930
  H     -4.682940    5.665430    8.173530
  H     -5.191630    7.207290    7.452240
  H     -7.248280    6.572130    6.571400
  H    -11.091540    9.731390    2.767710
  H    -12.336660    8.519820    7.444020
  H    -14.561480    9.395520    7.078540
  H    -16.227960   10.467430    5.616620
  H    -15.640500   11.082770    3.305120
  H    -13.379290   10.628720    2.436750

 Total Charge           Charge          ....    0
 Multiplicity           Mult            ....    1
 Number of Electrons    NEL             ....  518
 Basis Dimension        Dim             .... 1174

ORBITAL ENERGIES
----------------

  NO   OCC          E(Eh)            E(eV)
   0   2.0000     -88.997186     -2421.7366
   1   2.0000     -88.967486     -2420.9284
   2   2.0000     -88.956777     -2420.6370
   3   2.0000     -19.275662      -524.5174
   4   2.0000     -19.261355      -524.1281
   5   2.0000     -19.256096      -523.9850
   6   2.0000     -19.255357      -523.9649
   7   2.0000     -19.230016      -523.2753
   8   2.0000     -19.224251      -523.1185
   9   2.0000     -19.215379      -522.8771
  10   2.0000     -19.196488      -522.3630
  11   2.0000     -14.449956      -393.2033
  12   2.0000     -14.449529      -393.1917
  13   2.0000     -14.415564      -392.2674
  14   2.0000     -14.409840      -392.1117
  15   2.0000     -14.397904      -391.7869
  16   2.0000     -14.397112      -391.7653
  17   2.0000     -10.377596      -282.3888
  18   2.0000     -10.373839      -282.2865
  19   2.0000     -10.363028      -281.9923
  20   2.0000     -10.353612      -281.7361
  21   2.0000     -10.352571      -281.7078
  22   2.0000     -10.352332      -281.7013
  23   2.0000     -10.349023      -281.6112
  24   2.0000     -10.343094      -281.4499
  25   2.0000     -10.342119      -281.4234
  26   2.0000     -10.341465      -281.4056
  27   2.0000     -10.337342      -281.2934
  28   2.0000     -10.337045      -281.2853
  29   2.0000     -10.336038      -281.2579
  30   2.0000     -10.333968      -281.2016
  31   2.0000     -10.332635      -281.1653
  32   2.0000     -10.331253      -281.1277
  33   2.0000     -10.329267      -281.0736
  34   2.0000     -10.328647      -281.0568
  35   2.0000     -10.326796      -281.0064
  36   2.0000     -10.325837      -280.9803
  37   2.0000     -10.322360      -280.8857
  38   2.0000     -10.321940      -280.8743
  39   2.0000     -10.321626      -280.8657
  40   2.0000     -10.319499      -280.8079
  41   2.0000     -10.318937      -280.7926
  42   2.0000     -10.318617      -280.7838
  43   2.0000     -10.314971      -280.6846
  44   2.0000     -10.313329      -280.6400
  45   2.0000     -10.307533      -280.4822
  46   2.0000     -10.306605      -280.4570
  47   2.0000     -10.302958      -280.3577
  48   2.0000     -10.301555      -280.3196
  49   2.0000     -10.301119      -280.3077
  50   2.0000     -10.298680      -280.2413
  51   2.0000     -10.295223      -280.1473
  52   2.0000     -10.293925      -280.1119
  53   2.0000     -10.293680      -280.1053
  54   2.0000     -10.292967      -280.0859
  55   2.0000     -10.292926      -280.0848
  56   2.0000     -10.292294      -280.0676
  57   2.0000     -10.285774      -279.8901
  58   2.0000     -10.284522      -279.8561
  59   2.0000     -10.283883      -279.8387
  60   2.0000     -10.283485      -279.8278
  61   2.0000     -10.283396      -279.8254
  62   2.0000     -10.282832      -279.8101
  63   2.0000     -10.282647      -279.8050
  64   2.0000     -10.282183      -279.7924
  65   2.0000     -10.281980      -279.7869
  66   2.0000     -10.278725      -279.6983
  67   2.0000     -10.278414      -279.6899
  68   2.0000     -10.274775      -279.5908
  69   2.0000     -10.274399      -279.5806
  70   2.0000     -10.274153      -279.5739
  71   2.0000     -10.274098      -279.5724
  72   2.0000     -10.273473      -279.5554
  73   2.0000      -8.089602      -220.1293
  74   2.0000      -8.059712      -219.3159
  75   2.0000      -8.050375      -219.0618
  76   2.0000      -6.058806      -164.8685
  77   2.0000      -6.054288      -164.7455
  78   2.0000      -6.052551      -164.6983
  79   2.0000      -6.029307      -164.0658
  80   2.0000      -6.024858      -163.9447
  81   2.0000      -6.021393      -163.8504
  82   2.0000      -6.019916      -163.8102
  83   2.0000      -6.015725      -163.6962
  84   2.0000      -6.011896      -163.5920
  85   2.0000      -1.181139       -32.1404
  86   2.0000      -1.170524       -31.8516
  87   2.0000      -1.153573       -31.3903
  88   2.0000      -1.150167       -31.2976
  89   2.0000      -1.144508       -31.1436
  90   2.0000      -1.138651       -30.9843
  91   2.0000      -1.131992       -30.8031
  92   2.0000      -1.111503       -30.2455
  93   2.0000      -1.102246       -29.9936
  94   2.0000      -1.030561       -28.0430
  95   2.0000      -1.015306       -27.6279
  96   2.0000      -1.010509       -27.4974
  97   2.0000      -1.001963       -27.2648
  98   2.0000      -0.996122       -27.1058
  99   2.0000      -0.991166       -26.9710
 100   2.0000      -0.990145       -26.9432
 101   2.0000      -0.982068       -26.7234
 102   2.0000      -0.980522       -26.6814
 103   2.0000      -0.974525       -26.5182
 104   2.0000      -0.967628       -26.3305
 105   2.0000      -0.956174       -26.0188
 106   2.0000      -0.938221       -25.5303
 107   2.0000      -0.922459       -25.1014
 108   2.0000      -0.912131       -24.8203
 109   2.0000      -0.906851       -24.6767
 110   2.0000      -0.895362       -24.3640
 111   2.0000      -0.884692       -24.0737
 112   2.0000      -0.877685       -23.8830
 113   2.0000      -0.874918       -23.8077
 114   2.0000      -0.872527       -23.7427
 115   2.0000      -0.866859       -23.5884
 116   2.0000      -0.861930       -23.4543
 117   2.0000      -0.854144       -23.2424
 118   2.0000      -0.848405       -23.0863
 119   2.0000      -0.831773       -22.6337
 120   2.0000      -0.826230       -22.4829
 121   2.0000      -0.824738       -22.4423
 122   2.0000      -0.814148       -22.1541
 123   2.0000      -0.808014       -21.9872
 124   2.0000      -0.798135       -21.7184
 125   2.0000      -0.792290       -21.5593
 126   2.0000      -0.789672       -21.4881
 127   2.0000      -0.781070       -21.2540
 128   2.0000      -0.775042       -21.0900
 129   2.0000      -0.769198       -20.9309
 130   2.0000      -0.758916       -20.6511
 131   2.0000      -0.758044       -20.6274
 132   2.0000      -0.744816       -20.2675
 133   2.0000      -0.741622       -20.1806
 134   2.0000      -0.724590       -19.7171
 135   2.0000      -0.702310       -19.1108
 136   2.0000      -0.700051       -19.0494
 137   2.0000      -0.696740       -18.9593
 138   2.0000      -0.690111       -18.7789
 139   2.0000      -0.689158       -18.7529
 140   2.0000      -0.686032       -18.6679
 141   2.0000      -0.678055       -18.4508
 142   2.0000      -0.675574       -18.3833
 143   2.0000      -0.670190       -18.2368
 144   2.0000      -0.662324       -18.0228
 145   2.0000      -0.658815       -17.9273
 146   2.0000      -0.651081       -17.7168
 147   2.0000      -0.648339       -17.6422
 148   2.0000      -0.636122       -17.3098
 149   2.0000      -0.635484       -17.2924
 150   2.0000      -0.630347       -17.1526
 151   2.0000      -0.623203       -16.9582
 152   2.0000      -0.616276       -16.7697
 153   2.0000      -0.613977       -16.7072
 154   2.0000      -0.606420       -16.5015
 155   2.0000      -0.602971       -16.4077
 156   2.0000      -0.601622       -16.3710
 157   2.0000      -0.593575       -16.1520
 158   2.0000      -0.593267       -16.1436
 159   2.0000      -0.588188       -16.0054
 160   2.0000      -0.586946       -15.9716
 161   2.0000      -0.582819       -15.8593
 162   2.0000      -0.577377       -15.7112
 163   2.0000      -0.574106       -15.6222
 164   2.0000      -0.568082       -15.4583
 165   2.0000      -0.567399       -15.4397
 166   2.0000      -0.560741       -15.2585
 167   2.0000      -0.558600       -15.2003
 168   2.0000      -0.554489       -15.0884
 169   2.0000      -0.549891       -14.9633
 170   2.0000      -0.548323       -14.9206
 171   2.0000      -0.546587       -14.8734
 172   2.0000      -0.544426       -14.8146
 173   2.0000      -0.541849       -14.7444
 174   2.0000      -0.540457       -14.7066
 175   2.0000      -0.535284       -14.5658
 176   2.0000      -0.534371       -14.5410
 177   2.0000      -0.533388       -14.5142
 178   2.0000      -0.531888       -14.4734
 179   2.0000      -0.531295       -14.4573
 180   2.0000      -0.528446       -14.3798
 181   2.0000      -0.526008       -14.3134
 182   2.0000      -0.524233       -14.2651
 183   2.0000      -0.519884       -14.1468
 184   2.0000      -0.518182       -14.1005
 185   2.0000      -0.515174       -14.0186
 186   2.0000      -0.513791       -13.9810
 187   2.0000      -0.512502       -13.9459
 188   2.0000      -0.508209       -13.8291
 189   2.0000      -0.506400       -13.7799
 190   2.0000      -0.502959       -13.6862
 191   2.0000      -0.501637       -13.6502
 192   2.0000      -0.500376       -13.6159
 193   2.0000      -0.497578       -13.5398
 194   2.0000      -0.496149       -13.5009
 195   2.0000      -0.492601       -13.4044
 196   2.0000      -0.492348       -13.3975
 197   2.0000      -0.491871       -13.3845
 198   2.0000      -0.489418       -13.3177
 199   2.0000      -0.487729       -13.2718
 200   2.0000      -0.486160       -13.2291
 201   2.0000      -0.482282       -13.1235
 202   2.0000      -0.477276       -12.9873
 203   2.0000      -0.468981       -12.7616
 204   2.0000      -0.466059       -12.6821
 205   2.0000      -0.462014       -12.5720
 206   2.0000      -0.461167       -12.5490
 207   2.0000      -0.455380       -12.3915
 208   2.0000      -0.450700       -12.2642
 209   2.0000      -0.449133       -12.2215
 210   2.0000      -0.448584       -12.2066
 211   2.0000      -0.446282       -12.1440
 212   2.0000      -0.443205       -12.0602
 213   2.0000      -0.439984       -11.9726
 214   2.0000      -0.436832       -11.8868
 215   2.0000      -0.436400       -11.8751
 216   2.0000      -0.434909       -11.8345
 217   2.0000      -0.432722       -11.7750
 218   2.0000      -0.431849       -11.7512
 219   2.0000      -0.431039       -11.7292
 220   2.0000      -0.430189       -11.7060
 221   2.0000      -0.429280       -11.6813
 222   2.0000      -0.425826       -11.5873
 223   2.0000      -0.424322       -11.5464
 224   2.0000      -0.422877       -11.5071
 225   2.0000      -0.421426       -11.4676
 226   2.0000      -0.420398       -11.4396
 227   2.0000      -0.416857       -11.3432
 228   2.0000      -0.413032       -11.2392
 229   2.0000      -0.411990       -11.2108
 230   2.0000      -0.406615       -11.0646
 231   2.0000      -0.404672       -11.0117
 232   2.0000      -0.401906       -10.9364
 233   2.0000      -0.399475       -10.8703
 234   2.0000      -0.394788       -10.7427
 235   2.0000      -0.389014       -10.5856
 236   2.0000      -0.385860       -10.4998
 237   2.0000      -0.376893       -10.2558
 238   2.0000      -0.371436       -10.1073
 239   2.0000      -0.370315       -10.0768
 240   2.0000      -0.368458       -10.0263
 241   2.0000      -0.366149        -9.9634
 242   2.0000      -0.361994        -9.8504
 243   2.0000      -0.360514        -9.8101
 244   2.0000      -0.349276        -9.5043
 245   2.0000      -0.346727        -9.4349
 246   2.0000      -0.345490        -9.4013
 247   2.0000      -0.334798        -9.1103
 248   2.0000      -0.327102        -8.9009
 249   2.0000      -0.322679        -8.7805
 250   2.0000      -0.317150        -8.6301
 251   2.0000      -0.315006        -8.5718
 252   2.0000      -0.305547        -8.3144
 253   2.0000      -0.303728        -8.2649
 254   2.0000      -0.295646        -8.0449
 255   2.0000      -0.291585        -7.9344
 256   2.0000      -0.281716        -7.6659
 257   2.0000      -0.274875        -7.4797
 258   2.0000      -0.236057        -6.4234
 259   0.0000      -0.114315        -3.1107
 260   0.0000      -0.092458        -2.5159
 261   0.0000      -0.074905        -2.0383
 262   0.0000      -0.066308        -1.8043
 263   0.0000      -0.053240        -1.4487

MULLIKEN ATOMIC CHARGES
-----------------------
   0 C :    0.249525
   1 C :   -0.317080
   2 C :   -0.170609
   3 N :    0.142388
   4 C :   -0.200803
   5 N :    0.150201
   6 C :    0.024886
   7 C :    0.015542
   8 C :   -0.087679
   9 C :    0.091973
  10 C :    0.097186
  11 C :   -0.065167
  12 C :   -0.016428
  13 C :    0.032653
  14 C :    0.032547
  15 C :   -0.016774
  16 C :    0.138139
  17 O :   -0.148954
  18 C :   -0.138507
  19 C :    0.070372
  20 C :   -0.190311
  21 C :    0.243562
  22 O :   -0.287396
  23 C :    0.185438
  24 C :    0.046326
  25 O :   -0.351259
  26 C :    0.196935
  27 C :   -0.099878
  28 S :    0.192485
  29 C :   -0.107159
  30 C :    0.022175
  31 C :    0.041603
  32 N :    0.069098
  33 C :   -0.115171
  34 C :    0.134894
  35 O :   -0.095441
  36 C :   -0.015121
  37 C :   -0.013358
  38 C :    0.170037
  39 O :   -0.118876
  40 C :   -0.111939
  41 N :    0.030798
  42 C :   -0.163106
  43 S :    0.253463
  44 C :   -0.126201
  45 C :    0.187563
  46 O :   -0.331955
  47 C :    0.188056
  48 C :    0.107085
  49 O :   -0.346143
  50 C :    0.200415
  51 C :   -0.109300
  52 S :    0.264955
  53 C :   -0.051145
  54 C :   -0.095439
  55 C :    0.324137
  56 C :   -0.355737
  57 C :   -0.183462
  58 N :    0.145202
  59 C :   -0.195703
  60 N :    0.137651
  61 C :    0.043705
  62 C :   -0.001374
  63 C :    0.171899
  64 O :   -0.169998
  65 C :   -0.081961
  66 C :    0.099264
  67 C :    0.097008
  68 C :   -0.085799
  69 C :   -0.019502
  70 C :    0.036492
  71 C :    0.035460
  72 C :   -0.016533
  73 H :   -0.016565
  74 H :   -0.008027
  75 H :   -0.018454
  76 H :   -0.010911
  77 H :   -0.010920
  78 H :   -0.021593
  79 H :    0.023977
  80 H :    0.039453
  81 H :    0.039458
  82 H :    0.018216
  83 H :    0.028140
  84 H :    0.030487
  85 H :    0.033672
  86 H :    0.018123
  87 H :    0.017200
  88 H :    0.035956
  89 H :    0.047371
  90 H :    0.022070
  91 H :    0.010857
  92 H :    0.053844
  93 H :    0.031315
  94 H :    0.026238
  95 H :   -0.008876
  96 H :   -0.009119
  97 H :   -0.010567
  98 H :   -0.006796
  99 H :   -0.005813
 100 H :   -0.018587
Sum of atomic charges:   -0.0000000

LOEWDIN ATOMIC CHARGES
----------------------
   0 C :    0.062523
   1 C :   -0.146843
   2 C :   -0.014164
   3 N :   -0.071522
   4 C :   -0.030544
   5 N :   -0.070413
   6 C :   -0.018555
   7 C :   -0.054534
   8 C :    0.025755
   9 C :   -0.010527
  10 C :   -0.006511
  11 C :    0.020139
  12 C :   -0.008076
  13 C :   -0.018765
  14 C :   -0.018613
  15 C :   -0.011185
  16 C :    0.081583
  17 O :   -0.151327
  18 C :   -0.102048
  19 C :    0.056147
  20 C :   -0.218364
  21 C :    0.037869
  22 O :   -0.082059
  23 C :    0.083320
  24 C :   -0.028795
  25 O :   -0.137006
  26 C :    0.077544
  27 C :   -0.177626
  28 S :    0.538062
  29 C :   -0.202100
  30 C :   -0.046801
  31 C :   -0.044847
  32 N :    0.002149
  33 C :   -0.038884
  34 C :    0.055086
  35 O :   -0.092602
  36 C :   -0.009796
  37 C :   -0.011058
  38 C :    0.067139
  39 O :   -0.102967
  40 C :   -0.034738
  41 N :   -0.010056
  42 C :   -0.187529
  43 S :    0.559556
  44 C :   -0.202287
  45 C :   -0.004285
  46 O :   -0.104643
  47 C :    0.085363
  48 C :    0.005409
  49 O :   -0.127301
  50 C :    0.085835
  51 C :   -0.203007
  52 S :    0.559025
  53 C :    0.050197
  54 C :   -0.106202
  55 C :    0.078781
  56 C :   -0.149684
  57 C :   -0.018312
  58 N :   -0.059092
  59 C :   -0.015978
  60 N :   -0.064594
  61 C :   -0.025160
  62 C :   -0.053407
  63 C :    0.082903
  64 O :   -0.156247
  65 C :    0.032461
  66 C :   -0.008646
  67 C :   -0.006978
  68 C :    0.018615
  69 C :   -0.005909
  70 C :   -0.014619
  71 C :   -0.013672
  72 C :   -0.009484
  73 H :    0.037010
  74 H :    0.036837
  75 H :    0.031677
  76 H :    0.030359
  77 H :    0.030289
  78 H :    0.030102
  79 H :    0.049900
  80 H :    0.028785
  81 H :    0.021380
  82 H :    0.016502
  83 H :    0.010315
  84 H :    0.016121
  85 H :    0.024619
  86 H :    0.045585
  87 H :    0.046255
  88 H :    0.027251
  89 H :    0.025680
  90 H :    0.018005
  91 H :    0.007341
  92 H :    0.033547
  93 H :    0.016580
  94 H :    0.048779
  95 H :    0.040739
  96 H :    0.038641
  97 H :    0.034182
  98 H :    0.032473
  99 H :    0.032293
 100 H :    0.031649

  Mayer bond orders larger than 0.100000
B(  0-C ,  1-C ) :   1.6507 B(  0-C ,  6-C ) :   1.0021 B(  0-C , 18-C ) :   1.0418
B(  1-C ,  2-C ) :   1.1515 B(  1-C ,  4-C ) :   1.1523 B(  2-C ,  3-N ) :   2.9772
B(  4-C ,  5-N ) :   3.0193 B(  6-C ,  7-C ) :   1.2140 B(  6-C , 11-C ) :   1.4747
B(  7-C ,  8-C ) :   1.4788 B(  7-C , 16-C ) :   0.9152 B(  8-C ,  9-C ) :   1.1851
B(  8-C , 73-H ) :   1.0149 B(  9-C , 10-C ) :   1.2575 B(  9-C , 15-C ) :   1.2466
B( 10-C , 11-C ) :   1.1953 B( 10-C , 12-C ) :   1.2422 B( 11-C , 74-H ) :   0.9898
B( 12-C , 13-C ) :   1.4881 B( 12-C , 75-H ) :   0.9972 B( 13-C , 14-C ) :   1.2599
B( 13-C , 76-H ) :   0.9889 B( 14-C , 15-C ) :   1.4908 B( 14-C , 77-H ) :   0.9887
B( 15-C , 78-H ) :   0.9966 B( 16-C , 17-O ) :   2.2730 B( 16-C , 18-C ) :   0.9478
B( 18-C , 19-C ) :   1.5866 B( 19-C , 20-C ) :   1.1699 B( 19-C , 79-H ) :   0.9573
B( 20-C , 21-C ) :   1.3870 B( 20-C , 27-C ) :   0.1198 B( 20-C , 28-S ) :   1.0604
B( 21-C , 22-O ) :   1.2460 B( 21-C , 24-C ) :   1.2437 B( 22-O , 23-C ) :   0.9329
B( 23-C , 80-H ) :   0.9788 B( 23-C , 81-H ) :   0.9711 B( 23-C , 82-H ) :   0.9737
B( 24-C , 25-O ) :   1.1466 B( 24-C , 27-C ) :   1.3939 B( 25-O , 26-C ) :   0.9256
B( 26-C , 83-H ) :   0.9656 B( 26-C , 84-H ) :   0.9638 B( 26-C , 85-H ) :   0.9827
B( 27-C , 28-S ) :   1.1640 B( 27-C , 29-C ) :   1.2421 B( 29-C , 30-C ) :   1.2891
B( 29-C , 42-C ) :   0.1156 B( 29-C , 43-S ) :   1.1224 B( 30-C , 31-C ) :   1.2045
B( 30-C , 41-N ) :   1.4147 B( 31-C , 32-N ) :   1.4638 B( 31-C , 42-C ) :   1.2804
B( 32-N , 33-C ) :   1.6851 B( 33-C , 34-C ) :   0.8945 B( 33-C , 40-C ) :   1.1187
B( 34-C , 35-O ) :   2.2553 B( 34-C , 36-C ) :   1.0202 B( 36-C , 37-C ) :   1.6782
B( 36-C , 86-H ) :   0.9971 B( 37-C , 38-C ) :   1.0270 B( 37-C , 87-H ) :   0.9990
B( 38-C , 39-O ) :   2.1699 B( 38-C , 40-C ) :   0.9053 B( 40-C , 41-N ) :   1.6983
B( 42-C , 43-S ) :   1.1569 B( 42-C , 44-C ) :   1.2921 B( 44-C , 45-C ) :   1.3186
B( 44-C , 51-C ) :   0.1131 B( 44-C , 52-S ) :   1.1109 B( 45-C , 46-O ) :   1.1684
B( 45-C , 48-C ) :   1.3205 B( 46-O , 47-C ) :   0.9238 B( 47-C , 88-H ) :   0.9779
B( 47-C , 89-H ) :   0.9727 B( 47-C , 90-H ) :   0.9757 B( 48-C , 49-O ) :   1.1411
B( 48-C , 51-C ) :   1.3287 B( 49-O , 50-C ) :   0.9081 B( 50-C , 91-H ) :   0.9628
B( 50-C , 92-H ) :   0.9824 B( 50-C , 93-H ) :   0.9665 B( 51-C , 52-S ) :   1.0682
B( 51-C , 53-C ) :   1.2792 B( 53-C , 54-C ) :   1.4681 B( 53-C , 94-H ) :   0.9413
B( 54-C , 55-C ) :   1.0834 B( 54-C , 63-C ) :   0.9803 B( 55-C , 56-C ) :   1.6102
B( 55-C , 61-C ) :   0.9845 B( 56-C , 57-C ) :   1.1474 B( 56-C , 59-C ) :   1.1563
B( 57-C , 58-N ) :   2.9666 B( 59-C , 60-N ) :   2.9609 B( 61-C , 62-C ) :   1.2168
B( 61-C , 68-C ) :   1.4572 B( 62-C , 63-C ) :   0.9556 B( 62-C , 65-C ) :   1.4773
B( 63-C , 64-O ) :   2.1273 B( 65-C , 66-C ) :   1.1707 B( 65-C , 95-H ) :   1.0168
B( 66-C , 67-C ) :   1.2620 B( 66-C , 72-C ) :   1.2465 B( 67-C , 68-C ) :   1.1992
B( 67-C , 69-C ) :   1.2428 B( 68-C , 96-H ) :   0.9899 B( 69-C , 70-C ) :   1.4870
B( 69-C , 97-H ) :   0.9968 B( 70-C , 71-C ) :   1.2640 B( 70-C , 98-H ) :   0.9879
B( 71-C , 72-C ) :   1.4864 B( 71-C , 99-H ) :   0.9878 B( 72-C ,100-H ) :   0.9972

-----------------------------------------------------------------------------
         ABSORPTION SPECTRUM VIA TRANSITION ELECTRIC DIPOLE MOMENTS
-----------------------------------------------------------------------------
State   Energy  Wavelength   fosc         T2         TX        TY        TZ
        (cm-1)    (nm)                  (au**2)     (au)      (au)      (au)
-----------------------------------------------------------------------------
   0   10907.8    916.8   0.880561424  26.57663   3.17735   0.12413  -4.05780
   1   15471.3    646.4   0.074598573   1.58738   0.53243   0.25737  -1.11250
   2   19425.8    514.8   0.431611614   7.31460  -1.67297  -0.35066   2.09590
   3   20029.0    499.3   0.047179009   0.77547  -0.52107   0.46812   0.53369
   4   20940.0    477.6   0.216356180   3.40149   1.33984  -1.26683  -0.03821
   5   21326.3    468.9   0.039364146   0.60766   0.67397  -0.29631   0.25618
   6   23372.7    427.9   0.005323746   0.07499   0.02511   0.25277  -0.10230
   7   24198.4    413.2   0.032048997   0.43602   0.37828  -0.45707   0.28984
   8   24434.2    409.3   0.017084954   0.23019  -0.41446   0.07906   0.22841
   9   24604.7    406.4   0.015442341   0.20662   0.11930  -0.29873   0.32116
  10   25024.2    399.6   0.010901023   0.14341   0.12460  -0.34721   0.08565
  11   25270.0    395.7   0.002374971   0.03094   0.06116  -0.14408   0.08025
  12   25672.8    389.5   0.111096910   1.42464  -1.03954   0.55477  -0.19032
  13   26073.7    383.5   0.002203028   0.02782  -0.01071  -0.16260   0.03554
  14   26412.7    378.6   0.009691165   0.12079  -0.31374  -0.14218   0.04631
  15   26865.5    372.2   0.003782099   0.04635   0.14174  -0.14683  -0.06853
  16   27211.0    367.5   0.005132344   0.06209   0.14950   0.19822   0.02127
  17   27542.8    363.1   0.112191119   1.34099   0.24262   0.01220  -1.13225
  18   28242.5    354.1   0.068989972   0.80419   0.21441  -0.16206  -0.85554
  19   28538.8    350.4   0.059519905   0.68660  -0.21132   0.30942  -0.73905
  20   29057.2    344.1   0.028528301   0.32322  -0.39907   0.06189  -0.40017
  21   29260.1    341.8   0.131645390   1.48117   0.04504  -0.13285  -1.20892
  22   30182.7    331.3   0.023039395   0.25130   0.23139   0.44256   0.04354
  23   30336.5    329.6   0.107790155   1.16974   0.79879  -0.72493  -0.07845
  24   30531.8    327.5   0.012580724   0.13565   0.08419  -0.03888  -0.35644
  25   30712.9    325.6   0.021620366   0.23175   0.39249  -0.27561  -0.04166
  26   31243.2    320.1   0.111074221   1.17040   0.33537  -0.38053   0.95557
  27   31288.1    319.6   0.065234272   0.68639   0.64927  -0.22687   0.46193
  28   31666.5    315.8   0.201263882   2.09238   1.32137  -0.58836   0.01355
  29   32004.8    312.5   0.239665092   2.46527  -1.21995   0.81205  -0.56353
  30   32105.8    311.5   0.091740761   0.94071  -0.52923  -0.01941  -0.81256
  31   32599.8    306.8   0.061994019   0.62605  -0.19457   0.35588  -0.67937
  32   32738.8    305.4   0.014416780   0.14497  -0.24458   0.22322  -0.18795
  33   32907.8    303.9   0.025826616   0.25837   0.17182  -0.43379   0.20169
  34   33131.7    301.8   0.004845734   0.04815   0.10031  -0.14986   0.12502
  35   33350.8    299.8   0.002803229   0.02767  -0.06226   0.10531  -0.11271
  36   33562.6    298.0   0.251284131   2.46482   0.91262  -0.91235   0.89418
  37   34109.4    293.2   0.009754323   0.09415  -0.06519  -0.11493   0.27692
  38   34202.4    292.4   0.141143315   1.35856  -0.39721  -0.02122  -1.09560
  39   34451.8    290.3   0.007194943   0.06875   0.17951  -0.16291  -0.09995
  40   34563.6    289.3   0.070341158   0.66999   0.46078  -0.67463  -0.05037
  41   34689.7    288.3   0.047616557   0.45189   0.50333  -0.37110   0.24664
  42   34876.6    286.7   0.345466711   3.26097   1.17465  -0.94406   0.99495
  43   35016.5    285.6   0.037004676   0.34790  -0.29933   0.44656  -0.24267
  44   35465.8    282.0   0.290510353   2.69667  -0.49622   0.15102  -1.55808
  45   35666.1    280.4   0.012265316   0.11321  -0.06009  -0.18312  -0.27581
  46   35880.1    278.7   0.066974073   0.61451  -0.57957   0.32713   0.41424
  47   36060.5    277.3   0.006110459   0.05579  -0.19295  -0.07288  -0.11509
  48   36198.5    276.3   0.043471226   0.39535  -0.28656   0.15278  -0.53842
  49   36463.5    274.2   0.230853195   2.08426  -0.47563  -0.06839  -1.36138
  50   36532.6    273.7   0.103040195   0.92854  -0.38611   0.41846  -0.77740
  51   36706.0    272.4   0.090753183   0.81395  -0.29817   0.12780  -0.84185
  52   36841.7    271.4   0.143646121   1.28360  -0.03784   0.18357  -1.11735
  53   37014.1    270.2   0.143652222   1.27768   0.46061  -0.53662   0.88179
  54   37308.5    268.0   0.040555954   0.35787   0.25173  -0.19561   0.50620
  55   37468.2    266.9   0.054126159   0.47558  -0.61407   0.30163   0.08672
  56   37565.1    266.2   0.173993056   1.52484  -0.83313   0.43507  -0.80090
  57   37956.1    263.5   0.077000276   0.66786   0.44128  -0.26929   0.63294
  58   38325.7    260.9   0.019265589   0.16549   0.00900   0.02983  -0.40561
  59   38454.3    260.0   0.026744595   0.22896   0.33074  -0.33276  -0.09407
  60   38876.6    257.2   0.048938174   0.41441   0.39237  -0.28254  -0.42501
  61   39095.9    255.8   0.020256485   0.17057   0.25631  -0.23664   0.22108
  62   39225.2    254.9   0.001767060   0.01483   0.10175  -0.00275  -0.06685
  63   39446.6    253.5   0.000983910   0.00821   0.06463   0.06240   0.01185
  64   39728.7    251.7   0.062625397   0.51895   0.40888  -0.53998   0.24534
  65   39871.2    250.8   0.124946085   1.03167   0.53185  -0.86198   0.07614
  66   39981.5    250.1   0.042044931   0.34620   0.37559  -0.37495  -0.25407
  67   40087.5    249.5   0.077260362   0.63449  -0.75478   0.25334  -0.02484
  68   40276.8    248.3   0.108895866   0.89009  -0.76157   0.49328   0.25840

FINAL SINGLE POINT ENERGY     -4271.346164406396

DIPOLE MOMENT
-------------
                                X             Y             Z
Electronic contribution:     -1.05869       5.67453      -3.88468
Nuclear contribution   :      0.05810      -6.65540       3.41675
                        -----------------------------------------
Total Dipole Moment    :     -1.00059      -0.98088      -0.46793
                        -----------------------------------------
Magnitude (a.u.)       :      1.47725
Magnitude (Debye)      :      3.75486

Rotational constants in cm-1:     0.001537     0.000418     0.000339
Rotational constants in MHz :    46.083851    12.527185    10.159934

                             ****ORCA TERMINATED NORMALLY****
TOTAL RUN TIME: 0 days 0 hours 10 minutes 39 seconds 166 msec
