                         Program Version 4.2.0 -  RELEASE  -
|  1> # ORCA input file
|  2> # SCF done       -172.328561184197          0.000552104342
|  3> ! CAM-B3LYP def2-SVP def2/J RIJCOSX Grid4 TightSCF
|  4> %maxcore 5000
|  5> %tddft
|  6>     Mode sTDDFT
|  7>     Ethresh 5.0
|  8>     maxcore 5000
|  9> end
| 10>
| 11> %pal
| 12>   nprocs 6
| 13>   end
| 14> * xyz 0 1
| 15>    C       -2.37385         0.50407        -1.60386
| 16>    C       -2.72686        -0.44480        -2.53298
| 17>    C       -1.80608        -1.10382        -3.37324
| 18>    N       -1.10545        -1.65935        -4.09355
| 19>    C       -4.04676        -0.84121        -2.83044
| 20>    N       -5.09368        -1.19271        -3.14715
| 21>    C       -1.02117         0.99899        -1.36902
| 22>    C       -1.08739         2.09272        -0.46869
| 23>    C        0.02876         2.78285        -0.06211
| 24>    C        1.26909         2.37330        -0.56177
| 25>    C        1.32539         1.27526        -1.45264
| 26>    C        0.19618         0.57779        -1.86700
| 27>    S        2.95789         0.94086        -1.93640
| 28>    C        3.53926         2.24814        -0.96420
| 29>    C        2.56283         2.90827        -0.30409
| 30>    C       -2.49043         2.31812        -0.07529
| 31>    O       -2.90745         3.18796         0.66412
| 32>    C       -3.26836         1.25706        -0.75581
| 33>    C       -4.60574         1.01055        -0.55322
| 34>    C       -5.46781         1.81194         0.19818
| 35>    C       -6.80262         1.50942         0.36219
| 36>    C       -7.78748         2.30816         0.99339
| 37>    C       -9.04287         1.77993         0.95219
| 38>    C       -9.10548         0.52201         0.31030
| 39>    S       -7.52423         0.03735        -0.25105
| 40>    C      -10.21023        -0.28343         0.09904
| 41>    C      -11.57252        -0.00032         0.35676
| 42>    C      -12.41888        -0.99500        -0.02003
| 43>    C      -11.77415        -2.13987        -0.56934
| 44>    S      -10.03688        -1.87409        -0.59537
| 45>    C      -12.40440        -3.24360        -1.07360
| 46>    C      -11.79281        -4.43221        -1.57674
| 47>    C      -10.51853        -4.85603        -1.17676
| 48>    C       -9.94755        -5.99725        -1.69686
| 49>    N       -8.74643        -6.46506        -1.04466
| 50>    O       -8.00081        -5.63356        -0.58280
| 51>    O       -8.60411        -7.66515        -0.94249
| 52>    C      -10.58478        -6.74442        -2.70996
| 53>    C      -11.89724        -6.36315        -3.03915
| 54>    C      -12.49173        -5.26480        -2.47421
| 55>    C       -9.93836        -7.79893        -3.42675
| 56>    S      -10.83596        -9.03439        -4.26942
| 57>    C       -9.40759        -9.83674        -4.89023
| 58>    C       -8.26934        -9.12645        -4.47939
| 59>    C       -8.59328        -8.00424        -3.66857
| 60>    O       -7.49739        -7.30988        -3.33082
| 61>    C       -6.45068        -7.97462        -3.89944
| 62>    C       -5.14377        -7.48994        -3.71439
| 63>    N       -4.07120        -7.11066        -3.57842
| 64>    C       -6.85610        -9.07813        -4.60782
| 65>    C       -9.58838       -11.00908        -5.66661
| 66>    C       -8.55078       -11.86298        -6.13304
| 67>    C       -8.84377       -13.04266        -6.92088
| 68>    N       -7.83610       -13.83484        -7.35094
| 69>    C       -6.60857       -13.52895        -7.03397
| 70>    C       -6.31930       -12.36875        -6.24010
| 71>    N       -7.28249       -11.58013        -5.82353
| 72>    C       -4.98152       -12.05234        -5.90113
| 73>    N       -3.89142       -11.80952        -5.64414
| 74>    C       -5.54371       -14.35400        -7.48214
| 75>    N       -4.65747       -14.99448        -7.82163
| 76>    C      -10.14003       -13.40803        -7.26092
| 77>    C      -11.17002       -12.59602        -6.80558
| 78>    C      -10.89843       -11.41729        -6.01539
| 79>    N      -12.02028       -10.78411        -5.67681
| 80>    S      -13.27976       -11.58119        -6.28327
| 81>    N      -12.48394       -12.76373        -7.00463
| 82>    H       -0.05315         3.61325         0.62207
| 83>    H        0.29159        -0.25517        -2.54325
| 84>    H        4.59383         2.44389        -0.94709
| 85>    H        2.73614         3.74642         0.34643
| 86>    H       -5.04103         0.13229        -1.01508
| 87>    H       -5.08570         2.71969         0.64268
| 88>    H       -7.53578         3.25204         1.44321
| 89>    H       -9.91399         2.25044         1.37165
| 90>    H      -11.88701         0.93312         0.78765
| 91>    H      -13.48889        -0.95487         0.08253
| 92>    H      -13.48412        -3.19588        -1.13689
| 93>    H       -9.98312        -4.33953        -0.39480
| 94>    H      -12.42660        -6.94943        -3.77518
| 95>    H      -13.50089        -5.00148        -2.75343
| 96>    H       -6.21308        -9.74923        -5.13427
| 97>    H      -10.32279       -14.29094        -7.84805
| 98> *
| 99>
|100>                          ****END OF INPUT****

CARTESIAN COORDINATES (ANGSTROEM)
---------------------------------
  C     -2.373850    0.504070   -1.603860
  C     -2.726860   -0.444800   -2.532980
  C     -1.806080   -1.103820   -3.373240
  N     -1.105450   -1.659350   -4.093550
  C     -4.046760   -0.841210   -2.830440
  N     -5.093680   -1.192710   -3.147150
  C     -1.021170    0.998990   -1.369020
  C     -1.087390    2.092720   -0.468690
  C      0.028760    2.782850   -0.062110
  C      1.269090    2.373300   -0.561770
  C      1.325390    1.275260   -1.452640
  C      0.196180    0.577790   -1.867000
  S      2.957890    0.940860   -1.936400
  C      3.539260    2.248140   -0.964200
  C      2.562830    2.908270   -0.304090
  C     -2.490430    2.318120   -0.075290
  O     -2.907450    3.187960    0.664120
  C     -3.268360    1.257060   -0.755810
  C     -4.605740    1.010550   -0.553220
  C     -5.467810    1.811940    0.198180
  C     -6.802620    1.509420    0.362190
  C     -7.787480    2.308160    0.993390
  C     -9.042870    1.779930    0.952190
  C     -9.105480    0.522010    0.310300
  S     -7.524230    0.037350   -0.251050
  C    -10.210230   -0.283430    0.099040
  C    -11.572520   -0.000320    0.356760
  C    -12.418880   -0.995000   -0.020030
  C    -11.774150   -2.139870   -0.569340
  S    -10.036880   -1.874090   -0.595370
  C    -12.404400   -3.243600   -1.073600
  C    -11.792810   -4.432210   -1.576740
  C    -10.518530   -4.856030   -1.176760
  C     -9.947550   -5.997250   -1.696860
  N     -8.746430   -6.465060   -1.044660
  O     -8.000810   -5.633560   -0.582800
  O     -8.604110   -7.665150   -0.942490
  C    -10.584780   -6.744420   -2.709960
  C    -11.897240   -6.363150   -3.039150
  C    -12.491730   -5.264800   -2.474210
  C     -9.938360   -7.798930   -3.426750
  S    -10.835960   -9.034390   -4.269420
  C     -9.407590   -9.836740   -4.890230
  C     -8.269340   -9.126450   -4.479390
  C     -8.593280   -8.004240   -3.668570
  O     -7.497390   -7.309880   -3.330820
  C     -6.450680   -7.974620   -3.899440
  C     -5.143770   -7.489940   -3.714390
  N     -4.071200   -7.110660   -3.578420
  C     -6.856100   -9.078130   -4.607820
  C     -9.588380  -11.009080   -5.666610
  C     -8.550780  -11.862980   -6.133040
  C     -8.843770  -13.042660   -6.920880
  N     -7.836100  -13.834840   -7.350940
  C     -6.608570  -13.528950   -7.033970
  C     -6.319300  -12.368750   -6.240100
  N     -7.282490  -11.580130   -5.823530
  C     -4.981520  -12.052340   -5.901130
  N     -3.891420  -11.809520   -5.644140
  C     -5.543710  -14.354000   -7.482140
  N     -4.657470  -14.994480   -7.821630
  C    -10.140030  -13.408030   -7.260920
  C    -11.170020  -12.596020   -6.805580
  C    -10.898430  -11.417290   -6.015390
  N    -12.020280  -10.784110   -5.676810
  S    -13.279760  -11.581190   -6.283270
  N    -12.483940  -12.763730   -7.004630
  H     -0.053150    3.613250    0.622070
  H      0.291590   -0.255170   -2.543250
  H      4.593830    2.443890   -0.947090
  H      2.736140    3.746420    0.346430
  H     -5.041030    0.132290   -1.015080
  H     -5.085700    2.719690    0.642680
  H     -7.535780    3.252040    1.443210
  H     -9.913990    2.250440    1.371650
  H    -11.887010    0.933120    0.787650
  H    -13.488890   -0.954870    0.082530
  H    -13.484120   -3.195880   -1.136890
  H     -9.983120   -4.339530   -0.394800
  H    -12.426600   -6.949430   -3.775180
  H    -13.500890   -5.001480   -2.753430
  H     -6.213080   -9.749230   -5.134270
  H    -10.322790  -14.290940   -7.848050

 Total Charge           Charge          ....    0
 Multiplicity           Mult            ....    1
 Number of Electrons    NEL             ....  486
 Basis Dimension        Dim             .... 1038

ORBITAL ENERGIES
----------------

  NO   OCC          E(Eh)            E(eV)
   0   2.0000     -89.056545     -2423.3518
   1   2.0000     -88.980415     -2421.2802
   2   2.0000     -88.965233     -2420.8671
   3   2.0000     -88.959937     -2420.7230
   4   2.0000     -88.955961     -2420.6148
   5   2.0000     -19.309689      -525.4434
   6   2.0000     -19.244780      -523.6771
   7   2.0000     -19.243274      -523.6361
   8   2.0000     -19.202755      -522.5335
   9   2.0000     -14.649464      -398.6322
  10   2.0000     -14.467767      -393.6880
  11   2.0000     -14.465558      -393.6279
  12   2.0000     -14.463108      -393.5612
  13   2.0000     -14.461057      -393.5054
  14   2.0000     -14.432842      -392.7376
  15   2.0000     -14.431558      -392.7026
  16   2.0000     -14.413927      -392.2229
  17   2.0000     -14.400550      -391.8589
  18   2.0000     -14.398236      -391.7959
  19   2.0000     -10.385858      -282.6136
  20   2.0000     -10.383919      -282.5608
  21   2.0000     -10.375123      -282.3215
  22   2.0000     -10.356250      -281.8079
  23   2.0000     -10.353209      -281.7251
  24   2.0000     -10.352361      -281.7021
  25   2.0000     -10.352059      -281.6938
  26   2.0000     -10.351992      -281.6920
  27   2.0000     -10.349678      -281.6291
  28   2.0000     -10.341053      -281.3944
  29   2.0000     -10.338918      -281.3363
  30   2.0000     -10.335300      -281.2378
  31   2.0000     -10.334284      -281.2102
  32   2.0000     -10.330671      -281.1119
  33   2.0000     -10.328257      -281.0462
  34   2.0000     -10.328204      -281.0447
  35   2.0000     -10.327708      -281.0312
  36   2.0000     -10.327089      -281.0144
  37   2.0000     -10.325380      -280.9679
  38   2.0000     -10.325270      -280.9649
  39   2.0000     -10.324596      -280.9465
  40   2.0000     -10.324251      -280.9371
  41   2.0000     -10.312553      -280.6188
  42   2.0000     -10.310834      -280.5721
  43   2.0000     -10.309042      -280.5233
  44   2.0000     -10.308951      -280.5208
  45   2.0000     -10.308732      -280.5149
  46   2.0000     -10.308482      -280.5081
  47   2.0000     -10.307796      -280.4894
  48   2.0000     -10.305727      -280.4331
  49   2.0000     -10.305622      -280.4302
  50   2.0000     -10.305262      -280.4204
  51   2.0000     -10.304983      -280.4129
  52   2.0000     -10.304668      -280.4043
  53   2.0000     -10.303725      -280.3786
  54   2.0000     -10.303670      -280.3771
  55   2.0000     -10.301574      -280.3201
  56   2.0000     -10.300677      -280.2957
  57   2.0000     -10.299676      -280.2684
  58   2.0000     -10.298599      -280.2391
  59   2.0000     -10.293070      -280.0887
  60   2.0000     -10.290046      -280.0064
  61   2.0000     -10.289902      -280.0025
  62   2.0000     -10.286988      -279.9232
  63   2.0000     -10.281823      -279.7826
  64   2.0000     -10.279849      -279.7289
  65   2.0000     -10.279070      -279.7077
  66   2.0000     -10.277455      -279.6638
  67   2.0000      -8.147633      -221.7084
  68   2.0000      -8.073674      -219.6958
  69   2.0000      -8.061426      -219.3625
  70   2.0000      -8.056060      -219.2165
  71   2.0000      -8.052180      -219.1109
  72   2.0000      -6.118602      -166.4956
  73   2.0000      -6.110876      -166.2854
  74   2.0000      -6.110604      -166.2780
  75   2.0000      -6.043286      -164.4462
  76   2.0000      -6.038667      -164.3205
  77   2.0000      -6.035676      -164.2391
  78   2.0000      -6.031149      -164.1159
  79   2.0000      -6.027000      -164.0030
  80   2.0000      -6.025684      -163.9672
  81   2.0000      -6.022337      -163.8761
  82   2.0000      -6.021672      -163.8580
  83   2.0000      -6.021649      -163.8574
  84   2.0000      -6.017412      -163.7421
  85   2.0000      -6.017146      -163.7349
  86   2.0000      -6.013868      -163.6457
  87   2.0000      -1.326224       -36.0884
  88   2.0000      -1.232068       -33.5263
  89   2.0000      -1.152346       -31.3569
  90   2.0000      -1.145299       -31.1652
  91   2.0000      -1.124296       -30.5936
  92   2.0000      -1.116224       -30.3740
  93   2.0000      -1.051200       -28.6046
  94   2.0000      -1.020511       -27.7695
  95   2.0000      -1.015973       -27.6460
  96   2.0000      -1.014646       -27.6099
  97   2.0000      -1.006109       -27.3776
  98   2.0000      -1.005630       -27.3646
  99   2.0000      -1.004426       -27.3318
 100   2.0000      -0.995255       -27.0823
 101   2.0000      -0.994788       -27.0696
 102   2.0000      -0.993298       -27.0290
 103   2.0000      -0.989375       -26.9222
 104   2.0000      -0.978187       -26.6178
 105   2.0000      -0.976756       -26.5789
 106   2.0000      -0.971052       -26.4237
 107   2.0000      -0.933920       -25.4133
 108   2.0000      -0.921947       -25.0875
 109   2.0000      -0.916775       -24.9467
 110   2.0000      -0.913368       -24.8540
 111   2.0000      -0.906701       -24.6726
 112   2.0000      -0.900426       -24.5018
 113   2.0000      -0.895098       -24.3569
 114   2.0000      -0.881602       -23.9896
 115   2.0000      -0.871317       -23.7097
 116   2.0000      -0.868380       -23.6298
 117   2.0000      -0.864757       -23.5312
 118   2.0000      -0.860190       -23.4070
 119   2.0000      -0.843081       -22.9414
 120   2.0000      -0.841239       -22.8913
 121   2.0000      -0.837374       -22.7861
 122   2.0000      -0.823207       -22.4006
 123   2.0000      -0.811169       -22.0730
 124   2.0000      -0.802964       -21.8498
 125   2.0000      -0.800878       -21.7930
 126   2.0000      -0.789024       -21.4704
 127   2.0000      -0.772926       -21.0324
 128   2.0000      -0.759792       -20.6750
 129   2.0000      -0.751647       -20.4533
 130   2.0000      -0.744085       -20.2476
 131   2.0000      -0.741262       -20.1708
 132   2.0000      -0.729780       -19.8583
 133   2.0000      -0.715609       -19.4727
 134   2.0000      -0.712195       -19.3798
 135   2.0000      -0.706067       -19.2131
 136   2.0000      -0.696538       -18.9538
 137   2.0000      -0.686235       -18.6734
 138   2.0000      -0.682992       -18.5852
 139   2.0000      -0.679424       -18.4881
 140   2.0000      -0.676132       -18.3985
 141   2.0000      -0.664623       -18.0853
 142   2.0000      -0.664239       -18.0749
 143   2.0000      -0.654938       -17.8218
 144   2.0000      -0.653447       -17.7812
 145   2.0000      -0.648041       -17.6341
 146   2.0000      -0.641920       -17.4675
 147   2.0000      -0.639739       -17.4082
 148   2.0000      -0.636115       -17.3096
 149   2.0000      -0.630515       -17.1572
 150   2.0000      -0.622471       -16.9383
 151   2.0000      -0.620890       -16.8953
 152   2.0000      -0.612770       -16.6743
 153   2.0000      -0.607601       -16.5337
 154   2.0000      -0.606885       -16.5142
 155   2.0000      -0.604526       -16.4500
 156   2.0000      -0.597261       -16.2523
 157   2.0000      -0.594397       -16.1744
 158   2.0000      -0.585958       -15.9447
 159   2.0000      -0.582960       -15.8631
 160   2.0000      -0.578486       -15.7414
 161   2.0000      -0.578251       -15.7350
 162   2.0000      -0.570317       -15.5191
 163   2.0000      -0.564601       -15.3636
 164   2.0000      -0.564041       -15.3483
 165   2.0000      -0.552865       -15.0442
 166   2.0000      -0.548315       -14.9204
 167   2.0000      -0.543385       -14.7863
 168   2.0000      -0.540847       -14.7172
 169   2.0000      -0.536106       -14.5882
 170   2.0000      -0.534497       -14.5444
 171   2.0000      -0.528236       -14.3740
 172   2.0000      -0.525628       -14.3031
 173   2.0000      -0.524107       -14.2617
 174   2.0000      -0.517627       -14.0854
 175   2.0000      -0.517051       -14.0697
 176   2.0000      -0.512985       -13.9590
 177   2.0000      -0.512284       -13.9400
 178   2.0000      -0.510598       -13.8941
 179   2.0000      -0.504550       -13.7295
 180   2.0000      -0.500123       -13.6090
 181   2.0000      -0.497200       -13.5295
 182   2.0000      -0.495166       -13.4741
 183   2.0000      -0.492401       -13.3989
 184   2.0000      -0.488637       -13.2965
 185   2.0000      -0.488311       -13.2876
 186   2.0000      -0.487012       -13.2523
 187   2.0000      -0.483707       -13.1623
 188   2.0000      -0.481485       -13.1019
 189   2.0000      -0.478166       -13.0115
 190   2.0000      -0.475872       -12.9491
 191   2.0000      -0.473672       -12.8893
 192   2.0000      -0.471817       -12.8388
 193   2.0000      -0.470534       -12.8039
 194   2.0000      -0.463197       -12.6042
 195   2.0000      -0.457737       -12.4557
 196   2.0000      -0.457421       -12.4471
 197   2.0000      -0.455102       -12.3840
 198   2.0000      -0.454080       -12.3561
 199   2.0000      -0.450315       -12.2537
 200   2.0000      -0.448460       -12.2032
 201   2.0000      -0.445371       -12.1192
 202   2.0000      -0.442027       -12.0282
 203   2.0000      -0.438649       -11.9363
 204   2.0000      -0.438134       -11.9222
 205   2.0000      -0.437857       -11.9147
 206   2.0000      -0.435481       -11.8500
 207   2.0000      -0.433195       -11.7878
 208   2.0000      -0.427942       -11.6449
 209   2.0000      -0.427062       -11.6209
 210   2.0000      -0.421658       -11.4739
 211   2.0000      -0.420792       -11.4503
 212   2.0000      -0.420632       -11.4460
 213   2.0000      -0.420177       -11.4336
 214   2.0000      -0.419222       -11.4076
 215   2.0000      -0.417113       -11.3502
 216   2.0000      -0.413884       -11.2624
 217   2.0000      -0.412798       -11.2328
 218   2.0000      -0.411193       -11.1891
 219   2.0000      -0.408218       -11.1082
 220   2.0000      -0.405112       -11.0237
 221   2.0000      -0.392964       -10.6931
 222   2.0000      -0.389925       -10.6104
 223   2.0000      -0.384721       -10.4688
 224   2.0000      -0.381763       -10.3883
 225   2.0000      -0.378559       -10.3011
 226   2.0000      -0.375466       -10.2170
 227   2.0000      -0.370516       -10.0823
 228   2.0000      -0.365013        -9.9325
 229   2.0000      -0.361492        -9.8367
 230   2.0000      -0.355285        -9.6678
 231   2.0000      -0.354019        -9.6334
 232   2.0000      -0.352053        -9.5799
 233   2.0000      -0.347270        -9.4497
 234   2.0000      -0.338849        -9.2206
 235   2.0000      -0.332738        -9.0543
 236   2.0000      -0.322819        -8.7844
 237   2.0000      -0.315913        -8.5964
 238   2.0000      -0.303331        -8.2540
 239   2.0000      -0.298974        -8.1355
 240   2.0000      -0.282443        -7.6857
 241   2.0000      -0.264275        -7.1913
 242   2.0000      -0.231395        -6.2966
 243   0.0000      -0.132084        -3.5942
 244   0.0000      -0.108241        -2.9454
 245   0.0000      -0.067188        -1.8283
 246   0.0000      -0.055844        -1.5196
 247   0.0000      -0.050305        -1.3689

MULLIKEN ATOMIC CHARGES
-----------------------
   0 C :    0.313399
   1 C :   -0.345846
   2 C :   -0.188684
   3 N :    0.146911
   4 C :   -0.198086
   5 N :    0.146879
   6 C :    0.015829
   7 C :   -0.010482
   8 C :   -0.072166
   9 C :    0.113311
  10 C :   -0.095481
  11 C :   -0.026314
  12 S :    0.137408
  13 C :   -0.052711
  14 C :    0.025034
  15 C :    0.141917
  16 O :   -0.164506
  17 C :   -0.080104
  18 C :   -0.048992
  19 C :   -0.021059
  20 C :    0.003294
  21 C :    0.035152
  22 C :    0.043210
  23 C :   -0.050543
  24 S :    0.116040
  25 C :   -0.043475
  26 C :    0.039144
  27 C :    0.041723
  28 C :   -0.022159
  29 S :    0.112272
  30 C :   -0.024887
  31 C :    0.099723
  32 C :   -0.054363
  33 C :    0.106362
  34 N :    0.233558
  35 O :   -0.215657
  36 O :   -0.228518
  37 C :    0.117617
  38 C :   -0.041394
  39 C :    0.016716
  40 C :   -0.162274
  41 S :    0.175815
  42 C :   -0.254308
  43 C :    0.161518
  44 C :    0.192334
  45 O :   -0.194659
  46 C :    0.009107
  47 C :   -0.112450
  48 N :    0.185793
  49 C :   -0.032387
  50 C :    0.258549
  51 C :   -0.100463
  52 C :    0.023624
  53 N :    0.053140
  54 C :   -0.145535
  55 C :   -0.098186
  56 N :    0.039153
  57 C :   -0.248076
  58 N :    0.252010
  59 C :   -0.203478
  60 N :    0.242234
  61 C :   -0.091811
  62 C :    0.116704
  63 C :   -0.047932
  64 N :   -0.337157
  65 S :    0.555777
  66 N :   -0.263470
  67 H :   -0.016098
  68 H :   -0.006612
  69 H :    0.035888
  70 H :   -0.009949
  71 H :    0.027362
  72 H :    0.019470
  73 H :    0.001123
  74 H :   -0.005024
  75 H :   -0.005368
  76 H :   -0.002222
  77 H :   -0.005129
  78 H :    0.017312
  79 H :   -0.000934
  80 H :   -0.012881
  81 H :   -0.013966
  82 H :   -0.016616
Sum of atomic charges:   -0.0000000

LOEWDIN ATOMIC CHARGES
----------------------
   0 C :    0.071594
   1 C :   -0.144977
   2 C :   -0.018966
   3 N :   -0.057496
   4 C :   -0.021865
   5 N :   -0.057902
   6 C :   -0.019581
   7 C :   -0.052896
   8 C :    0.019731
   9 C :   -0.037605
  10 C :   -0.146211
  11 C :   -0.010611
  12 S :    0.427315
  13 C :   -0.153205
  14 C :   -0.059179
  15 C :    0.083078
  16 O :   -0.156471
  17 C :   -0.094467
  18 C :    0.047874
  19 C :   -0.061610
  20 C :   -0.108051
  21 C :   -0.031072
  22 C :   -0.012175
  23 C :   -0.180957
  24 S :    0.414564
  25 C :   -0.162239
  26 C :   -0.027633
  27 C :   -0.019774
  28 C :   -0.137657
  29 S :    0.414689
  30 C :   -0.044155
  31 C :   -0.026382
  32 C :   -0.000769
  33 C :   -0.015882
  34 N :    0.281794
  35 O :   -0.183544
  36 O :   -0.194545
  37 C :   -0.023261
  38 C :   -0.010311
  39 C :    0.005230
  40 C :   -0.183029
  41 S :    0.512584
  42 C :   -0.168508
  43 C :   -0.046262
  44 C :    0.016486
  45 O :    0.011347
  46 C :    0.023616
  47 C :   -0.039236
  48 N :   -0.005864
  49 C :   -0.011712
  50 C :   -0.019479
  51 C :   -0.015394
  52 C :   -0.004970
  53 N :   -0.000658
  54 C :   -0.022717
  55 C :   -0.033802
  56 N :    0.008544
  57 C :   -0.045717
  58 N :    0.002070
  59 C :   -0.034742
  60 N :    0.001354
  61 C :   -0.018165
  62 C :   -0.044833
  63 C :   -0.051195
  64 N :   -0.306014
  65 S :    0.685464
  66 N :   -0.279802
  67 H :    0.038371
  68 H :    0.040643
  69 H :    0.028011
  70 H :    0.033829
  71 H :    0.032843
  72 H :    0.039744
  73 H :    0.039599
  74 H :    0.035337
  75 H :    0.035534
  76 H :    0.037048
  77 H :    0.037267
  78 H :    0.028620
  79 H :    0.029230
  80 H :    0.034089
  81 H :    0.037621
  82 H :    0.048426

  Mayer bond orders larger than 0.100000
B(  0-C ,  1-C ) :   1.6096 B(  0-C ,  6-C ) :   0.9967 B(  0-C , 17-C ) :   1.0892
B(  1-C ,  2-C ) :   1.1458 B(  1-C ,  4-C ) :   1.1496 B(  2-C ,  3-N ) :   2.9700
B(  4-C ,  5-N ) :   2.9782 B(  6-C ,  7-C ) :   1.2723 B(  6-C , 11-C ) :   1.4181
B(  7-C ,  8-C ) :   1.4273 B(  7-C , 15-C ) :   0.9408 B(  8-C ,  9-C ) :   1.2432
B(  8-C , 67-H ) :   1.0167 B(  9-C , 10-C ) :   1.3073 B(  9-C , 14-C ) :   1.1720
B( 10-C , 11-C ) :   1.3169 B( 10-C , 12-S ) :   1.0979 B( 11-C , 68-H ) :   0.9833
B( 12-S , 13-C ) :   1.1264 B( 13-C , 14-C ) :   1.6255 B( 13-C , 69-H ) :   0.9695
B( 14-C , 70-H ) :   0.9997 B( 15-C , 16-O ) :   2.1892 B( 15-C , 17-C ) :   0.9572
B( 17-C , 18-C ) :   1.5286 B( 18-C , 19-C ) :   1.2183 B( 18-C , 71-H ) :   0.9443
B( 19-C , 20-C ) :   1.4583 B( 19-C , 72-H ) :   0.9797 B( 20-C , 21-C ) :   1.1580
B( 20-C , 24-S ) :   1.0750 B( 21-C , 22-C ) :   1.5692 B( 21-C , 73-H ) :   1.0013
B( 22-C , 23-C ) :   1.1933 B( 22-C , 74-H ) :   0.9951 B( 23-C , 24-S ) :   1.0565
B( 23-C , 25-C ) :   1.4924 B( 25-C , 26-C ) :   1.1773 B( 25-C , 29-S ) :   1.0652
B( 26-C , 27-C ) :   1.6059 B( 26-C , 75-H ) :   0.9935 B( 27-C , 28-C ) :   1.1270
B( 27-C , 76-H ) :   0.9986 B( 28-C , 29-S ) :   1.0342 B( 28-C , 30-C ) :   1.6129
B( 30-C , 31-C ) :   1.0916 B( 30-C , 77-H ) :   0.9721 B( 31-C , 32-C ) :   1.2735
B( 31-C , 39-C ) :   1.3005 B( 32-C , 33-C ) :   1.4417 B( 32-C , 78-H ) :   0.9612
B( 33-C , 34-N ) :   0.8695 B( 33-C , 37-C ) :   1.3363 B( 34-N , 35-O ) :   1.5586
B( 34-N , 36-O ) :   1.5376 B( 35-O , 36-O ) :   0.2716 B( 37-C , 38-C ) :   1.3204
B( 37-C , 40-C ) :   1.0865 B( 38-C , 39-C ) :   1.4250 B( 38-C , 79-H ) :   0.9853
B( 39-C , 80-H ) :   0.9969 B( 40-C , 41-S ) :   1.1033 B( 40-C , 42-C ) :   0.1107
B( 40-C , 44-C ) :   1.4435 B( 41-S , 42-C ) :   1.1345 B( 42-C , 43-C ) :   1.2749
B( 42-C , 50-C ) :   1.2311 B( 43-C , 44-C ) :   1.2355 B( 43-C , 49-C ) :   1.1441
B( 44-C , 45-O ) :   1.1332 B( 45-O , 46-C ) :   1.1281 B( 46-C , 47-C ) :   1.0734
B( 46-C , 49-C ) :   1.5705 B( 47-C , 48-N ) :   3.0437 B( 49-C , 81-H ) :   1.0204
B( 50-C , 51-C ) :   1.2193 B( 50-C , 61-C ) :   0.1227 B( 50-C , 63-C ) :   1.1900
B( 51-C , 52-C ) :   1.1108 B( 51-C , 56-N ) :   1.4903 B( 52-C , 53-N ) :   1.3339
B( 52-C , 61-C ) :   1.3108 B( 53-N , 54-C ) :   1.7869 B( 54-C , 55-C ) :   1.1935
B( 54-C , 59-C ) :   1.1557 B( 55-C , 56-N ) :   1.7063 B( 55-C , 57-C ) :   1.1466
B( 57-C , 58-N ) :   3.0313 B( 59-C , 60-N ) :   3.0513 B( 61-C , 62-C ) :   1.1728
B( 61-C , 82-H ) :   1.0592 B( 62-C , 63-C ) :   1.1331 B( 62-C , 66-N ) :   1.4614
B( 63-C , 64-N ) :   1.4606 B( 64-N , 65-S ) :   1.2668 B( 64-N , 66-N ) :   0.1553
B( 65-S , 66-N ) :   1.3107

-----------------------------------------------------------------------------
         ABSORPTION SPECTRUM VIA TRANSITION ELECTRIC DIPOLE MOMENTS
-----------------------------------------------------------------------------
State   Energy  Wavelength   fosc         T2         TX        TY        TZ
        (cm-1)    (nm)                  (au**2)     (au)      (au)      (au)
-----------------------------------------------------------------------------
   0   10204.9    979.9   0.888489467  28.66293  -2.22589  -4.48474  -1.89618
   1   13536.1    738.8   0.589233686  14.33073  -3.62015  -0.43988   1.01577
   2   14704.0    680.1   0.142279027   3.18553   1.16158   1.25678   0.50671
   3   21838.5    457.9   0.092306921   1.39151  -0.09765   0.96562   0.67049
   4   22124.7    452.0   0.577490799   8.59296  -1.92389   1.68480   1.43286
   5   22340.7    447.6   0.070697284   1.04179  -0.05855   0.85463   0.55496
   6   23290.8    429.4   0.019130744   0.27041   0.51326  -0.02511   0.07962
   7   24229.2    412.7   0.170304584   2.31400  -0.52560  -1.25479  -0.68063
   8   24998.4    400.0   0.006124081   0.08065   0.24883   0.08287  -0.10893
   9   25865.4    386.6   0.169352018   2.15549  -1.37515   0.45532   0.23904
  10   26316.7    380.0   0.023574026   0.29490   0.41780   0.27779   0.20779
  11   26508.4    377.2   0.024472386   0.30393   0.07176  -0.46079  -0.29403
  12   26541.6    376.8   0.004180099   0.05185   0.10813   0.15398  -0.12824
  13   26910.7    371.6   0.092979264   1.13746   0.05816  -0.89550  -0.57633
  14   27066.5    369.5   0.004020574   0.04890  -0.06161  -0.18925  -0.09638
  15   27457.1    364.2   0.077727933   0.93196   0.91779   0.21797   0.20520
  16   28187.1    354.8   0.002208246   0.02579   0.09842  -0.04764  -0.11762
  17   28565.8    350.1   0.145945097   1.68197   0.71096  -0.88037  -0.63360
  18   29132.6    343.3   0.030012926   0.33916  -0.39192   0.41082   0.12956
  19   29566.4    338.2   0.091219008   1.01569  -0.99274   0.14776   0.09130
  20   29798.4    335.6   0.003438406   0.03799  -0.10180   0.11835   0.11670
  21   30659.1    326.2   0.128850270   1.38357  -0.96033   0.48344   0.47708
  22   30867.3    324.0   0.049133554   0.52403  -0.47146   0.43698   0.33287
  23   31376.4    318.7   0.071536809   0.75059  -0.75985  -0.34758  -0.22892
  24   31596.3    316.5   0.062885987   0.65523   0.22597  -0.69400  -0.35004
  25   31866.9    313.8   0.015064408   0.15563   0.20679  -0.12605  -0.31141
  26   32157.2    311.0   0.305388465   3.12644   1.68101  -0.54154  -0.08583
  27   32533.9    307.4   0.672739072   6.80748  -2.45967  -0.72524  -0.48117
  28   33187.9    301.3   0.009728881   0.09651  -0.30479   0.05608  -0.02151
  29   33337.4    300.0   0.156828652   1.54870   1.03708  -0.64621  -0.23576
  30   33535.2    298.2   0.005725385   0.05621   0.00889   0.23299   0.04289
  31   33702.4    296.7   0.246572621   2.40857  -1.54546  -0.12211  -0.07223
  32   33802.8    295.8   0.007130763   0.06945   0.03066   0.25552  -0.05670
  33   34126.5    293.0   0.007285436   0.07028  -0.22544  -0.11781  -0.07469
  34   34774.4    287.6   0.001790502   0.01695  -0.11143   0.04914  -0.04603
  35   35129.0    284.7   0.000580959   0.00544  -0.07190  -0.00106   0.01653
  36   35312.6    283.2   0.248373420   2.31553   1.43370   0.38433   0.33514
  37   35776.5    279.5   0.025946609   0.23876   0.02730  -0.37468  -0.31245
  38   36031.2    277.5   0.000973543   0.00890  -0.02087  -0.08368  -0.03818
  39   36421.3    274.6   0.004119467   0.03724  -0.15364   0.08833  -0.07633
  40   36706.4    272.4   0.031740583   0.28467   0.12513  -0.44888  -0.25986
  41   37060.3    269.8   0.031297075   0.27802   0.12445  -0.26607  -0.43787
  42   37097.1    269.6   0.051098807   0.45347  -0.06024   0.53518   0.40425
  43   37467.5    266.9   0.048906149   0.42972  -0.33867   0.47906   0.29244
  44   37625.1    265.8   0.034642246   0.30311   0.51871  -0.16764   0.07712
  45   37798.9    264.6   0.081788961   0.71235   0.41653   0.60002   0.42288
  46   38323.1    260.9   0.196163191   1.68513  -0.50970  -0.87603  -0.81111
  47   38414.3    260.3   0.015149891   0.12984  -0.15068  -0.19354  -0.26396
  48   38821.0    257.6   0.013085442   0.11097   0.33296   0.00249   0.00995
  49   39263.7    254.7   0.005040555   0.04226  -0.07753   0.17661  -0.07114
  50   39428.7    253.6   0.051695484   0.43163  -0.54155   0.28838   0.23494
  51   39592.6    252.6   0.010264729   0.08535   0.08693  -0.08257  -0.26641
  52   39754.0    251.5   0.034729306   0.28760  -0.42147   0.31310   0.10924
  53   39999.8    250.0   0.012598505   0.10369   0.05619   0.26273   0.17750
  54   40233.9    248.5   0.166641724   1.36354   1.09681   0.29475   0.27143

FINAL SINGLE POINT ENERGY     -4673.875741041360

DIPOLE MOMENT
-------------
                                X             Y             Z
Electronic contribution:     -3.85621     -46.64472     -22.22937
Nuclear contribution   :     -2.05826      49.05919      23.63684
                        -----------------------------------------
Total Dipole Moment    :     -5.91447       2.41448       1.40747
                        -----------------------------------------
Magnitude (a.u.)       :      6.54153
Magnitude (Debye)      :     16.62725

Rotational constants in cm-1:     0.001251     0.000393     0.000305
Rotational constants in MHz :    37.509981    11.775296     9.139787

                             ****ORCA TERMINATED NORMALLY****
TOTAL RUN TIME: 0 days 0 hours 8 minutes 26 seconds 537 msec
