                         Program Version 4.2.0 -  RELEASE  -
|  1> # ORCA input file
|  2> # SCF done       -191.497440079298          0.000475526889
|  3> ! CAM-B3LYP def2-SVP def2/J RIJCOSX Grid4 TightSCF
|  4> %maxcore 5000
|  5> %tddft
|  6>     Mode sTDDFT
|  7>     Ethresh 5.0
|  8>     maxcore 5000
|  9> end
| 10>
| 11> %pal
| 12>   nprocs 6
| 13>   end
| 14> * xyz 0 1
| 15>    C       -2.09248        -0.79172         0.03647
| 16>    C       -2.51485        -2.05477        -0.28812
| 17>    C       -1.65631        -3.16453        -0.42324
| 18>    N       -1.00387        -4.10182        -0.54272
| 19>    C       -3.85155        -2.40019        -0.57922
| 20>    N       -4.90707        -2.75391        -0.86074
| 21>    C       -0.71038        -0.36787         0.21416
| 22>    C       -0.68573         1.03979         0.37768
| 23>    C        0.48098         1.74090         0.56418
| 24>    C        1.68007         1.02201         0.58504
| 25>    C        1.64483        -0.38338         0.42348
| 26>    C        0.46498        -1.09443         0.23831
| 27>    S        3.24038        -1.06376         0.49376
| 28>    C        3.92623         0.50656         0.73150
| 29>    C        3.01023         1.49883         0.75856
| 30>    C       -2.06242         1.56793         0.34617
| 31>    O       -2.39331         2.71572         0.55743
| 32>    C       -2.93647         0.38101         0.15091
| 33>    C       -4.29152         0.39461         0.28268
| 34>    C       -5.09819         1.56863         0.20311
| 35>    C       -6.23882         1.72224         1.01821
| 36>    C       -7.00521         2.94489         1.02763
| 37>    N       -8.08403         3.04301         1.82384
| 38>    C       -8.39352         2.04235         2.61118
| 39>    C       -7.59949         0.84917         2.63705
| 40>    N       -6.56174         0.71510         1.84795
| 41>    C       -7.94417        -0.20372         3.52019
| 42>    N       -8.25175        -1.02332         4.25953
| 43>    C       -9.53602         2.15066         3.44203
| 44>    N      -10.44550         2.21454         4.13613
| 45>    C       -6.67411         4.04122         0.20081
| 46>    C       -5.62013         3.83004        -0.70774
| 47>    C       -4.83775         2.61366        -0.70343
| 48>    N       -3.90665         2.61560        -1.65575
| 49>    S       -3.96110         4.01675        -2.43147
| 50>    N       -5.18269         4.68630        -1.63811
| 51>    C       -7.34767         5.32398         0.29736
| 52>    C       -7.55599         6.09320        -0.85733
| 53>    C       -8.11802         7.33889        -0.74301
| 54>    C       -8.48321         7.85011         0.51409
| 55>    C       -8.30886         7.08421         1.65821
| 56>    C       -7.74616         5.83002         1.54172
| 57>    C       -8.94762         9.20797         0.33727
| 58>    C       -8.88283         9.53205        -1.03036
| 59>    C       -8.44375         8.33179        -1.83848
| 60>    C       -7.23046         8.63263        -2.72951
| 61>    C       -6.01048         9.06097        -1.92206
| 62>    C       -9.61636         7.73404        -2.65184
| 63>    C      -10.22218         8.65116        -3.70598
| 64>    C       -9.16231        10.81092        -1.44843
| 65>    C       -9.51907        11.79293        -0.51160
| 66>    C       -9.62701        11.43774         0.83842
| 67>    C       -9.34356        10.15790         1.26835
| 68>    C       -9.73460        13.14655        -0.97638
| 69>    C       -9.67980        14.25820        -0.22236
| 70>    C       -9.83763        15.57669        -0.76742
| 71>    C       -9.62032        16.72196        -0.10398
| 72>    C       -9.19988        16.77996         1.33495
| 73>    C       -9.75174        18.05113        -0.81026
| 74>    N      -10.61703        18.96721        -0.11006
| 75>    C      -10.17877        19.99555         0.63867
| 76>    C      -10.95671        20.74118         1.47092
| 77>    C      -10.46210        21.84295         2.18878
| 78>    C      -11.20229        22.63042         3.03057
| 79>    C      -10.74982        23.75032         3.77038
| 80>    C      -11.70898        24.35492         4.52073
| 81>    C      -12.98539        23.74840         4.42221
| 82>    S      -12.91902        22.37469         3.33893
| 83>    C      -14.14977        24.12801         5.05060
| 84>    C      -14.33438        25.21889         5.94187
| 85>    C      -15.59789        25.35498         6.40498
| 86>    C      -16.51883        24.37274         5.91225
| 87>    S      -15.66286        23.27026         4.82282
| 88>    C      -17.82495        24.25604         6.19181
| 89>    H        0.46786         2.81267         0.68902
| 90>    H        0.48773        -2.16594         0.12873
| 91>    H        4.99029         0.58967         0.83903
| 92>    H        3.25120         2.53727         0.89771
| 93>    H       -4.82195        -0.52033         0.51488
| 94>    H       -7.26885         5.69681        -1.81763
| 95>    H       -8.58908         7.46727         2.62784
| 96>    H       -7.57239         5.24232         2.42869
| 97>    H       -7.49011         9.42606        -3.43186
| 98>    H       -6.98565         7.73818        -3.30539
| 99>    H       -6.23833         9.93813        -1.31956
|100>    H       -5.18671         9.30513        -2.58899
|101>    H       -5.69024         8.26075        -1.25936
|102>    H      -10.40030         7.44482        -1.94691
|103>    H       -9.25450         6.82313        -3.13376
|104>    H      -10.66306         9.53138        -3.24588
|105>    H      -11.00821         8.11875        -4.23741
|106>    H       -9.47824         8.96556        -4.43327
|107>    H       -9.07257        11.08916        -2.48847
|108>    H       -9.94039        12.17925         1.55744
|109>    H       -9.41516         9.90362         2.31530
|110>    H       -9.89544        13.25299        -2.04309
|111>    H       -9.46961        14.18463         0.83373
|112>    H      -10.12054        15.62346        -1.81211
|113>    H       -9.89246        16.22647         1.96703
|114>    H       -9.16421        17.80713         1.68978
|115>    H       -8.21068        16.34030         1.46032
|116>    H      -10.14103        17.89553        -1.82195
|117>    H       -8.76510        18.51969        -0.89158
|118>    H      -11.57148        18.66672         0.02623
|119>    H       -9.13255        20.24446         0.51226
|120>    H      -12.00173        20.49016         1.59234
|121>    H       -9.41591        22.09618         2.07172
|122>    H       -9.72440        24.07312         3.72001
|123>    H      -11.53851        25.21715         5.13989
|124>    H      -13.51909        25.86795         6.20872
|125>    H      -15.92504        26.12081         7.08560
|126>    H      -18.30671        24.94892         6.85872
|127>    H      -18.42795        23.47687         5.76336
|128> *
|129>
|130>                          ****END OF INPUT****

CARTESIAN COORDINATES (ANGSTROEM)
---------------------------------
  C     -2.092480   -0.791720    0.036470
  C     -2.514850   -2.054770   -0.288120
  C     -1.656310   -3.164530   -0.423240
  N     -1.003870   -4.101820   -0.542720
  C     -3.851550   -2.400190   -0.579220
  N     -4.907070   -2.753910   -0.860740
  C     -0.710380   -0.367870    0.214160
  C     -0.685730    1.039790    0.377680
  C      0.480980    1.740900    0.564180
  C      1.680070    1.022010    0.585040
  C      1.644830   -0.383380    0.423480
  C      0.464980   -1.094430    0.238310
  S      3.240380   -1.063760    0.493760
  C      3.926230    0.506560    0.731500
  C      3.010230    1.498830    0.758560
  C     -2.062420    1.567930    0.346170
  O     -2.393310    2.715720    0.557430
  C     -2.936470    0.381010    0.150910
  C     -4.291520    0.394610    0.282680
  C     -5.098190    1.568630    0.203110
  C     -6.238820    1.722240    1.018210
  C     -7.005210    2.944890    1.027630
  N     -8.084030    3.043010    1.823840
  C     -8.393520    2.042350    2.611180
  C     -7.599490    0.849170    2.637050
  N     -6.561740    0.715100    1.847950
  C     -7.944170   -0.203720    3.520190
  N     -8.251750   -1.023320    4.259530
  C     -9.536020    2.150660    3.442030
  N    -10.445500    2.214540    4.136130
  C     -6.674110    4.041220    0.200810
  C     -5.620130    3.830040   -0.707740
  C     -4.837750    2.613660   -0.703430
  N     -3.906650    2.615600   -1.655750
  S     -3.961100    4.016750   -2.431470
  N     -5.182690    4.686300   -1.638110
  C     -7.347670    5.323980    0.297360
  C     -7.555990    6.093200   -0.857330
  C     -8.118020    7.338890   -0.743010
  C     -8.483210    7.850110    0.514090
  C     -8.308860    7.084210    1.658210
  C     -7.746160    5.830020    1.541720
  C     -8.947620    9.207970    0.337270
  C     -8.882830    9.532050   -1.030360
  C     -8.443750    8.331790   -1.838480
  C     -7.230460    8.632630   -2.729510
  C     -6.010480    9.060970   -1.922060
  C     -9.616360    7.734040   -2.651840
  C    -10.222180    8.651160   -3.705980
  C     -9.162310   10.810920   -1.448430
  C     -9.519070   11.792930   -0.511600
  C     -9.627010   11.437740    0.838420
  C     -9.343560   10.157900    1.268350
  C     -9.734600   13.146550   -0.976380
  C     -9.679800   14.258200   -0.222360
  C     -9.837630   15.576690   -0.767420
  C     -9.620320   16.721960   -0.103980
  C     -9.199880   16.779960    1.334950
  C     -9.751740   18.051130   -0.810260
  N    -10.617030   18.967210   -0.110060
  C    -10.178770   19.995550    0.638670
  C    -10.956710   20.741180    1.470920
  C    -10.462100   21.842950    2.188780
  C    -11.202290   22.630420    3.030570
  C    -10.749820   23.750320    3.770380
  C    -11.708980   24.354920    4.520730
  C    -12.985390   23.748400    4.422210
  S    -12.919020   22.374690    3.338930
  C    -14.149770   24.128010    5.050600
  C    -14.334380   25.218890    5.941870
  C    -15.597890   25.354980    6.404980
  C    -16.518830   24.372740    5.912250
  S    -15.662860   23.270260    4.822820
  C    -17.824950   24.256040    6.191810
  H      0.467860    2.812670    0.689020
  H      0.487730   -2.165940    0.128730
  H      4.990290    0.589670    0.839030
  H      3.251200    2.537270    0.897710
  H     -4.821950   -0.520330    0.514880
  H     -7.268850    5.696810   -1.817630
  H     -8.589080    7.467270    2.627840
  H     -7.572390    5.242320    2.428690
  H     -7.490110    9.426060   -3.431860
  H     -6.985650    7.738180   -3.305390
  H     -6.238330    9.938130   -1.319560
  H     -5.186710    9.305130   -2.588990
  H     -5.690240    8.260750   -1.259360
  H    -10.400300    7.444820   -1.946910
  H     -9.254500    6.823130   -3.133760
  H    -10.663060    9.531380   -3.245880
  H    -11.008210    8.118750   -4.237410
  H     -9.478240    8.965560   -4.433270
  H     -9.072570   11.089160   -2.488470
  H     -9.940390   12.179250    1.557440
  H     -9.415160    9.903620    2.315300
  H     -9.895440   13.252990   -2.043090
  H     -9.469610   14.184630    0.833730
  H    -10.120540   15.623460   -1.812110
  H     -9.892460   16.226470    1.967030
  H     -9.164210   17.807130    1.689780
  H     -8.210680   16.340300    1.460320
  H    -10.141030   17.895530   -1.821950
  H     -8.765100   18.519690   -0.891580
  H    -11.571480   18.666720    0.026230
  H     -9.132550   20.244460    0.512260
  H    -12.001730   20.490160    1.592340
  H     -9.415910   22.096180    2.071720
  H     -9.724400   24.073120    3.720010
  H    -11.538510   25.217150    5.139890
  H    -13.519090   25.867950    6.208720
  H    -15.925040   26.120810    7.085600
  H    -18.306710   24.948920    6.858720
  H    -18.427950   23.476870    5.763360

 Total Charge           Charge          ....    0
 Multiplicity           Mult            ....    1
 Number of Electrons    NEL             ....  534
 Basis Dimension        Dim             .... 1247

ORBITAL ENERGIES
----------------

  NO   OCC          E(Eh)            E(eV)
   0   2.0000     -89.052209     -2423.2338
   1   2.0000     -88.969620     -2420.9864
   2   2.0000     -88.920302     -2419.6444
   3   2.0000     -88.914812     -2419.4950
   4   2.0000     -19.219299      -522.9837
   5   2.0000     -14.467852      -393.6903
   6   2.0000     -14.467350      -393.6766
   7   2.0000     -14.460162      -393.4810
   8   2.0000     -14.454922      -393.3384
   9   2.0000     -14.437348      -392.8602
  10   2.0000     -14.433826      -392.7644
  11   2.0000     -14.431152      -392.6916
  12   2.0000     -14.417803      -392.3284
  13   2.0000     -14.415817      -392.2743
  14   2.0000     -10.389262      -282.7062
  15   2.0000     -10.384133      -282.5666
  16   2.0000     -10.370685      -282.2007
  17   2.0000     -10.357386      -281.8388
  18   2.0000     -10.353943      -281.7451
  19   2.0000     -10.347968      -281.5825
  20   2.0000     -10.347689      -281.5749
  21   2.0000     -10.345800      -281.5235
  22   2.0000     -10.342566      -281.4355
  23   2.0000     -10.332248      -281.1548
  24   2.0000     -10.326205      -280.9903
  25   2.0000     -10.324564      -280.9457
  26   2.0000     -10.323912      -280.9279
  27   2.0000     -10.320368      -280.8315
  28   2.0000     -10.319998      -280.8214
  29   2.0000     -10.318081      -280.7693
  30   2.0000     -10.317513      -280.7538
  31   2.0000     -10.317061      -280.7415
  32   2.0000     -10.317025      -280.7405
  33   2.0000     -10.315076      -280.6875
  34   2.0000     -10.309432      -280.5339
  35   2.0000     -10.306367      -280.4505
  36   2.0000     -10.305296      -280.4214
  37   2.0000     -10.305125      -280.4167
  38   2.0000     -10.302335      -280.3408
  39   2.0000     -10.295143      -280.1451
  40   2.0000     -10.293687      -280.1055
  41   2.0000     -10.292419      -280.0710
  42   2.0000     -10.288699      -279.9697
  43   2.0000     -10.285147      -279.8731
  44   2.0000     -10.284584      -279.8577
  45   2.0000     -10.284285      -279.8496
  46   2.0000     -10.283298      -279.8228
  47   2.0000     -10.283276      -279.8222
  48   2.0000     -10.282574      -279.8031
  49   2.0000     -10.281200      -279.7657
  50   2.0000     -10.279907      -279.7305
  51   2.0000     -10.278478      -279.6916
  52   2.0000     -10.278188      -279.6837
  53   2.0000     -10.277888      -279.6756
  54   2.0000     -10.277765      -279.6722
  55   2.0000     -10.276918      -279.6492
  56   2.0000     -10.276338      -279.6334
  57   2.0000     -10.276252      -279.6310
  58   2.0000     -10.275122      -279.6003
  59   2.0000     -10.274980      -279.5964
  60   2.0000     -10.274873      -279.5935
  61   2.0000     -10.271520      -279.5023
  62   2.0000     -10.270220      -279.4669
  63   2.0000     -10.269388      -279.4442
  64   2.0000     -10.268440      -279.4185
  65   2.0000     -10.268257      -279.4135
  66   2.0000     -10.267832      -279.4019
  67   2.0000     -10.266225      -279.3582
  68   2.0000     -10.263067      -279.2723
  69   2.0000     -10.259893      -279.1859
  70   2.0000     -10.256966      -279.1062
  71   2.0000     -10.251739      -278.9640
  72   2.0000     -10.251151      -278.9480
  73   2.0000     -10.244880      -278.7774
  74   2.0000      -8.143319      -221.5910
  75   2.0000      -8.065911      -219.4846
  76   2.0000      -8.016597      -218.1427
  77   2.0000      -8.011517      -218.0045
  78   2.0000      -6.114243      -166.3770
  79   2.0000      -6.106499      -166.1663
  80   2.0000      -6.106404      -166.1637
  81   2.0000      -6.035429      -164.2324
  82   2.0000      -6.031121      -164.1151
  83   2.0000      -6.027556      -164.0181
  84   2.0000      -5.986361      -162.8972
  85   2.0000      -5.982495      -162.7920
  86   2.0000      -5.981381      -162.7617
  87   2.0000      -5.977490      -162.6558
  88   2.0000      -5.977338      -162.6516
  89   2.0000      -5.971990      -162.5061
  90   2.0000      -1.147704       -31.2306
  91   2.0000      -1.133261       -30.8376
  92   2.0000      -1.125836       -30.6355
  93   2.0000      -1.052634       -28.6436
  94   2.0000      -1.039828       -28.2951
  95   2.0000      -1.022519       -27.8242
  96   2.0000      -1.017218       -27.6799
  97   2.0000      -1.010547       -27.4984
  98   2.0000      -1.006964       -27.4009
  99   2.0000      -1.002074       -27.2678
 100   2.0000      -0.995669       -27.0935
 101   2.0000      -0.994726       -27.0679
 102   2.0000      -0.988928       -26.9101
 103   2.0000      -0.983621       -26.7657
 104   2.0000      -0.969051       -26.3692
 105   2.0000      -0.952788       -25.9267
 106   2.0000      -0.946259       -25.7490
 107   2.0000      -0.935334       -25.4517
 108   2.0000      -0.929194       -25.2847
 109   2.0000      -0.918278       -24.9876
 110   2.0000      -0.913992       -24.8710
 111   2.0000      -0.909701       -24.7542
 112   2.0000      -0.895157       -24.3585
 113   2.0000      -0.889268       -24.1982
 114   2.0000      -0.884225       -24.0610
 115   2.0000      -0.880782       -23.9673
 116   2.0000      -0.865474       -23.5508
 117   2.0000      -0.851662       -23.1749
 118   2.0000      -0.846032       -23.0217
 119   2.0000      -0.843768       -22.9601
 120   2.0000      -0.839945       -22.8561
 121   2.0000      -0.838423       -22.8147
 122   2.0000      -0.837662       -22.7940
 123   2.0000      -0.825989       -22.4763
 124   2.0000      -0.822204       -22.3733
 125   2.0000      -0.820982       -22.3401
 126   2.0000      -0.812387       -22.1062
 127   2.0000      -0.802579       -21.8393
 128   2.0000      -0.796462       -21.6728
 129   2.0000      -0.785911       -21.3857
 130   2.0000      -0.781410       -21.2632
 131   2.0000      -0.771127       -20.9834
 132   2.0000      -0.766293       -20.8519
 133   2.0000      -0.759561       -20.6687
 134   2.0000      -0.748001       -20.3541
 135   2.0000      -0.743340       -20.2273
 136   2.0000      -0.731981       -19.9182
 137   2.0000      -0.724241       -19.7076
 138   2.0000      -0.711344       -19.3567
 139   2.0000      -0.707685       -19.2571
 140   2.0000      -0.703880       -19.1536
 141   2.0000      -0.698830       -19.0161
 142   2.0000      -0.697583       -18.9822
 143   2.0000      -0.693679       -18.8760
 144   2.0000      -0.689671       -18.7669
 145   2.0000      -0.679114       -18.4796
 146   2.0000      -0.678657       -18.4672
 147   2.0000      -0.669947       -18.2302
 148   2.0000      -0.667259       -18.1570
 149   2.0000      -0.664169       -18.0730
 150   2.0000      -0.657463       -17.8905
 151   2.0000      -0.654341       -17.8055
 152   2.0000      -0.651685       -17.7333
 153   2.0000      -0.634266       -17.2593
 154   2.0000      -0.626254       -17.0412
 155   2.0000      -0.623166       -16.9572
 156   2.0000      -0.622685       -16.9441
 157   2.0000      -0.619724       -16.8635
 158   2.0000      -0.615507       -16.7488
 159   2.0000      -0.605204       -16.4684
 160   2.0000      -0.601037       -16.3550
 161   2.0000      -0.599013       -16.3000
 162   2.0000      -0.597466       -16.2579
 163   2.0000      -0.596894       -16.2423
 164   2.0000      -0.586665       -15.9640
 165   2.0000      -0.583715       -15.8837
 166   2.0000      -0.579367       -15.7654
 167   2.0000      -0.575607       -15.6631
 168   2.0000      -0.572966       -15.5912
 169   2.0000      -0.568979       -15.4827
 170   2.0000      -0.563802       -15.3418
 171   2.0000      -0.562828       -15.3153
 172   2.0000      -0.559175       -15.2159
 173   2.0000      -0.549440       -14.9510
 174   2.0000      -0.547944       -14.9103
 175   2.0000      -0.545987       -14.8571
 176   2.0000      -0.541706       -14.7406
 177   2.0000      -0.540353       -14.7037
 178   2.0000      -0.536411       -14.5965
 179   2.0000      -0.535559       -14.5733
 180   2.0000      -0.531042       -14.4504
 181   2.0000      -0.529344       -14.4042
 182   2.0000      -0.527141       -14.3442
 183   2.0000      -0.524956       -14.2848
 184   2.0000      -0.523065       -14.2333
 185   2.0000      -0.520125       -14.1533
 186   2.0000      -0.513799       -13.9812
 187   2.0000      -0.512385       -13.9427
 188   2.0000      -0.510288       -13.8856
 189   2.0000      -0.509893       -13.8749
 190   2.0000      -0.504055       -13.7160
 191   2.0000      -0.503213       -13.6931
 192   2.0000      -0.497826       -13.5465
 193   2.0000      -0.495045       -13.4709
 194   2.0000      -0.492703       -13.4071
 195   2.0000      -0.489575       -13.3220
 196   2.0000      -0.489216       -13.3122
 197   2.0000      -0.486402       -13.2357
 198   2.0000      -0.485110       -13.2005
 199   2.0000      -0.483331       -13.1521
 200   2.0000      -0.482277       -13.1234
 201   2.0000      -0.478824       -13.0295
 202   2.0000      -0.476253       -12.9595
 203   2.0000      -0.473173       -12.8757
 204   2.0000      -0.472662       -12.8618
 205   2.0000      -0.467503       -12.7214
 206   2.0000      -0.466596       -12.6967
 207   2.0000      -0.463458       -12.6113
 208   2.0000      -0.459969       -12.5164
 209   2.0000      -0.458188       -12.4679
 210   2.0000      -0.457339       -12.4448
 211   2.0000      -0.456653       -12.4262
 212   2.0000      -0.455635       -12.3985
 213   2.0000      -0.454148       -12.3580
 214   2.0000      -0.452519       -12.3137
 215   2.0000      -0.450452       -12.2574
 216   2.0000      -0.449640       -12.2353
 217   2.0000      -0.447540       -12.1782
 218   2.0000      -0.446467       -12.1490
 219   2.0000      -0.444727       -12.1016
 220   2.0000      -0.444172       -12.0865
 221   2.0000      -0.442499       -12.0410
 222   2.0000      -0.440716       -11.9925
 223   2.0000      -0.439422       -11.9573
 224   2.0000      -0.437961       -11.9175
 225   2.0000      -0.436306       -11.8725
 226   2.0000      -0.435200       -11.8424
 227   2.0000      -0.433824       -11.8050
 228   2.0000      -0.433088       -11.7849
 229   2.0000      -0.427898       -11.6437
 230   2.0000      -0.426185       -11.5971
 231   2.0000      -0.424719       -11.5572
 232   2.0000      -0.421818       -11.4783
 233   2.0000      -0.420432       -11.4405
 234   2.0000      -0.417640       -11.3646
 235   2.0000      -0.415063       -11.2944
 236   2.0000      -0.412771       -11.2321
 237   2.0000      -0.412587       -11.2271
 238   2.0000      -0.409564       -11.1448
 239   2.0000      -0.406158       -11.0521
 240   2.0000      -0.405824       -11.0430
 241   2.0000      -0.401646       -10.9293
 242   2.0000      -0.398425       -10.8417
 243   2.0000      -0.397745       -10.8232
 244   2.0000      -0.392972       -10.6933
 245   2.0000      -0.389151       -10.5893
 246   2.0000      -0.383625       -10.4390
 247   2.0000      -0.378700       -10.3050
 248   2.0000      -0.375286       -10.2121
 249   2.0000      -0.371723       -10.1151
 250   2.0000      -0.367752       -10.0070
 251   2.0000      -0.364175        -9.9097
 252   2.0000      -0.355056        -9.6616
 253   2.0000      -0.346743        -9.4354
 254   2.0000      -0.337971        -9.1966
 255   2.0000      -0.327996        -8.9252
 256   2.0000      -0.326752        -8.8914
 257   2.0000      -0.320053        -8.7091
 258   2.0000      -0.317337        -8.6352
 259   2.0000      -0.315953        -8.5975
 260   2.0000      -0.315504        -8.5853
 261   2.0000      -0.300399        -8.1743
 262   2.0000      -0.298302        -8.1172
 263   2.0000      -0.285255        -7.7622
 264   2.0000      -0.263093        -7.1591
 265   2.0000      -0.255593        -6.9550
 266   2.0000      -0.189566        -5.1584
 267   0.0000      -0.130565        -3.5529
 268   0.0000      -0.083978        -2.2852
 269   0.0000      -0.059976        -1.6320
 270   0.0000      -0.052503        -1.4287
 271   0.0000      -0.040112        -1.0915

MULLIKEN ATOMIC CHARGES
-----------------------
   0 C :    0.290003
   1 C :   -0.331359
   2 C :   -0.188047
   3 N :    0.156101
   4 C :   -0.202599
   5 N :    0.171505
   6 C :    0.020390
   7 C :   -0.018853
   8 C :   -0.069144
   9 C :    0.112893
  10 C :   -0.092460
  11 C :   -0.024350
  12 S :    0.142108
  13 C :   -0.049927
  14 C :    0.025961
  15 C :    0.155154
  16 O :   -0.157952
  17 C :   -0.056163
  18 C :   -0.067668
  19 C :    0.067461
  20 C :   -0.026239
  21 C :   -0.081193
  22 N :    0.052042
  23 C :   -0.143851
  24 C :   -0.126700
  25 N :    0.055435
  26 C :   -0.196937
  27 N :    0.240094
  28 C :   -0.203943
  29 N :    0.238257
  30 C :    0.112929
  31 C :    0.026889
  32 C :    0.017460
  33 N :   -0.268859
  34 S :    0.558529
  35 N :   -0.287730
  36 C :   -0.004172
  37 C :   -0.045383
  38 C :   -0.005211
  39 C :    0.120089
  40 C :   -0.065240
  41 C :    0.040201
  42 C :    0.100927
  43 C :    0.027734
  44 C :   -0.124679
  45 C :    0.048043
  46 C :    0.029434
  47 C :    0.082593
  48 C :    0.032657
  49 C :   -0.110820
  50 C :    0.120801
  51 C :   -0.013468
  52 C :   -0.046840
  53 C :   -0.002311
  54 C :    0.015983
  55 C :    0.002267
  56 C :   -0.211416
  57 C :    0.086600
  58 C :    0.225169
  59 N :   -0.149407
  60 C :    0.049365
  61 C :   -0.028307
  62 C :   -0.014534
  63 C :   -0.037405
  64 C :    0.040676
  65 C :    0.008181
  66 C :   -0.039105
  67 S :    0.047638
  68 C :   -0.076598
  69 C :    0.029677
  70 C :    0.038175
  71 C :   -0.055750
  72 S :    0.057714
  73 C :   -0.047344
  74 H :   -0.013606
  75 H :   -0.004922
  76 H :    0.040846
  77 H :   -0.006499
  78 H :    0.048335
  79 H :   -0.025582
  80 H :   -0.030146
  81 H :   -0.020791
  82 H :    0.007068
  83 H :   -0.001818
  84 H :    0.018444
  85 H :    0.006085
  86 H :    0.021828
  87 H :    0.005268
  88 H :   -0.004282
  89 H :    0.018382
  90 H :    0.014483
  91 H :    0.002799
  92 H :   -0.038205
  93 H :   -0.027160
  94 H :   -0.031681
  95 H :   -0.022398
  96 H :   -0.013625
  97 H :   -0.032303
  98 H :    0.035597
  99 H :    0.014899
 100 H :    0.032681
 101 H :    0.004338
 102 H :    0.022388
 103 H :    0.120858
 104 H :   -0.000537
 105 H :   -0.016142
 106 H :   -0.028849
 107 H :   -0.024999
 108 H :   -0.024790
 109 H :   -0.019970
 110 H :   -0.022276
 111 H :    0.009422
 112 H :    0.011685
Sum of atomic charges:   -0.0000000

LOEWDIN ATOMIC CHARGES
----------------------
   0 C :    0.073590
   1 C :   -0.130421
   2 C :   -0.017602
   3 N :   -0.048497
   4 C :   -0.024143
   5 N :   -0.044098
   6 C :   -0.021798
   7 C :   -0.051536
   8 C :    0.022171
   9 C :   -0.034635
  10 C :   -0.144369
  11 C :   -0.008170
  12 S :    0.430853
  13 C :   -0.148229
  14 C :   -0.058360
  15 C :    0.085335
  16 O :   -0.149615
  17 C :   -0.069453
  18 C :    0.079295
  19 C :   -0.040887
  20 C :    0.011387
  21 C :   -0.015747
  22 N :    0.014516
  23 C :   -0.035285
  24 C :   -0.016093
  25 N :   -0.002711
  26 C :   -0.034582
  27 N :    0.004432
  28 C :   -0.037267
  29 N :   -0.004695
  30 C :    0.027578
  31 C :   -0.041794
  32 C :   -0.024605
  33 N :   -0.272324
  34 S :    0.695417
  35 N :   -0.276283
  36 C :   -0.028022
  37 C :    0.003565
  38 C :    0.000685
  39 C :    0.003044
  40 C :   -0.023844
  41 C :    0.010324
  42 C :   -0.021769
  43 C :    0.007585
  44 C :   -0.034174
  45 C :   -0.015978
  46 C :   -0.056386
  47 C :   -0.008388
  48 C :   -0.058908
  49 C :   -0.023086
  50 C :   -0.019512
  51 C :   -0.015902
  52 C :   -0.012258
  53 C :   -0.017400
  54 C :   -0.022665
  55 C :   -0.048476
  56 C :   -0.044346
  57 C :   -0.056115
  58 C :    0.045768
  59 N :    0.001494
  60 C :    0.038788
  61 C :   -0.126329
  62 C :   -0.040290
  63 C :   -0.178453
  64 C :   -0.030804
  65 C :   -0.053736
  66 C :   -0.172194
  67 S :    0.345551
  68 C :   -0.199555
  69 C :   -0.026032
  70 C :   -0.049663
  71 C :   -0.136547
  72 S :    0.334072
  73 C :   -0.102400
  74 H :    0.039476
  75 H :    0.041165
  76 H :    0.030095
  77 H :    0.035225
  78 H :    0.049664
  79 H :    0.024968
  80 H :    0.029462
  81 H :    0.027156
  82 H :    0.019754
  83 H :    0.020738
  84 H :    0.025110
  85 H :    0.022956
  86 H :    0.025600
  87 H :    0.027087
  88 H :    0.019923
  89 H :    0.024032
  90 H :    0.028453
  91 H :    0.019753
  92 H :    0.023708
  93 H :    0.026380
  94 H :    0.028464
  95 H :    0.026049
  96 H :    0.024384
  97 H :    0.023273
  98 H :    0.038205
  99 H :    0.031176
 100 H :    0.038889
 101 H :    0.025492
 102 H :    0.033284
 103 H :    0.081497
 104 H :    0.025416
 105 H :    0.018162
 106 H :    0.027725
 107 H :    0.028638
 108 H :    0.026767
 109 H :    0.029123
 110 H :    0.028654
 111 H :    0.023694
 112 H :    0.021384

  Mayer bond orders larger than 0.100000
B(  0-C ,  1-C ) :   1.6559 B(  0-C ,  6-C ) :   1.0099 B(  0-C , 17-C ) :   1.0534
B(  1-C ,  2-C ) :   1.1406 B(  1-C ,  4-C ) :   1.1431 B(  2-C ,  3-N ) :   2.9748
B(  4-C ,  5-N ) :   2.9953 B(  6-C ,  7-C ) :   1.2664 B(  6-C , 11-C ) :   1.4101
B(  7-C ,  8-C ) :   1.4250 B(  7-C , 15-C ) :   0.9548 B(  8-C ,  9-C ) :   1.2479
B(  8-C , 74-H ) :   1.0167 B(  9-C , 10-C ) :   1.2997 B(  9-C , 14-C ) :   1.1730
B( 10-C , 11-C ) :   1.3255 B( 10-C , 12-S ) :   1.0987 B( 11-C , 75-H ) :   0.9835
B( 12-S , 13-C ) :   1.1268 B( 13-C , 14-C ) :   1.6265 B( 13-C , 76-H ) :   0.9690
B( 14-C , 77-H ) :   0.9997 B( 15-C , 16-O ) :   2.2124 B( 15-C , 17-C ) :   0.9373
B( 17-C , 18-C ) :   1.6315 B( 18-C , 19-C ) :   1.1412 B( 18-C , 78-H ) :   0.9311
B( 19-C , 20-C ) :   1.2738 B( 19-C , 30-C ) :   0.1304 B( 19-C , 32-C ) :   1.2195
B( 20-C , 21-C ) :   1.1007 B( 20-C , 25-N ) :   1.4462 B( 21-C , 22-N ) :   1.4375
B( 21-C , 30-C ) :   1.2755 B( 22-N , 23-C ) :   1.7349 B( 23-C , 24-C ) :   1.1995
B( 23-C , 28-C ) :   1.1522 B( 24-C , 25-N ) :   1.7503 B( 24-C , 26-C ) :   1.1477
B( 26-C , 27-N ) :   3.0440 B( 28-C , 29-N ) :   3.0499 B( 30-C , 31-C ) :   1.2520
B( 30-C , 36-C ) :   1.0365 B( 31-C , 32-C ) :   1.1068 B( 31-C , 35-N ) :   1.4717
B( 32-C , 33-N ) :   1.5034 B( 33-N , 34-S ) :   1.2922 B( 33-N , 35-N ) :   0.1563
B( 34-S , 35-N ) :   1.3039 B( 36-C , 37-C ) :   1.2948 B( 36-C , 41-C ) :   1.3461
B( 37-C , 38-C ) :   1.4101 B( 37-C , 79-H ) :   0.9929 B( 38-C , 39-C ) :   1.3639
B( 38-C , 44-C ) :   0.9209 B( 39-C , 40-C ) :   1.3299 B( 39-C , 42-C ) :   0.9990
B( 40-C , 41-C ) :   1.4002 B( 40-C , 80-H ) :   0.9933 B( 41-C , 81-H ) :   0.9800
B( 42-C , 43-C ) :   1.3809 B( 42-C , 52-C ) :   1.3277 B( 43-C , 44-C ) :   0.9148
B( 43-C , 49-C ) :   1.3866 B( 44-C , 45-C ) :   1.0369 B( 44-C , 47-C ) :   1.0119
B( 45-C , 46-C ) :   1.1068 B( 45-C , 82-H ) :   0.9385 B( 45-C , 83-H ) :   0.9373
B( 46-C , 84-H ) :   0.9654 B( 46-C , 85-H ) :   0.9643 B( 46-C , 86-H ) :   0.9608
B( 47-C , 48-C ) :   1.1149 B( 47-C , 87-H ) :   0.9380 B( 47-C , 88-H ) :   0.9373
B( 48-C , 89-H ) :   0.9607 B( 48-C , 90-H ) :   0.9599 B( 48-C , 91-H ) :   0.9630
B( 49-C , 50-C ) :   1.2927 B( 49-C , 92-H ) :   1.0060 B( 50-C , 51-C ) :   1.3550
B( 50-C , 53-C ) :   1.0351 B( 51-C , 52-C ) :   1.3942 B( 51-C , 93-H ) :   0.9847
B( 52-C , 94-H ) :   0.9916 B( 53-C , 54-C ) :   1.7307 B( 53-C , 95-H ) :   0.9849
B( 54-C , 55-C ) :   1.1001 B( 54-C , 96-H ) :   0.9639 B( 55-C , 56-C ) :   1.7743
B( 55-C , 97-H ) :   0.9767 B( 56-C , 57-C ) :   1.0642 B( 56-C , 58-C ) :   1.0497
B( 57-C , 98-H ) :   0.9468 B( 57-C , 99-H ) :   0.9515 B( 57-C ,100-H ) :   0.9460
B( 58-C , 59-N ) :   1.0015 B( 58-C ,101-H ) :   0.9389 B( 58-C ,102-H ) :   0.9257
B( 59-N , 60-C ) :   1.2258 B( 59-N ,103-H ) :   0.9398 B( 60-C , 61-C ) :   1.5990
B( 60-C ,104-H ) :   0.9630 B( 61-C , 62-C ) :   1.1657 B( 61-C ,105-H ) :   0.9641
B( 62-C , 63-C ) :   1.5968 B( 62-C ,106-H ) :   0.9775 B( 63-C , 64-C ) :   1.1400
B( 63-C , 67-S ) :   1.0046 B( 64-C , 65-C ) :   1.6023 B( 64-C ,107-H ) :   0.9974
B( 65-C , 66-C ) :   1.1738 B( 65-C ,108-H ) :   0.9932 B( 66-C , 67-S ) :   1.0436
B( 66-C , 68-C ) :   1.5511 B( 68-C , 69-C ) :   1.1633 B( 68-C , 72-S ) :   1.0256
B( 69-C , 70-C ) :   1.6501 B( 69-C ,109-H ) :   0.9910 B( 70-C , 71-C ) :   1.0852
B( 70-C ,110-H ) :   0.9929 B( 71-C , 72-S ) :   1.0119 B( 71-C , 73-C ) :   1.8575
B( 73-C ,111-H ) :   0.9500 B( 73-C ,112-H ) :   0.9413

-----------------------------------------------------------------------------
         ABSORPTION SPECTRUM VIA TRANSITION ELECTRIC DIPOLE MOMENTS
-----------------------------------------------------------------------------
State   Energy  Wavelength   fosc         T2         TX        TY        TZ
        (cm-1)    (nm)                  (au**2)     (au)      (au)      (au)
-----------------------------------------------------------------------------
   0    7522.8   1329.3   0.010877300   0.47601  -0.27416   0.62648   0.09149
   1   13357.1    748.7   0.721931912  17.79340   2.18354  -3.60780  -0.09661
   2   18554.8    538.9   0.000211529   0.00375   0.05508  -0.01971   0.01819
   3   19202.2    520.8   0.028824043   0.49417  -0.02202  -0.61065  -0.34755
   4   19867.9    503.3   1.395860332  23.12952   3.16684  -2.56149  -2.55723
   5   22479.1    444.9   0.118519099   1.73574   1.25299  -0.12438  -0.38768
   6   22578.3    442.9   0.035096860   0.51174   0.15927   0.05176  -0.69548
   7   22801.4    438.6   0.010314777   0.14893  -0.32612   0.15294  -0.13851
   8   23297.7    429.2   0.014299572   0.20206  -0.35582  -0.07799   0.26338
   9   23541.4    424.8   0.023468353   0.32819   0.05505  -0.56852  -0.04410
  10   23635.0    423.1   0.000925959   0.01290   0.04330  -0.07927   0.06884
  11   23916.3    418.1   0.295327195   4.06523   1.63720  -1.11074  -0.38865
  12   25431.0    393.2   0.024752599   0.32043   0.26098  -0.42488  -0.26794
  13   25577.9    391.0   0.005982049   0.07699   0.24147   0.07461  -0.11455
  14   26263.9    380.8   0.034407045   0.43128   0.63134   0.12035  -0.13494
  15   27141.2    368.4   0.039839549   0.48324  -0.60784   0.04923   0.33368
  16   27844.8    359.1   0.000193660   0.00229   0.01706  -0.03886  -0.02210
  17   28056.1    356.4   0.063247959   0.74216   0.21390  -0.73836  -0.38887
  18   28888.0    346.2   0.165846525   1.89001  -1.18431   0.68400   0.13993
  19   29267.8    341.7   0.008534877   0.09600  -0.19825  -0.12109  -0.20503
  20   29949.2    333.9   0.036129593   0.39715   0.57440  -0.13238   0.22290
  21   29977.3    333.6   0.025895977   0.28439  -0.39382  -0.35741  -0.03944
  22   30195.9    331.2   0.253238337   2.76094  -1.53143  -0.63855  -0.08907
  23   30538.3    327.5   0.220179370   2.37360  -0.20812   1.28072  -0.83069
  24   30700.8    325.7   0.069798760   0.74847   0.78718   0.28559  -0.21738
  25   31822.8    314.2   0.683944740   7.07551   1.51856   2.00202  -0.87258
  26   32002.9    312.5   0.007593128   0.07811   0.11321   0.21787  -0.13352
  27   32203.5    310.5   0.334007210   3.41451  -0.19693   1.61639  -0.87350
  28   32656.1    306.2   0.204002948   2.05659   0.30088   1.38451  -0.22180
  29   32818.7    304.7   0.199093429   1.99715   0.35969  -1.35310  -0.19205
  30   32831.1    304.6   0.126919451   1.27268  -0.30718   1.08401   0.05680
  31   33422.6    299.2   0.076523155   0.75375   0.12245   0.58148   0.63296
  32   33523.4    298.3   0.067316017   0.66107   0.80810   0.04243   0.07897
  33   33834.0    295.6   0.485387061   4.72292  -0.22237   1.84879   1.12047
  34   34391.6    290.8   0.041829292   0.40041   0.44290  -0.24766  -0.37804
  35   34819.3    287.2   0.099958753   0.94510   0.87762  -0.11956   0.40074
  36   35097.6    284.9   0.466866625   4.37916  -1.50880  -1.41554  -0.31454
  37   35698.0    280.1   0.000026919   0.00025  -0.01375   0.00734   0.00230
  38   36175.2    276.4   0.147244088   1.33999  -0.84342  -0.04923   0.79133
  39   36294.7    275.5   0.000218113   0.00198   0.02843   0.03409  -0.00280
  40   36604.5    273.2   0.377359670   3.39388   0.94791   0.91877  -1.28499
  41   36888.5    271.1   0.001475959   0.01317   0.05046   0.10300   0.00422
  42   37282.6    268.2   0.009601246   0.08478  -0.20870   0.01088   0.20275
  43   37488.7    266.7   0.002762876   0.02426  -0.03223  -0.14930  -0.03057
  44   37573.0    266.1   0.006048258   0.05299  -0.18269   0.05144  -0.13028
  45   37700.9    265.2   0.006553020   0.05722   0.08263   0.02466  -0.22313
  46   37922.7    263.7   0.003164367   0.02747  -0.11228   0.03833   0.11573
  47   38349.3    260.8   0.019999838   0.17169   0.40175   0.03935  -0.09349
  48   38466.6    260.0   0.014400187   0.12324  -0.12094  -0.21100   0.25317
  49   38645.2    258.8   0.053451212   0.45534   0.22840  -0.42483  -0.47191
  50   38819.8    257.6   0.012681392   0.10754   0.12194  -0.22146   0.20888
  51   39305.7    254.4   0.000643053   0.00539   0.05246  -0.03242   0.03978
  52   39436.8    253.6   0.004120262   0.03440   0.00905  -0.16592   0.08237
  53   39513.9    253.1   0.066806403   0.55660   0.73384  -0.11087  -0.07607
  54   39882.4    250.7   0.000769020   0.00635  -0.06456  -0.03467  -0.03127

FINAL SINGLE POINT ENERGY     -4466.298673559028

DIPOLE MOMENT
-------------
                                X             Y             Z
Electronic contribution:     55.46585    -149.73107      16.14212
Nuclear contribution   :    -51.55584     152.68274     -18.51995
                        -----------------------------------------
Total Dipole Moment    :      3.91001       2.95167      -2.37783
                        -----------------------------------------
Magnitude (a.u.)       :      5.44561
Magnitude (Debye)      :     13.84163

Rotational constants in cm-1:     0.001587     0.000154     0.000150
Rotational constants in MHz :    47.591192     4.610808     4.482037

                             ****ORCA TERMINATED NORMALLY****
TOTAL RUN TIME: 0 days 0 hours 10 minutes 36 seconds 966 msec
