                         Program Version 4.2.0 -  RELEASE  -
|  1> # ORCA input file
|  2> # SCF done       -189.647184610335          0.000461067958
|  3> ! CAM-B3LYP def2-SVP def2/J RIJCOSX Grid4 TightSCF
|  4> %maxcore 5000
|  5> %tddft
|  6>     Mode sTDDFT
|  7>     Ethresh 5.0
|  8>     maxcore 5000
|  9> end
| 10>
| 11> %pal
| 12>   nprocs 6
| 13>   end
| 14> * xyz 0 1
| 15>    C        0.85449         4.99327        -5.76570
| 16>    C        1.22778         4.99217        -4.44406
| 17>    C        2.24511         4.18244        -3.90391
| 18>    N        3.04148         3.52787        -3.39734
| 19>    C        0.65264         5.83949        -3.47601
| 20>    N        0.24694         6.55384        -2.67259
| 21>    C        1.56071         4.32669        -6.85124
| 22>    C        0.94511         4.67035        -8.08394
| 23>    C        1.41985         4.22237        -9.29272
| 24>    C        2.53904         3.38272        -9.28536
| 25>    C        3.13740         3.03905        -8.05004
| 26>    C        2.67223         3.50781        -6.82740
| 27>    S        4.49881         1.98191        -8.26978
| 28>    C        4.25346         2.01997        -9.99595
| 29>    C        3.20529         2.78220       -10.38877
| 30>   Br        5.40416         1.05074       -11.11741
| 31>    C       -0.21865         5.52142        -7.80794
| 32>    O       -1.00509         6.00890        -8.61746
| 33>    C       -0.25743         5.69670        -6.35454
| 34>    C       -1.27433         6.38008        -5.73666
| 35>    N       -2.26447         6.91961        -6.45712
| 36>    C       -3.34217         7.58929        -5.97450
| 37>    S       -3.53397         7.85841        -4.26743
| 38>    C       -5.02685         8.67481        -4.58832
| 39>    N       -5.74800         9.18829        -3.50676
| 40>    O       -6.79556         9.76339        -3.74953
| 41>    O       -5.27517         9.01957        -2.39534
| 42>    C       -5.34956         8.72871        -5.91918
| 43>    C       -4.39217         8.10842        -6.74386
| 44>    C       -4.46936         7.98382        -8.17680
| 45>    C       -5.57120         8.28727        -8.89100
| 46>    N       -5.76047         8.07670       -10.23132
| 47>    C       -4.85518         7.47443       -11.10917
| 48>    C       -4.53456         7.99232       -12.32940
| 49>    S       -3.44429         6.99494       -13.19825
| 50>    C       -3.41754         5.84713       -11.91989
| 51>    C       -4.21809         6.20817       -10.87477
| 52>    N       -4.44708         5.46051        -9.73622
| 53>    C       -3.52504         4.63385        -9.15735
| 54>    C       -3.64305         4.15443        -7.90763
| 55>    C       -2.64866         3.36374        -7.22334
| 56>    C       -2.77884         3.16817        -5.83745
| 57>    C       -1.78558         2.53487        -5.13124
| 58>    C       -0.65296         2.04181        -5.80771
| 59>    C       -0.55358         2.14775        -7.18600
| 60>    C       -1.54044         2.81510        -7.88062
| 61>    C        0.23636         1.43199        -4.84986
| 62>    C       -0.36235         1.49731        -3.58084
| 63>    C       -1.70995         2.18966        -3.65828
| 64>    C       -1.66488         3.41268        -2.71830
| 65>    C       -2.84848         4.36868        -2.77377
| 66>    C       -2.85487         1.23844        -3.26403
| 67>    C       -2.85603        -0.05349        -4.07287
| 68>    C        0.28879         0.99383        -2.48349
| 69>    C        1.57306         0.43708        -2.62250
| 70>    C        2.15088         0.37834        -3.90034
| 71>    C        1.49033         0.85818        -5.00936
| 72>    C        2.24109        -0.05946        -1.45175
| 73>    C        3.55088        -0.40117        -1.35884
| 74>    C        4.14833        -0.88708        -0.17853
| 75>    C        5.48029        -1.17218        -0.05224
| 76>    C        6.14553        -1.66542         1.10142
| 77>    C        7.48442        -1.83193         0.95070
| 78>    C        7.96921        -1.47686        -0.33443
| 79>    S        6.64600        -0.94155        -1.35103
| 80>    C        9.26842        -1.50197        -0.78037
| 81>    C       10.42616        -1.89420        -0.05213
| 82>    C       11.58232        -1.79255        -0.74398
| 83>    C       11.43022        -1.30836        -2.08625
| 84>    S        9.71483        -1.00263        -2.40153
| 85>    C       12.39086        -1.09757        -2.99641
| 86>    H        0.94437         4.50597       -10.21874
| 87>    H        3.16404         3.22700        -5.91121
| 88>    H        2.91374         2.91643       -11.41448
| 89>    H       -1.31943         6.49936        -4.66198
| 90>    H       -2.16879         6.76535        -7.47478
| 91>    H       -6.24402         9.21581        -6.25973
| 92>    H       -3.59317         7.60868        -8.68304
| 93>    H       -6.44077         8.70923        -8.40754
| 94>    H       -6.45045         8.66317       -10.67703
| 95>    H       -4.87951         8.91023       -12.76156
| 96>    H       -2.83156         4.95852       -12.02826
| 97>    H       -5.21225         5.76688        -9.15183
| 98>    H       -2.66705         4.42357        -9.77284
| 99>    H       -4.51557         4.43063        -7.32660
|100>    H       -3.67534         3.52054        -5.34921
|101>    H        0.28456         1.71189        -7.71032
|102>    H       -1.46397         2.89373        -8.95368
|103>    H       -0.75493         3.97266        -2.93984
|104>    H       -1.56721         3.03846        -1.69703
|105>    H       -2.94803         4.81123        -3.76090
|106>    H       -2.68815         5.17424        -2.06057
|107>    H       -3.77710         3.86663        -2.51552
|108>    H       -3.80670         1.75112        -3.41096
|109>    H       -2.75940         1.00022        -2.20255
|110>    H       -2.96890         0.15707        -5.13430
|111>    H       -3.68025        -0.69005        -3.75859
|112>    H       -1.92553        -0.59825        -3.92923
|113>    H       -0.16390         1.03262        -1.50272
|114>    H        3.12629        -0.06541        -4.02075
|115>    H        1.94199         0.79160        -5.98865
|116>    H        1.63107        -0.13536        -0.55910
|117>    H        4.20545        -0.28709        -2.21193
|118>    H        3.52033        -1.04226         0.68953
|119>    H        5.60352        -1.87741         2.00661
|120>    H        8.14014        -2.19396         1.72231
|121>    H       10.35720        -2.23715         0.96517
|122>    H       12.55520        -2.04054        -0.35787
|123>    H       13.42203        -1.29472        -2.76198
|124>    H       12.16663        -0.72731        -3.97982
|125> *
|126>
|127>                          ****END OF INPUT****

CARTESIAN COORDINATES (ANGSTROEM)
---------------------------------
  C      0.854490    4.993270   -5.765700
  C      1.227780    4.992170   -4.444060
  C      2.245110    4.182440   -3.903910
  N      3.041480    3.527870   -3.397340
  C      0.652640    5.839490   -3.476010
  N      0.246940    6.553840   -2.672590
  C      1.560710    4.326690   -6.851240
  C      0.945110    4.670350   -8.083940
  C      1.419850    4.222370   -9.292720
  C      2.539040    3.382720   -9.285360
  C      3.137400    3.039050   -8.050040
  C      2.672230    3.507810   -6.827400
  S      4.498810    1.981910   -8.269780
  C      4.253460    2.019970   -9.995950
  C      3.205290    2.782200  -10.388770
  Br     5.404160    1.050740  -11.117410
  C     -0.218650    5.521420   -7.807940
  O     -1.005090    6.008900   -8.617460
  C     -0.257430    5.696700   -6.354540
  C     -1.274330    6.380080   -5.736660
  N     -2.264470    6.919610   -6.457120
  C     -3.342170    7.589290   -5.974500
  S     -3.533970    7.858410   -4.267430
  C     -5.026850    8.674810   -4.588320
  N     -5.748000    9.188290   -3.506760
  O     -6.795560    9.763390   -3.749530
  O     -5.275170    9.019570   -2.395340
  C     -5.349560    8.728710   -5.919180
  C     -4.392170    8.108420   -6.743860
  C     -4.469360    7.983820   -8.176800
  C     -5.571200    8.287270   -8.891000
  N     -5.760470    8.076700  -10.231320
  C     -4.855180    7.474430  -11.109170
  C     -4.534560    7.992320  -12.329400
  S     -3.444290    6.994940  -13.198250
  C     -3.417540    5.847130  -11.919890
  C     -4.218090    6.208170  -10.874770
  N     -4.447080    5.460510   -9.736220
  C     -3.525040    4.633850   -9.157350
  C     -3.643050    4.154430   -7.907630
  C     -2.648660    3.363740   -7.223340
  C     -2.778840    3.168170   -5.837450
  C     -1.785580    2.534870   -5.131240
  C     -0.652960    2.041810   -5.807710
  C     -0.553580    2.147750   -7.186000
  C     -1.540440    2.815100   -7.880620
  C      0.236360    1.431990   -4.849860
  C     -0.362350    1.497310   -3.580840
  C     -1.709950    2.189660   -3.658280
  C     -1.664880    3.412680   -2.718300
  C     -2.848480    4.368680   -2.773770
  C     -2.854870    1.238440   -3.264030
  C     -2.856030   -0.053490   -4.072870
  C      0.288790    0.993830   -2.483490
  C      1.573060    0.437080   -2.622500
  C      2.150880    0.378340   -3.900340
  C      1.490330    0.858180   -5.009360
  C      2.241090   -0.059460   -1.451750
  C      3.550880   -0.401170   -1.358840
  C      4.148330   -0.887080   -0.178530
  C      5.480290   -1.172180   -0.052240
  C      6.145530   -1.665420    1.101420
  C      7.484420   -1.831930    0.950700
  C      7.969210   -1.476860   -0.334430
  S      6.646000   -0.941550   -1.351030
  C      9.268420   -1.501970   -0.780370
  C     10.426160   -1.894200   -0.052130
  C     11.582320   -1.792550   -0.743980
  C     11.430220   -1.308360   -2.086250
  S      9.714830   -1.002630   -2.401530
  C     12.390860   -1.097570   -2.996410
  H      0.944370    4.505970  -10.218740
  H      3.164040    3.227000   -5.911210
  H      2.913740    2.916430  -11.414480
  H     -1.319430    6.499360   -4.661980
  H     -2.168790    6.765350   -7.474780
  H     -6.244020    9.215810   -6.259730
  H     -3.593170    7.608680   -8.683040
  H     -6.440770    8.709230   -8.407540
  H     -6.450450    8.663170  -10.677030
  H     -4.879510    8.910230  -12.761560
  H     -2.831560    4.958520  -12.028260
  H     -5.212250    5.766880   -9.151830
  H     -2.667050    4.423570   -9.772840
  H     -4.515570    4.430630   -7.326600
  H     -3.675340    3.520540   -5.349210
  H      0.284560    1.711890   -7.710320
  H     -1.463970    2.893730   -8.953680
  H     -0.754930    3.972660   -2.939840
  H     -1.567210    3.038460   -1.697030
  H     -2.948030    4.811230   -3.760900
  H     -2.688150    5.174240   -2.060570
  H     -3.777100    3.866630   -2.515520
  H     -3.806700    1.751120   -3.410960
  H     -2.759400    1.000220   -2.202550
  H     -2.968900    0.157070   -5.134300
  H     -3.680250   -0.690050   -3.758590
  H     -1.925530   -0.598250   -3.929230
  H     -0.163900    1.032620   -1.502720
  H      3.126290   -0.065410   -4.020750
  H      1.941990    0.791600   -5.988650
  H      1.631070   -0.135360   -0.559100
  H      4.205450   -0.287090   -2.211930
  H      3.520330   -1.042260    0.689530
  H      5.603520   -1.877410    2.006610
  H      8.140140   -2.193960    1.722310
  H     10.357200   -2.237150    0.965170
  H     12.555200   -2.040540   -0.357870
  H     13.422030   -1.294720   -2.761980
  H     12.166630   -0.727310   -3.979820

 Total Charge           Charge          ....    0
 Multiplicity           Mult            ....    1
 Number of Electrons    NEL             ....  556
 Basis Dimension        Dim             .... 1227

ORBITAL ENERGIES
----------------

  NO   OCC          E(Eh)            E(eV)
   0   2.0000    -482.885710    -13139.9882
   1   2.0000     -88.984629     -2421.3949
   2   2.0000     -88.976214     -2421.1659
   3   2.0000     -88.959190     -2420.7026
   4   2.0000     -88.928795     -2419.8755
   5   2.0000     -88.926233     -2419.8058
   6   2.0000     -62.563387     -1702.4363
   7   2.0000     -56.397340     -1534.6496
   8   2.0000     -56.394626     -1534.5758
   9   2.0000     -56.394584     -1534.5747
  10   2.0000     -19.235764      -523.4317
  11   2.0000     -19.234687      -523.4024
  12   2.0000     -19.227268      -523.2006
  13   2.0000     -14.646991      -398.5649
  14   2.0000     -14.489465      -394.2784
  15   2.0000     -14.460102      -393.4794
  16   2.0000     -14.445099      -393.0711
  17   2.0000     -14.412119      -392.1737
  18   2.0000     -14.404541      -391.9675
  19   2.0000     -10.373346      -282.2731
  20   2.0000     -10.363183      -281.9965
  21   2.0000     -10.361913      -281.9620
  22   2.0000     -10.358855      -281.8788
  23   2.0000     -10.343386      -281.4578
  24   2.0000     -10.337345      -281.2935
  25   2.0000     -10.331853      -281.1440
  26   2.0000     -10.331672      -281.1391
  27   2.0000     -10.324752      -280.9508
  28   2.0000     -10.323467      -280.9158
  29   2.0000     -10.322668      -280.8941
  30   2.0000     -10.315141      -280.6893
  31   2.0000     -10.311915      -280.6015
  32   2.0000     -10.307838      -280.4905
  33   2.0000     -10.307688      -280.4864
  34   2.0000     -10.307329      -280.4767
  35   2.0000     -10.305175      -280.4181
  36   2.0000     -10.304942      -280.4117
  37   2.0000     -10.302315      -280.3402
  38   2.0000     -10.301629      -280.3216
  39   2.0000     -10.297842      -280.2185
  40   2.0000     -10.297520      -280.2098
  41   2.0000     -10.297062      -280.1973
  42   2.0000     -10.296204      -280.1740
  43   2.0000     -10.295288      -280.1490
  44   2.0000     -10.293386      -280.0973
  45   2.0000     -10.291902      -280.0569
  46   2.0000     -10.290090      -280.0076
  47   2.0000     -10.289669      -279.9961
  48   2.0000     -10.279389      -279.7164
  49   2.0000     -10.278692      -279.6974
  50   2.0000     -10.275757      -279.6176
  51   2.0000     -10.275542      -279.6117
  52   2.0000     -10.273029      -279.5433
  53   2.0000     -10.272745      -279.5356
  54   2.0000     -10.271569      -279.5036
  55   2.0000     -10.265738      -279.3449
  56   2.0000     -10.264863      -279.3211
  57   2.0000     -10.264427      -279.3092
  58   2.0000     -10.263617      -279.2872
  59   2.0000     -10.262434      -279.2550
  60   2.0000     -10.261117      -279.2192
  61   2.0000     -10.260796      -279.2104
  62   2.0000     -10.260681      -279.2073
  63   2.0000     -10.259703      -279.1807
  64   2.0000     -10.259570      -279.1771
  65   2.0000     -10.258766      -279.1552
  66   2.0000     -10.257886      -279.1313
  67   2.0000     -10.257361      -279.1170
  68   2.0000     -10.257294      -279.1152
  69   2.0000     -10.256597      -279.0962
  70   2.0000     -10.256380      -279.0903
  71   2.0000     -10.256008      -279.0802
  72   2.0000     -10.254567      -279.0410
  73   2.0000     -10.246066      -278.8096
  74   2.0000     -10.239399      -278.6282
  75   2.0000      -8.792797      -239.2642
  76   2.0000      -8.079472      -219.8536
  77   2.0000      -8.072011      -219.6506
  78   2.0000      -8.054973      -219.1870
  79   2.0000      -8.025094      -218.3739
  80   2.0000      -8.022871      -218.3134
  81   2.0000      -6.629076      -180.3863
  82   2.0000      -6.614529      -179.9905
  83   2.0000      -6.614350      -179.9856
  84   2.0000      -6.049091      -164.6041
  85   2.0000      -6.044837      -164.4884
  86   2.0000      -6.041670      -164.4022
  87   2.0000      -6.040962      -164.3829
  88   2.0000      -6.037424      -164.2867
  89   2.0000      -6.033298      -164.1744
  90   2.0000      -6.024376      -163.9316
  91   2.0000      -6.020138      -163.8163
  92   2.0000      -6.017041      -163.7320
  93   2.0000      -5.994866      -163.1286
  94   2.0000      -5.992708      -163.0699
  95   2.0000      -5.990958      -163.0223
  96   2.0000      -5.988819      -162.9641
  97   2.0000      -5.985810      -162.8822
  98   2.0000      -5.983383      -162.8161
  99   2.0000      -2.744985       -74.6948
 100   2.0000      -2.740844       -74.5822
 101   2.0000      -2.740714       -74.5786
 102   2.0000      -2.729148       -74.2639
 103   2.0000      -2.729139       -74.2636
 104   2.0000      -1.315613       -35.7997
 105   2.0000      -1.140504       -31.0347
 106   2.0000      -1.134492       -30.8711
 107   2.0000      -1.096468       -29.8364
 108   2.0000      -1.070275       -29.1237
 109   2.0000      -1.040689       -28.3186
 110   2.0000      -1.021366       -27.7928
 111   2.0000      -1.009641       -27.4737
 112   2.0000      -1.004802       -27.3421
 113   2.0000      -0.989247       -26.9188
 114   2.0000      -0.984463       -26.7886
 115   2.0000      -0.979523       -26.6542
 116   2.0000      -0.978055       -26.6142
 117   2.0000      -0.973561       -26.4920
 118   2.0000      -0.956756       -26.0347
 119   2.0000      -0.940129       -25.5822
 120   2.0000      -0.937126       -25.5005
 121   2.0000      -0.915880       -24.9224
 122   2.0000      -0.912373       -24.8269
 123   2.0000      -0.906263       -24.6607
 124   2.0000      -0.893224       -24.3059
 125   2.0000      -0.890120       -24.2214
 126   2.0000      -0.884791       -24.0764
 127   2.0000      -0.879363       -23.9287
 128   2.0000      -0.876586       -23.8531
 129   2.0000      -0.863471       -23.4963
 130   2.0000      -0.850387       -23.1402
 131   2.0000      -0.847315       -23.0566
 132   2.0000      -0.845516       -23.0077
 133   2.0000      -0.832659       -22.6578
 134   2.0000      -0.830262       -22.5926
 135   2.0000      -0.829215       -22.5641
 136   2.0000      -0.828246       -22.5377
 137   2.0000      -0.826339       -22.4858
 138   2.0000      -0.821315       -22.3491
 139   2.0000      -0.811749       -22.0888
 140   2.0000      -0.808687       -22.0055
 141   2.0000      -0.801677       -21.8147
 142   2.0000      -0.790066       -21.4988
 143   2.0000      -0.780348       -21.2343
 144   2.0000      -0.759582       -20.6693
 145   2.0000      -0.756903       -20.5964
 146   2.0000      -0.756356       -20.5815
 147   2.0000      -0.750554       -20.4236
 148   2.0000      -0.728533       -19.8244
 149   2.0000      -0.726201       -19.7609
 150   2.0000      -0.713885       -19.4258
 151   2.0000      -0.712418       -19.3859
 152   2.0000      -0.705804       -19.2059
 153   2.0000      -0.698455       -19.0059
 154   2.0000      -0.688464       -18.7341
 155   2.0000      -0.685962       -18.6660
 156   2.0000      -0.684959       -18.6387
 157   2.0000      -0.679659       -18.4945
 158   2.0000      -0.672352       -18.2956
 159   2.0000      -0.667695       -18.1689
 160   2.0000      -0.661018       -17.9872
 161   2.0000      -0.657106       -17.8808
 162   2.0000      -0.654153       -17.8004
 163   2.0000      -0.651086       -17.7170
 164   2.0000      -0.646729       -17.5984
 165   2.0000      -0.640346       -17.4247
 166   2.0000      -0.631891       -17.1946
 167   2.0000      -0.630340       -17.1524
 168   2.0000      -0.628041       -17.0899
 169   2.0000      -0.622306       -16.9338
 170   2.0000      -0.619240       -16.8504
 171   2.0000      -0.617527       -16.8038
 172   2.0000      -0.614529       -16.7222
 173   2.0000      -0.602390       -16.3919
 174   2.0000      -0.600089       -16.3293
 175   2.0000      -0.598888       -16.2966
 176   2.0000      -0.594622       -16.1805
 177   2.0000      -0.591345       -16.0913
 178   2.0000      -0.586803       -15.9677
 179   2.0000      -0.584895       -15.9158
 180   2.0000      -0.581283       -15.8175
 181   2.0000      -0.578408       -15.7393
 182   2.0000      -0.564912       -15.3720
 183   2.0000      -0.562058       -15.2944
 184   2.0000      -0.556475       -15.1425
 185   2.0000      -0.555465       -15.1150
 186   2.0000      -0.551510       -15.0073
 187   2.0000      -0.548498       -14.9254
 188   2.0000      -0.544939       -14.8285
 189   2.0000      -0.541031       -14.7222
 190   2.0000      -0.537786       -14.6339
 191   2.0000      -0.534694       -14.5498
 192   2.0000      -0.533366       -14.5136
 193   2.0000      -0.531279       -14.4568
 194   2.0000      -0.525733       -14.3059
 195   2.0000      -0.523925       -14.2567
 196   2.0000      -0.522219       -14.2103
 197   2.0000      -0.520046       -14.1512
 198   2.0000      -0.516206       -14.0467
 199   2.0000      -0.515766       -14.0347
 200   2.0000      -0.511836       -13.9278
 201   2.0000      -0.508088       -13.8258
 202   2.0000      -0.507188       -13.8013
 203   2.0000      -0.505248       -13.7485
 204   2.0000      -0.501269       -13.6402
 205   2.0000      -0.498781       -13.5725
 206   2.0000      -0.496677       -13.5153
 207   2.0000      -0.493759       -13.4359
 208   2.0000      -0.489864       -13.3299
 209   2.0000      -0.489431       -13.3181
 210   2.0000      -0.486836       -13.2475
 211   2.0000      -0.484492       -13.1837
 212   2.0000      -0.482367       -13.1259
 213   2.0000      -0.480868       -13.0851
 214   2.0000      -0.475630       -12.9426
 215   2.0000      -0.474808       -12.9202
 216   2.0000      -0.471762       -12.8373
 217   2.0000      -0.469622       -12.7791
 218   2.0000      -0.468667       -12.7531
 219   2.0000      -0.467055       -12.7092
 220   2.0000      -0.460075       -12.5193
 221   2.0000      -0.459966       -12.5163
 222   2.0000      -0.458186       -12.4679
 223   2.0000      -0.456393       -12.4191
 224   2.0000      -0.451239       -12.2788
 225   2.0000      -0.450201       -12.2506
 226   2.0000      -0.448170       -12.1953
 227   2.0000      -0.446889       -12.1605
 228   2.0000      -0.444060       -12.0835
 229   2.0000      -0.443060       -12.0563
 230   2.0000      -0.442021       -12.0280
 231   2.0000      -0.439855       -11.9691
 232   2.0000      -0.438003       -11.9187
 233   2.0000      -0.436062       -11.8658
 234   2.0000      -0.433634       -11.7998
 235   2.0000      -0.431346       -11.7375
 236   2.0000      -0.429925       -11.6989
 237   2.0000      -0.428742       -11.6667
 238   2.0000      -0.425123       -11.5682
 239   2.0000      -0.421034       -11.4569
 240   2.0000      -0.416475       -11.3329
 241   2.0000      -0.415491       -11.3061
 242   2.0000      -0.413496       -11.2518
 243   2.0000      -0.410651       -11.1744
 244   2.0000      -0.408509       -11.1161
 245   2.0000      -0.406330       -11.0568
 246   2.0000      -0.403812       -10.9883
 247   2.0000      -0.403571       -10.9817
 248   2.0000      -0.397628       -10.8200
 249   2.0000      -0.388931       -10.5834
 250   2.0000      -0.384284       -10.4569
 251   2.0000      -0.383205       -10.4275
 252   2.0000      -0.382927       -10.4200
 253   2.0000      -0.381487       -10.3808
 254   2.0000      -0.377530       -10.2731
 255   2.0000      -0.375116       -10.2074
 256   2.0000      -0.374163       -10.1815
 257   2.0000      -0.371661       -10.1134
 258   2.0000      -0.369053       -10.0424
 259   2.0000      -0.367986       -10.0134
 260   2.0000      -0.363983        -9.9045
 261   2.0000      -0.351827        -9.5737
 262   2.0000      -0.350387        -9.5345
 263   2.0000      -0.336168        -9.1476
 264   2.0000      -0.331290        -9.0149
 265   2.0000      -0.325611        -8.8603
 266   2.0000      -0.324551        -8.8315
 267   2.0000      -0.319039        -8.6815
 268   2.0000      -0.311419        -8.4742
 269   2.0000      -0.307552        -8.3689
 270   2.0000      -0.304489        -8.2856
 271   2.0000      -0.296791        -8.0761
 272   2.0000      -0.292874        -7.9695
 273   2.0000      -0.287068        -7.8115
 274   2.0000      -0.268716        -7.3121
 275   2.0000      -0.252530        -6.8717
 276   2.0000      -0.235213        -6.4005
 277   2.0000      -0.201373        -5.4796
 278   0.0000      -0.082581        -2.2471
 279   0.0000      -0.064420        -1.7530
 280   0.0000      -0.057356        -1.5607
 281   0.0000      -0.037741        -1.0270
 282   0.0000      -0.013174        -0.3585

MULLIKEN ATOMIC CHARGES
-----------------------
   0 C :    0.354497
   1 C :   -0.362540
   2 C :   -0.177648
   3 N :    0.162811
   4 C :   -0.235620
   5 N :    0.152522
   6 C :    0.016866
   7 C :   -0.003934
   8 C :   -0.088425
   9 C :    0.120388
  10 C :   -0.093578
  11 C :   -0.030585
  12 S :    0.187951
  13 C :   -0.123286
  14 C :    0.032700
  15 Br:    0.023204
  16 C :    0.186828
  17 O :   -0.230500
  18 C :   -0.110817
  19 C :    0.018845
  20 N :   -0.004798
  21 C :   -0.130125
  22 S :    0.168823
  23 C :    0.004700
  24 N :    0.276015
  25 O :   -0.254922
  26 O :   -0.258383
  27 C :   -0.013844
  28 C :    0.148820
  29 C :   -0.111152
  30 C :    0.032424
  31 N :   -0.063127
  32 C :    0.098273
  33 C :   -0.172094
  34 S :    0.122121
  35 C :   -0.201870
  36 C :    0.110827
  37 N :   -0.044628
  38 C :    0.085106
  39 C :   -0.065032
  40 C :    0.125115
  41 C :   -0.146866
  42 C :    0.036067
  43 C :    0.087476
  44 C :   -0.028001
  45 C :   -0.027750
  46 C :    0.092099
  47 C :    0.032189
  48 C :   -0.119615
  49 C :    0.066261
  50 C :    0.036453
  51 C :    0.064403
  52 C :    0.020470
  53 C :   -0.120168
  54 C :    0.145287
  55 C :    0.010171
  56 C :   -0.062924
  57 C :   -0.016648
  58 C :    0.023086
  59 C :   -0.016771
  60 C :   -0.020478
  61 C :    0.039963
  62 C :    0.024530
  63 C :   -0.042121
  64 S :    0.062648
  65 C :   -0.073809
  66 C :    0.032891
  67 C :    0.045417
  68 C :   -0.059090
  69 S :    0.073490
  70 C :   -0.035968
  71 H :   -0.021832
  72 H :   -0.004220
  73 H :   -0.006544
  74 H :    0.049617
  75 H :    0.193711
  76 H :    0.004302
  77 H :    0.017437
  78 H :    0.003472
  79 H :    0.132141
  80 H :    0.005353
  81 H :    0.012865
  82 H :    0.127949
  83 H :    0.008779
  84 H :   -0.038073
  85 H :   -0.040297
  86 H :   -0.041097
  87 H :   -0.043317
  88 H :    0.003887
  89 H :   -0.000333
  90 H :   -0.014254
  91 H :    0.026708
  92 H :    0.004625
  93 H :    0.002599
  94 H :   -0.004367
  95 H :    0.021960
  96 H :    0.006197
  97 H :    0.023805
  98 H :   -0.044299
  99 H :   -0.035183
 100 H :   -0.049453
 101 H :   -0.028019
 102 H :    0.005151
 103 H :   -0.020727
 104 H :   -0.016527
 105 H :   -0.018064
 106 H :   -0.015112
 107 H :   -0.016248
 108 H :    0.015747
 109 H :    0.017037
Sum of atomic charges:   -0.0000000

LOEWDIN ATOMIC CHARGES
----------------------
   0 C :    0.084369
   1 C :   -0.154212
   2 C :   -0.019963
   3 N :   -0.052587
   4 C :   -0.023493
   5 N :   -0.061796
   6 C :   -0.011073
   7 C :   -0.043545
   8 C :    0.013536
   9 C :   -0.037702
  10 C :   -0.148785
  11 C :   -0.007793
  12 S :    0.433123
  13 C :   -0.273066
  14 C :   -0.071584
  15 Br:    0.135793
  16 C :    0.100315
  17 O :   -0.178245
  18 C :   -0.138590
  19 C :    0.115492
  20 N :    0.087097
  21 C :   -0.122882
  22 S :    0.474074
  23 C :   -0.203419
  24 N :    0.274064
  25 O :   -0.221600
  26 O :   -0.225106
  27 C :   -0.007900
  28 C :   -0.075056
  29 C :   -0.117280
  30 C :    0.028703
  31 N :    0.008310
  32 C :   -0.042804
  33 C :   -0.216406
  34 S :    0.442757
  35 C :   -0.230293
  36 C :   -0.024230
  37 N :    0.025566
  38 C :    0.046751
  39 C :   -0.110061
  40 C :   -0.015271
  41 C :   -0.039576
  42 C :    0.005169
  43 C :   -0.031152
  44 C :   -0.016702
  45 C :   -0.034961
  46 C :   -0.024613
  47 C :    0.001505
  48 C :   -0.032599
  49 C :   -0.012012
  50 C :   -0.060232
  51 C :   -0.012479
  52 C :   -0.057451
  53 C :   -0.019103
  54 C :   -0.018492
  55 C :   -0.005226
  56 C :   -0.026459
  57 C :   -0.012557
  58 C :   -0.028397
  59 C :   -0.052779
  60 C :   -0.146862
  61 C :   -0.033103
  62 C :   -0.035296
  63 C :   -0.177874
  64 S :    0.360390
  65 C :   -0.183405
  66 C :   -0.026136
  67 C :   -0.037646
  68 C :   -0.138338
  69 S :    0.345877
  70 C :   -0.085961
  71 H :    0.036499
  72 H :    0.041898
  73 H :    0.037563
  74 H :    0.034234
  75 H :    0.086928
  76 H :    0.040337
  77 H :    0.031128
  78 H :    0.026365
  79 H :    0.089962
  80 H :    0.021393
  81 H :    0.020449
  82 H :    0.082125
  83 H :    0.023077
  84 H :    0.020012
  85 H :    0.021254
  86 H :    0.025137
  87 H :    0.019514
  88 H :    0.024538
  89 H :    0.023148
  90 H :    0.007732
  91 H :    0.031630
  92 H :    0.021335
  93 H :    0.018657
  94 H :    0.019979
  95 H :    0.025661
  96 H :    0.022852
  97 H :    0.026193
  98 H :    0.022547
  99 H :    0.025579
 100 H :    0.020629
 101 H :    0.025109
 102 H :    0.021749
 103 H :    0.030873
 104 H :    0.032099
 105 H :    0.029739
 106 H :    0.031036
 107 H :    0.031392
 108 H :    0.026601
 109 H :    0.024307

  Mayer bond orders larger than 0.100000
B(  0-C ,  1-C ) :   1.6151 B(  0-C ,  6-C ) :   1.0127 B(  0-C , 18-C ) :   1.1077
B(  1-C ,  2-C ) :   1.1530 B(  1-C ,  4-C ) :   1.1579 B(  2-C ,  3-N ) :   2.9381
B(  4-C ,  5-N ) :   2.9318 B(  6-C ,  7-C ) :   1.2705 B(  6-C , 11-C ) :   1.4317
B(  7-C ,  8-C ) :   1.4182 B(  7-C , 16-C ) :   0.9722 B(  8-C ,  9-C ) :   1.2375
B(  8-C , 71-H ) :   1.0186 B(  9-C , 10-C ) :   1.3127 B(  9-C , 14-C ) :   1.1570
B( 10-C , 11-C ) :   1.3101 B( 10-C , 12-S ) :   1.0843 B( 11-C , 72-H ) :   0.9765
B( 12-S , 13-C ) :   1.0856 B( 13-C , 14-C ) :   1.6192 B( 13-C , 15-Br) :   1.0185
B( 14-C , 73-H ) :   1.0013 B( 16-C , 17-O ) :   2.0062 B( 16-C , 18-C ) :   1.0105
B( 17-O , 75-H ) :   0.1313 B( 18-C , 19-C ) :   1.4464 B( 19-C , 20-N ) :   1.3507
B( 19-C , 74-H ) :   0.9247 B( 20-N , 21-C ) :   1.1834 B( 20-N , 75-H ) :   0.8233
B( 21-C , 22-S ) :   1.1244 B( 21-C , 28-C ) :   1.3905 B( 22-S , 23-C ) :   1.0924
B( 23-C , 24-N ) :   0.9712 B( 23-C , 27-C ) :   1.4906 B( 24-N , 25-O ) :   1.5247
B( 24-N , 26-O ) :   1.5147 B( 25-O , 26-O ) :   0.2595 B( 27-C , 28-C ) :   1.2238
B( 27-C , 76-H ) :   0.9969 B( 28-C , 29-C ) :   1.0846 B( 29-C , 30-C ) :   1.7041
B( 29-C , 77-H ) :   0.9609 B( 30-C , 31-N ) :   1.1667 B( 30-C , 78-H ) :   0.9655
B( 31-N , 32-C ) :   1.0496 B( 31-N , 79-H ) :   0.9244 B( 32-C , 33-C ) :   1.5301
B( 32-C , 36-C ) :   1.2481 B( 33-C , 34-S ) :   1.1724 B( 33-C , 80-H ) :   0.9770
B( 34-S , 35-C ) :   1.1457 B( 35-C , 36-C ) :   1.5272 B( 35-C , 81-H ) :   0.9690
B( 36-C , 37-N ) :   1.1394 B( 37-N , 38-C ) :   1.1502 B( 37-N , 82-H ) :   0.9212
B( 38-C , 39-C ) :   1.6654 B( 38-C , 83-H ) :   0.9525 B( 39-C , 40-C ) :   1.0962
B( 39-C , 84-H ) :   0.9766 B( 40-C , 41-C ) :   1.2684 B( 40-C , 45-C ) :   1.3423
B( 41-C , 42-C ) :   1.3839 B( 41-C , 85-H ) :   1.0082 B( 42-C , 43-C ) :   1.3746
B( 42-C , 48-C ) :   0.9142 B( 43-C , 44-C ) :   1.3400 B( 43-C , 46-C ) :   1.0005
B( 44-C , 45-C ) :   1.3771 B( 44-C , 86-H ) :   0.9846 B( 45-C , 87-H ) :   0.9858
B( 46-C , 47-C ) :   1.3704 B( 46-C , 56-C ) :   1.3296 B( 47-C , 48-C ) :   0.9194
B( 47-C , 53-C ) :   1.3773 B( 48-C , 49-C ) :   1.0227 B( 48-C , 51-C ) :   1.0246
B( 49-C , 50-C ) :   1.1157 B( 49-C , 88-H ) :   0.9401 B( 49-C , 89-H ) :   0.9254
B( 50-C , 90-H ) :   0.9557 B( 50-C , 91-H ) :   0.9572 B( 50-C , 92-H ) :   0.9585
B( 51-C , 52-C ) :   1.1005 B( 51-C , 93-H ) :   0.9407 B( 51-C , 94-H ) :   0.9397
B( 52-C , 95-H ) :   0.9655 B( 52-C , 96-H ) :   0.9643 B( 52-C , 97-H ) :   0.9641
B( 53-C , 54-C ) :   1.2780 B( 53-C , 98-H ) :   1.0105 B( 54-C , 55-C ) :   1.3404
B( 54-C , 57-C ) :   1.0659 B( 55-C , 56-C ) :   1.3927 B( 55-C , 99-H ) :   0.9821
B( 56-C ,100-H ) :   0.9834 B( 57-C , 58-C ) :   1.6608 B( 57-C ,101-H ) :   0.9866
B( 58-C , 59-C ) :   1.1410 B( 58-C ,102-H ) :   0.9633 B( 59-C , 60-C ) :   1.5842
B( 59-C ,103-H ) :   0.9842 B( 60-C , 61-C ) :   1.1295 B( 60-C , 64-S ) :   1.0238
B( 61-C , 62-C ) :   1.6127 B( 61-C ,104-H ) :   0.9978 B( 62-C , 63-C ) :   1.1681
B( 62-C ,105-H ) :   0.9918 B( 63-C , 64-S ) :   1.0386 B( 63-C , 65-C ) :   1.5602
B( 65-C , 66-C ) :   1.1549 B( 65-C , 69-S ) :   1.0381 B( 66-C , 67-C ) :   1.6607
B( 66-C ,106-H ) :   0.9903 B( 67-C , 68-C ) :   1.0807 B( 67-C ,107-H ) :   0.9932
B( 68-C , 69-S ) :   1.0092 B( 68-C , 70-C ) :   1.8616 B( 70-C ,108-H ) :   0.9512
B( 70-C ,109-H ) :   0.9414

-----------------------------------------------------------------------------
         ABSORPTION SPECTRUM VIA TRANSITION ELECTRIC DIPOLE MOMENTS
-----------------------------------------------------------------------------
State   Energy  Wavelength   fosc         T2         TX        TY        TZ
        (cm-1)    (nm)                  (au**2)     (au)      (au)      (au)
-----------------------------------------------------------------------------
   0   13538.9    738.6   0.005808412   0.14124   0.11656   0.35504  -0.03998
   1   16782.3    595.9   0.119828248   2.35062  -1.23347   0.84350  -0.34304
   2   18158.0    550.7   1.681682195  30.48952  -5.29584   1.22393  -0.97241
   3   18509.3    540.3   0.105416102   1.87496   1.32082  -0.15437   0.32644
   4   20478.0    488.3   0.447236041   7.18993   2.23636  -1.47071  -0.16013
   5   21668.6    461.5   0.068097480   1.03461   0.95793  -0.17529   0.29370
   6   24129.6    414.4   0.067355549   0.91896   0.65828  -0.33297  -0.61217
   7   25309.2    395.1   0.002674682   0.03479  -0.14164   0.01357  -0.12060
   8   26423.1    378.5   0.080262822   1.00002   0.38162  -0.44449   0.81044
   9   26783.6    373.4   0.009042279   0.11114  -0.01344   0.02823   0.33191
  10   27942.6    357.9   0.423457887   4.98906   0.11697   1.20376  -1.87786
  11   28295.2    353.4   0.400067880   4.65475   0.65378  -0.95804   1.81920
  12   28685.8    348.6   0.124088129   1.42409  -0.84845   0.63234   0.55169
  13   28879.4    346.3   0.142444996   1.62381   0.61708  -0.45741  -1.01676
  14   29816.3    335.4   0.331269252   3.65766  -0.26990   0.33986   1.86261
  15   29983.9    333.5   0.089317107   0.98067   0.64013  -0.52351  -0.54483
  16   30457.8    328.3   0.117616183   1.27129  -0.80651   0.77128   0.16112
  17   31021.6    322.4   0.011375957   0.12073  -0.00683   0.08686   0.33635
  18   31313.4    319.4   0.061205102   0.64348   0.56851  -0.44306  -0.35209
  19   31650.8    315.9   0.199603301   2.07615   0.91172  -0.39180  -1.04470
  20   31877.0    313.7   0.216237120   2.23320  -0.69631   0.81869  -1.03832
  21   32112.8    311.4   0.257763880   2.64253   0.61164  -0.54024  -1.40590
  22   32822.8    304.7   0.022261649   0.22328   0.21601  -0.25061   0.33737
  23   33511.9    298.4   0.044319377   0.43538  -0.09099   0.09551  -0.64651
  24   33781.9    296.0   0.018995292   0.18511   0.19419  -0.20071  -0.32729
  25   33908.3    294.9   0.075115644   0.72929   0.26215   0.19063   0.79008
  26   33972.7    294.4   0.054008287   0.52337  -0.46834   0.44066   0.33143
  27   34117.0    293.1   0.000335369   0.00324  -0.00402  -0.04137  -0.03884
  28   34266.5    291.8   0.002383008   0.02289   0.08839  -0.09310   0.08009
  29   34744.4    287.8   0.004202289   0.03982  -0.07634  -0.18306   0.02190
  30   34815.4    287.2   0.004995442   0.04724   0.07030  -0.11370  -0.17137
  31   35048.1    285.3   0.077317470   0.72626   0.44223  -0.71772   0.12474
  32   35264.1    283.6   0.310015340   2.89419   0.25126  -0.00297  -1.68257
  33   35766.5    279.6   0.011459194   0.10548   0.14577   0.05116   0.28568
  34   36057.0    277.3   0.096565393   0.88167  -0.41316   0.37994  -0.75274
  35   36327.9    275.3   0.001158466   0.01050   0.02507  -0.06860  -0.07186
  36   36715.5    272.4   0.006327521   0.05674  -0.19218   0.03052   0.13737
  37   36781.3    271.9   0.006306817   0.05645  -0.09361   0.18012   0.12346
  38   37223.6    268.6   0.003199098   0.02829   0.15754  -0.00691   0.05853
  39   37470.5    266.9   0.219756681   1.93076  -0.55728   0.10774  -1.26830
  40   37712.8    265.2   0.024994722   0.21819   0.06412  -0.16936  -0.43058
  41   37836.3    264.3   0.038393109   0.33406   0.15924  -0.10477  -0.54564
  42   37869.0    264.1   0.013937471   0.12116   0.28879   0.01091  -0.19402
  43   38456.6    260.0   0.094107291   0.80562  -0.36271   0.12485  -0.81146
  44   38654.8    258.7   0.002890371   0.02462  -0.07306  -0.05684   0.12668
  45   38762.5    258.0   0.341626212   2.90145   0.60908  -0.13658   1.58487
  46   38930.2    256.9   0.089178883   0.75414   0.00690  -0.07045   0.86552
  47   39114.9    255.7   0.024116512   0.20298  -0.36038   0.23514   0.13348
  48   39202.7    255.1   0.061765911   0.51869  -0.43657   0.52516  -0.22870
  49   39633.0    252.3   0.012068849   0.10025   0.15668  -0.26731  -0.06519
  50   39737.4    251.7   0.106636106   0.88345   0.86062  -0.27328   0.26096
  51   40323.9    248.0   0.066586280   0.54362   0.05246  -0.24281   0.69420

FINAL SINGLE POINT ENERGY     -7272.314340836917

DIPOLE MOMENT
-------------
                                X             Y             Z
Electronic contribution:     70.52840       0.42619     -83.64480
Nuclear contribution   :    -71.32168      -0.83787      80.34628
                        -----------------------------------------
Total Dipole Moment    :     -0.79328      -0.41168      -3.29852
                        -----------------------------------------
Magnitude (a.u.)       :      3.41746
Magnitude (Debye)      :      8.68648

Rotational constants in cm-1:     0.001203     0.000411     0.000335
Rotational constants in MHz :    36.051776    12.308786    10.049122

                             ****ORCA TERMINATED NORMALLY****
TOTAL RUN TIME: 0 days 0 hours 18 minutes 56 seconds 966 msec
