                         Program Version 4.2.0 -  RELEASE  -
|  1> # ORCA input file
|  2> # SCF done       -187.624463007719          0.000985111655
|  3> ! CAM-B3LYP def2-SVP def2/J RIJCOSX Grid4 TightSCF
|  4> %maxcore 5000
|  5> %tddft
|  6>     Mode sTDDFT
|  7>     Ethresh 5.0
|  8>     maxcore 5000
|  9> end
| 10>
| 11> %pal
| 12>   nprocs 6
| 13>   end
| 14> * xyz 0 1
| 15>    C       -6.24577        -1.05849         4.12424
| 16>    C       -7.34464        -1.86134         4.33226
| 17>    C       -7.50413        -2.71017         5.44236
| 18>    N       -7.68660        -3.41285         6.33328
| 19>    C       -8.42373        -1.96317         3.43354
| 20>    N       -9.31648        -2.11862         2.72673
| 21>    C       -5.04391        -1.02141         4.95333
| 22>    C       -4.09416        -0.17698         4.32909
| 23>    C       -2.85435         0.06432         4.86484
| 24>    C       -2.53354        -0.56268         6.07504
| 25>    C       -3.48798        -1.40432         6.68969
| 26>    C       -4.74564        -1.64655         6.14773
| 27>    S       -2.88753        -2.07090         8.17909
| 28>    C       -1.38196        -1.22068         7.95558
| 29>    C       -1.32893        -0.47630         6.82652
| 30>   Br       -0.02197        -1.39390         9.23714
| 31>    C       -4.67171         0.37252         3.07976
| 32>    O       -4.14980         1.18460         2.34228
| 33>    C       -6.03432        -0.18730         3.00344
| 34>    C       -6.99096         0.26077         2.11364
| 35>    C       -6.73977         0.98761         0.94798
| 36>    S       -7.85446         2.28268         0.58466
| 37>    C       -6.78312         2.96238        -0.58165
| 38>    C       -5.73426         2.06699        -0.89817
| 39>    C       -5.69679         0.94438        -0.00639
| 40>    C       -4.79450        -0.11500        -0.23030
| 41>    C       -4.84954        -1.41731         0.50280
| 42>    C       -3.88503         0.03711        -1.25745
| 43>    C       -3.93752         1.11198        -2.13852
| 44>    C       -4.89031         2.10369        -2.02720
| 45>    C       -5.05741         3.06197        -3.16574
| 46>    C       -7.00761         4.30916        -0.97045
| 47>    C       -5.97057         5.24914        -1.16189
| 48>    C       -6.24100         6.62222        -1.53244
| 49>    N       -5.23114         7.45407        -1.73150
| 50>    C       -3.98190         7.05391        -1.53430
| 51>    C       -3.73099         5.73179        -1.07105
| 52>    N       -4.70710         4.86903        -0.91726
| 53>    C       -2.39454         5.33940        -0.80649
| 54>    N       -1.28970         5.08654        -0.63726
| 55>    C       -2.90818         7.92978        -1.77568
| 56>    N       -1.97955         8.58146        -1.95533
| 57>    C       -7.57113         7.12569        -1.68997
| 58>    C       -8.60636         6.18750        -1.38133
| 59>    C       -8.32742         4.82955        -1.01214
| 60>    N       -9.43465         4.14093        -0.76101
| 61>    S      -10.71297         5.10782        -0.96599
| 62>    N       -9.90742         6.44258        -1.38994
| 63>    C       -7.93845         8.40230        -2.09245
| 64>    C       -7.20409         9.52349        -2.47238
| 65>    C       -7.82384        10.71700        -2.88824
| 66>    C       -6.95585        11.71812        -3.24687
| 67>    C       -5.61687        11.34046        -3.11819
| 68>    S       -5.47325         9.69756        -2.53253
| 69>    C       -4.46690        12.08859        -3.39129
| 70>    C       -4.36239        13.39899        -3.88315
| 71>    C       -3.06810        13.82163        -4.03765
| 72>    C       -2.09883        12.86600        -3.67142
| 73>    S       -2.89548        11.40301        -3.12520
| 74>    C       -0.72881        13.04810        -3.73249
| 75>    C        0.28566        12.15631        -3.37248
| 76>    C        1.67087        12.44338        -3.48683
| 77>    C        2.40090        11.33926        -3.03627
| 78>    C        3.76979        11.10090        -2.93952
| 79>    C        4.17567         9.87161        -2.43635
| 80>    C        5.45173         9.33132        -2.21985
| 81>    C        5.31568         8.03002        -1.68499
| 82>    C        3.95067         7.75001        -1.56245
| 83>    C        3.20850         8.86484        -2.01978
| 84>    C        1.85351         9.08860        -2.11235
| 85>    C        1.43828        10.32874        -2.62362
| 86>    C        0.16631        10.83467        -2.83323
| 87>    C        6.37153         7.11656        -1.31820
| 88>    C        7.67478         7.34746        -1.45383
| 89>    H       -2.15210         0.71451         4.36693
| 90>    H       -5.44303        -2.29091         6.65671
| 91>    H       -0.47850         0.11213         6.53382
| 92>    H       -8.03303         0.16801         2.39863
| 93>    H       -5.87708        -1.68770         0.73836
| 94>    H       -4.28822        -1.37156         1.43587
| 95>    H       -4.41032        -2.20171        -0.11041
| 96>    H       -3.15649        -0.74167        -1.43127
| 97>    H       -3.25764         1.13242        -2.97800
| 98>    H       -4.90056         2.53488        -4.10588
| 99>    H       -4.31996         3.86144        -3.11427
|100>    H       -6.05027         3.50410        -3.17554
|101>    H       -9.01325         8.54427        -2.13046
|102>    H       -8.89540        10.81073        -2.91711
|103>    H       -7.26437        12.69065        -3.58756
|104>    H       -5.22611        13.99651        -4.11262
|105>    H       -2.79081        14.79487        -4.40344
|106>    H       -0.40486        14.01226        -4.10816
|107>    H        2.08261        13.36296        -3.86168
|108>    H        4.49098        11.84593        -3.24540
|109>    H        6.37961         9.83139        -2.42766
|110>    H        3.52777         6.83729        -1.18407
|111>    H        1.12434         8.35164        -1.80897
|112>    H       -0.74113        10.30559        -2.61654
|113>    H        6.03468         6.17438        -0.90428
|114>    H        8.05636         8.26792        -1.86180
|115>    H        8.40846         6.61766        -1.15900
|116> *
|117>
|118>                          ****END OF INPUT****

CARTESIAN COORDINATES (ANGSTROEM)
---------------------------------
  C     -6.245770   -1.058490    4.124240
  C     -7.344640   -1.861340    4.332260
  C     -7.504130   -2.710170    5.442360
  N     -7.686600   -3.412850    6.333280
  C     -8.423730   -1.963170    3.433540
  N     -9.316480   -2.118620    2.726730
  C     -5.043910   -1.021410    4.953330
  C     -4.094160   -0.176980    4.329090
  C     -2.854350    0.064320    4.864840
  C     -2.533540   -0.562680    6.075040
  C     -3.487980   -1.404320    6.689690
  C     -4.745640   -1.646550    6.147730
  S     -2.887530   -2.070900    8.179090
  C     -1.381960   -1.220680    7.955580
  C     -1.328930   -0.476300    6.826520
  Br    -0.021970   -1.393900    9.237140
  C     -4.671710    0.372520    3.079760
  O     -4.149800    1.184600    2.342280
  C     -6.034320   -0.187300    3.003440
  C     -6.990960    0.260770    2.113640
  C     -6.739770    0.987610    0.947980
  S     -7.854460    2.282680    0.584660
  C     -6.783120    2.962380   -0.581650
  C     -5.734260    2.066990   -0.898170
  C     -5.696790    0.944380   -0.006390
  C     -4.794500   -0.115000   -0.230300
  C     -4.849540   -1.417310    0.502800
  C     -3.885030    0.037110   -1.257450
  C     -3.937520    1.111980   -2.138520
  C     -4.890310    2.103690   -2.027200
  C     -5.057410    3.061970   -3.165740
  C     -7.007610    4.309160   -0.970450
  C     -5.970570    5.249140   -1.161890
  C     -6.241000    6.622220   -1.532440
  N     -5.231140    7.454070   -1.731500
  C     -3.981900    7.053910   -1.534300
  C     -3.730990    5.731790   -1.071050
  N     -4.707100    4.869030   -0.917260
  C     -2.394540    5.339400   -0.806490
  N     -1.289700    5.086540   -0.637260
  C     -2.908180    7.929780   -1.775680
  N     -1.979550    8.581460   -1.955330
  C     -7.571130    7.125690   -1.689970
  C     -8.606360    6.187500   -1.381330
  C     -8.327420    4.829550   -1.012140
  N     -9.434650    4.140930   -0.761010
  S    -10.712970    5.107820   -0.965990
  N     -9.907420    6.442580   -1.389940
  C     -7.938450    8.402300   -2.092450
  C     -7.204090    9.523490   -2.472380
  C     -7.823840   10.717000   -2.888240
  C     -6.955850   11.718120   -3.246870
  C     -5.616870   11.340460   -3.118190
  S     -5.473250    9.697560   -2.532530
  C     -4.466900   12.088590   -3.391290
  C     -4.362390   13.398990   -3.883150
  C     -3.068100   13.821630   -4.037650
  C     -2.098830   12.866000   -3.671420
  S     -2.895480   11.403010   -3.125200
  C     -0.728810   13.048100   -3.732490
  C      0.285660   12.156310   -3.372480
  C      1.670870   12.443380   -3.486830
  C      2.400900   11.339260   -3.036270
  C      3.769790   11.100900   -2.939520
  C      4.175670    9.871610   -2.436350
  C      5.451730    9.331320   -2.219850
  C      5.315680    8.030020   -1.684990
  C      3.950670    7.750010   -1.562450
  C      3.208500    8.864840   -2.019780
  C      1.853510    9.088600   -2.112350
  C      1.438280   10.328740   -2.623620
  C      0.166310   10.834670   -2.833230
  C      6.371530    7.116560   -1.318200
  C      7.674780    7.347460   -1.453830
  H     -2.152100    0.714510    4.366930
  H     -5.443030   -2.290910    6.656710
  H     -0.478500    0.112130    6.533820
  H     -8.033030    0.168010    2.398630
  H     -5.877080   -1.687700    0.738360
  H     -4.288220   -1.371560    1.435870
  H     -4.410320   -2.201710   -0.110410
  H     -3.156490   -0.741670   -1.431270
  H     -3.257640    1.132420   -2.978000
  H     -4.900560    2.534880   -4.105880
  H     -4.319960    3.861440   -3.114270
  H     -6.050270    3.504100   -3.175540
  H     -9.013250    8.544270   -2.130460
  H     -8.895400   10.810730   -2.917110
  H     -7.264370   12.690650   -3.587560
  H     -5.226110   13.996510   -4.112620
  H     -2.790810   14.794870   -4.403440
  H     -0.404860   14.012260   -4.108160
  H      2.082610   13.362960   -3.861680
  H      4.490980   11.845930   -3.245400
  H      6.379610    9.831390   -2.427660
  H      3.527770    6.837290   -1.184070
  H      1.124340    8.351640   -1.808970
  H     -0.741130   10.305590   -2.616540
  H      6.034680    6.174380   -0.904280
  H      8.056360    8.267920   -1.861800
  H      8.408460    6.617660   -1.159000

 Total Charge           Charge          ....    0
 Multiplicity           Mult            ....    1
 Number of Electrons    NEL             ....  560
 Basis Dimension        Dim             .... 1209

ORBITAL ENERGIES
----------------

  NO   OCC          E(Eh)            E(eV)
   0   2.0000    -482.868230    -13139.5125
   1   2.0000     -89.012362     -2422.1495
   2   2.0000     -88.974868     -2421.1292
   3   2.0000     -88.968297     -2420.9504
   4   2.0000     -88.953452     -2420.5465
   5   2.0000     -88.946964     -2420.3699
   6   2.0000     -62.545937     -1701.9615
   7   2.0000     -56.379856     -1534.1739
   8   2.0000     -56.377197     -1534.1015
   9   2.0000     -56.377153     -1534.1003
  10   2.0000     -19.177830      -521.8553
  11   2.0000     -14.451563      -393.2470
  12   2.0000     -14.435963      -392.8225
  13   2.0000     -14.431223      -392.6936
  14   2.0000     -14.426404      -392.5624
  15   2.0000     -14.425466      -392.5369
  16   2.0000     -14.419302      -392.3692
  17   2.0000     -14.383310      -391.3898
  18   2.0000     -14.381766      -391.3478
  19   2.0000     -10.365122      -282.0493
  20   2.0000     -10.351889      -281.6892
  21   2.0000     -10.344804      -281.4964
  22   2.0000     -10.337370      -281.2941
  23   2.0000     -10.337037      -281.2851
  24   2.0000     -10.333283      -281.1829
  25   2.0000     -10.333058      -281.1768
  26   2.0000     -10.329808      -281.0884
  27   2.0000     -10.329122      -281.0697
  28   2.0000     -10.326089      -280.9872
  29   2.0000     -10.325977      -280.9841
  30   2.0000     -10.325605      -280.9740
  31   2.0000     -10.323423      -280.9146
  32   2.0000     -10.322356      -280.8856
  33   2.0000     -10.320873      -280.8452
  34   2.0000     -10.316886      -280.7367
  35   2.0000     -10.313917      -280.6559
  36   2.0000     -10.313293      -280.6390
  37   2.0000     -10.311759      -280.5972
  38   2.0000     -10.308707      -280.5142
  39   2.0000     -10.308431      -280.5067
  40   2.0000     -10.306964      -280.4667
  41   2.0000     -10.306221      -280.4465
  42   2.0000     -10.305024      -280.4139
  43   2.0000     -10.303707      -280.3781
  44   2.0000     -10.303693      -280.3777
  45   2.0000     -10.301186      -280.3095
  46   2.0000     -10.300198      -280.2826
  47   2.0000     -10.299524      -280.2643
  48   2.0000     -10.297960      -280.2217
  49   2.0000     -10.292686      -280.0782
  50   2.0000     -10.292043      -280.0607
  51   2.0000     -10.291528      -280.0467
  52   2.0000     -10.290943      -280.0308
  53   2.0000     -10.289459      -279.9904
  54   2.0000     -10.288360      -279.9605
  55   2.0000     -10.288102      -279.9535
  56   2.0000     -10.286382      -279.9067
  57   2.0000     -10.285904      -279.8937
  58   2.0000     -10.285297      -279.8771
  59   2.0000     -10.284946      -279.8676
  60   2.0000     -10.282113      -279.7905
  61   2.0000     -10.280330      -279.7420
  62   2.0000     -10.279985      -279.7326
  63   2.0000     -10.279199      -279.7112
  64   2.0000     -10.278412      -279.6898
  65   2.0000     -10.276073      -279.6262
  66   2.0000     -10.275122      -279.6003
  67   2.0000     -10.273730      -279.5624
  68   2.0000     -10.265703      -279.3440
  69   2.0000     -10.265352      -279.3344
  70   2.0000     -10.265229      -279.3311
  71   2.0000     -10.263570      -279.2859
  72   2.0000     -10.257085      -279.1095
  73   2.0000     -10.254927      -279.0507
  74   2.0000     -10.251831      -278.9665
  75   2.0000     -10.250211      -278.9224
  76   2.0000     -10.247414      -278.8463
  77   2.0000     -10.238966      -278.6164
  78   2.0000      -8.775360      -238.7897
  79   2.0000      -8.104325      -220.5299
  80   2.0000      -8.070126      -219.5993
  81   2.0000      -8.060724      -219.3434
  82   2.0000      -8.049457      -219.0369
  83   2.0000      -8.041865      -218.8303
  84   2.0000      -6.611516      -179.9085
  85   2.0000      -6.597138      -179.5173
  86   2.0000      -6.597016      -179.5139
  87   2.0000      -6.075794      -165.3308
  88   2.0000      -6.068083      -165.1209
  89   2.0000      -6.066105      -165.0671
  90   2.0000      -6.039623      -164.3465
  91   2.0000      -6.035348      -164.2302
  92   2.0000      -6.031772      -164.1329
  93   2.0000      -6.030461      -164.0972
  94   2.0000      -6.025798      -163.9703
  95   2.0000      -6.022698      -163.8860
  96   2.0000      -6.019165      -163.7898
  97   2.0000      -6.014900      -163.6737
  98   2.0000      -6.010972      -163.5669
  99   2.0000      -6.010661      -163.5584
 100   2.0000      -6.006711      -163.4509
 101   2.0000      -6.004413      -163.3884
 102   2.0000      -2.727464       -74.2181
 103   2.0000      -2.723341       -74.1059
 104   2.0000      -2.723255       -74.1035
 105   2.0000      -2.711827       -73.7926
 106   2.0000      -2.711821       -73.7924
 107   2.0000      -1.117255       -30.4021
 108   2.0000      -1.103267       -30.0214
 109   2.0000      -1.092971       -29.7413
 110   2.0000      -1.030737       -28.0478
 111   2.0000      -1.017986       -27.7008
 112   2.0000      -1.011739       -27.5308
 113   2.0000      -1.009215       -27.4621
 114   2.0000      -0.996439       -27.1145
 115   2.0000      -0.996250       -27.1093
 116   2.0000      -0.991396       -26.9773
 117   2.0000      -0.985338       -26.8124
 118   2.0000      -0.985145       -26.8072
 119   2.0000      -0.982580       -26.7374
 120   2.0000      -0.972187       -26.4546
 121   2.0000      -0.962096       -26.1800
 122   2.0000      -0.959389       -26.1063
 123   2.0000      -0.955813       -26.0090
 124   2.0000      -0.928166       -25.2567
 125   2.0000      -0.918584       -24.9959
 126   2.0000      -0.914767       -24.8921
 127   2.0000      -0.905952       -24.6522
 128   2.0000      -0.893818       -24.3220
 129   2.0000      -0.891770       -24.2663
 130   2.0000      -0.889547       -24.2058
 131   2.0000      -0.882507       -24.0142
 132   2.0000      -0.878563       -23.9069
 133   2.0000      -0.869296       -23.6548
 134   2.0000      -0.863158       -23.4877
 135   2.0000      -0.861273       -23.4364
 136   2.0000      -0.857750       -23.3406
 137   2.0000      -0.850876       -23.1535
 138   2.0000      -0.839713       -22.8498
 139   2.0000      -0.834729       -22.7141
 140   2.0000      -0.824023       -22.4228
 141   2.0000      -0.821440       -22.3525
 142   2.0000      -0.812490       -22.1090
 143   2.0000      -0.810489       -22.0545
 144   2.0000      -0.803949       -21.8766
 145   2.0000      -0.792632       -21.5686
 146   2.0000      -0.790692       -21.5158
 147   2.0000      -0.786768       -21.4091
 148   2.0000      -0.773868       -21.0580
 149   2.0000      -0.768808       -20.9203
 150   2.0000      -0.754058       -20.5190
 151   2.0000      -0.739798       -20.1309
 152   2.0000      -0.730317       -19.8729
 153   2.0000      -0.725417       -19.7396
 154   2.0000      -0.715534       -19.4707
 155   2.0000      -0.712630       -19.3916
 156   2.0000      -0.702326       -19.1113
 157   2.0000      -0.691661       -18.8210
 158   2.0000      -0.690187       -18.7809
 159   2.0000      -0.683538       -18.6000
 160   2.0000      -0.681797       -18.5526
 161   2.0000      -0.676446       -18.4070
 162   2.0000      -0.670836       -18.2544
 163   2.0000      -0.667217       -18.1559
 164   2.0000      -0.666328       -18.1317
 165   2.0000      -0.660261       -17.9666
 166   2.0000      -0.653860       -17.7924
 167   2.0000      -0.649762       -17.6809
 168   2.0000      -0.643088       -17.4993
 169   2.0000      -0.638024       -17.3615
 170   2.0000      -0.636248       -17.3132
 171   2.0000      -0.631310       -17.1788
 172   2.0000      -0.626244       -17.0410
 173   2.0000      -0.616744       -16.7825
 174   2.0000      -0.613137       -16.6843
 175   2.0000      -0.605633       -16.4801
 176   2.0000      -0.602008       -16.3815
 177   2.0000      -0.600057       -16.3284
 178   2.0000      -0.595883       -16.2148
 179   2.0000      -0.593763       -16.1571
 180   2.0000      -0.582077       -15.8391
 181   2.0000      -0.574662       -15.6374
 182   2.0000      -0.573944       -15.6178
 183   2.0000      -0.567673       -15.4472
 184   2.0000      -0.564671       -15.3655
 185   2.0000      -0.562277       -15.3003
 186   2.0000      -0.557988       -15.1836
 187   2.0000      -0.551268       -15.0008
 188   2.0000      -0.549164       -14.9435
 189   2.0000      -0.541981       -14.7481
 190   2.0000      -0.538802       -14.6616
 191   2.0000      -0.537465       -14.6252
 192   2.0000      -0.530849       -14.4451
 193   2.0000      -0.530359       -14.4318
 194   2.0000      -0.523301       -14.2397
 195   2.0000      -0.522154       -14.2085
 196   2.0000      -0.520132       -14.1535
 197   2.0000      -0.515473       -14.0267
 198   2.0000      -0.514726       -14.0064
 199   2.0000      -0.514471       -13.9995
 200   2.0000      -0.513768       -13.9803
 201   2.0000      -0.508858       -13.8467
 202   2.0000      -0.507323       -13.8050
 203   2.0000      -0.504830       -13.7371
 204   2.0000      -0.501817       -13.6551
 205   2.0000      -0.498790       -13.5728
 206   2.0000      -0.496865       -13.5204
 207   2.0000      -0.493588       -13.4312
 208   2.0000      -0.491478       -13.3738
 209   2.0000      -0.488780       -13.3004
 210   2.0000      -0.487343       -13.2613
 211   2.0000      -0.485559       -13.2127
 212   2.0000      -0.482696       -13.1348
 213   2.0000      -0.481778       -13.1098
 214   2.0000      -0.478183       -13.0120
 215   2.0000      -0.477324       -12.9886
 216   2.0000      -0.476245       -12.9593
 217   2.0000      -0.472945       -12.8695
 218   2.0000      -0.468741       -12.7551
 219   2.0000      -0.467881       -12.7317
 220   2.0000      -0.465591       -12.6694
 221   2.0000      -0.464169       -12.6307
 222   2.0000      -0.461186       -12.5495
 223   2.0000      -0.460988       -12.5441
 224   2.0000      -0.460132       -12.5208
 225   2.0000      -0.458264       -12.4700
 226   2.0000      -0.454396       -12.3648
 227   2.0000      -0.453491       -12.3401
 228   2.0000      -0.451532       -12.2868
 229   2.0000      -0.447300       -12.1717
 230   2.0000      -0.446577       -12.1520
 231   2.0000      -0.445809       -12.1311
 232   2.0000      -0.439921       -11.9709
 233   2.0000      -0.438315       -11.9272
 234   2.0000      -0.437179       -11.8962
 235   2.0000      -0.433325       -11.7914
 236   2.0000      -0.428931       -11.6718
 237   2.0000      -0.427315       -11.6278
 238   2.0000      -0.423676       -11.5288
 239   2.0000      -0.422799       -11.5049
 240   2.0000      -0.420501       -11.4424
 241   2.0000      -0.418970       -11.4008
 242   2.0000      -0.416567       -11.3354
 243   2.0000      -0.416240       -11.3265
 244   2.0000      -0.415288       -11.3006
 245   2.0000      -0.412789       -11.2326
 246   2.0000      -0.410381       -11.1670
 247   2.0000      -0.404055       -10.9949
 248   2.0000      -0.403490       -10.9795
 249   2.0000      -0.396513       -10.7897
 250   2.0000      -0.395397       -10.7593
 251   2.0000      -0.393241       -10.7006
 252   2.0000      -0.391913       -10.6645
 253   2.0000      -0.391100       -10.6424
 254   2.0000      -0.390590       -10.6285
 255   2.0000      -0.383974       -10.4485
 256   2.0000      -0.379507       -10.3269
 257   2.0000      -0.375342       -10.2136
 258   2.0000      -0.373789       -10.1713
 259   2.0000      -0.364736        -9.9250
 260   2.0000      -0.362467        -9.8632
 261   2.0000      -0.358313        -9.7502
 262   2.0000      -0.357948        -9.7403
 263   2.0000      -0.354117        -9.6360
 264   2.0000      -0.348225        -9.4757
 265   2.0000      -0.337001        -9.1703
 266   2.0000      -0.335346        -9.1252
 267   2.0000      -0.334492        -9.1020
 268   2.0000      -0.331247        -9.0137
 269   2.0000      -0.323919        -8.8143
 270   2.0000      -0.309838        -8.4311
 271   2.0000      -0.294459        -8.0126
 272   2.0000      -0.292046        -7.9470
 273   2.0000      -0.291764        -7.9393
 274   2.0000      -0.289294        -7.8721
 275   2.0000      -0.279119        -7.5952
 276   2.0000      -0.268644        -7.3102
 277   2.0000      -0.266365        -7.2482
 278   2.0000      -0.239911        -6.5283
 279   2.0000      -0.203640        -5.5413
 280   0.0000      -0.125424        -3.4130
 281   0.0000      -0.119016        -3.2386
 282   0.0000      -0.072359        -1.9690
 283   0.0000      -0.065041        -1.7698
 284   0.0000      -0.039751        -1.0817

MULLIKEN ATOMIC CHARGES
-----------------------
   0 C :    0.312592
   1 C :   -0.364102
   2 C :   -0.186214
   3 N :    0.128498
   4 C :   -0.213995
   5 N :    0.147398
   6 C :    0.021881
   7 C :   -0.014188
   8 C :   -0.085933
   9 C :    0.117719
  10 C :   -0.088644
  11 C :   -0.037185
  12 S :    0.172449
  13 C :   -0.123838
  14 C :    0.035210
  15 Br:    0.005126
  16 C :    0.121732
  17 O :   -0.154025
  18 C :   -0.152905
  19 C :    0.010843
  20 C :   -0.188581
  21 S :    0.210371
  22 C :   -0.239365
  23 C :    0.157632
  24 C :    0.185649
  25 C :   -0.126722
  26 C :    0.143608
  27 C :   -0.018323
  28 C :   -0.034575
  29 C :   -0.109428
  30 C :    0.129400
  31 C :    0.084873
  32 C :   -0.090473
  33 C :    0.001877
  34 N :   -0.033268
  35 C :   -0.099733
  36 C :   -0.141216
  37 N :    0.053317
  38 C :   -0.206298
  39 N :    0.216196
  40 C :   -0.220770
  41 N :    0.194770
  42 C :    0.107224
  43 C :   -0.000822
  44 C :   -0.017124
  45 N :   -0.302938
  46 S :    0.492821
  47 N :   -0.274335
  48 C :   -0.134366
  49 C :    0.029888
  50 C :    0.009034
  51 C :    0.039966
  52 C :   -0.040357
  53 S :    0.133773
  54 C :   -0.001699
  55 C :    0.009561
  56 C :    0.058236
  57 C :   -0.050571
  58 S :    0.112216
  59 C :    0.032218
  60 C :    0.042312
  61 C :   -0.010898
  62 C :    0.049477
  63 C :    0.023801
  64 C :    0.040472
  65 C :   -0.001776
  66 C :    0.054692
  67 C :    0.001119
  68 C :    0.048180
  69 C :    0.036384
  70 C :    0.012202
  71 C :    0.020645
  72 C :    0.012135
  73 C :   -0.016424
  74 H :   -0.017562
  75 H :   -0.010777
  76 H :   -0.009616
  77 H :    0.022887
  78 H :    0.026481
  79 H :    0.027755
  80 H :    0.001300
  81 H :   -0.031612
  82 H :   -0.036849
  83 H :    0.014518
  84 H :    0.014411
  85 H :    0.016878
  86 H :    0.002204
  87 H :   -0.005681
  88 H :   -0.015543
  89 H :   -0.007116
  90 H :   -0.002340
  91 H :   -0.005749
  92 H :   -0.014764
  93 H :   -0.014608
  94 H :   -0.014420
  95 H :    0.000976
  96 H :    0.009224
  97 H :   -0.016555
  98 H :   -0.010075
  99 H :    0.010404
 100 H :    0.029822
Sum of atomic charges:   -0.0000000

LOEWDIN ATOMIC CHARGES
----------------------
   0 C :    0.073690
   1 C :   -0.165767
   2 C :   -0.019754
   3 N :   -0.077510
   4 C :   -0.025720
   5 N :   -0.072982
   6 C :   -0.017564
   7 C :   -0.046235
   8 C :    0.012124
   9 C :   -0.038572
  10 C :   -0.148403
  11 C :   -0.016513
  12 S :    0.421753
  13 C :   -0.278181
  14 C :   -0.071605
  15 Br:    0.122467
  16 C :    0.065818
  17 O :   -0.153210
  18 C :   -0.128047
  19 C :    0.026497
  20 C :   -0.187407
  21 S :    0.519030
  22 C :   -0.110378
  23 C :   -0.039363
  24 C :   -0.008296
  25 C :   -0.014604
  26 C :   -0.042353
  27 C :   -0.007371
  28 C :   -0.035742
  29 C :   -0.002849
  30 C :   -0.049954
  31 C :   -0.123212
  32 C :    0.012176
  33 C :   -0.005789
  34 N :   -0.035025
  35 C :   -0.085442
  36 C :   -0.019610
  37 N :   -0.017614
  38 C :   -0.025262
  39 N :   -0.025566
  40 C :   -0.020479
  41 N :   -0.067936
  42 C :   -0.029005
  43 C :   -0.051178
  44 C :   -0.043356
  45 N :   -0.307526
  46 S :    0.619614
  47 N :   -0.277567
  48 C :   -0.033870
  49 C :   -0.128691
  50 C :   -0.048088
  51 C :   -0.019930
  52 C :   -0.224591
  53 S :    0.487066
  54 C :   -0.127709
  55 C :   -0.059317
  56 C :    0.004937
  57 C :   -0.186745
  58 S :    0.459723
  59 C :    0.031350
  60 C :   -0.087496
  61 C :    0.055504
  62 C :   -0.071911
  63 C :    0.097641
  64 C :   -0.064200
  65 C :    0.063835
  66 C :   -0.056064
  67 C :    0.057371
  68 C :   -0.064402
  69 C :    0.108260
  70 C :   -0.063140
  71 C :    0.056545
  72 C :   -0.023879
  73 C :   -0.039672
  74 H :    0.037837
  75 H :    0.039177
  76 H :    0.036155
  77 H :    0.040515
  78 H :    0.036163
  79 H :    0.035974
  80 H :    0.027847
  81 H :    0.026267
  82 H :    0.023943
  83 H :    0.031903
  84 H :    0.029218
  85 H :    0.029757
  86 H :    0.044294
  87 H :    0.034718
  88 H :    0.030466
  89 H :    0.034479
  90 H :    0.037477
  91 H :    0.042827
  92 H :    0.028887
  93 H :    0.039378
  94 H :    0.029494
  95 H :    0.035807
  96 H :    0.050368
  97 H :    0.013813
  98 H :    0.032739
  99 H :    0.018994
 100 H :    0.028757

  Mayer bond orders larger than 0.100000
B(  0-C ,  1-C ) :   1.5903 B(  0-C ,  6-C ) :   0.9914 B(  0-C , 18-C ) :   1.1325
B(  1-C ,  2-C ) :   1.1453 B(  1-C ,  4-C ) :   1.1549 B(  2-C ,  3-N ) :   2.9650
B(  4-C ,  5-N ) :   2.9940 B(  6-C ,  7-C ) :   1.2783 B(  6-C , 11-C ) :   1.4230
B(  7-C ,  8-C ) :   1.4391 B(  7-C , 16-C ) :   0.9249 B(  8-C ,  9-C ) :   1.2284
B(  8-C , 74-H ) :   1.0182 B(  9-C , 10-C ) :   1.3244 B(  9-C , 14-C ) :   1.1602
B( 10-C , 11-C ) :   1.3112 B( 10-C , 12-S ) :   1.0793 B( 11-C , 75-H ) :   0.9815
B( 12-S , 13-C ) :   1.0847 B( 13-C , 14-C ) :   1.6217 B( 13-C , 15-Br) :   1.0083
B( 14-C , 76-H ) :   0.9996 B( 16-C , 17-O ) :   2.2055 B( 16-C , 18-C ) :   0.9806
B( 18-C , 19-C ) :   1.4385 B( 19-C , 20-C ) :   1.3042 B( 19-C , 77-H ) :   0.9345
B( 20-C , 21-S ) :   1.0594 B( 20-C , 24-C ) :   1.2297 B( 21-S , 22-C ) :   1.2537
B( 22-C , 23-C ) :   1.2514 B( 22-C , 31-C ) :   1.1361 B( 23-C , 24-C ) :   1.2372
B( 23-C , 29-C ) :   1.2547 B( 24-C , 25-C ) :   1.2722 B( 25-C , 26-C ) :   1.1148
B( 25-C , 27-C ) :   1.4764 B( 26-C , 78-H ) :   0.9315 B( 26-C , 79-H ) :   0.9264
B( 26-C , 80-H ) :   0.9453 B( 27-C , 28-C ) :   1.2586 B( 27-C , 81-H ) :   0.9868
B( 28-C , 29-C ) :   1.4931 B( 28-C , 82-H ) :   0.9892 B( 29-C , 30-C ) :   1.0903
B( 30-C , 83-H ) :   0.9485 B( 30-C , 84-H ) :   0.9336 B( 30-C , 85-H ) :   0.9406
B( 31-C , 32-C ) :   1.3035 B( 31-C , 44-C ) :   1.1400 B( 32-C , 33-C ) :   1.0903
B( 32-C , 37-N ) :   1.4444 B( 33-C , 34-N ) :   1.5216 B( 33-C , 42-C ) :   1.0878
B( 34-N , 35-C ) :   1.5017 B( 34-N , 53-S ) :   0.1078 B( 35-C , 36-C ) :   1.2755
B( 35-C , 40-C ) :   1.1426 B( 36-C , 37-N ) :   1.7011 B( 36-C , 38-C ) :   1.1581
B( 38-C , 39-N ) :   3.0461 B( 40-C , 41-N ) :   2.9548 B( 41-N , 97-H ) :   0.1221
B( 42-C , 43-C ) :   1.0958 B( 42-C , 48-C ) :   1.4773 B( 43-C , 44-C ) :   1.1311
B( 43-C , 47-N ) :   1.6070 B( 44-C , 45-N ) :   1.5624 B( 45-N , 46-S ) :   1.2112
B( 45-N , 47-N ) :   0.1264 B( 46-S , 47-N ) :   1.2386 B( 48-C , 49-C ) :   1.2635
B( 48-C , 86-H ) :   0.9544 B( 49-C , 50-C ) :   1.2823 B( 49-C , 53-S ) :   1.1202
B( 50-C , 51-C ) :   1.4322 B( 50-C , 87-H ) :   1.0034 B( 51-C , 52-C ) :   1.3170
B( 51-C , 88-H ) :   0.9937 B( 52-C , 53-S ) :   1.0258 B( 52-C , 54-C ) :   1.3086
B( 54-C , 55-C ) :   1.2795 B( 54-C , 58-S ) :   1.1439 B( 55-C , 56-C ) :   1.4800
B( 55-C , 89-H ) :   0.9959 B( 56-C , 57-C ) :   1.2215 B( 56-C , 90-H ) :   0.9994
B( 57-C , 58-S ) :   1.0345 B( 57-C , 59-C ) :   1.4396 B( 59-C , 60-C ) :   1.2355
B( 59-C , 91-H ) :   0.9721 B( 60-C , 61-C ) :   1.2575 B( 60-C , 71-C ) :   1.1517
B( 61-C , 62-C ) :   1.2670 B( 61-C , 92-H ) :   1.0162 B( 62-C , 63-C ) :   1.2604
B( 62-C , 70-C ) :   1.1266 B( 63-C , 64-C ) :   1.2808 B( 63-C , 93-H ) :   1.0044
B( 64-C , 65-C ) :   1.2793 B( 64-C , 68-C ) :   1.1157 B( 65-C , 66-C ) :   1.2716
B( 65-C , 94-H ) :   1.0100 B( 66-C , 67-C ) :   1.3674 B( 66-C , 72-C ) :   1.0806
B( 67-C , 68-C ) :   1.1751 B( 67-C , 95-H ) :   1.0177 B( 68-C , 69-C ) :   1.3644
B( 69-C , 70-C ) :   1.1798 B( 69-C , 96-H ) :   1.0081 B( 70-C , 71-C ) :   1.4260
B( 71-C , 97-H ) :   0.9730 B( 72-C , 73-C ) :   1.9418 B( 72-C , 98-H ) :   0.9662
B( 73-C , 99-H ) :   0.9534 B( 73-C ,100-H ) :   0.9491

-----------------------------------------------------------------------------
         ABSORPTION SPECTRUM VIA TRANSITION ELECTRIC DIPOLE MOMENTS
-----------------------------------------------------------------------------
State   Energy  Wavelength   fosc         T2         TX        TY        TZ
        (cm-1)    (nm)                  (au**2)     (au)      (au)      (au)
-----------------------------------------------------------------------------
   0    4965.3   2014.0   0.190961423  12.66116   2.10248   2.61323  -1.18818
   1    5687.5   1758.3   0.259165891  15.00149   1.88947   3.07213  -1.41188
   2   10479.6    954.2   0.012203809   0.38338   0.56951  -0.21989   0.10336
   3   12869.8    777.0   0.395897003  10.12709  -3.06110  -0.81819   0.29551
   4   14576.0    686.1   0.617336072  13.94308  -0.09355  -2.72402   2.55227
   5   14761.3    677.4   0.185492724   4.13694  -1.44205   1.06219  -0.96393
   6   17145.1    583.3   0.022548392   0.43296   0.43851  -0.46506   0.15620
   7   18745.8    533.5   0.399578958   7.01738  -2.47976   0.90183  -0.23430
   8   20422.8    489.6   0.039316021   0.63377  -0.51366  -0.08343  -0.60246
   9   20696.8    483.2   0.064663337   1.02856   0.92536  -0.38899   0.14477
  10   21171.5    472.3   0.215561838   3.35193   1.66091  -0.64282   0.42438
  11   21725.7    460.3   0.004350338   0.06592   0.20943   0.05522  -0.13788
  12   22405.0    446.3   0.249356612   3.66396  -1.89104   0.20647  -0.21281
  13   22611.7    442.2   0.099583254   1.44987   0.77825   0.17668   0.90165
  14   22901.3    436.7   0.059854167   0.86042   0.46991  -0.46862  -0.64807
  15   23453.7    426.4   0.257929270   3.62046   1.20259  -1.28400   0.72496
  16   23591.4    423.9   0.056557565   0.78925   0.48866  -0.73564   0.09641
  17   24012.6    416.4   0.051988195   0.71276   0.26304   0.76968  -0.22618
  18   24233.8    412.6   0.015549118   0.21123  -0.42436  -0.09911   0.14605
  19   24716.9    404.6   0.003436058   0.04577   0.11506  -0.06397  -0.16863
  20   25719.2    388.8   0.258618127   3.31038   1.04110  -1.37459   0.58052
  21   26180.1    382.0   0.001460910   0.01837   0.10020   0.07258  -0.05534
  22   26299.7    380.2   0.004648898   0.05819  -0.11411   0.10270  -0.18608
  23   26815.5    372.9   0.080115721   0.98357   0.75573  -0.45322   0.45502
  24   27282.5    366.5   0.278208141   3.35707  -1.17265   1.40724   0.04049
  25   27768.5    360.1   0.001802115   0.02137  -0.13460   0.05684  -0.00407
  26   28097.6    355.9   0.027175239   0.31840  -0.12565   0.50229   0.22433
  27   28367.0    352.5   0.228420973   2.65093  -1.01834   1.25950   0.16606
  28   28809.3    347.1   0.244629449   2.79545  -1.06643   0.94596  -0.87370
  29   29003.3    344.8   0.003400341   0.03860   0.18562  -0.02058   0.06096
  30   29249.1    341.9   0.122131477   1.37465   0.15816   1.05152  -0.49389
  31   29527.3    338.7   0.018589286   0.20726  -0.39942  -0.21843  -0.00323
  32   29711.7    336.6   0.052444543   0.58110  -0.70875   0.24676   0.13373
  33   29805.1    335.5   0.038813047   0.42871  -0.32992   0.19183  -0.53204
  34   29822.5    335.3   0.041857185   0.46206  -0.48858  -0.05700  -0.46915
  35   30205.3    331.1   0.175117906   1.90863  -1.03564   0.69877  -0.58975
  36   30287.4    330.2   0.160936666   1.74932  -0.93466  -0.55330  -0.75471
  37   30444.7    328.5   0.025413399   0.27481   0.20364   0.08197   0.47604
  38   31118.3    321.4   0.039994900   0.42312   0.19624   0.37712  -0.49233
  39   31284.5    319.6   0.001469755   0.01547   0.09583   0.00835   0.07883
  40   31509.8    317.4   0.196990014   2.05814   1.11055  -0.12808   0.89912
  41   32035.4    312.2   0.044706173   0.45942   0.58385  -0.31442   0.14030
  42   32513.7    307.6   0.058871289   0.59609  -0.74344   0.11875   0.17112
  43   32572.0    307.0   0.020375877   0.20594   0.43534  -0.00407   0.12809
  44   32729.7    305.5   0.266097828   2.67655  -1.63041  -0.13233   0.02800
  45   32910.4    303.9   0.025358695   0.25367  -0.34130  -0.33298   0.16219
  46   33116.4    302.0   0.035423095   0.35214   0.58409   0.08716  -0.05823
  47   33263.3    300.6   0.016731852   0.16560   0.33689  -0.20858   0.09269
  48   33331.1    300.0   0.016406345   0.16205  -0.17029   0.33193  -0.15122
  49   33536.0    298.2   0.034023383   0.33400   0.23360  -0.44192   0.29005
  50   33643.5    297.2   0.043632021   0.42695  -0.29265   0.52911  -0.24771
  51   33786.3    296.0   0.053422807   0.52055   0.62525   0.24764  -0.26132
  52   33949.3    294.6   0.001527390   0.01481  -0.05251   0.10467  -0.03313
  53   34260.7    291.9   0.248925169   2.39193   1.09861   0.46514   0.98419
  54   34858.9    286.9   0.010848838   0.10246  -0.19885  -0.24901   0.03014
  55   35037.4    285.4   0.062006231   0.58261   0.70059  -0.26643   0.14421
  56   35121.6    284.7   0.021879778   0.20509   0.45272   0.00201   0.01144
  57   35148.5    284.5   0.078024336   0.73080   0.80961   0.27445  -0.00243
  58   35226.4    283.9   0.164431339   1.53671  -0.75901  -0.92341   0.32853
  59   35502.2    281.7   0.033690225   0.31241   0.22964  -0.28484   0.42254
  60   35792.5    279.4   0.081366389   0.74839  -0.75857   0.32634  -0.25779
  61   35901.8    278.5   0.037395038   0.34290   0.38318  -0.24810   0.36677
  62   36049.1    277.4   0.139570843   1.27461   1.10402   0.10208   0.21291
  63   36252.3    275.8   0.053799709   0.48856  -0.65872  -0.15688   0.17334
  64   36578.0    273.4   0.046523321   0.41872  -0.53380  -0.19428  -0.30990
  65   36629.9    273.0   0.000298833   0.00269   0.01942  -0.03781  -0.02966
  66   36710.4    272.4   0.003055762   0.02740   0.16027   0.00939   0.04036
  67   37263.3    268.4   0.233184638   2.06013   0.83669   1.09771  -0.39385
  68   37602.1    265.9   0.051958143   0.45490  -0.60258  -0.30131   0.03171
  69   37721.6    265.1   0.110954584   0.96835   0.62227  -0.75553  -0.10153
  70   37876.6    264.0   0.014419890   0.12533   0.11310  -0.05517  -0.33091
  71   37977.0    263.3   0.006519049   0.05651   0.02371   0.23490   0.02778
  72   38135.8    262.2   0.130513142   1.12667   0.56404  -0.68326   0.58453
  73   38419.8    260.3   0.022314340   0.19121   0.40497  -0.16339  -0.02251
  74   38552.9    259.4   0.037608205   0.32114   0.29607   0.31120  -0.36965
  75   38607.3    259.0   0.000656337   0.00560  -0.04462  -0.05125   0.03129
  76   38755.8    258.0   0.034853290   0.29606  -0.12176  -0.42031   0.32338
  77   39073.0    255.9   0.031903884   0.26881  -0.35822   0.36845  -0.06880
  78   39152.7    255.4   0.016278608   0.13688   0.04888  -0.36473  -0.03823
  79   39337.9    254.2   0.047286992   0.39574   0.28256  -0.43288   0.35848
  80   39520.8    253.0   0.034858724   0.29038   0.39365  -0.34502   0.12798
  81   39743.4    251.6   0.000702592   0.00582  -0.01733   0.04053  -0.06226
  82   39906.0    250.6   0.009652603   0.07963   0.23313  -0.15436  -0.03812
  83   40052.2    249.7   0.015696972   0.12902  -0.18118  -0.16032  -0.26551
  84   40069.5    249.6   0.173730383   1.42737  -1.13153   0.30135   0.23705
  85   40239.2    248.5   0.018221882   0.14908   0.31335   0.22559   0.00090

FINAL SINGLE POINT ENERGY     -7338.330266629347

DIPOLE MOMENT
-------------
                                X             Y             Z
Electronic contribution:     -9.84173     -80.36975     121.81946
Nuclear contribution   :     14.53524      89.10932    -126.46866
                        -----------------------------------------
Total Dipole Moment    :      4.69351       8.73957      -4.64920
                        -----------------------------------------
Magnitude (a.u.)       :     10.95555
Magnitude (Debye)      :     27.84680

Rotational constants in cm-1:     0.000792     0.000362     0.000269
Rotational constants in MHz :    23.731737    10.863587     8.075973

                             ****ORCA TERMINATED NORMALLY****
TOTAL RUN TIME: 0 days 0 hours 16 minutes 5 seconds 766 msec
