                         Program Version 4.2.0 -  RELEASE  -
|  1> # ORCA input file
|  2> # SCF done       -191.610281939297          0.000927653728
|  3> ! CAM-B3LYP def2-SVP def2/J RIJCOSX Grid4 TightSCF
|  4> %maxcore 5000
|  5> %tddft
|  6>     Mode sTDDFT
|  7>     Ethresh 5.0
|  8>     maxcore 5000
|  9> end
| 10>
| 11> %pal
| 12>   nprocs 6
| 13>   end
| 14> * xyz 0 1
| 15>    C      -11.17691         9.93328         0.89371
| 16>    C      -12.26118         9.28691         1.43737
| 17>    C      -13.29541         9.92932         2.14416
| 18>    N      -14.16524        10.39881         2.72886
| 19>    C      -12.46924         7.89764         1.35274
| 20>    N      -12.67187         6.76748         1.30523
| 21>    C      -10.91550        11.36879         0.96298
| 22>    C       -9.69433        11.64589         0.29461
| 23>    C       -9.17817        12.91420         0.18979
| 24>    C       -9.90049        13.96249         0.77004
| 25>    C      -11.11721        13.67764         1.43255
| 26>    C      -11.63939        12.39365         1.54014
| 27>    S      -11.84770        15.11813         2.07383
| 28>    C      -10.52592        16.06998         1.45133
| 29>    C       -9.58513        15.34861         0.79718
| 30>   Br      -10.51286        17.92631         1.72262
| 31>    C       -9.14648        10.38617        -0.22430
| 32>    O       -8.10756        10.23484        -0.86959
| 33>    C      -10.08796         9.34082         0.15994
| 34>    C       -9.88966         8.02187        -0.19803
| 35>    N       -8.80140         7.67731        -0.87560
| 36>    C       -8.44337         6.43550        -1.35551
| 37>    C       -9.09882         5.25663        -1.13379
| 38>    S       -8.32329         3.93958        -1.90010
| 39>    C       -7.10510         4.96795        -2.54887
| 40>    C       -7.27256         6.27309        -2.18276
| 41>    N       -6.50277         7.35270        -2.55842
| 42>    C       -5.18129         7.37494        -2.94667
| 43>    C       -4.28263         6.38763        -2.82194
| 44>    C       -2.89732         6.45076        -3.23647
| 45>    C       -2.07022         5.35344        -2.94775
| 46>    C       -0.74160         5.37256        -3.29926
| 47>    C       -0.21852         6.47547        -3.99517
| 48>    C       -1.02514         7.56256        -4.30031
| 49>    C       -2.34887         7.54593        -3.91529
| 50>    C        1.17044         6.22198        -4.29185
| 51>    C        1.51656         4.95438        -3.79000
| 52>    C        0.32365         4.30829        -3.10848
| 53>    C        0.69495         4.09969        -1.62538
| 54>    C       -0.39538         3.52242        -0.73215
| 55>    C       -0.15583         3.02761        -3.82149
| 56>    C        0.80723         1.84746        -3.80688
| 57>    C        2.80948         4.50596        -3.89878
| 58>    C        3.78449         5.29566        -4.53775
| 59>    C        3.40609         6.54448        -5.05720
| 60>    C        2.11642         7.01060        -4.93378
| 61>    C        5.12683         4.79552        -4.62790
| 62>    C        6.21611         5.49202        -5.04772
| 63>    C        7.51612         4.96244        -5.12558
| 64>    C        8.61002         5.69499        -5.51429
| 65>    C        9.94907         5.25560        -5.64383
| 66>    C       10.82188         6.22112        -6.05009
| 67>    C       10.22534         7.48242        -6.25898
| 68>    S        8.50821         7.40102        -5.93102
| 69>    C       10.82403         8.66461        -6.65341
| 70>    C       12.17785         8.90045        -6.97538
| 71>    C       12.44300        10.18965        -7.32638
| 72>    C       11.31952        11.05423        -7.29863
| 73>    S        9.90011        10.14140        -6.80984
| 74>    C       11.33016        12.39130        -7.60217
| 75>    C       10.25404        13.30392        -7.57196
| 76>    C       10.40863        14.69216        -7.92878
| 77>    C        9.19575        15.33134        -7.79388
| 78>    C        8.81117        16.67468        -8.01227
| 79>    C        7.50667        17.00776        -7.77863
| 80>    C        6.80063        18.24843        -7.89482
| 81>    C        5.48412        18.04739        -7.53398
| 82>    C        5.32597        16.66599        -7.17914
| 83>    C        6.54155        16.02114        -7.32165
| 84>    C        6.92049        14.68325        -7.10495
| 85>    C        8.23148        14.34324        -7.33929
| 86>    C        8.91971        13.10800        -7.21648
| 87>    C        4.45965        19.06300        -7.52172
| 88>    C        3.18569        18.87463        -7.18744
| 89>    H       -8.24659        13.09487        -0.32334
| 90>    H      -12.57093        12.22819         2.05499
| 91>    H       -8.70490        15.77473         0.35148
| 92>    H      -10.60275         7.24877         0.04760
| 93>    H       -8.16832         8.47109        -1.05395
| 94>    H       -9.98343         5.08605        -0.55475
| 95>    H       -6.36083         4.55071        -3.19327
| 96>    H       -6.94948         8.25643        -2.50965
| 97>    H       -4.89870         8.33111        -3.36246
| 98>    H       -4.57781         5.46506        -2.34405
| 99>    H       -2.50359         4.49698        -2.45218
|100>    H       -0.62365         8.40876        -4.83817
|101>    H       -2.97149         8.39286        -4.15850
|102>    H        0.99836         5.07145        -1.22588
|103>    H        1.56952         3.44798        -1.58479
|104>    H       -1.23384         4.20786        -0.64967
|105>    H        0.00583         3.36262         0.26686
|106>    H       -0.75321         2.56741        -1.10780
|107>    H       -0.37021         3.29314        -4.86047
|108>    H       -1.09926         2.72138        -3.36601
|109>    H        1.70775         2.07356        -4.37032
|110>    H        0.32902         0.98707        -4.27131
|111>    H        1.08324         1.57189        -2.79244
|112>    H        3.11038         3.55662        -3.48057
|113>    H        4.13782         7.15355        -5.56445
|114>    H        1.84549         7.97969        -5.32614
|115>    H        5.27198         3.77002        -4.30843
|116>    H        6.11387         6.52909        -5.33805
|117>    H        7.67256         3.92284        -4.86896
|118>    H       10.22484         4.23697        -5.43348
|119>    H       11.87483         6.06055        -6.19969
|120>    H       12.91458         8.11772        -6.94259
|121>    H       13.41706        10.55343        -7.60418
|122>    H       12.28988        12.79813        -7.89845
|123>    H       11.33464        15.13753        -8.24781
|124>    H        9.53580        17.40200        -8.35143
|125>    H        7.23732        19.17786        -8.21192
|126>    H        4.40874        16.21040        -6.85349
|127>    H        6.19862        13.95437        -6.76456
|128>    H        8.46586        12.19055        -6.89609
|129>    H        4.79362        20.04987        -7.81893
|130>    H        2.80596        17.91204        -6.88950
|131>    H        2.47319        19.68116        -7.20563
|132> *
|133>
|134>                          ****END OF INPUT****

CARTESIAN COORDINATES (ANGSTROEM)
---------------------------------
  C    -11.176910    9.933280    0.893710
  C    -12.261180    9.286910    1.437370
  C    -13.295410    9.929320    2.144160
  N    -14.165240   10.398810    2.728860
  C    -12.469240    7.897640    1.352740
  N    -12.671870    6.767480    1.305230
  C    -10.915500   11.368790    0.962980
  C     -9.694330   11.645890    0.294610
  C     -9.178170   12.914200    0.189790
  C     -9.900490   13.962490    0.770040
  C    -11.117210   13.677640    1.432550
  C    -11.639390   12.393650    1.540140
  S    -11.847700   15.118130    2.073830
  C    -10.525920   16.069980    1.451330
  C     -9.585130   15.348610    0.797180
  Br   -10.512860   17.926310    1.722620
  C     -9.146480   10.386170   -0.224300
  O     -8.107560   10.234840   -0.869590
  C    -10.087960    9.340820    0.159940
  C     -9.889660    8.021870   -0.198030
  N     -8.801400    7.677310   -0.875600
  C     -8.443370    6.435500   -1.355510
  C     -9.098820    5.256630   -1.133790
  S     -8.323290    3.939580   -1.900100
  C     -7.105100    4.967950   -2.548870
  C     -7.272560    6.273090   -2.182760
  N     -6.502770    7.352700   -2.558420
  C     -5.181290    7.374940   -2.946670
  C     -4.282630    6.387630   -2.821940
  C     -2.897320    6.450760   -3.236470
  C     -2.070220    5.353440   -2.947750
  C     -0.741600    5.372560   -3.299260
  C     -0.218520    6.475470   -3.995170
  C     -1.025140    7.562560   -4.300310
  C     -2.348870    7.545930   -3.915290
  C      1.170440    6.221980   -4.291850
  C      1.516560    4.954380   -3.790000
  C      0.323650    4.308290   -3.108480
  C      0.694950    4.099690   -1.625380
  C     -0.395380    3.522420   -0.732150
  C     -0.155830    3.027610   -3.821490
  C      0.807230    1.847460   -3.806880
  C      2.809480    4.505960   -3.898780
  C      3.784490    5.295660   -4.537750
  C      3.406090    6.544480   -5.057200
  C      2.116420    7.010600   -4.933780
  C      5.126830    4.795520   -4.627900
  C      6.216110    5.492020   -5.047720
  C      7.516120    4.962440   -5.125580
  C      8.610020    5.694990   -5.514290
  C      9.949070    5.255600   -5.643830
  C     10.821880    6.221120   -6.050090
  C     10.225340    7.482420   -6.258980
  S      8.508210    7.401020   -5.931020
  C     10.824030    8.664610   -6.653410
  C     12.177850    8.900450   -6.975380
  C     12.443000   10.189650   -7.326380
  C     11.319520   11.054230   -7.298630
  S      9.900110   10.141400   -6.809840
  C     11.330160   12.391300   -7.602170
  C     10.254040   13.303920   -7.571960
  C     10.408630   14.692160   -7.928780
  C      9.195750   15.331340   -7.793880
  C      8.811170   16.674680   -8.012270
  C      7.506670   17.007760   -7.778630
  C      6.800630   18.248430   -7.894820
  C      5.484120   18.047390   -7.533980
  C      5.325970   16.665990   -7.179140
  C      6.541550   16.021140   -7.321650
  C      6.920490   14.683250   -7.104950
  C      8.231480   14.343240   -7.339290
  C      8.919710   13.108000   -7.216480
  C      4.459650   19.063000   -7.521720
  C      3.185690   18.874630   -7.187440
  H     -8.246590   13.094870   -0.323340
  H    -12.570930   12.228190    2.054990
  H     -8.704900   15.774730    0.351480
  H    -10.602750    7.248770    0.047600
  H     -8.168320    8.471090   -1.053950
  H     -9.983430    5.086050   -0.554750
  H     -6.360830    4.550710   -3.193270
  H     -6.949480    8.256430   -2.509650
  H     -4.898700    8.331110   -3.362460
  H     -4.577810    5.465060   -2.344050
  H     -2.503590    4.496980   -2.452180
  H     -0.623650    8.408760   -4.838170
  H     -2.971490    8.392860   -4.158500
  H      0.998360    5.071450   -1.225880
  H      1.569520    3.447980   -1.584790
  H     -1.233840    4.207860   -0.649670
  H      0.005830    3.362620    0.266860
  H     -0.753210    2.567410   -1.107800
  H     -0.370210    3.293140   -4.860470
  H     -1.099260    2.721380   -3.366010
  H      1.707750    2.073560   -4.370320
  H      0.329020    0.987070   -4.271310
  H      1.083240    1.571890   -2.792440
  H      3.110380    3.556620   -3.480570
  H      4.137820    7.153550   -5.564450
  H      1.845490    7.979690   -5.326140
  H      5.271980    3.770020   -4.308430
  H      6.113870    6.529090   -5.338050
  H      7.672560    3.922840   -4.868960
  H     10.224840    4.236970   -5.433480
  H     11.874830    6.060550   -6.199690
  H     12.914580    8.117720   -6.942590
  H     13.417060   10.553430   -7.604180
  H     12.289880   12.798130   -7.898450
  H     11.334640   15.137530   -8.247810
  H      9.535800   17.402000   -8.351430
  H      7.237320   19.177860   -8.211920
  H      4.408740   16.210400   -6.853490
  H      6.198620   13.954370   -6.764560
  H      8.465860   12.190550   -6.896090
  H      4.793620   20.049870   -7.818930
  H      2.805960   17.912040   -6.889500
  H      2.473190   19.681160   -7.205630

 Total Charge           Charge          ....    0
 Multiplicity           Mult            ....    1
 Number of Electrons    NEL             ....  562
 Basis Dimension        Dim             .... 1285

ORBITAL ENERGIES
----------------

  NO   OCC          E(Eh)            E(eV)
   0   2.0000    -482.886477    -13140.0091
   1   2.0000     -88.976948     -2421.1859
   2   2.0000     -88.962341     -2420.7884
   3   2.0000     -88.935200     -2420.0498
   4   2.0000     -88.933348     -2419.9994
   5   2.0000     -62.564193     -1702.4582
   6   2.0000     -56.398147     -1534.6716
   7   2.0000     -56.395425     -1534.5975
   8   2.0000     -56.395391     -1534.5966
   9   2.0000     -19.228857      -523.2438
  10   2.0000     -14.484239      -394.1362
  11   2.0000     -14.452020      -393.2595
  12   2.0000     -14.417530      -392.3209
  13   2.0000     -14.411456      -392.1556
  14   2.0000     -10.375412      -282.3293
  15   2.0000     -10.363554      -282.0066
  16   2.0000     -10.359781      -281.9040
  17   2.0000     -10.343114      -281.4504
  18   2.0000     -10.337004      -281.2842
  19   2.0000     -10.331585      -281.1367
  20   2.0000     -10.328534      -281.0537
  21   2.0000     -10.326566      -281.0002
  22   2.0000     -10.320831      -280.8441
  23   2.0000     -10.315279      -280.6930
  24   2.0000     -10.311308      -280.5850
  25   2.0000     -10.309136      -280.5259
  26   2.0000     -10.308602      -280.5113
  27   2.0000     -10.306771      -280.4615
  28   2.0000     -10.304314      -280.3946
  29   2.0000     -10.302244      -280.3383
  30   2.0000     -10.300266      -280.2845
  31   2.0000     -10.298624      -280.2398
  32   2.0000     -10.298142      -280.2267
  33   2.0000     -10.295883      -280.1652
  34   2.0000     -10.295685      -280.1598
  35   2.0000     -10.293672      -280.1050
  36   2.0000     -10.292462      -280.0721
  37   2.0000     -10.291252      -280.0392
  38   2.0000     -10.290355      -280.0148
  39   2.0000     -10.288518      -279.9648
  40   2.0000     -10.279024      -279.7065
  41   2.0000     -10.276946      -279.6499
  42   2.0000     -10.276148      -279.6282
  43   2.0000     -10.275856      -279.6203
  44   2.0000     -10.275426      -279.6085
  45   2.0000     -10.274271      -279.5771
  46   2.0000     -10.272770      -279.5363
  47   2.0000     -10.270059      -279.4625
  48   2.0000     -10.269396      -279.4445
  49   2.0000     -10.269328      -279.4426
  50   2.0000     -10.266965      -279.3783
  51   2.0000     -10.265751      -279.3453
  52   2.0000     -10.264850      -279.3208
  53   2.0000     -10.264345      -279.3070
  54   2.0000     -10.264063      -279.2994
  55   2.0000     -10.262992      -279.2702
  56   2.0000     -10.261677      -279.2344
  57   2.0000     -10.261666      -279.2341
  58   2.0000     -10.260960      -279.2149
  59   2.0000     -10.260017      -279.1892
  60   2.0000     -10.259908      -279.1863
  61   2.0000     -10.259683      -279.1802
  62   2.0000     -10.259608      -279.1781
  63   2.0000     -10.258841      -279.1573
  64   2.0000     -10.258797      -279.1561
  65   2.0000     -10.258569      -279.1499
  66   2.0000     -10.258512      -279.1483
  67   2.0000     -10.258437      -279.1463
  68   2.0000     -10.257944      -279.1328
  69   2.0000     -10.257862      -279.1306
  70   2.0000     -10.257607      -279.1237
  71   2.0000     -10.257336      -279.1163
  72   2.0000     -10.257268      -279.1145
  73   2.0000     -10.256963      -279.1061
  74   2.0000     -10.255617      -279.0695
  75   2.0000     -10.253351      -279.0079
  76   2.0000     -10.248555      -278.8774
  77   2.0000     -10.247904      -278.8596
  78   2.0000      -8.793624      -239.2867
  79   2.0000      -8.072924      -219.6754
  80   2.0000      -8.058199      -219.2747
  81   2.0000      -8.030978      -218.5340
  82   2.0000      -8.029619      -218.4970
  83   2.0000      -6.629941      -180.4099
  84   2.0000      -6.615343      -180.0126
  85   2.0000      -6.615158      -180.0076
  86   2.0000      -6.042610      -164.4278
  87   2.0000      -6.038309      -164.3107
  88   2.0000      -6.034172      -164.1982
  89   2.0000      -6.027645      -164.0206
  90   2.0000      -6.023237      -163.9006
  91   2.0000      -6.020261      -163.8196
  92   2.0000      -6.000694      -163.2872
  93   2.0000      -5.999344      -163.2504
  94   2.0000      -5.996660      -163.1774
  95   2.0000      -5.995422      -163.1437
  96   2.0000      -5.992011      -163.0509
  97   2.0000      -5.990463      -163.0088
  98   2.0000      -2.745794       -74.7168
  99   2.0000      -2.741704       -74.6056
 100   2.0000      -2.741589       -74.6024
 101   2.0000      -2.729969       -74.2862
 102   2.0000      -2.729957       -74.2859
 103   2.0000      -1.141520       -31.0623
 104   2.0000      -1.090967       -29.6867
 105   2.0000      -1.048516       -28.5316
 106   2.0000      -1.023593       -27.8534
 107   2.0000      -1.013233       -27.5715
 108   2.0000      -0.994150       -27.0522
 109   2.0000      -0.990086       -26.9416
 110   2.0000      -0.984716       -26.7955
 111   2.0000      -0.978568       -26.6282
 112   2.0000      -0.978037       -26.6137
 113   2.0000      -0.976102       -26.5611
 114   2.0000      -0.962812       -26.1995
 115   2.0000      -0.951624       -25.8950
 116   2.0000      -0.941690       -25.6247
 117   2.0000      -0.935859       -25.4660
 118   2.0000      -0.912285       -24.8245
 119   2.0000      -0.909418       -24.7465
 120   2.0000      -0.895540       -24.3689
 121   2.0000      -0.895076       -24.3563
 122   2.0000      -0.889633       -24.2081
 123   2.0000      -0.887171       -24.1411
 124   2.0000      -0.878517       -23.9057
 125   2.0000      -0.867437       -23.6042
 126   2.0000      -0.861914       -23.4539
 127   2.0000      -0.855283       -23.2734
 128   2.0000      -0.851019       -23.1574
 129   2.0000      -0.842937       -22.9375
 130   2.0000      -0.832877       -22.6637
 131   2.0000      -0.831329       -22.6216
 132   2.0000      -0.830395       -22.5962
 133   2.0000      -0.828835       -22.5537
 134   2.0000      -0.828000       -22.5310
 135   2.0000      -0.821819       -22.3628
 136   2.0000      -0.814215       -22.1559
 137   2.0000      -0.811200       -22.0739
 138   2.0000      -0.809354       -22.0236
 139   2.0000      -0.791371       -21.5343
 140   2.0000      -0.788559       -21.4578
 141   2.0000      -0.772081       -21.0094
 142   2.0000      -0.772036       -21.0082
 143   2.0000      -0.761840       -20.7307
 144   2.0000      -0.760707       -20.6999
 145   2.0000      -0.751883       -20.4598
 146   2.0000      -0.739338       -20.1184
 147   2.0000      -0.728482       -19.8230
 148   2.0000      -0.721670       -19.6376
 149   2.0000      -0.711838       -19.3701
 150   2.0000      -0.705380       -19.1944
 151   2.0000      -0.701624       -19.0922
 152   2.0000      -0.700262       -19.0551
 153   2.0000      -0.695557       -18.9271
 154   2.0000      -0.692412       -18.8415
 155   2.0000      -0.679084       -18.4788
 156   2.0000      -0.673898       -18.3377
 157   2.0000      -0.668192       -18.1824
 158   2.0000      -0.666051       -18.1242
 159   2.0000      -0.665421       -18.1070
 160   2.0000      -0.661351       -17.9963
 161   2.0000      -0.656025       -17.8513
 162   2.0000      -0.649684       -17.6788
 163   2.0000      -0.642939       -17.4953
 164   2.0000      -0.638325       -17.3697
 165   2.0000      -0.633444       -17.2369
 166   2.0000      -0.628346       -17.0982
 167   2.0000      -0.627630       -17.0787
 168   2.0000      -0.619548       -16.8588
 169   2.0000      -0.616184       -16.7672
 170   2.0000      -0.613817       -16.7028
 171   2.0000      -0.610401       -16.6099
 172   2.0000      -0.602032       -16.3821
 173   2.0000      -0.600752       -16.3473
 174   2.0000      -0.594852       -16.1868
 175   2.0000      -0.594438       -16.1755
 176   2.0000      -0.591589       -16.0980
 177   2.0000      -0.582431       -15.8487
 178   2.0000      -0.581165       -15.8143
 179   2.0000      -0.569959       -15.5094
 180   2.0000      -0.567572       -15.4444
 181   2.0000      -0.561861       -15.2890
 182   2.0000      -0.557600       -15.1731
 183   2.0000      -0.552226       -15.0268
 184   2.0000      -0.550170       -14.9709
 185   2.0000      -0.547109       -14.8876
 186   2.0000      -0.545931       -14.8555
 187   2.0000      -0.543773       -14.7968
 188   2.0000      -0.541883       -14.7454
 189   2.0000      -0.536331       -14.5943
 190   2.0000      -0.534494       -14.5443
 191   2.0000      -0.529224       -14.4009
 192   2.0000      -0.528589       -14.3836
 193   2.0000      -0.526909       -14.3379
 194   2.0000      -0.522038       -14.2054
 195   2.0000      -0.519834       -14.1454
 196   2.0000      -0.519177       -14.1275
 197   2.0000      -0.515681       -14.0324
 198   2.0000      -0.511333       -13.9141
 199   2.0000      -0.510138       -13.8816
 200   2.0000      -0.507303       -13.8044
 201   2.0000      -0.502889       -13.6843
 202   2.0000      -0.500283       -13.6134
 203   2.0000      -0.499139       -13.5823
 204   2.0000      -0.497704       -13.5432
 205   2.0000      -0.496322       -13.5056
 206   2.0000      -0.495867       -13.4932
 207   2.0000      -0.490339       -13.3428
 208   2.0000      -0.489030       -13.3072
 209   2.0000      -0.487313       -13.2605
 210   2.0000      -0.486095       -13.2273
 211   2.0000      -0.484418       -13.1817
 212   2.0000      -0.484014       -13.1707
 213   2.0000      -0.480946       -13.0872
 214   2.0000      -0.479426       -13.0458
 215   2.0000      -0.477384       -12.9903
 216   2.0000      -0.474373       -12.9083
 217   2.0000      -0.472093       -12.8463
 218   2.0000      -0.470533       -12.8038
 219   2.0000      -0.463566       -12.6143
 220   2.0000      -0.463021       -12.5994
 221   2.0000      -0.460365       -12.5272
 222   2.0000      -0.459062       -12.4917
 223   2.0000      -0.457099       -12.4383
 224   2.0000      -0.452078       -12.3017
 225   2.0000      -0.450787       -12.2665
 226   2.0000      -0.450495       -12.2586
 227   2.0000      -0.449369       -12.2279
 228   2.0000      -0.448454       -12.2030
 229   2.0000      -0.445105       -12.1119
 230   2.0000      -0.443302       -12.0629
 231   2.0000      -0.442689       -12.0462
 232   2.0000      -0.441605       -12.0167
 233   2.0000      -0.440402       -11.9839
 234   2.0000      -0.440282       -11.9807
 235   2.0000      -0.437054       -11.8929
 236   2.0000      -0.435345       -11.8463
 237   2.0000      -0.431907       -11.7528
 238   2.0000      -0.429321       -11.6824
 239   2.0000      -0.427790       -11.6408
 240   2.0000      -0.427051       -11.6207
 241   2.0000      -0.426453       -11.6044
 242   2.0000      -0.425479       -11.5779
 243   2.0000      -0.419621       -11.4185
 244   2.0000      -0.419213       -11.4074
 245   2.0000      -0.415007       -11.2929
 246   2.0000      -0.413256       -11.2453
 247   2.0000      -0.411362       -11.1937
 248   2.0000      -0.409387       -11.1400
 249   2.0000      -0.408701       -11.1213
 250   2.0000      -0.407608       -11.0916
 251   2.0000      -0.403624       -10.9832
 252   2.0000      -0.396703       -10.7948
 253   2.0000      -0.390642       -10.6299
 254   2.0000      -0.389455       -10.5976
 255   2.0000      -0.383673       -10.4403
 256   2.0000      -0.383075       -10.4240
 257   2.0000      -0.376017       -10.2319
 258   2.0000      -0.375628       -10.2214
 259   2.0000      -0.370757       -10.0888
 260   2.0000      -0.369512       -10.0549
 261   2.0000      -0.368332       -10.0228
 262   2.0000      -0.358880        -9.7656
 263   2.0000      -0.354807        -9.6548
 264   2.0000      -0.352853        -9.6016
 265   2.0000      -0.335767        -9.1367
 266   2.0000      -0.331288        -9.0148
 267   2.0000      -0.328360        -8.9351
 268   2.0000      -0.318914        -8.6781
 269   2.0000      -0.314100        -8.5471
 270   2.0000      -0.313181        -8.5221
 271   2.0000      -0.311978        -8.4894
 272   2.0000      -0.305233        -8.3058
 273   2.0000      -0.295787        -8.0488
 274   2.0000      -0.294248        -8.0069
 275   2.0000      -0.277895        -7.5619
 276   2.0000      -0.270169        -7.3517
 277   2.0000      -0.261552        -7.1172
 278   2.0000      -0.245004        -6.6669
 279   2.0000      -0.231222        -6.2919
 280   2.0000      -0.193076        -5.2539
 281   0.0000      -0.089903        -2.4464
 282   0.0000      -0.078648        -2.1401
 283   0.0000      -0.063927        -1.7395
 284   0.0000      -0.056803        -1.5457
 285   0.0000      -0.018376        -0.5000

MULLIKEN ATOMIC CHARGES
-----------------------
   0 C :    0.331208
   1 C :   -0.353775
   2 C :   -0.186015
   3 N :    0.147910
   4 C :   -0.195395
   5 N :    0.132604
   6 C :    0.007374
   7 C :   -0.006731
   8 C :   -0.069690
   9 C :    0.118124
  10 C :   -0.095217
  11 C :   -0.018236
  12 S :    0.188901
  13 C :   -0.122984
  14 C :    0.036237
  15 Br:    0.023759
  16 C :    0.171160
  17 O :   -0.242256
  18 C :   -0.144712
  19 C :    0.037574
  20 N :    0.003328
  21 C :    0.096908
  22 C :   -0.197386
  23 S :    0.136700
  24 C :   -0.204441
  25 C :    0.144218
  26 N :   -0.062623
  27 C :    0.062441
  28 C :   -0.050109
  29 C :    0.137538
  30 C :   -0.137349
  31 C :    0.042696
  32 C :    0.092259
  33 C :   -0.048172
  34 C :   -0.022911
  35 C :    0.097173
  36 C :    0.039824
  37 C :   -0.122415
  38 C :    0.054772
  39 C :    0.033603
  40 C :    0.056533
  41 C :    0.033833
  42 C :   -0.123275
  43 C :    0.132782
  44 C :   -0.013565
  45 C :   -0.049574
  46 C :   -0.012072
  47 C :    0.015617
  48 C :   -0.008977
  49 C :   -0.023390
  50 C :    0.038253
  51 C :    0.024238
  52 C :   -0.043520
  53 S :    0.054017
  54 C :   -0.033607
  55 C :    0.021837
  56 C :    0.031245
  57 C :   -0.016598
  58 S :    0.050758
  59 C :   -0.018910
  60 C :    0.063877
  61 C :   -0.037818
  62 C :    0.060717
  63 C :   -0.006445
  64 C :    0.060337
  65 C :   -0.034424
  66 C :    0.066939
  67 C :   -0.028209
  68 C :    0.051909
  69 C :   -0.004800
  70 C :    0.054227
  71 C :   -0.048516
  72 C :    0.012227
  73 C :   -0.028055
  74 H :   -0.013187
  75 H :   -0.006806
  76 H :   -0.003535
  77 H :    0.030438
  78 H :    0.146167
  79 H :    0.038586
  80 H :    0.028165
  81 H :    0.128334
  82 H :    0.001387
  83 H :   -0.023670
  84 H :   -0.042551
  85 H :   -0.042108
  86 H :   -0.042762
  87 H :    0.006321
  88 H :    0.001400
  89 H :    0.018357
  90 H :    0.010562
  91 H :    0.001055
  92 H :    0.006181
  93 H :   -0.001328
  94 H :    0.016811
  95 H :    0.010370
  96 H :    0.002398
  97 H :   -0.040210
  98 H :   -0.032571
  99 H :   -0.041312
 100 H :   -0.030953
 101 H :   -0.000236
 102 H :   -0.022162
 103 H :   -0.016984
 104 H :   -0.016475
 105 H :   -0.017704
 106 H :   -0.017617
 107 H :   -0.029747
 108 H :   -0.026868
 109 H :   -0.030048
 110 H :   -0.032314
 111 H :   -0.027989
 112 H :   -0.028753
 113 H :   -0.015690
 114 H :   -0.021432
 115 H :    0.006624
 116 H :    0.018370
Sum of atomic charges:   -0.0000000

LOEWDIN ATOMIC CHARGES
----------------------
   0 C :    0.082182
   1 C :   -0.158499
   2 C :   -0.020806
   3 N :   -0.060145
   4 C :   -0.016720
   5 N :   -0.066823
   6 C :   -0.018296
   7 C :   -0.050080
   8 C :    0.021527
   9 C :   -0.035017
  10 C :   -0.144979
  11 C :   -0.007659
  12 S :    0.434973
  13 C :   -0.272212
  14 C :   -0.070446
  15 Br:    0.136439
  16 C :    0.095632
  17 O :   -0.195340
  18 C :   -0.161740
  19 C :    0.127958
  20 N :    0.089848
  21 C :   -0.042518
  22 C :   -0.213396
  23 S :    0.458476
  24 C :   -0.223903
  25 C :   -0.019557
  26 N :    0.011922
  27 C :    0.032283
  28 C :   -0.093591
  29 C :   -0.013874
  30 C :   -0.032987
  31 C :    0.006195
  32 C :   -0.026936
  33 C :   -0.017920
  34 C :   -0.029335
  35 C :   -0.014863
  36 C :    0.001104
  37 C :   -0.031709
  38 C :   -0.014173
  39 C :   -0.059309
  40 C :   -0.014416
  41 C :   -0.059119
  42 C :   -0.022173
  43 C :   -0.029614
  44 C :   -0.013184
  45 C :   -0.022048
  46 C :   -0.014922
  47 C :   -0.035315
  48 C :   -0.053641
  49 C :   -0.147342
  50 C :   -0.035920
  51 C :   -0.034885
  52 C :   -0.178967
  53 S :    0.361485
  54 C :   -0.181769
  55 C :   -0.043466
  56 C :   -0.033062
  57 C :   -0.149696
  58 S :    0.382039
  59 C :   -0.054119
  60 C :   -0.063209
  61 C :    0.039345
  62 C :   -0.063080
  63 C :    0.063536
  64 C :   -0.055239
  65 C :    0.004772
  66 C :   -0.057001
  67 C :    0.036674
  68 C :   -0.057749
  69 C :    0.059933
  70 C :   -0.049952
  71 C :   -0.014766
  72 C :   -0.020032
  73 C :   -0.057870
  74 H :    0.040192
  75 H :    0.041655
  76 H :    0.038607
  77 H :    0.040851
  78 H :    0.069604
  79 H :    0.029287
  80 H :    0.025741
  81 H :    0.081485
  82 H :    0.025381
  83 H :    0.024458
  84 H :    0.019871
  85 H :    0.024602
  86 H :    0.019870
  87 H :    0.028472
  88 H :    0.018223
  89 H :    0.023917
  90 H :    0.027159
  91 H :    0.018994
  92 H :    0.028208
  93 H :    0.017604
  94 H :    0.023517
  95 H :    0.027025
  96 H :    0.019420
  97 H :    0.021121
  98 H :    0.025279
  99 H :    0.024992
 100 H :    0.024736
 101 H :    0.018535
 102 H :    0.030517
 103 H :    0.031813
 104 H :    0.030650
 105 H :    0.029811
 106 H :    0.031161
 107 H :    0.031079
 108 H :    0.023625
 109 H :    0.033017
 110 H :    0.022161
 111 H :    0.023298
 112 H :    0.033485
 113 H :    0.010638
 114 H :    0.028529
 115 H :    0.017198
 116 H :    0.023283

  Mayer bond orders larger than 0.100000
B(  0-C ,  1-C ) :   1.6081 B(  0-C ,  6-C ) :   0.9983 B(  0-C , 18-C ) :   1.1208
B(  1-C ,  2-C ) :   1.1456 B(  1-C ,  4-C ) :   1.1530 B(  2-C ,  3-N ) :   2.9677
B(  4-C ,  5-N ) :   2.9615 B(  6-C ,  7-C ) :   1.2734 B(  6-C , 11-C ) :   1.4292
B(  7-C ,  8-C ) :   1.4288 B(  7-C , 16-C ) :   0.9807 B(  8-C ,  9-C ) :   1.2384
B(  8-C , 74-H ) :   1.0172 B(  9-C , 10-C ) :   1.3138 B(  9-C , 14-C ) :   1.1625
B( 10-C , 11-C ) :   1.3164 B( 10-C , 12-S ) :   1.0892 B( 11-C , 75-H ) :   0.9799
B( 12-S , 13-C ) :   1.0878 B( 13-C , 14-C ) :   1.6186 B( 13-C , 15-Br) :   1.0184
B( 14-C , 76-H ) :   1.0001 B( 16-C , 17-O ) :   2.0130 B( 16-C , 18-C ) :   1.0260
B( 17-O , 78-H ) :   0.1434 B( 18-C , 19-C ) :   1.3777 B( 19-C , 20-N ) :   1.4191
B( 19-C , 77-H ) :   0.9418 B( 20-N , 21-C ) :   1.0935 B( 20-N , 78-H ) :   0.8361
B( 21-C , 22-C ) :   1.5181 B( 21-C , 25-C ) :   1.2464 B( 22-C , 23-S ) :   1.1736
B( 22-C , 79-H ) :   0.9737 B( 23-S , 24-C ) :   1.1467 B( 24-C , 25-C ) :   1.5225
B( 24-C , 80-H ) :   0.9724 B( 25-C , 26-N ) :   1.1218 B( 26-N , 27-C ) :   1.1300
B( 26-N , 81-H ) :   0.9149 B( 27-C , 28-C ) :   1.7141 B( 27-C , 82-H ) :   0.9554
B( 28-C , 29-C ) :   1.0849 B( 28-C , 83-H ) :   0.9703 B( 29-C , 30-C ) :   1.2979
B( 29-C , 34-C ) :   1.3483 B( 30-C , 31-C ) :   1.3802 B( 30-C , 84-H ) :   1.0006
B( 31-C , 32-C ) :   1.3935 B( 31-C , 37-C ) :   0.9292 B( 32-C , 33-C ) :   1.3258
B( 32-C , 35-C ) :   1.0058 B( 33-C , 34-C ) :   1.4023 B( 33-C , 85-H ) :   0.9880
B( 34-C , 86-H ) :   0.9811 B( 35-C , 36-C ) :   1.3895 B( 35-C , 45-C ) :   1.3188
B( 36-C , 37-C ) :   0.9274 B( 36-C , 42-C ) :   1.3860 B( 37-C , 38-C ) :   1.0074
B( 37-C , 40-C ) :   1.0095 B( 38-C , 39-C ) :   1.1122 B( 38-C , 87-H ) :   0.9380
B( 38-C , 88-H ) :   0.9397 B( 39-C , 89-H ) :   0.9608 B( 39-C , 90-H ) :   0.9601
B( 39-C , 91-H ) :   0.9618 B( 40-C , 41-C ) :   1.1131 B( 40-C , 92-H ) :   0.9378
B( 40-C , 93-H ) :   0.9393 B( 41-C , 94-H ) :   0.9605 B( 41-C , 95-H ) :   0.9603
B( 41-C , 96-H ) :   0.9617 B( 42-C , 43-C ) :   1.2786 B( 42-C , 97-H ) :   1.0014
B( 43-C , 44-C ) :   1.3345 B( 43-C , 46-C ) :   1.0729 B( 44-C , 45-C ) :   1.4060
B( 44-C , 98-H ) :   0.9849 B( 45-C , 99-H ) :   0.9895 B( 46-C , 47-C ) :   1.6447
B( 46-C ,100-H ) :   0.9884 B( 47-C , 48-C ) :   1.1534 B( 47-C ,101-H ) :   0.9613
B( 48-C , 49-C ) :   1.5596 B( 48-C ,102-H ) :   0.9852 B( 49-C , 50-C ) :   1.1459
B( 49-C , 53-S ) :   1.0279 B( 50-C , 51-C ) :   1.5835 B( 50-C ,103-H ) :   0.9980
B( 51-C , 52-C ) :   1.1958 B( 51-C ,104-H ) :   0.9935 B( 52-C , 53-S ) :   1.0445
B( 52-C , 54-C ) :   1.5001 B( 54-C , 55-C ) :   1.1897 B( 54-C , 58-S ) :   1.0402
B( 55-C , 56-C ) :   1.5843 B( 55-C ,105-H ) :   0.9938 B( 56-C , 57-C ) :   1.1461
B( 56-C ,106-H ) :   0.9986 B( 57-C , 58-S ) :   1.0328 B( 57-C , 59-C ) :   1.5694
B( 59-C , 60-C ) :   1.1380 B( 59-C ,107-H ) :   0.9690 B( 60-C , 61-C ) :   1.1104
B( 60-C , 71-C ) :   1.4564 B( 61-C , 62-C ) :   1.4544 B( 61-C ,108-H ) :   1.0152
B( 62-C , 63-C ) :   1.1109 B( 62-C , 70-C ) :   1.1244 B( 63-C , 64-C ) :   1.4856
B( 63-C ,109-H ) :   1.0033 B( 64-C , 65-C ) :   1.0770 B( 64-C , 68-C ) :   1.1228
B( 65-C , 66-C ) :   1.5199 B( 65-C ,110-H ) :   1.0170 B( 66-C , 67-C ) :   1.1329
B( 66-C , 72-C ) :   1.0870 B( 67-C , 68-C ) :   1.4537 B( 67-C ,111-H ) :   1.0074
B( 68-C , 69-C ) :   1.1247 B( 69-C , 70-C ) :   1.4557 B( 69-C ,112-H ) :   1.0021
B( 70-C , 71-C ) :   1.1247 B( 71-C ,113-H ) :   0.9950 B( 72-C , 73-C ) :   1.9308
B( 72-C ,114-H ) :   0.9663 B( 73-C ,115-H ) :   0.9521 B( 73-C ,116-H ) :   0.9499

-----------------------------------------------------------------------------
         ABSORPTION SPECTRUM VIA TRANSITION ELECTRIC DIPOLE MOMENTS
-----------------------------------------------------------------------------
State   Energy  Wavelength   fosc         T2         TX        TY        TZ
        (cm-1)    (nm)                  (au**2)     (au)      (au)      (au)
-----------------------------------------------------------------------------
   0    6944.7   1439.9   0.057385477   2.72033   0.11182   1.60312  -0.37128
   1   14100.0    709.2   0.966295554  22.56134  -2.21154  -3.98039   1.35163
   2   15134.8    660.7   0.285161936   6.20284  -1.42044  -1.90720   0.74011
   3   19097.2    523.6   0.023639653   0.40752   0.43669  -0.40174  -0.23543
   4   22019.6    454.1   0.360441337   5.38891  -1.80702   1.25619   0.73863
   5   22198.1    450.5   0.092666343   1.37430   1.15395  -0.20069   0.04932
   6   22591.4    442.6   0.055629313   0.81065   0.18196  -0.87548   0.10528
   7   22850.8    437.6   0.004256005   0.06132   0.15169   0.14821  -0.12783
   8   24099.3    415.0   0.028446101   0.38859   0.38656  -0.48903   0.00264
   9   25108.4    398.3   0.527712200   6.91917   2.39875  -0.97446  -0.46434
  10   25173.0    397.3   1.920264536  25.11313   4.25648  -2.60288  -0.46957
  11   25806.8    387.5   0.062937666   0.80288  -0.03425   0.55316   0.70407
  12   27370.2    365.4   0.416366284   5.00811  -2.15254   0.49486   0.36026
  13   27999.8    357.1   0.008689138   0.10216   0.24141  -0.20697  -0.03239
  14   28920.2    345.8   0.164237631   1.86959  -0.89684   0.85852   0.57289
  15   29090.0    343.8   0.033614819   0.38042   0.09747  -0.43278  -0.42851
  16   29734.6    336.3   0.004528739   0.05014  -0.13257  -0.17547   0.04214
  17   30024.5    333.1   0.227937907   2.49929  -0.60089  -1.44182  -0.24368
  18   30237.8    330.7   0.660507803   7.19124   0.33727  -2.64524  -0.28315
  19   31543.6    317.0   0.010145171   0.10588  -0.20923   0.23344   0.08723
  20   32098.5    311.5   0.027524938   0.28230   0.51280  -0.10839  -0.08715
  21   32578.1    307.0   0.399452539   4.03659  -0.22513  -1.99365  -0.10618
  22   33093.5    302.2   0.000436100   0.00434  -0.05749  -0.03177   0.00494
  23   33227.5    301.0   0.226875023   2.24784  -1.44998   0.30583   0.22774
  24   33456.0    298.9   0.020315189   0.19990  -0.31041  -0.31091   0.08300
  25   33647.2    297.2   0.255147213   2.49642  -1.33220  -0.79802   0.29129
  26   33897.7    295.0   0.023923086   0.23234  -0.31064  -0.36518   0.04988
  27   34070.8    293.5   0.005858669   0.05661  -0.12619  -0.20106  -0.01609
  28   34320.1    291.4   0.003815299   0.03660  -0.17688  -0.06763   0.02714
  29   34638.5    288.7   0.009563648   0.09089   0.15664  -0.25540  -0.03358
  30   34921.8    286.4   0.000725674   0.00684  -0.00462  -0.08247  -0.00431
  31   35063.3    285.2   0.004148600   0.03895   0.04356  -0.19157   0.01882
  32   35147.1    284.5   0.324743266   3.04177  -1.44458  -0.66167   0.71912
  33   35214.4    284.0   0.008953785   0.08371  -0.09457  -0.27175  -0.03026
  34   35848.9    278.9   0.097506658   0.89543   0.87808   0.23094  -0.26660
  35   36269.8    275.7   0.187785755   1.70449  -1.28165   0.17963   0.17201
  36   36503.3    273.9   0.302113312   2.72466   1.59438  -0.37741  -0.20045
  37   36856.2    271.3   0.014537753   0.12986   0.04299   0.31442  -0.17073
  38   37092.4    269.6   0.002440997   0.02166   0.12154   0.08294  -0.00381
  39   37199.6    268.8   0.008255460   0.07306   0.20036   0.05435  -0.17310
  40   37517.8    266.5   0.029397767   0.25796  -0.06081   0.50243  -0.04269
  41   37810.4    264.5   0.026622540   0.23180  -0.29624  -0.37415   0.06369
  42   38056.0    262.8   0.022260296   0.19257   0.12116   0.39754  -0.14090
  43   38247.9    261.5   0.014988162   0.12901  -0.19520  -0.29312   0.07060
  44   38605.3    259.0   0.125181713   1.06750   0.82391  -0.51103  -0.35710
  45   38868.9    257.3   0.054316887   0.46005  -0.54579   0.39840   0.05872
  46   39189.7    255.2   0.107611409   0.90399  -0.05539  -0.93157  -0.18194
  47   39229.9    254.9   0.035322841   0.29642  -0.08745  -0.53363  -0.06341
  48   39420.2    253.7   0.025701927   0.21465   0.01575   0.44452  -0.12960
  49   39591.3    252.6   0.012590976   0.10470  -0.29019   0.13460   0.04869
  50   39703.4    251.9   0.050900633   0.42206  -0.53695   0.35966   0.06621
  51   39869.3    250.8   0.129421317   1.06867  -0.99491   0.11858   0.25448
  52   40189.8    248.8   0.034418442   0.28194  -0.40487   0.34279   0.02267

FINAL SINGLE POINT ENERGY     -6921.500391663274

DIPOLE MOMENT
-------------
                                X             Y             Z
Electronic contribution:   -189.07778     136.49143      85.57797
Nuclear contribution   :    190.95175    -135.95077     -86.47698
                        -----------------------------------------
Total Dipole Moment    :      1.87397       0.54066      -0.89901
                        -----------------------------------------
Magnitude (a.u.)       :      2.14762
Magnitude (Debye)      :      5.45883

Rotational constants in cm-1:     0.000642     0.000184     0.000146
Rotational constants in MHz :    19.253781     5.505884     4.365243

                             ****ORCA TERMINATED NORMALLY****
TOTAL RUN TIME: 0 days 0 hours 18 minutes 22 seconds 754 msec
