                         Program Version 4.2.0 -  RELEASE  -
|  1> # ORCA input file
|  2> # SCF done       -183.937827632104          0.000809441189
|  3> ! CAM-B3LYP def2-SVP def2/J RIJCOSX Grid4 TightSCF
|  4> %maxcore 5000
|  5> %tddft
|  6>     Mode sTDDFT
|  7>     Ethresh 5.0
|  8>     maxcore 5000
|  9> end
| 10>
| 11> %pal
| 12>   nprocs 6
| 13>   end
| 14> * xyz 0 1
| 15>    C       -6.13535        -6.71800         0.94190
| 16>    C       -6.55109        -7.10678        -0.32069
| 17>    C       -5.74842        -6.84453        -1.49295
| 18>    N       -6.15002        -7.26951        -2.69096
| 19>    C       -7.28611        -7.92073        -2.80225
| 20>    C       -8.09550        -8.16383        -1.64047
| 21>    N       -7.72573        -7.76778        -0.45330
| 22>    C       -9.32725        -8.85379        -1.78855
| 23>    N      -10.31245        -9.41510        -1.94889
| 24>    C       -7.70362        -8.37560        -4.07316
| 25>    N       -8.07254        -8.75764        -5.08929
| 26>    C       -4.52041        -6.13026        -1.42704
| 27>    C       -4.09229        -5.78602        -0.12294
| 28>    C       -4.89752        -6.08965         1.04413
| 29>    N       -4.27877        -5.74133         2.17684
| 30>    S       -2.83618        -5.13698         1.82076
| 31>    N       -2.91727        -5.25262         0.21674
| 32>    C       -3.73581        -5.96072        -2.59569
| 33>    S       -3.88564        -7.15789        -3.86795
| 34>    C       -2.42411        -6.61251        -4.58995
| 35>    C       -1.90388        -5.52011        -3.98601
| 36>    C       -2.67685        -5.07871        -2.87137
| 37>    N       -2.45357        -3.86644        -2.31030
| 38>    C       -3.46119        -3.10841        -1.60699
| 39>    C       -3.62537        -1.69607        -2.16315
| 40>    C       -1.12497        -3.35851        -2.34486
| 41>    C       -0.75778        -2.37386        -3.21019
| 42>    C        0.58620        -1.91906        -3.21331
| 43>    C        1.22531        -0.95962        -3.97516
| 44>    C        0.69032        -0.05273        -5.03328
| 45>    C        0.63026        -0.75472        -6.40721
| 46>    N       -0.24120        -1.91460        -6.35512
| 47>    C       -0.68750         0.54670        -4.70770
| 48>    N       -0.85296         1.78272        -5.45575
| 49>    C        2.61832        -0.98357        -3.58266
| 50>    C        3.67509        -0.29362        -4.04255
| 51>    C        5.05155        -0.51585        -3.50798
| 52>    C        5.12895        -1.50721        -2.39342
| 53>    C        4.06036        -2.19390        -1.94741
| 54>    C        2.78340        -1.98506        -2.52065
| 55>    C        1.54142        -2.54708        -2.30336
| 56>    C        1.10828        -3.56668        -1.42313
| 57>    C       -0.19081        -3.95917        -1.44483
| 58>    C        5.64063         0.82114        -3.12336
| 59>    C        6.06119         1.71086        -4.02182
| 60>    C        6.60290         3.00510        -3.71888
| 61>    S        7.23552         3.39848        -2.15158
| 62>    C        7.71252         4.96050        -2.68355
| 63>    C        7.39824         5.18083        -3.98187
| 64>    C        6.75934         4.06610        -4.58549
| 65>    N        6.26494         4.10960        -5.90016
| 66>    C        4.82939         3.95897        -6.07271
| 67>    C        4.45445         2.88326        -7.08671
| 68>    C        7.11204         4.49486        -6.88977
| 69>    C        6.72605         5.14921        -8.09100
| 70>    C        7.71677         5.55175        -9.07452
| 71>    N        7.31702         6.18851       -10.20183
| 72>    C        6.05692         6.47460       -10.36173
| 73>    C        5.07793         6.09054        -9.38189
| 74>    N        5.43505         5.42687        -8.30687
| 75>    C        3.70917         6.38806        -9.57079
| 76>    N        2.60358         6.64274        -9.73623
| 77>    C        5.63482         7.14725       -11.53833
| 78>    N        5.25224         7.69419       -12.46881
| 79>    C        9.06861         5.31548        -8.90620
| 80>    C        9.46352         4.65907        -7.74518
| 81>    C        8.50218         4.25536        -6.74492
| 82>    N        9.08734         3.61829        -5.72655
| 83>    S       10.66696         3.54281        -5.99504
| 84>    N       10.70778         4.30604        -7.40322
| 85>    H       -6.73193        -6.93478         1.81038
| 86>    H       -2.05621        -7.10748        -5.46719
| 87>    H       -1.02387        -5.00228        -4.32096
| 88>    H       -3.20187        -3.04817        -0.54365
| 89>    H       -4.40811        -3.64200        -1.70173
| 90>    H       -2.72192        -1.11021        -2.01823
| 91>    H       -4.44279        -1.20482        -1.64158
| 92>    H       -3.86206        -1.72877        -3.22374
| 93>    H       -1.45422        -1.97693        -3.92812
| 94>    H        1.38716         0.78626        -5.14097
| 95>    H        1.65939        -0.99879        -6.72342
| 96>    H        0.20647        -0.04305        -7.11886
| 97>    H        0.19076        -2.65170        -5.80766
| 98>    H       -0.40891        -2.27313        -7.28783
| 99>    H       -0.78070         0.67972        -3.61665
|100>    H       -1.46041        -0.14389        -5.04549
|101>    H       -0.25724         2.51251        -5.07816
|102>    H       -1.81125         2.10766        -5.40181
|103>    H        3.57955         0.44982        -4.82260
|104>    H        5.65148        -0.90390        -4.34816
|105>    H        6.10827        -1.65486        -1.96406
|106>    H        4.16419        -2.91278        -1.14771
|107>    H        1.81688        -4.02472        -0.74915
|108>    H       -0.56244        -4.73259        -0.78992
|109>    H        5.66143         1.05184        -2.06829
|110>    H        6.01972         1.47505        -5.07734
|111>    H        8.18516         5.62928        -1.99268
|112>    H        7.59617         6.09917        -4.50520
|113>    H        4.40061         4.91238        -6.39686
|114>    H        4.42024         3.70361        -5.09303
|115>    H        4.91863         1.93025        -6.84486
|116>    H        4.76167         3.17084        -8.08712
|117>    H        3.37513         2.75702        -7.08844
|118>    H        9.77822         5.63512        -9.64823
|119> *
|120>
|121>                          ****END OF INPUT****

CARTESIAN COORDINATES (ANGSTROEM)
---------------------------------
  C     -6.135350   -6.718000    0.941900
  C     -6.551090   -7.106780   -0.320690
  C     -5.748420   -6.844530   -1.492950
  N     -6.150020   -7.269510   -2.690960
  C     -7.286110   -7.920730   -2.802250
  C     -8.095500   -8.163830   -1.640470
  N     -7.725730   -7.767780   -0.453300
  C     -9.327250   -8.853790   -1.788550
  N    -10.312450   -9.415100   -1.948890
  C     -7.703620   -8.375600   -4.073160
  N     -8.072540   -8.757640   -5.089290
  C     -4.520410   -6.130260   -1.427040
  C     -4.092290   -5.786020   -0.122940
  C     -4.897520   -6.089650    1.044130
  N     -4.278770   -5.741330    2.176840
  S     -2.836180   -5.136980    1.820760
  N     -2.917270   -5.252620    0.216740
  C     -3.735810   -5.960720   -2.595690
  S     -3.885640   -7.157890   -3.867950
  C     -2.424110   -6.612510   -4.589950
  C     -1.903880   -5.520110   -3.986010
  C     -2.676850   -5.078710   -2.871370
  N     -2.453570   -3.866440   -2.310300
  C     -3.461190   -3.108410   -1.606990
  C     -3.625370   -1.696070   -2.163150
  C     -1.124970   -3.358510   -2.344860
  C     -0.757780   -2.373860   -3.210190
  C      0.586200   -1.919060   -3.213310
  C      1.225310   -0.959620   -3.975160
  C      0.690320   -0.052730   -5.033280
  C      0.630260   -0.754720   -6.407210
  N     -0.241200   -1.914600   -6.355120
  C     -0.687500    0.546700   -4.707700
  N     -0.852960    1.782720   -5.455750
  C      2.618320   -0.983570   -3.582660
  C      3.675090   -0.293620   -4.042550
  C      5.051550   -0.515850   -3.507980
  C      5.128950   -1.507210   -2.393420
  C      4.060360   -2.193900   -1.947410
  C      2.783400   -1.985060   -2.520650
  C      1.541420   -2.547080   -2.303360
  C      1.108280   -3.566680   -1.423130
  C     -0.190810   -3.959170   -1.444830
  C      5.640630    0.821140   -3.123360
  C      6.061190    1.710860   -4.021820
  C      6.602900    3.005100   -3.718880
  S      7.235520    3.398480   -2.151580
  C      7.712520    4.960500   -2.683550
  C      7.398240    5.180830   -3.981870
  C      6.759340    4.066100   -4.585490
  N      6.264940    4.109600   -5.900160
  C      4.829390    3.958970   -6.072710
  C      4.454450    2.883260   -7.086710
  C      7.112040    4.494860   -6.889770
  C      6.726050    5.149210   -8.091000
  C      7.716770    5.551750   -9.074520
  N      7.317020    6.188510  -10.201830
  C      6.056920    6.474600  -10.361730
  C      5.077930    6.090540   -9.381890
  N      5.435050    5.426870   -8.306870
  C      3.709170    6.388060   -9.570790
  N      2.603580    6.642740   -9.736230
  C      5.634820    7.147250  -11.538330
  N      5.252240    7.694190  -12.468810
  C      9.068610    5.315480   -8.906200
  C      9.463520    4.659070   -7.745180
  C      8.502180    4.255360   -6.744920
  N      9.087340    3.618290   -5.726550
  S     10.666960    3.542810   -5.995040
  N     10.707780    4.306040   -7.403220
  H     -6.731930   -6.934780    1.810380
  H     -2.056210   -7.107480   -5.467190
  H     -1.023870   -5.002280   -4.320960
  H     -3.201870   -3.048170   -0.543650
  H     -4.408110   -3.642000   -1.701730
  H     -2.721920   -1.110210   -2.018230
  H     -4.442790   -1.204820   -1.641580
  H     -3.862060   -1.728770   -3.223740
  H     -1.454220   -1.976930   -3.928120
  H      1.387160    0.786260   -5.140970
  H      1.659390   -0.998790   -6.723420
  H      0.206470   -0.043050   -7.118860
  H      0.190760   -2.651700   -5.807660
  H     -0.408910   -2.273130   -7.287830
  H     -0.780700    0.679720   -3.616650
  H     -1.460410   -0.143890   -5.045490
  H     -0.257240    2.512510   -5.078160
  H     -1.811250    2.107660   -5.401810
  H      3.579550    0.449820   -4.822600
  H      5.651480   -0.903900   -4.348160
  H      6.108270   -1.654860   -1.964060
  H      4.164190   -2.912780   -1.147710
  H      1.816880   -4.024720   -0.749150
  H     -0.562440   -4.732590   -0.789920
  H      5.661430    1.051840   -2.068290
  H      6.019720    1.475050   -5.077340
  H      8.185160    5.629280   -1.992680
  H      7.596170    6.099170   -4.505200
  H      4.400610    4.912380   -6.396860
  H      4.420240    3.703610   -5.093030
  H      4.918630    1.930250   -6.844860
  H      4.761670    3.170840   -8.087120
  H      3.375130    2.757020   -7.088440
  H      9.778220    5.635120   -9.648230

 Total Charge           Charge          ....    0
 Multiplicity           Mult            ....    1
 Number of Electrons    NEL             ....  510
 Basis Dimension        Dim             .... 1166

ORBITAL ENERGIES
----------------

  NO   OCC          E(Eh)            E(eV)
   0   2.0000     -89.045150     -2423.0417
   1   2.0000     -89.036490     -2422.8061
   2   2.0000     -88.967847     -2420.9382
   3   2.0000     -88.944947     -2420.3151
   4   2.0000     -14.480267      -394.0281
   5   2.0000     -14.466485      -393.6531
   6   2.0000     -14.458381      -393.4325
   7   2.0000     -14.456116      -393.3709
   8   2.0000     -14.453221      -393.2921
   9   2.0000     -14.450300      -393.2126
  10   2.0000     -14.448357      -393.1598
  11   2.0000     -14.445821      -393.0908
  12   2.0000     -14.440790      -392.9539
  13   2.0000     -14.440683      -392.9509
  14   2.0000     -14.429159      -392.6374
  15   2.0000     -14.426566      -392.5668
  16   2.0000     -14.419458      -392.3734
  17   2.0000     -14.415962      -392.2783
  18   2.0000     -14.383477      -391.3943
  19   2.0000     -14.381450      -391.3392
  20   2.0000     -10.381213      -282.4872
  21   2.0000     -10.374255      -282.2978
  22   2.0000     -10.370725      -282.2018
  23   2.0000     -10.368425      -282.1392
  24   2.0000     -10.364441      -282.0308
  25   2.0000     -10.348220      -281.5894
  26   2.0000     -10.345466      -281.5144
  27   2.0000     -10.344824      -281.4970
  28   2.0000     -10.341884      -281.4170
  29   2.0000     -10.335382      -281.2401
  30   2.0000     -10.333992      -281.2022
  31   2.0000     -10.332769      -281.1689
  32   2.0000     -10.332113      -281.1511
  33   2.0000     -10.329948      -281.0922
  34   2.0000     -10.325999      -280.9847
  35   2.0000     -10.322033      -280.8768
  36   2.0000     -10.321990      -280.8756
  37   2.0000     -10.321236      -280.8551
  38   2.0000     -10.318489      -280.7804
  39   2.0000     -10.312635      -280.6211
  40   2.0000     -10.311541      -280.5913
  41   2.0000     -10.310678      -280.5678
  42   2.0000     -10.310017      -280.5498
  43   2.0000     -10.308466      -280.5076
  44   2.0000     -10.307728      -280.4875
  45   2.0000     -10.305068      -280.4152
  46   2.0000     -10.304931      -280.4114
  47   2.0000     -10.297358      -280.2054
  48   2.0000     -10.296316      -280.1770
  49   2.0000     -10.295797      -280.1629
  50   2.0000     -10.295339      -280.1504
  51   2.0000     -10.289138      -279.9817
  52   2.0000     -10.287476      -279.9365
  53   2.0000     -10.282220      -279.7934
  54   2.0000     -10.281156      -279.7645
  55   2.0000     -10.280491      -279.7464
  56   2.0000     -10.279862      -279.7293
  57   2.0000     -10.279190      -279.7110
  58   2.0000     -10.277833      -279.6740
  59   2.0000     -10.275851      -279.6201
  60   2.0000     -10.275125      -279.6004
  61   2.0000     -10.272403      -279.5263
  62   2.0000     -10.271809      -279.5101
  63   2.0000     -10.269845      -279.4567
  64   2.0000     -10.269777      -279.4548
  65   2.0000     -10.269046      -279.4350
  66   2.0000     -10.269019      -279.4342
  67   2.0000     -10.268359      -279.4162
  68   2.0000     -10.266499      -279.3656
  69   2.0000     -10.261702      -279.2351
  70   2.0000      -8.136541      -221.4065
  71   2.0000      -8.127834      -221.1696
  72   2.0000      -8.063624      -219.4224
  73   2.0000      -8.039451      -218.7646
  74   2.0000      -6.107536      -166.1945
  75   2.0000      -6.099791      -165.9838
  76   2.0000      -6.099430      -165.9739
  77   2.0000      -6.098857      -165.9583
  78   2.0000      -6.091167      -165.7491
  79   2.0000      -6.090657      -165.7352
  80   2.0000      -6.032939      -164.1646
  81   2.0000      -6.028706      -164.0494
  82   2.0000      -6.025820      -163.9709
  83   2.0000      -6.009231      -163.5195
  84   2.0000      -6.004584      -163.3930
  85   2.0000      -6.001071      -163.2974
  86   2.0000      -1.143507       -31.1164
  87   2.0000      -1.132267       -30.8106
  88   2.0000      -1.119982       -30.4762
  89   2.0000      -1.107754       -30.1435
  90   2.0000      -1.092984       -29.7416
  91   2.0000      -1.064056       -28.9544
  92   2.0000      -1.043439       -28.3934
  93   2.0000      -1.035325       -28.1726
  94   2.0000      -1.011655       -27.5285
  95   2.0000      -1.002273       -27.2732
  96   2.0000      -1.001998       -27.2657
  97   2.0000      -0.993671       -27.0392
  98   2.0000      -0.992929       -27.0190
  99   2.0000      -0.991736       -26.9865
 100   2.0000      -0.989925       -26.9372
 101   2.0000      -0.986098       -26.8331
 102   2.0000      -0.974710       -26.5232
 103   2.0000      -0.970095       -26.3976
 104   2.0000      -0.965733       -26.2789
 105   2.0000      -0.956638       -26.0314
 106   2.0000      -0.952361       -25.9151
 107   2.0000      -0.947733       -25.7891
 108   2.0000      -0.913692       -24.8628
 109   2.0000      -0.907368       -24.6907
 110   2.0000      -0.895393       -24.3649
 111   2.0000      -0.892299       -24.2807
 112   2.0000      -0.880778       -23.9672
 113   2.0000      -0.880204       -23.9516
 114   2.0000      -0.870069       -23.6758
 115   2.0000      -0.868220       -23.6255
 116   2.0000      -0.858797       -23.3691
 117   2.0000      -0.844044       -22.9676
 118   2.0000      -0.835714       -22.7409
 119   2.0000      -0.834607       -22.7108
 120   2.0000      -0.832738       -22.6599
 121   2.0000      -0.824694       -22.4411
 122   2.0000      -0.819542       -22.3009
 123   2.0000      -0.811227       -22.0746
 124   2.0000      -0.805104       -21.9080
 125   2.0000      -0.793558       -21.5938
 126   2.0000      -0.785680       -21.3794
 127   2.0000      -0.776131       -21.1196
 128   2.0000      -0.762906       -20.7597
 129   2.0000      -0.752757       -20.4836
 130   2.0000      -0.742573       -20.2064
 131   2.0000      -0.732191       -19.9239
 132   2.0000      -0.732043       -19.9199
 133   2.0000      -0.725635       -19.7455
 134   2.0000      -0.719411       -19.5762
 135   2.0000      -0.716794       -19.5050
 136   2.0000      -0.704676       -19.1752
 137   2.0000      -0.699411       -19.0319
 138   2.0000      -0.697913       -18.9912
 139   2.0000      -0.690035       -18.7768
 140   2.0000      -0.682467       -18.5709
 141   2.0000      -0.681982       -18.5577
 142   2.0000      -0.676154       -18.3991
 143   2.0000      -0.674076       -18.3425
 144   2.0000      -0.667418       -18.1614
 145   2.0000      -0.657668       -17.8960
 146   2.0000      -0.650805       -17.7093
 147   2.0000      -0.648195       -17.6383
 148   2.0000      -0.642774       -17.4908
 149   2.0000      -0.640796       -17.4369
 150   2.0000      -0.639754       -17.4086
 151   2.0000      -0.627619       -17.0784
 152   2.0000      -0.624366       -16.9899
 153   2.0000      -0.618546       -16.8315
 154   2.0000      -0.611491       -16.6395
 155   2.0000      -0.604252       -16.4425
 156   2.0000      -0.600464       -16.3395
 157   2.0000      -0.597475       -16.2581
 158   2.0000      -0.593734       -16.1563
 159   2.0000      -0.591882       -16.1059
 160   2.0000      -0.582086       -15.8394
 161   2.0000      -0.579281       -15.7630
 162   2.0000      -0.575483       -15.6597
 163   2.0000      -0.573769       -15.6130
 164   2.0000      -0.565719       -15.3940
 165   2.0000      -0.561839       -15.2884
 166   2.0000      -0.559415       -15.2224
 167   2.0000      -0.556637       -15.1469
 168   2.0000      -0.552495       -15.0342
 169   2.0000      -0.550809       -14.9883
 170   2.0000      -0.547848       -14.9077
 171   2.0000      -0.543961       -14.8019
 172   2.0000      -0.538025       -14.6404
 173   2.0000      -0.534995       -14.5580
 174   2.0000      -0.532215       -14.4823
 175   2.0000      -0.530027       -14.4228
 176   2.0000      -0.527739       -14.3605
 177   2.0000      -0.527606       -14.3569
 178   2.0000      -0.526041       -14.3143
 179   2.0000      -0.522657       -14.2222
 180   2.0000      -0.520198       -14.1553
 181   2.0000      -0.518364       -14.1054
 182   2.0000      -0.515534       -14.0284
 183   2.0000      -0.510643       -13.8953
 184   2.0000      -0.506003       -13.7691
 185   2.0000      -0.500926       -13.6309
 186   2.0000      -0.495990       -13.4966
 187   2.0000      -0.494007       -13.4426
 188   2.0000      -0.491492       -13.3742
 189   2.0000      -0.487468       -13.2647
 190   2.0000      -0.485027       -13.1983
 191   2.0000      -0.482392       -13.1266
 192   2.0000      -0.481317       -13.0973
 193   2.0000      -0.479670       -13.0525
 194   2.0000      -0.476561       -12.9679
 195   2.0000      -0.476110       -12.9556
 196   2.0000      -0.475903       -12.9500
 197   2.0000      -0.471895       -12.8409
 198   2.0000      -0.467634       -12.7250
 199   2.0000      -0.463821       -12.6212
 200   2.0000      -0.461860       -12.5679
 201   2.0000      -0.459960       -12.5162
 202   2.0000      -0.458773       -12.4839
 203   2.0000      -0.456878       -12.4323
 204   2.0000      -0.454714       -12.3734
 205   2.0000      -0.452399       -12.3104
 206   2.0000      -0.450645       -12.2627
 207   2.0000      -0.449157       -12.2222
 208   2.0000      -0.447222       -12.1695
 209   2.0000      -0.447052       -12.1649
 210   2.0000      -0.444816       -12.1041
 211   2.0000      -0.442469       -12.0402
 212   2.0000      -0.441877       -12.0241
 213   2.0000      -0.441109       -12.0032
 214   2.0000      -0.438392       -11.9292
 215   2.0000      -0.434267       -11.8170
 216   2.0000      -0.432894       -11.7796
 217   2.0000      -0.431564       -11.7435
 218   2.0000      -0.430570       -11.7164
 219   2.0000      -0.429085       -11.6760
 220   2.0000      -0.422192       -11.4884
 221   2.0000      -0.420890       -11.4530
 222   2.0000      -0.418538       -11.3890
 223   2.0000      -0.418138       -11.3781
 224   2.0000      -0.414612       -11.2822
 225   2.0000      -0.412486       -11.2243
 226   2.0000      -0.410824       -11.1791
 227   2.0000      -0.408213       -11.1080
 228   2.0000      -0.407976       -11.1016
 229   2.0000      -0.403458       -10.9787
 230   2.0000      -0.400575       -10.9002
 231   2.0000      -0.398737       -10.8502
 232   2.0000      -0.392799       -10.6886
 233   2.0000      -0.389530       -10.5996
 234   2.0000      -0.386714       -10.5230
 235   2.0000      -0.385487       -10.4896
 236   2.0000      -0.376856       -10.2548
 237   2.0000      -0.376270       -10.2388
 238   2.0000      -0.372416       -10.1339
 239   2.0000      -0.362255        -9.8575
 240   2.0000      -0.357296        -9.7225
 241   2.0000      -0.348723        -9.4892
 242   2.0000      -0.343271        -9.3409
 243   2.0000      -0.338192        -9.2027
 244   2.0000      -0.337233        -9.1766
 245   2.0000      -0.332608        -9.0507
 246   2.0000      -0.324289        -8.8243
 247   2.0000      -0.316272        -8.6062
 248   2.0000      -0.307701        -8.3730
 249   2.0000      -0.303871        -8.2687
 250   2.0000      -0.297788        -8.1032
 251   2.0000      -0.284124        -7.7314
 252   2.0000      -0.267151        -7.2695
 253   2.0000      -0.244121        -6.6429
 254   2.0000      -0.231376        -6.2961
 255   0.0000      -0.108225        -2.9450
 256   0.0000      -0.106149        -2.8885
 257   0.0000      -0.073382        -1.9968
 258   0.0000      -0.047582        -1.2948
 259   0.0000      -0.038235        -1.0404

MULLIKEN ATOMIC CHARGES
-----------------------
   0 C :   -0.125810
   1 C :    0.051371
   2 C :   -0.099270
   3 N :    0.023114
   4 C :   -0.128928
   5 C :   -0.151427
   6 N :    0.047433
   7 C :   -0.204259
   8 N :    0.227969
   9 C :   -0.216751
  10 N :    0.230347
  11 C :    0.185474
  12 C :   -0.071939
  13 C :    0.123766
  14 N :   -0.273761
  15 S :    0.519134
  16 N :   -0.289251
  17 C :   -0.304650
  18 S :    0.143642
  19 C :   -0.012860
  20 C :   -0.000846
  21 C :    0.212707
  22 N :   -0.204768
  23 C :    0.127657
  24 C :    0.009022
  25 C :    0.022786
  26 C :   -0.025774
  27 C :   -0.000148
  28 C :   -0.043023
  29 C :   -0.031382
  30 C :    0.155656
  31 N :   -0.238870
  32 C :    0.114083
  33 N :   -0.218537
  34 C :    0.093381
  35 C :   -0.119842
  36 C :    0.145083
  37 C :   -0.054910
  38 C :    0.020108
  39 C :    0.010856
  40 C :    0.044444
  41 C :   -0.009642
  42 C :    0.045119
  43 C :   -0.081236
  44 C :    0.012593
  45 C :   -0.125578
  46 S :    0.119777
  47 C :   -0.062173
  48 C :    0.054871
  49 C :    0.128374
  50 N :   -0.199826
  51 C :    0.131117
  52 C :    0.003193
  53 C :    0.217603
  54 C :   -0.134427
  55 C :    0.075445
  56 N :    0.054886
  57 C :   -0.143147
  58 C :   -0.141647
  59 N :    0.015975
  60 C :   -0.222774
  61 N :    0.233980
  62 C :   -0.206659
  63 N :    0.235419
  64 C :   -0.179372
  65 C :    0.162750
  66 C :   -0.109894
  67 N :   -0.278409
  68 S :    0.537551
  69 N :   -0.271052
  70 H :   -0.029056
  71 H :    0.029316
  72 H :   -0.015367
  73 H :    0.004420
  74 H :    0.036892
  75 H :    0.033193
  76 H :    0.015187
  77 H :    0.024369
  78 H :   -0.031755
  79 H :   -0.036476
  80 H :   -0.027013
  81 H :    0.004605
  82 H :    0.102474
  83 H :    0.098162
  84 H :   -0.007292
  85 H :    0.018508
  86 H :    0.087469
  87 H :    0.093131
  88 H :   -0.016733
  89 H :    0.048796
  90 H :   -0.012240
  91 H :   -0.034758
  92 H :   -0.038080
  93 H :   -0.030929
  94 H :    0.016196
  95 H :   -0.013936
  96 H :    0.030562
  97 H :   -0.015536
  98 H :    0.042522
  99 H :    0.033860
 100 H :    0.009543
 101 H :    0.024371
 102 H :    0.035691
 103 H :   -0.033940
Sum of atomic charges:   -0.0000000

LOEWDIN ATOMIC CHARGES
----------------------
   0 C :   -0.047725
   1 C :   -0.003970
   2 C :   -0.034193
   3 N :   -0.008820
   4 C :   -0.047183
   5 C :   -0.023700
   6 N :   -0.009544
   7 C :   -0.033030
   8 N :   -0.009017
   9 C :   -0.038941
  10 N :   -0.017752
  11 C :   -0.014272
  12 C :   -0.054262
  13 C :   -0.041658
  14 N :   -0.293060
  15 S :    0.657013
  16 N :   -0.270280
  17 C :   -0.225621
  18 S :    0.450396
  19 C :   -0.149629
  20 C :   -0.090700
  21 C :    0.039523
  22 N :    0.000952
  23 C :    0.041014
  24 C :   -0.061695
  25 C :    0.008462
  26 C :   -0.018451
  27 C :   -0.025266
  28 C :   -0.038862
  29 C :   -0.041030
  30 C :    0.030031
  31 N :   -0.112724
  32 C :    0.022971
  33 N :   -0.115788
  34 C :   -0.017275
  35 C :    0.063219
  36 C :   -0.032144
  37 C :   -0.037631
  38 C :   -0.014760
  39 C :   -0.038469
  40 C :   -0.030367
  41 C :   -0.012182
  42 C :   -0.033475
  43 C :   -0.006764
  44 C :   -0.046903
  45 C :   -0.184023
  46 S :    0.443292
  47 C :   -0.173232
  48 C :   -0.066006
  49 C :   -0.021322
  50 N :    0.024666
  51 C :    0.040606
  52 C :   -0.062339
  53 C :    0.048322
  54 C :   -0.053404
  55 C :   -0.001508
  56 N :   -0.005833
  57 C :   -0.023173
  58 C :   -0.054512
  59 N :    0.009973
  60 C :   -0.042465
  61 N :   -0.017786
  62 C :   -0.033869
  63 N :   -0.004301
  64 C :   -0.050805
  65 C :   -0.040523
  66 C :   -0.071579
  67 N :   -0.268348
  68 S :    0.671785
  69 N :   -0.293571
  70 H :    0.043293
  71 H :    0.026502
  72 H :    0.030312
  73 H :    0.011035
  74 H :    0.030169
  75 H :    0.025897
  76 H :    0.029387
  77 H :    0.026600
  78 H :    0.030470
  79 H :    0.020581
  80 H :   -0.005059
  81 H :    0.019815
  82 H :    0.051579
  83 H :    0.058143
  84 H :   -0.001411
  85 H :    0.019392
  86 H :    0.049748
  87 H :    0.055589
  88 H :    0.026248
  89 H :    0.063746
  90 H :    0.024823
  91 H :    0.030159
  92 H :    0.026761
  93 H :    0.025236
  94 H :    0.025445
  95 H :    0.029238
  96 H :    0.026359
  97 H :    0.030793
  98 H :    0.028398
  99 H :    0.030457
 100 H :    0.016834
 101 H :    0.024562
 102 H :    0.037728
 103 H :    0.044686

  Mayer bond orders larger than 0.100000
B(  0-C ,  1-C ) :   1.3233 B(  0-C , 11-C ) :   0.1138 B(  0-C , 13-C ) :   1.1594
B(  0-C , 70-H ) :   1.0594 B(  1-C ,  2-C ) :   1.1288 B(  1-C ,  6-N ) :   1.3262
B(  2-C ,  3-N ) :   1.4428 B(  2-C , 11-C ) :   1.2166 B(  3-N ,  4-C ) :   1.6861
B(  4-C ,  5-C ) :   1.1996 B(  4-C ,  9-C ) :   1.1589 B(  5-C ,  6-N ) :   1.7870
B(  5-C ,  7-C ) :   1.1527 B(  7-C ,  8-N ) :   3.0531 B(  9-C , 10-N ) :   3.0394
B( 11-C , 12-C ) :   1.1972 B( 11-C , 17-C ) :   1.2294 B( 12-C , 13-C ) :   1.1167
B( 12-C , 16-N ) :   1.4943 B( 13-C , 14-N ) :   1.4800 B( 14-N , 15-S ) :   1.2824
B( 14-N , 16-N ) :   0.1542 B( 15-S , 16-N ) :   1.2665 B( 17-C , 18-S ) :   1.0758
B( 17-C , 21-C ) :   1.3473 B( 18-S , 19-C ) :   1.1486 B( 19-C , 20-C ) :   1.5573
B( 19-C , 71-H ) :   0.9678 B( 20-C , 21-C ) :   1.2214 B( 20-C , 72-H ) :   0.9896
B( 21-C , 22-N ) :   1.2236 B( 22-N , 23-C ) :   0.9649 B( 22-N , 25-C ) :   0.9314
B( 23-C , 24-C ) :   1.1138 B( 23-C , 73-H ) :   0.9270 B( 23-C , 74-H ) :   0.9448
B( 24-C , 75-H ) :   0.9618 B( 24-C , 76-H ) :   0.9560 B( 24-C , 77-H ) :   0.9611
B( 25-C , 26-C ) :   1.5930 B( 25-C , 42-C ) :   1.1846 B( 26-C , 27-C ) :   1.0829
B( 26-C , 78-H ) :   1.0008 B( 27-C , 28-C ) :   1.5008 B( 27-C , 40-C ) :   1.1298
B( 28-C , 29-C ) :   1.0067 B( 28-C , 34-C ) :   1.1075 B( 29-C , 30-C ) :   1.0313
B( 29-C , 32-C ) :   1.0322 B( 29-C , 79-H ) :   0.8912 B( 30-C , 31-N ) :   1.0910
B( 30-C , 80-H ) :   0.9373 B( 30-C , 81-H ) :   0.9311 B( 31-N , 82-H ) :   0.9580
B( 31-N , 83-H ) :   0.9686 B( 32-C , 33-N ) :   1.0945 B( 32-C , 84-H ) :   0.9571
B( 32-C , 85-H ) :   0.9196 B( 33-N , 86-H ) :   0.9716 B( 33-N , 87-H ) :   0.9690
B( 34-C , 35-C ) :   1.6872 B( 34-C , 39-C ) :   1.0488 B( 35-C , 36-C ) :   0.9719
B( 35-C , 88-H ) :   0.9621 B( 36-C , 37-C ) :   0.9819 B( 36-C , 43-C ) :   0.9523
B( 36-C , 89-H ) :   0.8604 B( 37-C , 38-C ) :   1.7194 B( 37-C , 90-H ) :   0.9781
B( 38-C , 39-C ) :   1.1266 B( 38-C , 91-H ) :   0.9910 B( 39-C , 40-C ) :   1.4352
B( 40-C , 41-C ) :   1.1377 B( 41-C , 42-C ) :   1.5589 B( 41-C , 92-H ) :   0.9907
B( 42-C , 93-H ) :   0.9831 B( 43-C , 44-C ) :   1.7944 B( 43-C , 94-H ) :   0.9832
B( 44-C , 45-C ) :   1.1090 B( 44-C , 95-H ) :   0.9628 B( 45-C , 46-S ) :   1.1279
B( 45-C , 49-C ) :   1.5337 B( 46-S , 47-C ) :   1.1606 B( 47-C , 48-C ) :   1.5767
B( 47-C , 96-H ) :   0.9649 B( 48-C , 49-C ) :   1.2578 B( 48-C , 97-H ) :   0.9945
B( 49-C , 50-N ) :   1.0027 B( 50-N , 51-C ) :   0.9313 B( 50-N , 53-C ) :   1.2626
B( 51-C , 52-C ) :   1.1172 B( 51-C , 98-H ) :   0.9212 B( 51-C , 99-H ) :   0.9427
B( 52-C ,100-H ) :   0.9604 B( 52-C ,101-H ) :   0.9558 B( 52-C ,102-H ) :   0.9616
B( 53-C , 54-C ) :   1.2386 B( 53-C , 64-C ) :   0.1099 B( 53-C , 66-C ) :   1.2175
B( 54-C , 55-C ) :   1.1231 B( 54-C , 59-N ) :   1.4136 B( 55-C , 56-N ) :   1.3228
B( 55-C , 64-C ) :   1.3039 B( 56-N , 57-C ) :   1.8008 B( 57-C , 58-C ) :   1.1826
B( 57-C , 62-C ) :   1.1551 B( 58-C , 59-N ) :   1.6934 B( 58-C , 60-C ) :   1.1585
B( 60-C , 61-N ) :   3.0473 B( 62-C , 63-N ) :   3.0526 B( 64-C , 65-C ) :   1.1003
B( 64-C ,103-H ) :   1.0909 B( 65-C , 66-C ) :   1.1419 B( 65-C , 69-N ) :   1.4827
B( 66-C , 67-N ) :   1.4917 B( 67-N , 68-S ) :   1.2902 B( 67-N , 69-N ) :   0.1543
B( 68-S , 69-N ) :   1.2826

-----------------------------------------------------------------------------
         ABSORPTION SPECTRUM VIA TRANSITION ELECTRIC DIPOLE MOMENTS
-----------------------------------------------------------------------------
State   Energy  Wavelength   fosc         T2         TX        TY        TZ
        (cm-1)    (nm)                  (au**2)     (au)      (au)      (au)
-----------------------------------------------------------------------------
   0   11926.1    838.5   0.246175754   6.79553  -1.84708  -1.19070   1.40216
   1   14018.0    713.4   0.013790611   0.32387   0.56771  -0.03636  -0.01607
   2   15456.0    647.0   0.065325410   1.39143  -0.52349   0.55083  -0.90220
   3   15773.1    634.0   0.127624489   2.66375   1.07167   0.59846  -1.07570
   4   16729.7    597.7   0.056379605   1.10945   0.26150   0.39430  -0.94106
   5   19178.3    521.4   0.027530307   0.47258   0.39378  -0.21079  -0.52258
   6   22043.2    453.7   0.078176846   1.16756   0.85858   0.65307  -0.06241
   7   22941.3    435.9   0.002065235   0.02964   0.16522   0.03377   0.03462
   8   22952.1    435.7   0.002706531   0.03882   0.03788  -0.16728   0.09697
   9   26146.4    382.5   0.032937935   0.41472  -0.27477  -0.28348  -0.50879
  10   26232.2    381.2   0.022268306   0.27947  -0.44800  -0.25631   0.11432
  11   26701.5    374.5   0.011647706   0.14361   0.15479   0.02091   0.34527
  12   27066.5    369.5   0.002472407   0.03007   0.11184  -0.05191  -0.12194
  13   27732.7    360.6   0.039815909   0.47265   0.29551   0.56489  -0.25734
  14   28040.1    356.6   0.005398893   0.06339   0.13767   0.18696   0.09737
  15   28502.7    350.8   0.033746797   0.38978  -0.01959   0.56980  -0.25442
  16   28889.3    346.1   0.043780072   0.49890   0.65098   0.04630   0.27016
  17   29069.1    344.0   0.035810064   0.40555   0.54049   0.33636  -0.01698
  18   29439.8    339.7   0.021085409   0.23579   0.43138   0.08033  -0.20796
  19   29954.5    333.8   0.042223678   0.46405  -0.42279  -0.44698   0.29243
  20   30423.9    328.7   0.099382584   1.07540  -0.91667  -0.47782  -0.08251
  21   31022.4    322.3   0.010638549   0.11290   0.03753  -0.29884   0.14894
  22   31101.1    321.5   0.020495897   0.21695  -0.32418  -0.32451  -0.08094
  23   31201.1    320.5   0.024384062   0.25728   0.32637   0.37750  -0.09087
  24   31276.2    319.7   0.042645101   0.44888  -0.47392  -0.47356  -0.00472
  25   31464.8    317.8   0.003898114   0.04079   0.17631   0.08345   0.05229
  26   31531.4    317.1   0.033032679   0.34489   0.38656   0.21934   0.38386
  27   31569.6    316.8   0.020133727   0.20996   0.29166   0.35330   0.00865
  28   32132.5    311.2   0.020046862   0.20539   0.25563   0.36528  -0.08133
  29   32326.1    309.3   0.201810014   2.05525  -1.07093  -0.84619  -0.43854
  30   32426.9    308.4   0.283508825   2.87830   1.07541   0.71679   1.09909
  31   32604.0    306.7   0.002396180   0.02419   0.07015   0.07643  -0.11590
  32   32707.7    305.7   0.103991243   1.04670   0.75437   0.48656   0.49080
  33   32858.3    304.3   0.043733138   0.43817  -0.01627   0.33376  -0.57141
  34   33000.8    303.0   0.090564520   0.90346   0.08933  -0.44381   0.83577
  35   33130.2    301.8   0.000282179   0.00280  -0.01648   0.02503  -0.04366
  36   33159.8    301.6   0.010317281   0.10243   0.28528   0.14180   0.03063
  37   34073.7    293.5   0.405328983   3.91619   0.33795  -1.24603   1.49980
  38   34578.0    289.2   0.070145829   0.66785   0.36296  -0.42655   0.59511
  39   34800.4    287.4   0.253919103   2.40207  -0.28411   1.23173  -0.89677
  40   34843.2    287.0   0.068022174   0.64270   0.23508   0.67608  -0.36103
  41   35091.6    285.0   0.511485400   4.79850  -2.10536  -0.59515  -0.10838
  42   35465.1    282.0   0.453804781   4.21253  -1.48126   0.16555  -1.41102
  43   35487.5    281.8   0.231489199   2.14749  -1.26651   0.72727  -0.12051
  44   36054.3    277.4   0.034537626   0.31536  -0.52803  -0.15288   0.11478
  45   36315.2    275.4   0.001209839   0.01097  -0.07778  -0.06927  -0.01093
  46   36441.1    274.4   0.014276686   0.12898  -0.35353  -0.05789  -0.02535
  47   36568.9    273.5   0.305495312   2.75023  -1.08741  -0.49012  -1.15219
  48   36815.4    271.6   0.167975125   1.50207   0.61167   0.29952   1.01893
  49   37819.9    264.4   0.021302578   0.18543   0.08291   0.39027  -0.16201
  50   38293.3    261.1   0.018629579   0.16016   0.29953   0.11028  -0.24142
  51   38349.9    260.8   0.001861736   0.01598   0.00727   0.05648   0.11286
  52   38911.7    257.0   0.000621759   0.00526  -0.06810  -0.01970   0.01532
  53   38949.3    256.7   0.011025521   0.09319   0.23297   0.19579   0.02412
  54   39220.1    255.0   0.019769229   0.16594   0.36760   0.17092  -0.03996
  55   39598.2    252.5   0.490817465   4.08056  -1.70195   0.45386  -0.98891
  56   39943.0    250.4   0.015945075   0.13142  -0.26059   0.09099  -0.23502

FINAL SINGLE POINT ENERGY     -4390.317378004243

DIPOLE MOMENT
-------------
                                X             Y             Z
Electronic contribution:     -0.87523     -17.45047       5.40132
Nuclear contribution   :      6.26389      19.10206      -2.53206
                        -----------------------------------------
Total Dipole Moment    :      5.38866       1.65159       2.86926
                        -----------------------------------------
Magnitude (a.u.)       :      6.32440
Magnitude (Debye)      :     16.07536

Rotational constants in cm-1:     0.002166     0.000277     0.000258
Rotational constants in MHz :    64.935085     8.317392     7.743639

                             ****ORCA TERMINATED NORMALLY****
TOTAL RUN TIME: 0 days 0 hours 15 minutes 8 seconds 658 msec
