                         Program Version 4.2.0 -  RELEASE  -
|  1> # ORCA input file
|  2> # SCF done       -193.520087058071          0.000544737158
|  3> ! CAM-B3LYP def2-SVP def2/J RIJCOSX Grid4 TightSCF
|  4> %maxcore 5000
|  5> %tddft
|  6>     Mode sTDDFT
|  7>     Ethresh 5.0
|  8>     maxcore 5000
|  9> end
| 10>
| 11> %pal
| 12>   nprocs 6
| 13>   end
| 14> * xyz 0 1
| 15>    C       -5.34450        -9.21258         1.44890
| 16>    C       -6.42134        -9.95469         0.98925
| 17>    C       -7.56733        -9.33320         0.51053
| 18>    C       -7.66740        -7.95042         0.46814
| 19>    C       -6.59750        -7.19638         0.92110
| 20>    C       -5.43364        -7.82862         1.42129
| 21>    C       -4.49262        -6.80844         1.85133
| 22>    C       -3.19288        -6.99261         2.23459
| 23>    C       -2.56135        -8.25497         2.29703
| 24>    N       -1.99612        -9.25009         2.37128
| 25>    C       -2.29767        -5.95486         2.57561
| 26>    N       -1.52339        -5.15448         2.85657
| 27>    C       -5.20392        -5.53005         1.77496
| 28>    C       -6.40175        -5.75477         0.96623
| 29>    C       -7.06334        -4.82350         0.22356
| 30>    C       -6.62492        -3.48883         0.06167
| 31>    N       -6.24355        -2.44067        -0.20725
| 32>    C       -8.17928        -5.12292        -0.58876
| 33>    N       -9.08674        -5.32363        -1.26029
| 34>    C       -4.85229        -4.44064         2.50570
| 35>    C       -5.60525        -3.26336         2.76349
| 36>    N       -6.90446        -3.15463         2.53712
| 37>    C       -7.25548        -1.93149         2.99101
| 38>    C       -6.10684        -1.21886         3.54980
| 39>    C       -6.50824         0.11307         4.01963
| 40>    O       -5.82991         0.95965         4.56491
| 41>    C       -7.94435         0.15972         3.67688
| 42>    C       -8.36280        -1.11907         3.06449
| 43>    N       -9.67791        -1.08931         2.74064
| 44>    C      -10.08926         0.10422         3.09071
| 45>    C       -9.05433         0.93903         3.67770
| 46>    C       -5.02608        -2.06040         3.40356
| 47>    C       -3.65540        -1.88646         3.71566
| 48>    C       -3.17735        -0.78770         4.35691
| 49>    C       -1.81402        -0.58013         4.66837
| 50>    N       -1.41883         0.52564         5.38882
| 51>    C       -0.07102         0.48274         5.54485
| 52>    C        1.01617         1.12994         6.10157
| 53>    C        2.14921         0.35720         5.76482
| 54>    N        1.74830        -0.73653         5.02178
| 55>    C        0.40073        -0.69406         4.88404
| 56>    C       -0.68749        -1.35993         4.34457
| 57>    C        3.47964         0.63938         6.11149
| 58>    C        4.59169        -0.03381         5.68225
| 59>    C        5.87885         0.32892         6.12027
| 60>    N        6.07102         1.27109         7.04960
| 61>    C        7.39017         1.33549         7.24483
| 62>    C        8.11717         0.40033         6.36994
| 63>    C        9.56805         0.48056         6.62306
| 64>    O       10.46438        -0.12301         6.06392
| 65>    C        9.65543         1.46923         7.69955
| 66>    C        8.31451         1.98101         8.04388
| 67>    N        8.38971         2.88777         9.03904
| 68>    C        9.67099         2.96499         9.33833
| 69>    C       10.51311         2.10515         8.54632
| 70>    C        7.15431        -0.26090         5.64527
| 71>    C        7.29548        -1.27816         4.66392
| 72>    C        8.51149        -1.72926         4.26444
| 73>    C        8.69039        -2.74520         3.29756
| 74>    C        9.88028        -3.36567         3.04424
| 75>    C       10.20880        -4.11061         1.83503
| 76>    C        9.32825        -4.65781         0.94078
| 77>    C        7.92422        -4.63614         1.07650
| 78>    N        6.77726        -4.65520         1.13006
| 79>    C        9.71174        -5.35406        -0.22508
| 80>    N        9.95400        -5.92974        -1.18800
| 81>    C       11.66222        -4.15173         1.75422
| 82>    C       12.20491        -3.59263         2.93479
| 83>    C       13.57580        -3.48640         3.09936
| 84>    C       14.40172        -3.94456         2.08383
| 85>    C       13.87179        -4.50547         0.93009
| 86>    C       12.50107        -4.61542         0.75236
| 87>    C       11.10830        -3.24406         3.82539
| 88>    C       11.19259        -3.07374         5.17904
| 89>    C       12.41263        -3.00079         5.88529
| 90>    N       13.37828        -2.93998         6.50135
| 91>    C       10.08121        -3.09594         6.05210
| 92>    N        9.22311        -3.20174         6.80634
| 93>    H       -4.46509        -9.70899         1.82572
| 94>    H       -6.36734       -11.03224         1.01003
| 95>    H       -8.39521        -9.93388         0.16655
| 96>    H       -8.56492        -7.47946         0.10171
| 97>    H       -3.91597        -4.49190         3.04237
| 98>    H      -11.11478         0.39241         2.93875
| 99>    H       -9.18814         1.94485         4.02369
|100>    H       -2.96803        -2.66597         3.42067
|101>    H       -3.87151        -0.01306         4.65811
|102>    H       -2.04953         1.23321         5.72723
|103>    H        1.04036         2.03804         6.66911
|104>    H        2.35787        -1.46217         4.68704
|105>    H       -0.69312        -2.27569         3.78940
|106>    H        3.64475         1.47823         6.77282
|107>    H        4.51139        -0.85609         4.98594
|108>    H       10.00467         3.63121        10.11481
|109>    H       11.57758         2.01451         8.63484
|110>    H        6.39931        -1.72858         4.25804
|111>    H        9.39312        -1.26634         4.68547
|112>    H        7.83917        -2.98271         2.67370
|113>    H       13.99702        -3.04648         3.98864
|114>    H       15.47216        -3.86218         2.19446
|115>    H       14.53449        -4.85855         0.15483
|116>    H       12.10646        -5.04816        -0.15236
|117> *
|118>
|119>                          ****END OF INPUT****

CARTESIAN COORDINATES (ANGSTROEM)
---------------------------------
  C     -5.344500   -9.212580    1.448900
  C     -6.421340   -9.954690    0.989250
  C     -7.567330   -9.333200    0.510530
  C     -7.667400   -7.950420    0.468140
  C     -6.597500   -7.196380    0.921100
  C     -5.433640   -7.828620    1.421290
  C     -4.492620   -6.808440    1.851330
  C     -3.192880   -6.992610    2.234590
  C     -2.561350   -8.254970    2.297030
  N     -1.996120   -9.250090    2.371280
  C     -2.297670   -5.954860    2.575610
  N     -1.523390   -5.154480    2.856570
  C     -5.203920   -5.530050    1.774960
  C     -6.401750   -5.754770    0.966230
  C     -7.063340   -4.823500    0.223560
  C     -6.624920   -3.488830    0.061670
  N     -6.243550   -2.440670   -0.207250
  C     -8.179280   -5.122920   -0.588760
  N     -9.086740   -5.323630   -1.260290
  C     -4.852290   -4.440640    2.505700
  C     -5.605250   -3.263360    2.763490
  N     -6.904460   -3.154630    2.537120
  C     -7.255480   -1.931490    2.991010
  C     -6.106840   -1.218860    3.549800
  C     -6.508240    0.113070    4.019630
  O     -5.829910    0.959650    4.564910
  C     -7.944350    0.159720    3.676880
  C     -8.362800   -1.119070    3.064490
  N     -9.677910   -1.089310    2.740640
  C    -10.089260    0.104220    3.090710
  C     -9.054330    0.939030    3.677700
  C     -5.026080   -2.060400    3.403560
  C     -3.655400   -1.886460    3.715660
  C     -3.177350   -0.787700    4.356910
  C     -1.814020   -0.580130    4.668370
  N     -1.418830    0.525640    5.388820
  C     -0.071020    0.482740    5.544850
  C      1.016170    1.129940    6.101570
  C      2.149210    0.357200    5.764820
  N      1.748300   -0.736530    5.021780
  C      0.400730   -0.694060    4.884040
  C     -0.687490   -1.359930    4.344570
  C      3.479640    0.639380    6.111490
  C      4.591690   -0.033810    5.682250
  C      5.878850    0.328920    6.120270
  N      6.071020    1.271090    7.049600
  C      7.390170    1.335490    7.244830
  C      8.117170    0.400330    6.369940
  C      9.568050    0.480560    6.623060
  O     10.464380   -0.123010    6.063920
  C      9.655430    1.469230    7.699550
  C      8.314510    1.981010    8.043880
  N      8.389710    2.887770    9.039040
  C      9.670990    2.964990    9.338330
  C     10.513110    2.105150    8.546320
  C      7.154310   -0.260900    5.645270
  C      7.295480   -1.278160    4.663920
  C      8.511490   -1.729260    4.264440
  C      8.690390   -2.745200    3.297560
  C      9.880280   -3.365670    3.044240
  C     10.208800   -4.110610    1.835030
  C      9.328250   -4.657810    0.940780
  C      7.924220   -4.636140    1.076500
  N      6.777260   -4.655200    1.130060
  C      9.711740   -5.354060   -0.225080
  N      9.954000   -5.929740   -1.188000
  C     11.662220   -4.151730    1.754220
  C     12.204910   -3.592630    2.934790
  C     13.575800   -3.486400    3.099360
  C     14.401720   -3.944560    2.083830
  C     13.871790   -4.505470    0.930090
  C     12.501070   -4.615420    0.752360
  C     11.108300   -3.244060    3.825390
  C     11.192590   -3.073740    5.179040
  C     12.412630   -3.000790    5.885290
  N     13.378280   -2.939980    6.501350
  C     10.081210   -3.095940    6.052100
  N      9.223110   -3.201740    6.806340
  H     -4.465090   -9.708990    1.825720
  H     -6.367340  -11.032240    1.010030
  H     -8.395210   -9.933880    0.166550
  H     -8.564920   -7.479460    0.101710
  H     -3.915970   -4.491900    3.042370
  H    -11.114780    0.392410    2.938750
  H     -9.188140    1.944850    4.023690
  H     -2.968030   -2.665970    3.420670
  H     -3.871510   -0.013060    4.658110
  H     -2.049530    1.233210    5.727230
  H      1.040360    2.038040    6.669110
  H      2.357870   -1.462170    4.687040
  H     -0.693120   -2.275690    3.789400
  H      3.644750    1.478230    6.772820
  H      4.511390   -0.856090    4.985940
  H     10.004670    3.631210   10.114810
  H     11.577580    2.014510    8.634840
  H      6.399310   -1.728580    4.258040
  H      9.393120   -1.266340    4.685470
  H      7.839170   -2.982710    2.673700
  H     13.997020   -3.046480    3.988640
  H     15.472160   -3.862180    2.194460
  H     14.534490   -4.858550    0.154830
  H     12.106460   -5.048160   -0.152360

 Total Charge           Charge          ....    0
 Multiplicity           Mult            ....    1
 Number of Electrons    NEL             ....  510
 Basis Dimension        Dim             .... 1212

ORBITAL ENERGIES
----------------

  NO   OCC          E(Eh)            E(eV)
   0   2.0000     -19.225134      -523.1425
   1   2.0000     -19.208342      -522.6855
   2   2.0000     -14.478040      -393.9675
   3   2.0000     -14.476771      -393.9330
   4   2.0000     -14.448168      -393.1546
   5   2.0000     -14.439721      -392.9248
   6   2.0000     -14.435222      -392.8024
   7   2.0000     -14.434641      -392.7866
   8   2.0000     -14.428664      -392.6239
   9   2.0000     -14.420677      -392.4066
  10   2.0000     -14.419361      -392.3708
  11   2.0000     -14.417664      -392.3246
  12   2.0000     -14.413476      -392.2106
  13   2.0000     -14.409781      -392.1101
  14   2.0000     -14.396188      -391.7402
  15   2.0000     -14.392304      -391.6345
  16   2.0000     -10.384364      -282.5729
  17   2.0000     -10.375568      -282.3335
  18   2.0000     -10.369858      -282.1782
  19   2.0000     -10.369769      -282.1758
  20   2.0000     -10.368264      -282.1348
  21   2.0000     -10.361414      -281.9484
  22   2.0000     -10.358784      -281.8768
  23   2.0000     -10.352468      -281.7050
  24   2.0000     -10.350034      -281.6387
  25   2.0000     -10.347643      -281.5737
  26   2.0000     -10.346401      -281.5399
  27   2.0000     -10.346287      -281.5368
  28   2.0000     -10.345122      -281.5051
  29   2.0000     -10.340908      -281.3904
  30   2.0000     -10.340026      -281.3664
  31   2.0000     -10.339926      -281.3637
  32   2.0000     -10.338879      -281.3352
  33   2.0000     -10.338470      -281.3241
  34   2.0000     -10.335908      -281.2544
  35   2.0000     -10.334756      -281.2230
  36   2.0000     -10.331739      -281.1409
  37   2.0000     -10.329938      -281.0919
  38   2.0000     -10.329516      -281.0804
  39   2.0000     -10.329054      -281.0678
  40   2.0000     -10.326231      -280.9910
  41   2.0000     -10.324856      -280.9536
  42   2.0000     -10.323234      -280.9095
  43   2.0000     -10.320713      -280.8409
  44   2.0000     -10.320259      -280.8285
  45   2.0000     -10.318639      -280.7844
  46   2.0000     -10.316953      -280.7386
  47   2.0000     -10.316513      -280.7266
  48   2.0000     -10.316444      -280.7247
  49   2.0000     -10.315047      -280.6867
  50   2.0000     -10.314427      -280.6698
  51   2.0000     -10.313917      -280.6559
  52   2.0000     -10.313744      -280.6512
  53   2.0000     -10.312517      -280.6179
  54   2.0000     -10.312478      -280.6168
  55   2.0000     -10.309296      -280.5302
  56   2.0000     -10.308850      -280.5181
  57   2.0000     -10.308558      -280.5101
  58   2.0000     -10.308361      -280.5048
  59   2.0000     -10.308211      -280.5007
  60   2.0000     -10.304968      -280.4124
  61   2.0000     -10.304897      -280.4105
  62   2.0000     -10.302054      -280.3331
  63   2.0000     -10.301659      -280.3224
  64   2.0000     -10.301588      -280.3205
  65   2.0000     -10.297198      -280.2010
  66   2.0000     -10.297013      -280.1960
  67   2.0000     -10.296799      -280.1902
  68   2.0000     -10.296077      -280.1705
  69   2.0000     -10.295518      -280.1553
  70   2.0000     -10.294659      -280.1319
  71   2.0000     -10.293675      -280.1051
  72   2.0000     -10.292231      -280.0658
  73   2.0000     -10.288365      -279.9606
  74   2.0000     -10.287317      -279.9321
  75   2.0000     -10.282586      -279.8034
  76   2.0000     -10.276273      -279.6316
  77   2.0000     -10.275423      -279.6085
  78   2.0000      -1.138559       -30.9818
  79   2.0000      -1.121842       -30.5269
  80   2.0000      -1.111289       -30.2397
  81   2.0000      -1.097096       -29.8535
  82   2.0000      -1.075705       -29.2714
  83   2.0000      -1.074450       -29.2373
  84   2.0000      -1.068290       -29.0697
  85   2.0000      -1.054130       -28.6843
  86   2.0000      -1.046240       -28.4696
  87   2.0000      -1.036227       -28.1972
  88   2.0000      -1.031192       -28.0602
  89   2.0000      -1.023172       -27.8419
  90   2.0000      -1.019920       -27.7534
  91   2.0000      -1.013328       -27.5741
  92   2.0000      -1.009145       -27.4602
  93   2.0000      -1.001291       -27.2465
  94   2.0000      -0.997300       -27.1379
  95   2.0000      -0.989844       -26.9350
  96   2.0000      -0.976511       -26.5722
  97   2.0000      -0.958470       -26.0813
  98   2.0000      -0.956396       -26.0249
  99   2.0000      -0.950695       -25.8697
 100   2.0000      -0.935657       -25.4605
 101   2.0000      -0.935486       -25.4559
 102   2.0000      -0.933502       -25.4019
 103   2.0000      -0.928115       -25.2553
 104   2.0000      -0.916115       -24.9288
 105   2.0000      -0.910704       -24.7815
 106   2.0000      -0.906747       -24.6738
 107   2.0000      -0.894094       -24.3295
 108   2.0000      -0.890567       -24.2336
 109   2.0000      -0.884249       -24.0616
 110   2.0000      -0.881203       -23.9787
 111   2.0000      -0.880265       -23.9532
 112   2.0000      -0.871905       -23.7257
 113   2.0000      -0.864306       -23.5190
 114   2.0000      -0.861735       -23.4490
 115   2.0000      -0.845447       -23.0058
 116   2.0000      -0.833918       -22.6920
 117   2.0000      -0.830314       -22.5940
 118   2.0000      -0.814933       -22.1754
 119   2.0000      -0.808219       -21.9927
 120   2.0000      -0.788664       -21.4606
 121   2.0000      -0.786934       -21.4136
 122   2.0000      -0.785088       -21.3633
 123   2.0000      -0.771587       -20.9959
 124   2.0000      -0.761145       -20.7118
 125   2.0000      -0.748863       -20.3776
 126   2.0000      -0.735714       -20.0198
 127   2.0000      -0.732430       -19.9304
 128   2.0000      -0.731894       -19.9158
 129   2.0000      -0.728148       -19.8139
 130   2.0000      -0.716490       -19.4967
 131   2.0000      -0.712827       -19.3970
 132   2.0000      -0.711646       -19.3649
 133   2.0000      -0.710265       -19.3273
 134   2.0000      -0.701626       -19.0922
 135   2.0000      -0.701121       -19.0785
 136   2.0000      -0.692821       -18.8526
 137   2.0000      -0.684233       -18.6189
 138   2.0000      -0.680365       -18.5137
 139   2.0000      -0.676749       -18.4153
 140   2.0000      -0.671330       -18.2678
 141   2.0000      -0.664499       -18.0819
 142   2.0000      -0.662925       -18.0391
 143   2.0000      -0.657910       -17.9026
 144   2.0000      -0.654179       -17.8011
 145   2.0000      -0.650221       -17.6934
 146   2.0000      -0.642379       -17.4800
 147   2.0000      -0.634551       -17.2670
 148   2.0000      -0.629671       -17.1342
 149   2.0000      -0.626936       -17.0598
 150   2.0000      -0.619026       -16.8445
 151   2.0000      -0.609444       -16.5838
 152   2.0000      -0.609140       -16.5755
 153   2.0000      -0.604524       -16.4499
 154   2.0000      -0.603465       -16.4211
 155   2.0000      -0.591418       -16.0933
 156   2.0000      -0.585426       -15.9303
 157   2.0000      -0.582424       -15.8486
 158   2.0000      -0.581976       -15.8364
 159   2.0000      -0.574388       -15.6299
 160   2.0000      -0.571358       -15.5474
 161   2.0000      -0.565326       -15.3833
 162   2.0000      -0.564226       -15.3534
 163   2.0000      -0.561175       -15.2703
 164   2.0000      -0.560382       -15.2488
 165   2.0000      -0.556767       -15.1504
 166   2.0000      -0.555114       -15.1054
 167   2.0000      -0.554195       -15.0804
 168   2.0000      -0.550466       -14.9789
 169   2.0000      -0.547451       -14.8969
 170   2.0000      -0.542635       -14.7658
 171   2.0000      -0.539467       -14.6797
 172   2.0000      -0.538839       -14.6625
 173   2.0000      -0.535972       -14.5845
 174   2.0000      -0.534814       -14.5530
 175   2.0000      -0.531892       -14.4735
 176   2.0000      -0.530365       -14.4320
 177   2.0000      -0.528759       -14.3883
 178   2.0000      -0.526106       -14.3161
 179   2.0000      -0.524015       -14.2592
 180   2.0000      -0.521016       -14.1776
 181   2.0000      -0.518118       -14.0987
 182   2.0000      -0.513067       -13.9613
 183   2.0000      -0.510950       -13.9036
 184   2.0000      -0.507321       -13.8049
 185   2.0000      -0.505452       -13.7540
 186   2.0000      -0.499364       -13.5884
 187   2.0000      -0.497467       -13.5368
 188   2.0000      -0.494061       -13.4441
 189   2.0000      -0.493950       -13.4411
 190   2.0000      -0.488827       -13.3017
 191   2.0000      -0.487362       -13.2618
 192   2.0000      -0.486282       -13.2324
 193   2.0000      -0.482330       -13.1249
 194   2.0000      -0.480869       -13.0851
 195   2.0000      -0.478859       -13.0304
 196   2.0000      -0.478257       -13.0140
 197   2.0000      -0.477944       -13.0055
 198   2.0000      -0.476200       -12.9581
 199   2.0000      -0.471513       -12.8305
 200   2.0000      -0.469415       -12.7734
 201   2.0000      -0.467407       -12.7188
 202   2.0000      -0.464880       -12.6500
 203   2.0000      -0.463800       -12.6207
 204   2.0000      -0.462840       -12.5945
 205   2.0000      -0.462220       -12.5777
 206   2.0000      -0.458284       -12.4705
 207   2.0000      -0.457569       -12.4511
 208   2.0000      -0.456465       -12.4210
 209   2.0000      -0.454975       -12.3805
 210   2.0000      -0.452944       -12.3252
 211   2.0000      -0.452697       -12.3185
 212   2.0000      -0.450947       -12.2709
 213   2.0000      -0.448970       -12.2171
 214   2.0000      -0.448099       -12.1934
 215   2.0000      -0.446670       -12.1545
 216   2.0000      -0.445392       -12.1197
 217   2.0000      -0.443447       -12.0668
 218   2.0000      -0.442355       -12.0371
 219   2.0000      -0.440384       -11.9835
 220   2.0000      -0.438724       -11.9383
 221   2.0000      -0.433575       -11.7982
 222   2.0000      -0.430423       -11.7124
 223   2.0000      -0.426759       -11.6127
 224   2.0000      -0.424873       -11.5614
 225   2.0000      -0.423278       -11.5180
 226   2.0000      -0.420815       -11.4510
 227   2.0000      -0.416970       -11.3463
 228   2.0000      -0.411134       -11.1875
 229   2.0000      -0.407753       -11.0955
 230   2.0000      -0.404628       -11.0105
 231   2.0000      -0.400645       -10.9021
 232   2.0000      -0.394726       -10.7410
 233   2.0000      -0.390576       -10.6281
 234   2.0000      -0.380239       -10.3468
 235   2.0000      -0.378753       -10.3064
 236   2.0000      -0.370995       -10.0953
 237   2.0000      -0.367502       -10.0002
 238   2.0000      -0.355661        -9.6780
 239   2.0000      -0.352305        -9.5867
 240   2.0000      -0.349838        -9.5196
 241   2.0000      -0.348763        -9.4903
 242   2.0000      -0.344004        -9.3608
 243   2.0000      -0.342646        -9.3239
 244   2.0000      -0.337950        -9.1961
 245   2.0000      -0.333972        -9.0878
 246   2.0000      -0.329755        -8.9731
 247   2.0000      -0.324403        -8.8275
 248   2.0000      -0.321830        -8.7574
 249   2.0000      -0.316128        -8.6023
 250   2.0000      -0.310699        -8.4545
 251   2.0000      -0.309830        -8.4309
 252   2.0000      -0.296718        -8.0741
 253   2.0000      -0.276798        -7.5321
 254   2.0000      -0.241140        -6.5617
 255   0.0000      -0.146268        -3.9802
 256   0.0000      -0.117397        -3.1945
 257   0.0000      -0.101293        -2.7563
 258   0.0000      -0.095947        -2.6109
 259   0.0000      -0.083721        -2.2782

MULLIKEN ATOMIC CHARGES
-----------------------
   0 C :   -0.026090
   1 C :    0.044523
   2 C :    0.054102
   3 C :   -0.029198
   4 C :    0.015109
   5 C :    0.009289
   6 C :    0.270664
   7 C :   -0.325063
   8 C :   -0.186499
   9 N :    0.174817
  10 C :   -0.170830
  11 N :    0.162786
  12 C :    0.008135
  13 C :    0.215417
  14 C :   -0.239582
  15 C :   -0.179937
  16 N :    0.176693
  17 C :   -0.199358
  18 N :    0.174139
  19 C :   -0.018200
  20 C :    0.026472
  21 N :   -0.055124
  22 C :    0.088710
  23 C :   -0.167763
  24 C :    0.223686
  25 O :   -0.149439
  26 C :   -0.006809
  27 C :   -0.029221
  28 N :   -0.050902
  29 C :    0.098826
  30 C :   -0.092869
  31 C :    0.090969
  32 C :   -0.068957
  33 C :    0.032827
  34 C :    0.097715
  35 N :   -0.024686
  36 C :    0.128928
  37 C :   -0.140733
  38 C :    0.094934
  39 N :   -0.030995
  40 C :    0.129167
  41 C :   -0.163398
  42 C :    0.070785
  43 C :   -0.077891
  44 C :    0.045414
  45 N :   -0.052734
  46 C :    0.065995
  47 C :   -0.150894
  48 C :    0.235052
  49 O :   -0.165501
  50 C :   -0.011770
  51 C :   -0.052985
  52 N :   -0.056158
  53 C :    0.086012
  54 C :   -0.098445
  55 C :    0.057056
  56 C :   -0.015546
  57 C :   -0.000098
  58 C :    0.034694
  59 C :   -0.057219
  60 C :    0.299665
  61 C :   -0.340835
  62 C :   -0.184508
  63 N :    0.150682
  64 C :   -0.186153
  65 N :    0.157998
  66 C :    0.007726
  67 C :    0.012400
  68 C :   -0.031824
  69 C :    0.047356
  70 C :    0.046076
  71 C :   -0.032420
  72 C :    0.228231
  73 C :   -0.289577
  74 C :   -0.178761
  75 N :    0.159692
  76 C :   -0.203051
  77 N :    0.172301
  78 H :    0.009293
  79 H :    0.010993
  80 H :    0.011418
  81 H :    0.012103
  82 H :    0.012968
  83 H :    0.016697
  84 H :    0.000260
  85 H :   -0.010320
  86 H :   -0.008559
  87 H :    0.137385
  88 H :   -0.015274
  89 H :    0.136367
  90 H :   -0.008373
  91 H :    0.025665
  92 H :   -0.041077
  93 H :    0.002427
  94 H :   -0.007664
  95 H :   -0.013922
  96 H :    0.045730
  97 H :    0.010472
  98 H :    0.007990
  99 H :    0.005345
 100 H :    0.002837
 101 H :    0.004221
Sum of atomic charges:    0.0000000

LOEWDIN ATOMIC CHARGES
----------------------
   0 C :    0.009171
   1 C :    0.003537
   2 C :    0.013596
   3 C :    0.003863
   4 C :   -0.002482
   5 C :   -0.018411
   6 C :    0.078599
   7 C :   -0.119065
   8 C :   -0.019882
   9 N :   -0.028505
  10 C :   -0.012170
  11 N :   -0.045269
  12 C :    0.012294
  13 C :    0.059605
  14 C :   -0.082939
  15 C :   -0.016886
  16 N :   -0.036523
  17 C :   -0.015392
  18 N :   -0.027117
  19 C :    0.022660
  20 C :    0.055837
  21 N :   -0.073656
  22 C :    0.048266
  23 C :   -0.062886
  24 C :    0.073510
  25 O :   -0.147234
  26 C :   -0.037171
  27 C :    0.037407
  28 N :   -0.093063
  29 C :    0.085766
  30 C :   -0.024501
  31 C :   -0.012013
  32 C :   -0.039601
  33 C :    0.012730
  34 C :    0.015450
  35 N :    0.078958
  36 C :   -0.016851
  37 C :   -0.048228
  38 C :   -0.007352
  39 N :    0.074170
  40 C :    0.008663
  41 C :   -0.078771
  42 C :    0.057428
  43 C :   -0.085632
  44 C :    0.073040
  45 N :   -0.123230
  46 C :    0.046861
  47 C :   -0.018142
  48 C :    0.075214
  49 O :   -0.156050
  50 C :   -0.046620
  51 C :    0.008397
  52 N :   -0.099573
  53 C :    0.062351
  54 C :   -0.042240
  55 C :   -0.036217
  56 C :    0.021366
  57 C :   -0.007261
  58 C :    0.056435
  59 C :   -0.047172
  60 C :    0.079694
  61 C :   -0.133862
  62 C :   -0.018897
  63 N :   -0.051259
  64 C :   -0.019085
  65 N :   -0.047397
  66 C :   -0.015988
  67 C :   -0.005991
  68 C :    0.002012
  69 C :    0.005485
  70 C :   -0.001057
  71 C :    0.004857
  72 C :    0.065661
  73 C :   -0.107338
  74 C :   -0.012287
  75 N :   -0.042179
  76 C :   -0.017960
  77 N :   -0.044666
  78 H :    0.042654
  79 H :    0.040239
  80 H :    0.040657
  81 H :    0.043350
  82 H :    0.046972
  83 H :    0.026826
  84 H :    0.036703
  85 H :    0.030339
  86 H :    0.033197
  87 H :    0.098462
  88 H :    0.034207
  89 H :    0.094413
  90 H :    0.033667
  91 H :    0.051183
  92 H :    0.019320
  93 H :    0.020856
  94 H :    0.033208
  95 H :    0.030966
  96 H :    0.034619
  97 H :    0.043737
  98 H :    0.041903
  99 H :    0.037683
 100 H :    0.037090
 101 H :    0.040936

  Mayer bond orders larger than 0.100000
B(  0-C ,  1-C ) :   1.3779 B(  0-C ,  5-C ) :   1.3748 B(  0-C , 78-H ) :   0.9846
B(  1-C ,  2-C ) :   1.3702 B(  1-C , 79-H ) :   0.9869 B(  2-C ,  3-C ) :   1.3674
B(  2-C , 80-H ) :   0.9862 B(  3-C ,  4-C ) :   1.3882 B(  3-C , 81-H ) :   0.9858
B(  4-C ,  5-C ) :   1.3009 B(  4-C , 13-C ) :   1.0092 B(  5-C ,  6-C ) :   1.0150
B(  6-C ,  7-C ) :   1.6637 B(  6-C , 12-C ) :   1.0152 B(  7-C ,  8-C ) :   1.1409
B(  7-C , 10-C ) :   1.1320 B(  8-C ,  9-N ) :   2.9852 B( 10-C , 11-N ) :   2.9839
B( 12-C , 13-C ) :   0.9988 B( 12-C , 19-C ) :   1.6756 B( 13-C , 14-C ) :   1.7193
B( 14-C , 15-C ) :   1.1407 B( 14-C , 17-C ) :   1.1459 B( 15-C , 16-N ) :   2.9838
B( 17-C , 18-N ) :   2.9921 B( 19-C , 20-C ) :   1.1064 B( 19-C , 82-H ) :   0.9262
B( 20-C , 21-N ) :   1.5679 B( 20-C , 22-C ) :   0.1127 B( 20-C , 31-C ) :   1.0204
B( 21-N , 22-C ) :   1.2972 B( 22-C , 23-C ) :   1.0711 B( 22-C , 27-C ) :   1.4299
B( 23-C , 24-C ) :   0.9114 B( 23-C , 31-C ) :   1.5062 B( 24-C , 25-O ) :   2.1737
B( 24-C , 26-C ) :   0.9278 B( 25-O , 86-H ) :   0.1071 B( 26-C , 27-C ) :   1.0625
B( 26-C , 30-C ) :   1.6242 B( 27-C , 28-N ) :   1.3060 B( 28-N , 29-C ) :   1.6652
B( 29-C , 30-C ) :   1.0490 B( 29-C , 83-H ) :   0.9891 B( 30-C , 84-H ) :   1.0103
B( 31-C , 32-C ) :   1.1443 B( 32-C , 33-C ) :   1.6300 B( 32-C , 85-H ) :   0.9596
B( 33-C , 34-C ) :   1.1106 B( 33-C , 86-H ) :   0.9473 B( 34-C , 35-N ) :   1.1892
B( 34-C , 41-C ) :   1.3702 B( 35-N , 36-C ) :   1.1649 B( 35-N , 87-H ) :   0.9317
B( 36-C , 37-C ) :   1.2886 B( 36-C , 40-C ) :   1.2588 B( 37-C , 38-C ) :   1.2941
B( 37-C , 88-H ) :   1.0444 B( 38-C , 39-N ) :   1.1744 B( 38-C , 42-C ) :   1.1901
B( 39-N , 40-C ) :   1.1904 B( 39-N , 89-H ) :   0.9297 B( 40-C , 41-C ) :   1.2808
B( 41-C , 90-H ) :   1.0310 B( 42-C , 43-C ) :   1.4931 B( 42-C , 91-H ) :   0.9678
B( 43-C , 44-C ) :   1.2542 B( 43-C , 92-H ) :   0.9520 B( 44-C , 45-N ) :   1.5136
B( 44-C , 46-C ) :   0.1092 B( 44-C , 55-C ) :   0.9894 B( 45-N , 46-C ) :   1.4286
B( 46-C , 47-C ) :   1.0565 B( 46-C , 51-C ) :   1.3428 B( 47-C , 48-C ) :   0.8921
B( 47-C , 55-C ) :   1.5548 B( 48-C , 49-O ) :   2.1179 B( 48-C , 50-C ) :   0.9595
B( 49-O , 96-H ) :   0.1129 B( 50-C , 51-C ) :   1.0861 B( 50-C , 54-C ) :   1.5492
B( 51-C , 52-N ) :   1.3628 B( 52-N , 53-C ) :   1.6030 B( 53-C , 54-C ) :   1.1136
B( 53-C , 93-H ) :   0.9902 B( 54-C , 94-H ) :   1.0119 B( 55-C , 56-C ) :   1.1037
B( 56-C , 57-C ) :   1.6457 B( 56-C , 95-H ) :   0.9794 B( 57-C , 58-C ) :   1.1279
B( 57-C , 96-H ) :   0.9316 B( 58-C , 59-C ) :   1.5873 B( 58-C , 97-H ) :   0.9531
B( 59-C , 60-C ) :   1.0421 B( 59-C , 72-C ) :   1.0154 B( 60-C , 61-C ) :   1.6405
B( 60-C , 66-C ) :   1.0052 B( 61-C , 62-C ) :   1.1383 B( 61-C , 64-C ) :   1.1425
B( 62-C , 63-N ) :   2.9785 B( 64-C , 65-N ) :   2.9788 B( 66-C , 67-C ) :   1.3088
B( 66-C , 71-C ) :   1.3824 B( 67-C , 68-C ) :   1.3862 B( 67-C , 72-C ) :   1.0103
B( 68-C , 69-C ) :   1.3644 B( 68-C , 98-H ) :   0.9860 B( 69-C , 70-C ) :   1.3745
B( 69-C , 99-H ) :   0.9872 B( 70-C , 71-C ) :   1.3735 B( 70-C ,100-H ) :   0.9859
B( 71-C ,101-H ) :   0.9831 B( 72-C , 73-C ) :   1.6715 B( 73-C , 74-C ) :   1.1444
B( 73-C , 76-C ) :   1.1486 B( 74-C , 75-N ) :   2.9914 B( 76-C , 77-N ) :   3.0064

-----------------------------------------------------------------------------
         ABSORPTION SPECTRUM VIA TRANSITION ELECTRIC DIPOLE MOMENTS
-----------------------------------------------------------------------------
State   Energy  Wavelength   fosc         T2         TX        TY        TZ
        (cm-1)    (nm)                  (au**2)     (au)      (au)      (au)
-----------------------------------------------------------------------------
   0    7451.5   1342.0   0.128301132   5.66841   2.34753  -0.00435   0.39685
   1   13851.5    721.9   1.498937762  35.62572   5.65523   1.16256   1.51414
   2   17942.2    557.3   0.376119740   6.90123  -2.62581   0.07958   0.00389
   3   18334.2    545.4   0.283911731   5.09798  -0.57740  -1.67472  -1.39996
   4   18690.1    535.0   0.025207437   0.44401  -0.61931  -0.18345  -0.16374
   5   19164.7    521.8   0.200303524   3.44082   1.63168  -0.82680  -0.30796
   6   19361.2    516.5   0.047398556   0.80595   0.87828  -0.00346   0.18593
   7   20540.3    486.8   0.171545265   2.74946   1.30315  -0.90583  -0.48032
   8   21318.1    469.1   0.031302093   0.48339  -0.52934   0.40005   0.20774
   9   21651.9    461.9   0.063187214   0.96074  -0.22803  -0.72910  -0.61413
  10   21768.5    459.4   0.007710023   0.11660   0.00773   0.22469   0.25701
  11   22513.3    444.2   0.046242619   0.67621  -0.07496  -0.65547  -0.49086
  12   22986.2    435.0   0.256603882   3.67512  -0.46341   1.55775   1.01676
  13   23204.8    430.9   0.003445518   0.04888  -0.06252  -0.01726  -0.21137
  14   23658.6    422.7   0.012633048   0.17579  -0.40737  -0.03168   0.09400
  15   23917.9    418.1   0.133945915   1.84367   0.66498   0.54457   1.05115
  16   24225.1    412.8   0.078899485   1.07222  -0.69315   0.72758   0.24980
  17   24421.5    409.5   0.005259236   0.07090  -0.16586  -0.18925   0.08700
  18   24868.6    402.1   0.356385837   4.71786  -1.20508   1.74231   0.47958
  19   25322.0    394.9   0.006044301   0.07858   0.03230  -0.19579  -0.19800
  20   25542.5    391.5   0.065575829   0.84519   0.40339   0.26938   0.78097
  21   25879.8    386.4   0.025563584   0.32519  -0.04540  -0.50734  -0.25639
  22   25953.5    385.3   0.033162058   0.42065  -0.44309   0.17848   0.43871
  23   26289.4    380.4   0.178690649   2.23768   0.32108  -0.91956  -1.13533
  24   26883.9    372.0   0.010738874   0.13150  -0.18807   0.03963   0.30751
  25   27200.1    367.6   0.139480151   1.68818   0.45283  -1.15399  -0.38915
  26   27334.8    365.8   0.034001328   0.40950  -0.19978  -0.51870  -0.31709
  27   28294.8    353.4   0.067570977   0.78619  -0.54523   0.64223   0.27651
  28   29310.6    341.2   0.011115528   0.12485   0.33404  -0.11058  -0.03218
  29   29589.9    338.0   0.277495771   3.08737  -1.42326   0.77122  -0.68331
  30   29887.0    334.6   0.004472969   0.04927   0.12356  -0.04554   0.17869
  31   30230.0    330.8   0.049662488   0.54084  -0.56537   0.32024  -0.34444
  32   30429.6    328.6   0.074145389   0.80216  -0.68728   0.44616  -0.36161
  33   30559.4    327.2   0.055278850   0.59551   0.66718  -0.37949   0.07975
  34   30786.0    324.8   0.003661833   0.03916  -0.14918  -0.05607  -0.11730
  35   30807.3    324.6   0.008443817   0.09023  -0.11242  -0.11718  -0.25271
  36   31025.2    322.3   0.045001864   0.47752   0.17257  -0.44608  -0.49875
  37   31142.6    321.1   0.013236612   0.13993  -0.33930  -0.14763   0.05483
  38   31999.4    312.5   0.082926226   0.85315  -0.82144   0.14941  -0.39505
  39   32105.4    311.5   0.042245600   0.43319   0.54278   0.19299   0.31833
  40   32357.6    309.0   0.215230187   2.18979  -1.42093  -0.05434  -0.40962
  41   32514.4    307.6   0.031657138   0.32053   0.18598   0.15788   0.51090
  42   32616.9    306.6   0.147293376   1.48667  -0.40046   0.63248  -0.96243
  43   32679.6    306.0   0.279531156   2.81597  -0.20532  -0.92182  -1.38711
  44   32777.4    305.1   0.199271979   2.00146   0.71450   0.46917   1.12731
  45   32907.4    303.9   0.186200327   1.86278   0.90154   0.25461   0.99257
  46   33664.1    297.1   0.070393339   0.68840  -0.50987   0.56437   0.33155
  47   33729.7    296.5   0.026902610   0.26258  -0.37890  -0.33157  -0.09526
  48   33922.6    294.8   0.010048945   0.09752   0.12245   0.08234   0.27523
  49   34187.9    292.5   0.036593850   0.35238   0.48049   0.33729   0.08802
  50   34382.2    290.8   0.033126360   0.31719  -0.21674  -0.36489  -0.37023
  51   34485.3    290.0   0.028646711   0.27347   0.41385   0.27033  -0.17066
  52   34795.1    287.4   0.124375145   1.17677  -0.66130   0.57869   0.63606
  53   35200.3    284.1   0.053130524   0.49690   0.58185   0.35518  -0.17943
  54   35410.8    282.4   0.188228103   1.74994  -1.08987   0.18356   0.72693
  55   35504.3    281.7   0.089914814   0.83373  -0.24678  -0.66618  -0.57362
  56   35757.1    279.7   0.000678768   0.00625  -0.05949  -0.02839  -0.04364
  57   35868.3    278.8   0.001589791   0.01459  -0.00283   0.05428  -0.10788
  58   35939.5    278.2   0.009359196   0.08573  -0.16872  -0.23916  -0.00823
  59   36157.4    276.6   0.142511589   1.29756  -0.29048  -1.09615  -0.10792
  60   36235.9    276.0   0.034333191   0.31193   0.01039  -0.49799  -0.25263
  61   36357.6    275.0   0.081067728   0.73406  -0.37221   0.74515   0.20067
  62   36571.6    273.4   0.010883748   0.09797  -0.21064   0.02980  -0.22960
  63   36597.4    273.2   0.011663761   0.10492   0.20271  -0.06690   0.24362
  64   36879.7    271.2   0.001234756   0.01102  -0.04554   0.09075  -0.02669
  65   37073.7    269.7   0.306753708   2.72395   1.11459   1.12027   0.47607
  66   37283.3    268.2   0.024024856   0.21214   0.15818  -0.33251   0.27669
  67   37588.5    266.0   0.047284477   0.41413  -0.38471   0.14571  -0.49487
  68   37608.6    265.9   0.032703962   0.28628   0.31752  -0.25345   0.34817
  69   37627.5    265.8   0.287036638   2.51136  -0.94755   1.23935  -0.27842
  70   37895.3    263.9   0.080025460   0.69521   0.00111  -0.52952  -0.64407
  71   38213.5    261.7   0.003664015   0.03157   0.00261  -0.11965  -0.13132
  72   38444.6    260.1   0.049446467   0.42342   0.25686  -0.54158   0.25325
  73   38588.3    259.1   0.038799705   0.33102  -0.42514  -0.31394  -0.22741
  74   38649.7    258.7   0.049209278   0.41916   0.39661   0.36707   0.35654
  75   38744.2    258.1   0.027120675   0.23045  -0.42235   0.19294  -0.12183
  76   38904.0    257.0   0.014687694   0.12429   0.07723  -0.21754   0.26646
  77   39091.4    255.8   0.006731392   0.05669   0.06871   0.13542   0.18339
  78   39161.8    255.4   0.035296139   0.29672   0.51247   0.05793   0.17531
  79   39465.2    253.4   0.010246711   0.08548   0.27960  -0.08142   0.02591
  80   39544.3    252.9   0.074668870   0.62163   0.65471  -0.42933  -0.09303
  81   39678.4    252.0   0.063426400   0.52625  -0.59519  -0.31887  -0.26518
  82   39908.5    250.6   0.080288697   0.66232   0.77394  -0.17431   0.18150

FINAL SINGLE POINT ENERGY     -3289.469949989288

DIPOLE MOMENT
-------------
                                X             Y             Z
Electronic contribution:    -10.98910      -4.30456      -4.35668
Nuclear contribution   :      7.54562       4.32073       4.33535
                        -----------------------------------------
Total Dipole Moment    :     -3.44348       0.01617      -0.02133
                        -----------------------------------------
Magnitude (a.u.)       :      3.44358
Magnitude (Debye)      :      8.75289

Rotational constants in cm-1:     0.001177     0.000268     0.000227
Rotational constants in MHz :    35.297630     8.041572     6.816539

                             ****ORCA TERMINATED NORMALLY****
TOTAL RUN TIME: 0 days 0 hours 11 minutes 1 seconds 315 msec
