                         Program Version 4.2.0 -  RELEASE  -
|  1> # ORCA input file
|  2> # SCF done       -190.866737839570          0.000430490004
|  3> ! CAM-B3LYP def2-SVP def2/J RIJCOSX Grid4 TightSCF
|  4> %maxcore 5000
|  5> %tddft
|  6>     Mode sTDDFT
|  7>     Ethresh 5.0
|  8>     maxcore 5000
|  9> end
| 10>
| 11> %pal
| 12>   nprocs 6
| 13>   end
| 14> * xyz 0 1
| 15>    C        0.34705         0.88464         7.54674
| 16>    C       -0.23978        -0.20537         6.96779
| 17>    F       -1.50468        -0.12468         6.52855
| 18>    C        0.43073        -1.44033         6.81362
| 19>    F       -0.25017        -2.45761         6.26100
| 20>    C        1.72728        -1.63194         7.24047
| 21>    C        2.36421        -0.51128         7.82669
| 22>    C        1.67258         0.73949         7.98569
| 23>    N        2.44417         1.66055         8.56375
| 24>    S        3.87850         1.01300         8.87008
| 25>    N        3.61650        -0.45275         8.27478
| 26>    C        2.41352        -2.90762         7.15457
| 27>    C        3.01484        -3.58122         8.19017
| 28>    N        3.07075        -3.20146         9.54673
| 29>    O        2.33115        -2.31415         9.93564
| 30>    O        3.85045        -3.80480        10.26061
| 31>    C        3.54420        -4.83783         7.70273
| 32>    C        3.20954        -4.96352         6.40020
| 33>    C        2.51550        -3.76722         5.97865
| 34>    C        2.14364        -3.42299         4.69636
| 35>    C        2.05911        -2.09859         4.16930
| 36>    C        1.91341        -2.17925         2.81955
| 37>    C        1.83376        -3.55621         2.42567
| 38>    N        1.65326        -3.87827         1.07282
| 39>    O        1.35321        -2.96702         0.31934
| 40>    O        1.82425        -5.03016         0.69337
| 41>    C        1.92591        -4.36190         3.57102
| 42>    C        1.63472        -5.70965         3.83794
| 43>    C        1.46799        -6.73662         2.94177
| 44>    C        1.14193        -8.03718         3.35620
| 45>    N        0.99367        -9.09436         2.49103
| 46>    C        1.16758        -9.05823         1.05685
| 47>    C        2.64118        -9.09730         0.66312
| 48>    C        0.68450       -10.28930         3.15581
| 49>    O        0.50703       -11.34850         2.59283
| 50>    C        0.63284        -9.91448         4.55877
| 51>    C        0.90920        -8.53832         4.65121
| 52>    C        0.84469        -8.16247         6.04962
| 53>    O        1.01899        -7.10486         6.61967
| 54>    N        0.52854        -9.35901         6.71688
| 55>    C        0.32355        -9.37682         8.14590
| 56>    C       -1.15989        -9.34844         8.50521
| 57>    C        0.39523       -10.41429         5.84919
| 58>    C        0.09775       -11.73252         6.26088
| 59>    C        0.04359       -12.78002         5.39518
| 60>    C       -0.24382       -14.12959         5.76218
| 61>    C       -0.78718       -14.53424         6.98208
| 62>    N       -1.00814       -15.78660         7.32678
| 63>    C       -0.75405       -16.79279         6.49886
| 64>    C       -0.28504       -16.52385         5.16957
| 65>    C       -0.00844       -15.17499         4.81651
| 66>    N        0.48206       -14.87169         3.60154
| 67>    C        0.67732       -15.84747         2.75916
| 68>    C        0.37713       -17.18231         3.09578
| 69>    N       -0.09344       -17.50543         4.27016
| 70>    C       -0.98429       -18.09614         7.05937
| 71>    C       -0.72634       -19.27071         6.44731
| 72>    C       -0.94327       -20.59071         6.97938
| 73>    C       -1.49369       -20.92347         8.20758
| 74>    F       -1.90062       -19.97341         9.06211
| 75>    C       -1.66182       -22.26048         8.63297
| 76>    F       -2.20560       -22.45932         9.84242
| 77>    C       -1.29837       -23.33772         7.87312
| 78>    C       -0.73584       -23.06193         6.61773
| 79>    C       -0.56055       -21.70322         6.17566
| 80>    N       -0.01296       -21.64498         4.96415
| 81>    S        0.25008       -23.14028         4.43987
| 82>    N       -0.31000       -23.94170         5.71117
| 83>    H       -0.18540         1.81221         7.66886
| 84>    H        4.09331        -5.52386         8.31799
| 85>    H        3.50102        -5.75916         5.74412
| 86>    H        2.20863        -1.20029         4.73586
| 87>    H        1.86971        -1.36677         2.11839
| 88>    H        1.50843        -5.94193         4.88681
| 89>    H        1.60601        -6.55830         1.88686
| 90>    H        0.68724        -8.16399         0.65348
| 91>    H        0.65808        -9.94426         0.66846
| 92>    H        3.16764        -8.22546         1.04319
| 93>    H        2.72705        -9.10685        -0.41937
| 94>    H        3.11158        -9.99434         1.05917
| 95>    H        0.80967        -8.47664         8.53220
| 96>    H        0.81505       -10.25391         8.57531
| 97>    H       -1.61889        -8.44429         8.11317
| 98>    H       -1.27567        -9.35491         9.58525
| 99>    H       -1.68143       -10.20849         8.09070
|100>    H       -0.06139       -11.89483         7.31711
|101>    H        0.24769       -12.62289         4.34319
|102>    H       -1.07169       -13.80809         7.73193
|103>    H        1.06918       -15.57874         1.78798
|104>    H        0.51773       -17.99201         2.39292
|105>    H       -1.38396       -18.04944         8.06191
|106>    H       -0.31172       -19.26662         5.44906
|107>    H       -1.43703       -24.34716         8.21992
|108> *
|109>
|110>                          ****END OF INPUT****

CARTESIAN COORDINATES (ANGSTROEM)
---------------------------------
  C      0.347050    0.884640    7.546740
  C     -0.239780   -0.205370    6.967790
  F     -1.504680   -0.124680    6.528550
  C      0.430730   -1.440330    6.813620
  F     -0.250170   -2.457610    6.261000
  C      1.727280   -1.631940    7.240470
  C      2.364210   -0.511280    7.826690
  C      1.672580    0.739490    7.985690
  N      2.444170    1.660550    8.563750
  S      3.878500    1.013000    8.870080
  N      3.616500   -0.452750    8.274780
  C      2.413520   -2.907620    7.154570
  C      3.014840   -3.581220    8.190170
  N      3.070750   -3.201460    9.546730
  O      2.331150   -2.314150    9.935640
  O      3.850450   -3.804800   10.260610
  C      3.544200   -4.837830    7.702730
  C      3.209540   -4.963520    6.400200
  C      2.515500   -3.767220    5.978650
  C      2.143640   -3.422990    4.696360
  C      2.059110   -2.098590    4.169300
  C      1.913410   -2.179250    2.819550
  C      1.833760   -3.556210    2.425670
  N      1.653260   -3.878270    1.072820
  O      1.353210   -2.967020    0.319340
  O      1.824250   -5.030160    0.693370
  C      1.925910   -4.361900    3.571020
  C      1.634720   -5.709650    3.837940
  C      1.467990   -6.736620    2.941770
  C      1.141930   -8.037180    3.356200
  N      0.993670   -9.094360    2.491030
  C      1.167580   -9.058230    1.056850
  C      2.641180   -9.097300    0.663120
  C      0.684500  -10.289300    3.155810
  O      0.507030  -11.348500    2.592830
  C      0.632840   -9.914480    4.558770
  C      0.909200   -8.538320    4.651210
  C      0.844690   -8.162470    6.049620
  O      1.018990   -7.104860    6.619670
  N      0.528540   -9.359010    6.716880
  C      0.323550   -9.376820    8.145900
  C     -1.159890   -9.348440    8.505210
  C      0.395230  -10.414290    5.849190
  C      0.097750  -11.732520    6.260880
  C      0.043590  -12.780020    5.395180
  C     -0.243820  -14.129590    5.762180
  C     -0.787180  -14.534240    6.982080
  N     -1.008140  -15.786600    7.326780
  C     -0.754050  -16.792790    6.498860
  C     -0.285040  -16.523850    5.169570
  C     -0.008440  -15.174990    4.816510
  N      0.482060  -14.871690    3.601540
  C      0.677320  -15.847470    2.759160
  C      0.377130  -17.182310    3.095780
  N     -0.093440  -17.505430    4.270160
  C     -0.984290  -18.096140    7.059370
  C     -0.726340  -19.270710    6.447310
  C     -0.943270  -20.590710    6.979380
  C     -1.493690  -20.923470    8.207580
  F     -1.900620  -19.973410    9.062110
  C     -1.661820  -22.260480    8.632970
  F     -2.205600  -22.459320    9.842420
  C     -1.298370  -23.337720    7.873120
  C     -0.735840  -23.061930    6.617730
  C     -0.560550  -21.703220    6.175660
  N     -0.012960  -21.644980    4.964150
  S      0.250080  -23.140280    4.439870
  N     -0.310000  -23.941700    5.711170
  H     -0.185400    1.812210    7.668860
  H      4.093310   -5.523860    8.317990
  H      3.501020   -5.759160    5.744120
  H      2.208630   -1.200290    4.735860
  H      1.869710   -1.366770    2.118390
  H      1.508430   -5.941930    4.886810
  H      1.606010   -6.558300    1.886860
  H      0.687240   -8.163990    0.653480
  H      0.658080   -9.944260    0.668460
  H      3.167640   -8.225460    1.043190
  H      2.727050   -9.106850   -0.419370
  H      3.111580   -9.994340    1.059170
  H      0.809670   -8.476640    8.532200
  H      0.815050  -10.253910    8.575310
  H     -1.618890   -8.444290    8.113170
  H     -1.275670   -9.354910    9.585250
  H     -1.681430  -10.208490    8.090700
  H     -0.061390  -11.894830    7.317110
  H      0.247690  -12.622890    4.343190
  H     -1.071690  -13.808090    7.731930
  H      1.069180  -15.578740    1.787980
  H      0.517730  -17.992010    2.392920
  H     -1.383960  -18.049440    8.061910
  H     -0.311720  -19.266620    5.449060
  H     -1.437030  -24.347160    8.219920

 Total Charge           Charge          ....    0
 Multiplicity           Mult            ....    1
 Number of Electrons    NEL             ....  488
 Basis Dimension        Dim             .... 1085

ORBITAL ENERGIES
----------------

  NO   OCC          E(Eh)            E(eV)
   0   2.0000     -89.028439     -2422.5870
   1   2.0000     -89.021115     -2422.3877
   2   2.0000     -24.805853      -675.0016
   3   2.0000     -24.799855      -674.8384
   4   2.0000     -24.797720      -674.7803
   5   2.0000     -24.793038      -674.6529
   6   2.0000     -19.233149      -523.3606
   7   2.0000     -19.232951      -523.3552
   8   2.0000     -19.231720      -523.3217
   9   2.0000     -19.230831      -523.2975
  10   2.0000     -19.208291      -522.6842
  11   2.0000     -19.191569      -522.2291
  12   2.0000     -14.641348      -398.4113
  13   2.0000     -14.639740      -398.3676
  14   2.0000     -14.465145      -393.6166
  15   2.0000     -14.455701      -393.3596
  16   2.0000     -14.443637      -393.0314
  17   2.0000     -14.441780      -392.9808
  18   2.0000     -14.440955      -392.9584
  19   2.0000     -14.436774      -392.8446
  20   2.0000     -14.434686      -392.7878
  21   2.0000     -14.434429      -392.7808
  22   2.0000     -14.417610      -392.3231
  23   2.0000     -10.387870      -282.6683
  24   2.0000     -10.385527      -282.6045
  25   2.0000     -10.384309      -282.5714
  26   2.0000     -10.381696      -282.5003
  27   2.0000     -10.379251      -282.4338
  28   2.0000     -10.376506      -282.3591
  29   2.0000     -10.351874      -281.6888
  30   2.0000     -10.340803      -281.3876
  31   2.0000     -10.336358      -281.2666
  32   2.0000     -10.334375      -281.2126
  33   2.0000     -10.333830      -281.1978
  34   2.0000     -10.333183      -281.1802
  35   2.0000     -10.333034      -281.1762
  36   2.0000     -10.332758      -281.1686
  37   2.0000     -10.332207      -281.1536
  38   2.0000     -10.326033      -280.9856
  39   2.0000     -10.325833      -280.9802
  40   2.0000     -10.325516      -280.9716
  41   2.0000     -10.323796      -280.9248
  42   2.0000     -10.323520      -280.9173
  43   2.0000     -10.321461      -280.8612
  44   2.0000     -10.318696      -280.7860
  45   2.0000     -10.317134      -280.7435
  46   2.0000     -10.317059      -280.7415
  47   2.0000     -10.312006      -280.6039
  48   2.0000     -10.311291      -280.5845
  49   2.0000     -10.310738      -280.5694
  50   2.0000     -10.306044      -280.4417
  51   2.0000     -10.301095      -280.3070
  52   2.0000     -10.300124      -280.2806
  53   2.0000     -10.299023      -280.2507
  54   2.0000     -10.297049      -280.1970
  55   2.0000     -10.296577      -280.1841
  56   2.0000     -10.295565      -280.1566
  57   2.0000     -10.294707      -280.1332
  58   2.0000     -10.294221      -280.1200
  59   2.0000     -10.285084      -279.8714
  60   2.0000     -10.283632      -279.8318
  61   2.0000     -10.279711      -279.7252
  62   2.0000     -10.279211      -279.7116
  63   2.0000     -10.278211      -279.6843
  64   2.0000     -10.277284      -279.6591
  65   2.0000     -10.270916      -279.4858
  66   2.0000     -10.270661      -279.4789
  67   2.0000     -10.260467      -279.2015
  68   2.0000      -8.120416      -220.9677
  69   2.0000      -8.112946      -220.7645
  70   2.0000      -6.091595      -165.7607
  71   2.0000      -6.084055      -165.5556
  72   2.0000      -6.083895      -165.5512
  73   2.0000      -6.082791      -165.5212
  74   2.0000      -6.076403      -165.3473
  75   2.0000      -6.075451      -165.3214
  76   2.0000      -1.326376       -36.0925
  77   2.0000      -1.319615       -35.9086
  78   2.0000      -1.311304       -35.6824
  79   2.0000      -1.310522       -35.6611
  80   2.0000      -1.307602       -35.5817
  81   2.0000      -1.302522       -35.4434
  82   2.0000      -1.146571       -31.1998
  83   2.0000      -1.132520       -30.8174
  84   2.0000      -1.130619       -30.7657
  85   2.0000      -1.129295       -30.7297
  86   2.0000      -1.126540       -30.6547
  87   2.0000      -1.122417       -30.5425
  88   2.0000      -1.099007       -29.9055
  89   2.0000      -1.074703       -29.2442
  90   2.0000      -1.061449       -28.8835
  91   2.0000      -1.050142       -28.5758
  92   2.0000      -1.019411       -27.7396
  93   2.0000      -1.011671       -27.5290
  94   2.0000      -0.992799       -27.0154
  95   2.0000      -0.985776       -26.8243
  96   2.0000      -0.975722       -26.5507
  97   2.0000      -0.975065       -26.5329
  98   2.0000      -0.967859       -26.3368
  99   2.0000      -0.937661       -25.5151
 100   2.0000      -0.931378       -25.3441
 101   2.0000      -0.912057       -24.8183
 102   2.0000      -0.908300       -24.7161
 103   2.0000      -0.904524       -24.6134
 104   2.0000      -0.895115       -24.3573
 105   2.0000      -0.880087       -23.9484
 106   2.0000      -0.878349       -23.9011
 107   2.0000      -0.872853       -23.7515
 108   2.0000      -0.872096       -23.7309
 109   2.0000      -0.864487       -23.5239
 110   2.0000      -0.858308       -23.3558
 111   2.0000      -0.844345       -22.9758
 112   2.0000      -0.837811       -22.7980
 113   2.0000      -0.825435       -22.4612
 114   2.0000      -0.819329       -22.2951
 115   2.0000      -0.800767       -21.7900
 116   2.0000      -0.790728       -21.5168
 117   2.0000      -0.780839       -21.2477
 118   2.0000      -0.772315       -21.0157
 119   2.0000      -0.764995       -20.8166
 120   2.0000      -0.763242       -20.7689
 121   2.0000      -0.759377       -20.6637
 122   2.0000      -0.750051       -20.4099
 123   2.0000      -0.733057       -19.9475
 124   2.0000      -0.723809       -19.6958
 125   2.0000      -0.721735       -19.6394
 126   2.0000      -0.716495       -19.4968
 127   2.0000      -0.715206       -19.4617
 128   2.0000      -0.713453       -19.4140
 129   2.0000      -0.702351       -19.1120
 130   2.0000      -0.700052       -19.0494
 131   2.0000      -0.685052       -18.6412
 132   2.0000      -0.673487       -18.3265
 133   2.0000      -0.666406       -18.1338
 134   2.0000      -0.664264       -18.0755
 135   2.0000      -0.656366       -17.8606
 136   2.0000      -0.651848       -17.7377
 137   2.0000      -0.650561       -17.7027
 138   2.0000      -0.645429       -17.5630
 139   2.0000      -0.643167       -17.5015
 140   2.0000      -0.639769       -17.4090
 141   2.0000      -0.639353       -17.3977
 142   2.0000      -0.634216       -17.2579
 143   2.0000      -0.630418       -17.1545
 144   2.0000      -0.626857       -17.0576
 145   2.0000      -0.626304       -17.0426
 146   2.0000      -0.621555       -16.9134
 147   2.0000      -0.618802       -16.8385
 148   2.0000      -0.615825       -16.7574
 149   2.0000      -0.614068       -16.7096
 150   2.0000      -0.606958       -16.5162
 151   2.0000      -0.602407       -16.3923
 152   2.0000      -0.595078       -16.1929
 153   2.0000      -0.591140       -16.0857
 154   2.0000      -0.589848       -16.0506
 155   2.0000      -0.586269       -15.9532
 156   2.0000      -0.585432       -15.9304
 157   2.0000      -0.579052       -15.7568
 158   2.0000      -0.576324       -15.6826
 159   2.0000      -0.571515       -15.5517
 160   2.0000      -0.569401       -15.4942
 161   2.0000      -0.567958       -15.4549
 162   2.0000      -0.564279       -15.3548
 163   2.0000      -0.556671       -15.1478
 164   2.0000      -0.551786       -15.0149
 165   2.0000      -0.550244       -14.9729
 166   2.0000      -0.549748       -14.9594
 167   2.0000      -0.548997       -14.9390
 168   2.0000      -0.548045       -14.9131
 169   2.0000      -0.545387       -14.8407
 170   2.0000      -0.542742       -14.7688
 171   2.0000      -0.541569       -14.7368
 172   2.0000      -0.539949       -14.6928
 173   2.0000      -0.539088       -14.6693
 174   2.0000      -0.537827       -14.6350
 175   2.0000      -0.535175       -14.5629
 176   2.0000      -0.531529       -14.4636
 177   2.0000      -0.529729       -14.4147
 178   2.0000      -0.526579       -14.3289
 179   2.0000      -0.520377       -14.1602
 180   2.0000      -0.514999       -14.0138
 181   2.0000      -0.513592       -13.9755
 182   2.0000      -0.512561       -13.9475
 183   2.0000      -0.506207       -13.7746
 184   2.0000      -0.501052       -13.6343
 185   2.0000      -0.500441       -13.6177
 186   2.0000      -0.496899       -13.5213
 187   2.0000      -0.492689       -13.4067
 188   2.0000      -0.487146       -13.2559
 189   2.0000      -0.485125       -13.2009
 190   2.0000      -0.484288       -13.1782
 191   2.0000      -0.481905       -13.1133
 192   2.0000      -0.480987       -13.0883
 193   2.0000      -0.475821       -12.9478
 194   2.0000      -0.473732       -12.8909
 195   2.0000      -0.472467       -12.8565
 196   2.0000      -0.469876       -12.7860
 197   2.0000      -0.469147       -12.7661
 198   2.0000      -0.467772       -12.7287
 199   2.0000      -0.461635       -12.5617
 200   2.0000      -0.460084       -12.5195
 201   2.0000      -0.457336       -12.4447
 202   2.0000      -0.453640       -12.3442
 203   2.0000      -0.453182       -12.3317
 204   2.0000      -0.451422       -12.2838
 205   2.0000      -0.445217       -12.1150
 206   2.0000      -0.444702       -12.1010
 207   2.0000      -0.442606       -12.0439
 208   2.0000      -0.438962       -11.9448
 209   2.0000      -0.436143       -11.8681
 210   2.0000      -0.430278       -11.7085
 211   2.0000      -0.423823       -11.5328
 212   2.0000      -0.423164       -11.5149
 213   2.0000      -0.422802       -11.5050
 214   2.0000      -0.410469       -11.1694
 215   2.0000      -0.408044       -11.1034
 216   2.0000      -0.402214       -10.9448
 217   2.0000      -0.394230       -10.7276
 218   2.0000      -0.391950       -10.6655
 219   2.0000      -0.382583       -10.4106
 220   2.0000      -0.379142       -10.3170
 221   2.0000      -0.377884       -10.2827
 222   2.0000      -0.373596       -10.1661
 223   2.0000      -0.373427       -10.1615
 224   2.0000      -0.370816       -10.0904
 225   2.0000      -0.367640       -10.0040
 226   2.0000      -0.364112        -9.9080
 227   2.0000      -0.360688        -9.8148
 228   2.0000      -0.358609        -9.7582
 229   2.0000      -0.356615        -9.7040
 230   2.0000      -0.354989        -9.6597
 231   2.0000      -0.348663        -9.4876
 232   2.0000      -0.337548        -9.1852
 233   2.0000      -0.330552        -8.9948
 234   2.0000      -0.330060        -8.9814
 235   2.0000      -0.327858        -8.9215
 236   2.0000      -0.325899        -8.8682
 237   2.0000      -0.324793        -8.8381
 238   2.0000      -0.322321        -8.7708
 239   2.0000      -0.320914        -8.7325
 240   2.0000      -0.299309        -8.1446
 241   2.0000      -0.288693        -7.8557
 242   2.0000      -0.280233        -7.6255
 243   2.0000      -0.235411        -6.4059
 244   0.0000      -0.134462        -3.6589
 245   0.0000      -0.096208        -2.6179
 246   0.0000      -0.071881        -1.9560
 247   0.0000      -0.059037        -1.6065
 248   0.0000      -0.053078        -1.4443

MULLIKEN ATOMIC CHARGES
-----------------------
   0 C :   -0.128455
   1 C :    0.267756
   2 F :   -0.175842
   3 C :    0.152944
   4 F :   -0.162680
   5 C :   -0.055889
   6 C :    0.029331
   7 C :    0.056963
   8 N :   -0.266638
   9 S :    0.513423
  10 N :   -0.268610
  11 C :    0.040336
  12 C :    0.089371
  13 N :    0.270158
  14 O :   -0.242203
  15 O :   -0.245645
  16 C :    0.005496
  17 C :    0.043464
  18 C :    0.046208
  19 C :    0.000166
  20 C :    0.015635
  21 C :    0.024319
  22 C :    0.055830
  23 N :    0.283658
  24 O :   -0.253462
  25 O :   -0.266453
  26 C :    0.092740
  27 C :   -0.090327
  28 C :   -0.003991
  29 C :    0.132134
  30 N :   -0.252684
  31 C :    0.099793
  32 C :    0.004790
  33 C :    0.160679
  34 O :   -0.198346
  35 C :   -0.072469
  36 C :   -0.056521
  37 C :    0.166253
  38 O :   -0.191252
  39 N :   -0.253044
  40 C :    0.098325
  41 C :    0.001319
  42 C :    0.146885
  43 C :   -0.011953
  44 C :   -0.000777
  45 C :    0.024859
  46 C :   -0.022057
  47 N :   -0.035493
  48 C :   -0.020054
  49 C :   -0.023877
  50 C :   -0.003234
  51 N :    0.000023
  52 C :    0.038663
  53 C :    0.036936
  54 N :   -0.008453
  55 C :    0.013027
  56 C :   -0.020521
  57 C :    0.062908
  58 C :    0.149799
  59 F :   -0.164356
  60 C :    0.275767
  61 F :   -0.175365
  62 C :   -0.130360
  63 C :    0.082154
  64 C :   -0.020179
  65 N :   -0.279086
  66 S :    0.504453
  67 N :   -0.272386
  68 H :   -0.004709
  69 H :   -0.005912
  70 H :   -0.008084
  71 H :   -0.002372
  72 H :    0.005773
  73 H :    0.028177
  74 H :   -0.000028
  75 H :    0.037567
  76 H :    0.038588
  77 H :    0.022276
  78 H :    0.027476
  79 H :    0.022994
  80 H :    0.045723
  81 H :    0.027157
  82 H :    0.032253
  83 H :    0.029592
  84 H :    0.016275
  85 H :   -0.027125
  86 H :    0.041750
  87 H :    0.002532
  88 H :    0.025099
  89 H :    0.020012
  90 H :   -0.006682
  91 H :    0.022645
  92 H :   -0.004877
Sum of atomic charges:   -0.0000000

LOEWDIN ATOMIC CHARGES
----------------------
   0 C :   -0.038216
   1 C :    0.068382
   2 F :   -0.051024
   3 C :    0.074689
   4 F :   -0.043569
   5 C :   -0.057475
   6 C :   -0.048345
   7 C :   -0.054071
   8 N :   -0.286800
   9 S :    0.654373
  10 N :   -0.289083
  11 C :    0.003701
  12 C :   -0.012484
  13 N :    0.287623
  14 O :   -0.206571
  15 O :   -0.207012
  16 C :    0.001337
  17 C :   -0.019120
  18 C :    0.037554
  19 C :    0.052988
  20 C :   -0.047989
  21 C :    0.025150
  22 C :   -0.057606
  23 N :    0.287991
  24 O :   -0.216349
  25 O :   -0.227939
  26 C :    0.012726
  27 C :    0.000662
  28 C :   -0.001925
  29 C :    0.059214
  30 N :    0.004571
  31 C :    0.038582
  32 C :   -0.059320
  33 C :    0.075546
  34 O :   -0.193213
  35 C :   -0.119397
  36 C :   -0.097749
  37 C :    0.083013
  38 O :   -0.177804
  39 N :    0.002967
  40 C :    0.036998
  41 C :   -0.060260
  42 C :    0.089626
  43 C :   -0.053881
  44 C :    0.056736
  45 C :   -0.060718
  46 C :    0.036547
  47 N :   -0.062203
  48 C :    0.030160
  49 C :   -0.024267
  50 C :    0.012617
  51 N :   -0.023260
  52 C :    0.024081
  53 C :    0.012199
  54 N :   -0.017699
  55 C :   -0.020312
  56 C :    0.008888
  57 C :   -0.053791
  58 C :    0.074997
  59 F :   -0.036801
  60 C :    0.069878
  61 F :   -0.050161
  62 C :   -0.042672
  63 C :   -0.055514
  64 C :   -0.046203
  65 N :   -0.285910
  66 S :    0.642802
  67 N :   -0.287503
  68 H :    0.050629
  69 H :    0.035452
  70 H :    0.029472
  71 H :    0.030029
  72 H :    0.038343
  73 H :    0.039695
  74 H :    0.028586
  75 H :    0.029324
  76 H :    0.036270
  77 H :    0.024941
  78 H :    0.032912
  79 H :    0.029138
  80 H :    0.038682
  81 H :    0.024566
  82 H :    0.033482
  83 H :    0.033103
  84 H :    0.022090
  85 H :    0.026996
  86 H :    0.041930
  87 H :    0.022986
  88 H :    0.032777
  89 H :    0.030217
  90 H :    0.032505
  91 H :    0.032965
  92 H :    0.050529

  Mayer bond orders larger than 0.100000
B(  0-C ,  1-C ) :   1.4573 B(  0-C ,  5-C ) :   0.1342 B(  0-C ,  7-C ) :   1.1354
B(  0-C , 68-H ) :   1.0502 B(  1-C ,  2-F ) :   1.1108 B(  1-C ,  3-C ) :   1.1197
B(  3-C ,  4-F ) :   1.1735 B(  3-C ,  5-C ) :   1.4731 B(  5-C ,  6-C ) :   1.2148
B(  5-C , 11-C ) :   0.9260 B(  6-C ,  7-C ) :   1.1631 B(  6-C , 10-N ) :   1.5593
B(  7-C ,  8-N ) :   1.5164 B(  8-N ,  9-S ) :   1.2820 B(  8-N , 10-N ) :   0.1489
B(  9-S , 10-N ) :   1.2672 B( 11-C , 12-C ) :   1.6547 B( 11-C , 18-C ) :   1.1008
B( 12-C , 13-N ) :   0.9261 B( 12-C , 16-C ) :   1.1107 B( 13-N , 14-O ) :   1.5233
B( 13-N , 15-O ) :   1.5288 B( 14-O , 15-O ) :   0.2692 B( 16-C , 17-C ) :   1.6119
B( 16-C , 69-H ) :   1.0163 B( 17-C , 18-C ) :   1.1010 B( 17-C , 70-H ) :   1.0002
B( 18-C , 19-C ) :   1.4932 B( 19-C , 20-C ) :   1.1506 B( 19-C , 26-C ) :   1.0118
B( 20-C , 21-C ) :   1.5483 B( 20-C , 71-H ) :   0.9992 B( 21-C , 22-C ) :   1.1548
B( 21-C , 72-H ) :   1.0070 B( 22-C , 23-N ) :   0.9749 B( 22-C , 26-C ) :   1.4131
B( 23-N , 24-O ) :   1.5319 B( 23-N , 25-O ) :   1.4503 B( 24-O , 25-O ) :   0.2429
B( 25-O , 74-H ) :   0.1103 B( 26-C , 27-C ) :   1.2201 B( 27-C , 28-C ) :   1.4980
B( 27-C , 73-H ) :   0.9432 B( 28-C , 29-C ) :   1.1941 B( 28-C , 74-H ) :   0.9435
B( 29-C , 30-N ) :   1.1586 B( 29-C , 36-C ) :   1.2757 B( 30-N , 31-C ) :   0.9399
B( 30-N , 33-C ) :   1.0670 B( 31-C , 32-C ) :   1.1239 B( 31-C , 75-H ) :   0.9482
B( 31-C , 76-H ) :   0.9280 B( 32-C , 77-H ) :   0.9679 B( 32-C , 78-H ) :   0.9676
B( 32-C , 79-H ) :   0.9638 B( 33-C , 34-O ) :   2.0498 B( 33-C , 35-C ) :   0.9788
B( 34-O , 86-H ) :   0.1005 B( 35-C , 36-C ) :   1.3031 B( 35-C , 42-C ) :   1.2897
B( 36-C , 37-C ) :   0.9764 B( 37-C , 38-O ) :   2.0276 B( 37-C , 39-N ) :   1.0572
B( 38-O , 73-H ) :   0.1014 B( 39-N , 40-C ) :   0.9429 B( 39-N , 42-C ) :   1.1716
B( 40-C , 41-C ) :   1.1201 B( 40-C , 80-H ) :   0.9279 B( 40-C , 81-H ) :   0.9494
B( 41-C , 82-H ) :   0.9638 B( 41-C , 83-H ) :   0.9681 B( 41-C , 84-H ) :   0.9687
B( 42-C , 43-C ) :   1.1790 B( 43-C , 44-C ) :   1.5456 B( 43-C , 85-H ) :   0.9601
B( 44-C , 45-C ) :   1.1130 B( 44-C , 86-H ) :   0.9563 B( 45-C , 46-C ) :   1.3590
B( 45-C , 48-C ) :   0.1005 B( 45-C , 50-C ) :   1.2001 B( 46-C , 47-N ) :   1.5101
B( 46-C , 87-H ) :   0.9785 B( 47-N , 48-C ) :   1.5840 B( 48-C , 49-C ) :   1.1394
B( 48-C , 55-C ) :   1.1233 B( 49-C , 50-C ) :   1.2562 B( 49-C , 54-N ) :   1.4674
B( 50-C , 51-N ) :   1.4831 B( 51-N , 52-C ) :   1.6637 B( 52-C , 53-C ) :   1.2168
B( 52-C , 88-H ) :   0.9764 B( 53-C , 54-N ) :   1.6454 B( 53-C , 89-H ) :   0.9749
B( 55-C , 56-C ) :   1.6098 B( 55-C , 90-H ) :   0.9647 B( 56-C , 57-C ) :   1.1124
B( 56-C , 91-H ) :   0.9510 B( 57-C , 58-C ) :   1.3733 B( 57-C , 62-C ) :   0.1287
B( 57-C , 64-C ) :   1.1523 B( 58-C , 59-F ) :   1.1396 B( 58-C , 60-C ) :   1.1499
B( 60-C , 61-F ) :   1.1104 B( 60-C , 62-C ) :   1.4525 B( 62-C , 63-C ) :   1.1401
B( 62-C , 92-H ) :   1.0477 B( 63-C , 64-C ) :   1.1587 B( 63-C , 67-N ) :   1.5143
B( 64-C , 65-N ) :   1.5586 B( 65-N , 66-S ) :   1.2589 B( 65-N , 67-N ) :   0.1498
B( 66-S , 67-N ) :   1.2741

-----------------------------------------------------------------------------
         ABSORPTION SPECTRUM VIA TRANSITION ELECTRIC DIPOLE MOMENTS
-----------------------------------------------------------------------------
State   Energy  Wavelength   fosc         T2         TX        TY        TZ
        (cm-1)    (nm)                  (au**2)     (au)      (au)      (au)
-----------------------------------------------------------------------------
   0    6461.6   1547.6   0.320700985  16.33935  -0.93118  -3.92543   0.25152
   1   14351.2    696.8   0.016844147   0.38640  -0.33345  -0.24359   0.46462
   2   15938.2    627.4   0.531223462  10.97270   0.48098   2.84488  -1.62728
   3   17619.1    567.6   0.008843274   0.16524  -0.03897  -0.13499  -0.38144
   4   20780.5    481.2   0.232578040   3.68457  -0.31343  -1.83451   0.47001
   5   21397.2    467.4   0.386035587   5.93946  -0.11605  -2.42009  -0.26300
   6   22525.4    443.9   0.007810941   0.11416  -0.19044   0.07973   0.26746
   7   23303.0    429.1   0.006742472   0.09525  -0.02892  -0.30719  -0.00725
   8   23784.7    420.4   0.012525602   0.17337   0.19620   0.19856   0.30895
   9   24513.3    407.9   0.047892197   0.64319  -0.11083   0.05985  -0.79204
  10   25229.7    396.4   0.116434646   1.51931  -0.03243  -0.01066  -1.23213
  11   25693.1    389.2   0.085176216   1.09138   0.16953   0.88364   0.53087
  12   25908.1    386.0   0.072645716   0.92310  -0.29865  -0.79421  -0.45072
  13   26182.0    381.9   0.182730420   2.29765  -0.03171   1.24865  -0.85878
  14   26974.7    370.7   0.122248852   1.49198   0.19776   0.39795   1.13777
  15   27215.6    367.4   0.055156288   0.66720  -0.00331   0.57401  -0.58112
  16   27886.2    358.6   0.012311361   0.14534   0.34146  -0.14175  -0.09304
  17   27997.6    357.2   0.011071262   0.13018  -0.01371   0.34669   0.09898
  18   28356.1    352.7   0.010039932   0.11656  -0.01564  -0.27170  -0.20615
  19   28537.5    350.4   0.134239968   1.54861  -0.29190  -0.69083  -0.99305
  20   29654.4    337.2   0.121254597   1.34612  -0.31634  -1.11576  -0.03362
  21   30172.5    331.4   0.312478515   3.40945  -0.05454   1.42918  -1.16787
  22   30448.8    328.4   0.087929242   0.95069   0.08057  -0.00295   0.97169
  23   31355.8    318.9   0.099263502   1.04219   0.42670  -0.89849   0.22983
  24   31509.4    317.4   0.000845846   0.00884   0.01709   0.07707  -0.05104
  25   31608.4    316.4   0.080845195   0.84203   0.17088  -0.68485   0.58636
  26   31917.1    313.3   0.021258980   0.21928  -0.11300  -0.45267  -0.03998
  27   32171.1    310.8   0.015961915   0.16334   0.17953   0.16745   0.32105
  28   32368.3    308.9   0.003972344   0.04040  -0.09474   0.05757  -0.16767
  29   32404.0    308.6   0.002699255   0.02742   0.06838   0.14036  -0.05520
  30   32538.5    307.3   0.022052546   0.22312  -0.08071   0.35826  -0.29707
  31   32903.6    303.9   0.003115619   0.03117  -0.07057  -0.14227  -0.07714
  32   33059.0    302.5   0.051953576   0.51737   0.15062  -0.54831   0.44050
  33   33176.6    301.4   0.081393543   0.80767   0.22379   0.38908   0.77859
  34   33390.3    299.5   0.000934176   0.00921  -0.06035  -0.06328  -0.03954
  35   33597.0    297.6   0.031803927   0.31164  -0.03863   0.36997   0.41626
  36   33989.5    294.2   0.085984581   0.83282  -0.31033   0.37471   0.77208
  37   34398.8    290.7   0.002846809   0.02725   0.15004   0.04433   0.05261
  38   35050.2    285.3   0.001852096   0.01740  -0.02687  -0.05853  -0.11510
  39   35120.2    284.7   0.004555759   0.04271   0.05578  -0.18005   0.08471
  40   35568.9    281.1   0.013008877   0.12041  -0.10961   0.24048   0.22486
  41   36108.9    276.9   0.048278871   0.44017   0.04666  -0.40124   0.52631
  42   36383.5    274.8   0.046103065   0.41716   0.17685  -0.35690  -0.50843
  43   36456.1    274.3   0.033929314   0.30639  -0.04538  -0.34179  -0.43303
  44   36685.8    272.6   0.042043578   0.37729  -0.17733  -0.17320  -0.56200
  45   36946.9    270.7   0.036751491   0.32747  -0.42547  -0.33870  -0.17814
  46   37135.2    269.3   0.047792038   0.42369   0.52040   0.20545   0.33266
  47   37438.4    267.1   0.048194624   0.42380   0.35604  -0.12967   0.52936
  48   37828.4    264.4   0.157535912   1.37100   0.28583  -0.87698  -0.72126
  49   38061.2    262.7   0.083134566   0.71908   0.27408   0.32753  -0.73259
  50   38124.7    262.3   0.156482252   1.35124   0.18040   1.14429   0.09642
  51   38349.6    260.8   0.155904412   1.33836  -0.04001  -0.68124   0.93417
  52   38810.2    257.7   0.002407826   0.02042  -0.07436  -0.05862  -0.10704
  53   39322.2    254.3   0.061845244   0.51778   0.02715   0.64447  -0.31890
  54   39355.6    254.1   0.001038887   0.00869  -0.01353  -0.07375  -0.05539
  55   39563.1    252.8   0.000922511   0.00768   0.03003   0.08231   0.00038
  56   39755.5    251.5   0.013790412   0.11420  -0.20603  -0.07474  -0.25722
  57   40014.4    249.9   0.000873940   0.00719  -0.00384   0.05390   0.06534
  58   40292.8    248.2   0.145687603   1.19034  -0.43891  -0.54988  -0.83386

FINAL SINGLE POINT ENERGY     -3974.813706293120

DIPOLE MOMENT
-------------
                                X             Y             Z
Electronic contribution:     -7.80886      -3.28663      25.36848
Nuclear contribution   :      8.08613       0.57192     -26.07092
                        -----------------------------------------
Total Dipole Moment    :      0.27727      -2.71471      -0.70244
                        -----------------------------------------
Magnitude (a.u.)       :      2.81779
Magnitude (Debye)      :      7.16226

Rotational constants in cm-1:     0.002321     0.000275     0.000254
Rotational constants in MHz :    69.571609     8.232192     7.615684

                             ****ORCA TERMINATED NORMALLY****
TOTAL RUN TIME: 0 days 0 hours 10 minutes 29 seconds 537 msec
