                         Program Version 4.2.0 -  RELEASE  -
|  1> # ORCA input file
|  2> # SCF done       -206.422008029723          0.000428999168
|  3> ! CAM-B3LYP def2-SVP def2/J RIJCOSX Grid4 TightSCF
|  4> %maxcore 5000
|  5> %tddft
|  6>     Mode sTDDFT
|  7>     Ethresh 5.0
|  8>     maxcore 5000
|  9> end
| 10>
| 11> %pal
| 12>   nprocs 6
| 13>   end
| 14> * xyz 0 1
| 15>    C        2.62071         0.39159        -0.37206
| 16>    C        2.31901         1.21838         0.70723
| 17>    C        1.75683         2.59735         0.50125
| 18>    O        0.99646         3.09304         1.28182
| 19>    O        2.14303         3.24164        -0.60497
| 20>    C        2.46868         0.75495         2.02551
| 21>    C        2.19400         1.58624         3.14195
| 22>    N        2.03865         2.18519         4.10527
| 23>    C        2.91892        -0.54529         2.27258
| 24>    C        3.20995        -1.34994         1.19242
| 25>    C        3.07978        -0.89419        -0.12981
| 26>    C        3.47652        -1.96832        -1.03745
| 27>    C        3.68344        -1.81674        -2.38358
| 28>    C        3.52133        -0.58529        -3.05371
| 29>    N        3.41923         0.40574        -3.62350
| 30>    C        4.14551        -2.81480        -3.26900
| 31>    N        4.52774        -3.56528        -4.04910
| 32>    C        3.72134        -3.15633        -0.23572
| 33>    C        3.65475        -2.76344         1.19228
| 34>    O        3.88653        -3.42757         2.17683
| 35>    C        3.87992        -4.40624        -0.77141
| 36>    C        4.17864        -5.64759        -0.17537
| 37>    S        4.17050        -7.04073        -1.24179
| 38>    C        4.64715        -8.10451         0.03869
| 39>    C        4.80126        -7.38423         1.23528
| 40>    C        4.53779        -6.02013         1.11064
| 41>    C        5.18375        -7.98380         2.45227
| 42>    N        5.48975        -8.44480         3.45508
| 43>    C        4.85830        -9.48762        -0.13826
| 44>    C        4.64319       -10.13185        -1.31999
| 45>    C        4.88769       -11.51001        -1.50198
| 46>    N        4.65530       -12.18514        -2.67710
| 47>    C        4.16388       -11.62596        -3.91442
| 48>    C        5.26307       -10.90120        -4.68680
| 49>    C        5.00962       -13.54153        -2.58365
| 50>    O        4.88932       -14.33496        -3.49352
| 51>    C        5.49234       -13.69198        -1.22535
| 52>    C        5.39855       -12.43717        -0.58846
| 53>    C        5.89374       -12.58572         0.76668
| 54>    O        6.01060       -11.79054         1.67406
| 55>    N        6.26458       -13.93888         0.85430
| 56>    C        6.78574       -14.49128         2.08372
| 57>    C        5.71155       -15.23581         2.87157
| 58>    C        6.03332       -14.61086        -0.31976
| 59>    C        6.34309       -15.97464        -0.52545
| 60>    C        6.14698       -16.60526        -1.71706
| 61>    C        6.50670       -17.96062        -1.90295
| 62>    O        6.92448       -18.70763        -0.86222
| 63>    C        7.28218       -19.92863        -1.31405
| 64>    C        7.07675       -19.98938        -2.69704
| 65>    C        6.56431       -18.72391        -3.07671
| 66>    C        6.21283       -18.31697        -4.37254
| 67>    N        5.93244       -18.00763        -5.43923
| 68>    C        7.33152       -21.09373        -3.52301
| 69>    N        7.54596       -22.00430        -4.18453
| 70>    C        7.81630       -20.88279        -0.41932
| 71>    C        7.85331       -20.64614         0.92279
| 72>    C        8.49015       -21.49547         1.84355
| 73>    C        8.62659       -21.32393         3.19333
| 74>    C        9.13763       -22.47193         3.99084
| 75>    O        9.64829       -23.47926         3.56440
| 76>    C        8.84376       -22.13120         5.40076
| 77>    C        8.27525       -20.84537         5.45839
| 78>    C        7.83504       -20.34877         6.67249
| 79>    C        8.00175       -21.10812         7.83147
| 80>    C        8.60776       -22.37417         7.76235
| 81>    C        9.01959       -22.89763         6.52978
| 82>    C        8.81603       -23.18923         8.90059
| 83>    N        9.02273       -23.87626         9.79593
| 84>    C        7.43507       -20.49513         9.08842
| 85>    O        6.56682       -19.67148         9.01897
| 86>    O        7.93148       -20.87466        10.26477
| 87>    C        8.26316       -20.26417         4.11004
| 88>    C        8.09927       -18.92465         3.87529
| 89>    C        8.25572       -18.22302         2.66279
| 90>    N        8.36941       -17.52163         1.75940
| 91>    C        7.80928       -17.96847         4.87804
| 92>    N        7.56707       -17.11003         5.59926
| 93>    H        2.45348         0.73473        -1.38172
| 94>    H        2.77536         2.75719        -1.15364
| 95>    H        3.02981        -0.91239         3.28159
| 96>    H        3.74384        -4.47914        -1.84450
| 97>    H        4.60462        -5.32376         1.92710
| 98>    H        5.21605       -10.03657         0.72528
| 99>    H        4.27003        -9.56693        -2.16427
|100>    H        3.32567       -10.95624        -3.70412
|101>    H        3.80018       -12.47147        -4.50476
|102>    H        5.67909       -10.08200        -4.10444
|103>    H        4.85778       -10.50177        -5.61196
|104>    H        6.06377       -11.59491        -4.93046
|105>    H        7.14248       -13.64110         2.67088
|106>    H        7.62864       -15.15035         1.86209
|107>    H        4.88755       -14.56607         3.10468
|108>    H        6.13266       -15.60204         3.80384
|109>    H        5.32487       -16.07995         2.30383
|110>    H        6.78810       -16.52434         0.29290
|111>    H        5.73838       -16.08498        -2.57318
|112>    H        8.22479       -21.78641        -0.84854
|113>    H        7.37128       -19.75214         1.28479
|114>    H        8.90121       -22.42442         1.46109
|115>    H        7.34241       -19.39391         6.76961
|116>    H        9.46083       -23.88091         6.46776
|117>    H        8.59563       -21.57932        10.23572
|118> *
|119>
|120>                          ****END OF INPUT****

CARTESIAN COORDINATES (ANGSTROEM)
---------------------------------
  C      2.620710    0.391590   -0.372060
  C      2.319010    1.218380    0.707230
  C      1.756830    2.597350    0.501250
  O      0.996460    3.093040    1.281820
  O      2.143030    3.241640   -0.604970
  C      2.468680    0.754950    2.025510
  C      2.194000    1.586240    3.141950
  N      2.038650    2.185190    4.105270
  C      2.918920   -0.545290    2.272580
  C      3.209950   -1.349940    1.192420
  C      3.079780   -0.894190   -0.129810
  C      3.476520   -1.968320   -1.037450
  C      3.683440   -1.816740   -2.383580
  C      3.521330   -0.585290   -3.053710
  N      3.419230    0.405740   -3.623500
  C      4.145510   -2.814800   -3.269000
  N      4.527740   -3.565280   -4.049100
  C      3.721340   -3.156330   -0.235720
  C      3.654750   -2.763440    1.192280
  O      3.886530   -3.427570    2.176830
  C      3.879920   -4.406240   -0.771410
  C      4.178640   -5.647590   -0.175370
  S      4.170500   -7.040730   -1.241790
  C      4.647150   -8.104510    0.038690
  C      4.801260   -7.384230    1.235280
  C      4.537790   -6.020130    1.110640
  C      5.183750   -7.983800    2.452270
  N      5.489750   -8.444800    3.455080
  C      4.858300   -9.487620   -0.138260
  C      4.643190  -10.131850   -1.319990
  C      4.887690  -11.510010   -1.501980
  N      4.655300  -12.185140   -2.677100
  C      4.163880  -11.625960   -3.914420
  C      5.263070  -10.901200   -4.686800
  C      5.009620  -13.541530   -2.583650
  O      4.889320  -14.334960   -3.493520
  C      5.492340  -13.691980   -1.225350
  C      5.398550  -12.437170   -0.588460
  C      5.893740  -12.585720    0.766680
  O      6.010600  -11.790540    1.674060
  N      6.264580  -13.938880    0.854300
  C      6.785740  -14.491280    2.083720
  C      5.711550  -15.235810    2.871570
  C      6.033320  -14.610860   -0.319760
  C      6.343090  -15.974640   -0.525450
  C      6.146980  -16.605260   -1.717060
  C      6.506700  -17.960620   -1.902950
  O      6.924480  -18.707630   -0.862220
  C      7.282180  -19.928630   -1.314050
  C      7.076750  -19.989380   -2.697040
  C      6.564310  -18.723910   -3.076710
  C      6.212830  -18.316970   -4.372540
  N      5.932440  -18.007630   -5.439230
  C      7.331520  -21.093730   -3.523010
  N      7.545960  -22.004300   -4.184530
  C      7.816300  -20.882790   -0.419320
  C      7.853310  -20.646140    0.922790
  C      8.490150  -21.495470    1.843550
  C      8.626590  -21.323930    3.193330
  C      9.137630  -22.471930    3.990840
  O      9.648290  -23.479260    3.564400
  C      8.843760  -22.131200    5.400760
  C      8.275250  -20.845370    5.458390
  C      7.835040  -20.348770    6.672490
  C      8.001750  -21.108120    7.831470
  C      8.607760  -22.374170    7.762350
  C      9.019590  -22.897630    6.529780
  C      8.816030  -23.189230    8.900590
  N      9.022730  -23.876260    9.795930
  C      7.435070  -20.495130    9.088420
  O      6.566820  -19.671480    9.018970
  O      7.931480  -20.874660   10.264770
  C      8.263160  -20.264170    4.110040
  C      8.099270  -18.924650    3.875290
  C      8.255720  -18.223020    2.662790
  N      8.369410  -17.521630    1.759400
  C      7.809280  -17.968470    4.878040
  N      7.567070  -17.110030    5.599260
  H      2.453480    0.734730   -1.381720
  H      2.775360    2.757190   -1.153640
  H      3.029810   -0.912390    3.281590
  H      3.743840   -4.479140   -1.844500
  H      4.604620   -5.323760    1.927100
  H      5.216050  -10.036570    0.725280
  H      4.270030   -9.566930   -2.164270
  H      3.325670  -10.956240   -3.704120
  H      3.800180  -12.471470   -4.504760
  H      5.679090  -10.082000   -4.104440
  H      4.857780  -10.501770   -5.611960
  H      6.063770  -11.594910   -4.930460
  H      7.142480  -13.641100    2.670880
  H      7.628640  -15.150350    1.862090
  H      4.887550  -14.566070    3.104680
  H      6.132660  -15.602040    3.803840
  H      5.324870  -16.079950    2.303830
  H      6.788100  -16.524340    0.292900
  H      5.738380  -16.084980   -2.573180
  H      8.224790  -21.786410   -0.848540
  H      7.371280  -19.752140    1.284790
  H      8.901210  -22.424420    1.461090
  H      7.342410  -19.393910    6.769610
  H      9.460830  -23.880910    6.467760
  H      8.595630  -21.579320   10.235720

 Total Charge           Charge          ....    0
 Multiplicity           Mult            ....    1
 Number of Electrons    NEL             ....  532
 Basis Dimension        Dim             .... 1221

ORBITAL ENERGIES
----------------

  NO   OCC          E(Eh)            E(eV)
   0   2.0000     -89.000765     -2421.8339
   1   2.0000     -19.350080      -526.5424
   2   2.0000     -19.282827      -524.7124
   3   2.0000     -19.281114      -524.6658
   4   2.0000     -19.250161      -523.8235
   5   2.0000     -19.250042      -523.8203
   6   2.0000     -19.224051      -523.1130
   7   2.0000     -19.220229      -523.0090
   8   2.0000     -19.213033      -522.8132
   9   2.0000     -19.210930      -522.7560
  10   2.0000     -14.473914      -393.8552
  11   2.0000     -14.470853      -393.7719
  12   2.0000     -14.457630      -393.4121
  13   2.0000     -14.457204      -393.4005
  14   2.0000     -14.446956      -393.1217
  15   2.0000     -14.443588      -393.0300
  16   2.0000     -14.443473      -393.0269
  17   2.0000     -14.441048      -392.9609
  18   2.0000     -14.430216      -392.6661
  19   2.0000     -14.418213      -392.3395
  20   2.0000     -14.417222      -392.3126
  21   2.0000     -10.432629      -283.8863
  22   2.0000     -10.426205      -283.7115
  23   2.0000     -10.400960      -283.0245
  24   2.0000     -10.400140      -283.0022
  25   2.0000     -10.398271      -282.9513
  26   2.0000     -10.397662      -282.9348
  27   2.0000     -10.395075      -282.8644
  28   2.0000     -10.392574      -282.7963
  29   2.0000     -10.383641      -282.5532
  30   2.0000     -10.380249      -282.4609
  31   2.0000     -10.373606      -282.2802
  32   2.0000     -10.371923      -282.2344
  33   2.0000     -10.370943      -282.2077
  34   2.0000     -10.364162      -282.0232
  35   2.0000     -10.361563      -281.9525
  36   2.0000     -10.361515      -281.9512
  37   2.0000     -10.359892      -281.9070
  38   2.0000     -10.358913      -281.8804
  39   2.0000     -10.357290      -281.8362
  40   2.0000     -10.356271      -281.8085
  41   2.0000     -10.353689      -281.7382
  42   2.0000     -10.353110      -281.7224
  43   2.0000     -10.352984      -281.7190
  44   2.0000     -10.350959      -281.6639
  45   2.0000     -10.348638      -281.6008
  46   2.0000     -10.348261      -281.5905
  47   2.0000     -10.348151      -281.5875
  48   2.0000     -10.347975      -281.5827
  49   2.0000     -10.346111      -281.5320
  50   2.0000     -10.346059      -281.5306
  51   2.0000     -10.345161      -281.5061
  52   2.0000     -10.344379      -281.4849
  53   2.0000     -10.343899      -281.4718
  54   2.0000     -10.340629      -281.3828
  55   2.0000     -10.340055      -281.3672
  56   2.0000     -10.338136      -281.3150
  57   2.0000     -10.336533      -281.2714
  58   2.0000     -10.335557      -281.2448
  59   2.0000     -10.335202      -281.2351
  60   2.0000     -10.332082      -281.1502
  61   2.0000     -10.329675      -281.0848
  62   2.0000     -10.329647      -281.0840
  63   2.0000     -10.328782      -281.0604
  64   2.0000     -10.328322      -281.0479
  65   2.0000     -10.325187      -280.9626
  66   2.0000     -10.324408      -280.9414
  67   2.0000     -10.322675      -280.8943
  68   2.0000     -10.320825      -280.8439
  69   2.0000     -10.320551      -280.8365
  70   2.0000     -10.319930      -280.8196
  71   2.0000     -10.316809      -280.7347
  72   2.0000     -10.316549      -280.7276
  73   2.0000     -10.312978      -280.6304
  74   2.0000     -10.286229      -279.9025
  75   2.0000     -10.285720      -279.8887
  76   2.0000     -10.277882      -279.6754
  77   2.0000     -10.267898      -279.4037
  78   2.0000      -8.096317      -220.3120
  79   2.0000      -6.065331      -165.0460
  80   2.0000      -6.061468      -164.9409
  81   2.0000      -6.058627      -164.8636
  82   2.0000      -1.272133       -34.6165
  83   2.0000      -1.209330       -32.9076
  84   2.0000      -1.205117       -32.7929
  85   2.0000      -1.165820       -31.7236
  86   2.0000      -1.165566       -31.7167
  87   2.0000      -1.154580       -31.4177
  88   2.0000      -1.147514       -31.2255
  89   2.0000      -1.123384       -30.5688
  90   2.0000      -1.120368       -30.4868
  91   2.0000      -1.084847       -29.5202
  92   2.0000      -1.075534       -29.2668
  93   2.0000      -1.057679       -28.7809
  94   2.0000      -1.049728       -28.5646
  95   2.0000      -1.047440       -28.5023
  96   2.0000      -1.036277       -28.1985
  97   2.0000      -1.035601       -28.1801
  98   2.0000      -1.031179       -28.0598
  99   2.0000      -1.027850       -27.9692
 100   2.0000      -1.027551       -27.9611
 101   2.0000      -1.022034       -27.8109
 102   2.0000      -1.014279       -27.5999
 103   2.0000      -1.005818       -27.3697
 104   2.0000      -0.998222       -27.1630
 105   2.0000      -0.996459       -27.1150
 106   2.0000      -0.982653       -26.7393
 107   2.0000      -0.977579       -26.6013
 108   2.0000      -0.969263       -26.3750
 109   2.0000      -0.951293       -25.8860
 110   2.0000      -0.948468       -25.8091
 111   2.0000      -0.943237       -25.6668
 112   2.0000      -0.940441       -25.5907
 113   2.0000      -0.933487       -25.4015
 114   2.0000      -0.922334       -25.0980
 115   2.0000      -0.917034       -24.9538
 116   2.0000      -0.911163       -24.7940
 117   2.0000      -0.905598       -24.6426
 118   2.0000      -0.889962       -24.2171
 119   2.0000      -0.888177       -24.1685
 120   2.0000      -0.879887       -23.9429
 121   2.0000      -0.871238       -23.7076
 122   2.0000      -0.846376       -23.0311
 123   2.0000      -0.836484       -22.7619
 124   2.0000      -0.834469       -22.7071
 125   2.0000      -0.824625       -22.4392
 126   2.0000      -0.819125       -22.2895
 127   2.0000      -0.812330       -22.1046
 128   2.0000      -0.799476       -21.7548
 129   2.0000      -0.790746       -21.5173
 130   2.0000      -0.774114       -21.0647
 131   2.0000      -0.771535       -20.9945
 132   2.0000      -0.770079       -20.9549
 133   2.0000      -0.762371       -20.7452
 134   2.0000      -0.756254       -20.5787
 135   2.0000      -0.754739       -20.5375
 136   2.0000      -0.744172       -20.2499
 137   2.0000      -0.735388       -20.0109
 138   2.0000      -0.727399       -19.7935
 139   2.0000      -0.724883       -19.7251
 140   2.0000      -0.722236       -19.6530
 141   2.0000      -0.721102       -19.6222
 142   2.0000      -0.720156       -19.5964
 143   2.0000      -0.714260       -19.4360
 144   2.0000      -0.704761       -19.1775
 145   2.0000      -0.695785       -18.9333
 146   2.0000      -0.689709       -18.7679
 147   2.0000      -0.684227       -18.6188
 148   2.0000      -0.677887       -18.4462
 149   2.0000      -0.670771       -18.2526
 150   2.0000      -0.665546       -18.1104
 151   2.0000      -0.660953       -17.9854
 152   2.0000      -0.658438       -17.9170
 153   2.0000      -0.646134       -17.5822
 154   2.0000      -0.643653       -17.5147
 155   2.0000      -0.636004       -17.3066
 156   2.0000      -0.633364       -17.2347
 157   2.0000      -0.624129       -16.9834
 158   2.0000      -0.620834       -16.8937
 159   2.0000      -0.616882       -16.7862
 160   2.0000      -0.613128       -16.6841
 161   2.0000      -0.611793       -16.6477
 162   2.0000      -0.604414       -16.4469
 163   2.0000      -0.602315       -16.3898
 164   2.0000      -0.598656       -16.2903
 165   2.0000      -0.590448       -16.0669
 166   2.0000      -0.588329       -16.0092
 167   2.0000      -0.583404       -15.8752
 168   2.0000      -0.578786       -15.7496
 169   2.0000      -0.576919       -15.6988
 170   2.0000      -0.575540       -15.6612
 171   2.0000      -0.574208       -15.6250
 172   2.0000      -0.574028       -15.6201
 173   2.0000      -0.568397       -15.4669
 174   2.0000      -0.565647       -15.3920
 175   2.0000      -0.563850       -15.3431
 176   2.0000      -0.559988       -15.2380
 177   2.0000      -0.554518       -15.0892
 178   2.0000      -0.553678       -15.0664
 179   2.0000      -0.549822       -14.9614
 180   2.0000      -0.548287       -14.9196
 181   2.0000      -0.547513       -14.8986
 182   2.0000      -0.546604       -14.8739
 183   2.0000      -0.543854       -14.7990
 184   2.0000      -0.541513       -14.7353
 185   2.0000      -0.541155       -14.7256
 186   2.0000      -0.536494       -14.5987
 187   2.0000      -0.535253       -14.5650
 188   2.0000      -0.533842       -14.5266
 189   2.0000      -0.532816       -14.4987
 190   2.0000      -0.529810       -14.4169
 191   2.0000      -0.527886       -14.3645
 192   2.0000      -0.525679       -14.3045
 193   2.0000      -0.525135       -14.2896
 194   2.0000      -0.522583       -14.2202
 195   2.0000      -0.519141       -14.1266
 196   2.0000      -0.516054       -14.0426
 197   2.0000      -0.512844       -13.9552
 198   2.0000      -0.506630       -13.7861
 199   2.0000      -0.502085       -13.6624
 200   2.0000      -0.499795       -13.6001
 201   2.0000      -0.498879       -13.5752
 202   2.0000      -0.495213       -13.4754
 203   2.0000      -0.493043       -13.4164
 204   2.0000      -0.491062       -13.3625
 205   2.0000      -0.487415       -13.2632
 206   2.0000      -0.486950       -13.2506
 207   2.0000      -0.484713       -13.1897
 208   2.0000      -0.482207       -13.1215
 209   2.0000      -0.481427       -13.1003
 210   2.0000      -0.480064       -13.0632
 211   2.0000      -0.477239       -12.9863
 212   2.0000      -0.475608       -12.9419
 213   2.0000      -0.474665       -12.9163
 214   2.0000      -0.473815       -12.8932
 215   2.0000      -0.471701       -12.8356
 216   2.0000      -0.470338       -12.7986
 217   2.0000      -0.469177       -12.7669
 218   2.0000      -0.466135       -12.6842
 219   2.0000      -0.466068       -12.6824
 220   2.0000      -0.465051       -12.6547
 221   2.0000      -0.462067       -12.5735
 222   2.0000      -0.460618       -12.5340
 223   2.0000      -0.459231       -12.4963
 224   2.0000      -0.458427       -12.4744
 225   2.0000      -0.456598       -12.4247
 226   2.0000      -0.455746       -12.4015
 227   2.0000      -0.454451       -12.3663
 228   2.0000      -0.453191       -12.3320
 229   2.0000      -0.453063       -12.3285
 230   2.0000      -0.452065       -12.3013
 231   2.0000      -0.451767       -12.2932
 232   2.0000      -0.446270       -12.1436
 233   2.0000      -0.444077       -12.0839
 234   2.0000      -0.443368       -12.0647
 235   2.0000      -0.443200       -12.0601
 236   2.0000      -0.439392       -11.9565
 237   2.0000      -0.437260       -11.8984
 238   2.0000      -0.434418       -11.8211
 239   2.0000      -0.430503       -11.7146
 240   2.0000      -0.430167       -11.7054
 241   2.0000      -0.428715       -11.6659
 242   2.0000      -0.428691       -11.6653
 243   2.0000      -0.421479       -11.4690
 244   2.0000      -0.415810       -11.3148
 245   2.0000      -0.413198       -11.2437
 246   2.0000      -0.408251       -11.1091
 247   2.0000      -0.402633       -10.9562
 248   2.0000      -0.389280       -10.5928
 249   2.0000      -0.389164       -10.5897
 250   2.0000      -0.381594       -10.3837
 251   2.0000      -0.374043       -10.1782
 252   2.0000      -0.373493       -10.1633
 253   2.0000      -0.373125       -10.1532
 254   2.0000      -0.370568       -10.0837
 255   2.0000      -0.368425       -10.0254
 256   2.0000      -0.366208        -9.9650
 257   2.0000      -0.364265        -9.9121
 258   2.0000      -0.357568        -9.7299
 259   2.0000      -0.352231        -9.5847
 260   2.0000      -0.348990        -9.4965
 261   2.0000      -0.343234        -9.3399
 262   2.0000      -0.335420        -9.1273
 263   2.0000      -0.314084        -8.5467
 264   2.0000      -0.306965        -8.3530
 265   2.0000      -0.255428        -6.9506
 266   0.0000      -0.143281        -3.8989
 267   0.0000      -0.129398        -3.5211
 268   0.0000      -0.110841        -3.0161
 269   0.0000      -0.105100        -2.8599
 270   0.0000      -0.092326        -2.5123

MULLIKEN ATOMIC CHARGES
-----------------------
   0 C :   -0.088530
   1 C :    0.010708
   2 C :    0.183532
   3 O :   -0.145836
   4 O :   -0.139846
   5 C :   -0.071521
   6 C :   -0.154209
   7 N :    0.148806
   8 C :   -0.036210
   9 C :   -0.000021
  10 C :    0.044383
  11 C :    0.295336
  12 C :   -0.334959
  13 C :   -0.181797
  14 N :    0.150380
  15 C :   -0.186709
  16 N :    0.169713
  17 C :   -0.092407
  18 C :    0.171659
  19 O :   -0.135158
  20 C :    0.059769
  21 C :   -0.099656
  22 S :    0.151636
  23 C :   -0.024945
  24 C :   -0.070580
  25 C :    0.040663
  26 C :   -0.177011
  27 N :    0.166496
  28 C :   -0.005771
  29 C :   -0.022181
  30 C :    0.138916
  31 N :   -0.256395
  32 C :    0.092863
  33 C :    0.004759
  34 C :    0.166650
  35 O :   -0.194072
  36 C :   -0.060132
  37 C :   -0.057605
  38 C :    0.167333
  39 O :   -0.183884
  40 N :   -0.251899
  41 C :    0.090743
  42 C :   -0.000451
  43 C :    0.140216
  44 C :   -0.000097
  45 C :   -0.058337
  46 C :    0.160142
  47 O :   -0.179093
  48 C :    0.137754
  49 C :    0.007749
  50 C :   -0.011046
  51 C :   -0.287228
  52 N :    0.251422
  53 C :   -0.295767
  54 N :    0.245962
  55 C :   -0.031527
  56 C :    0.013154
  57 C :    0.034539
  58 C :   -0.115002
  59 C :    0.148669
  60 O :   -0.120863
  61 C :    0.007393
  62 C :    0.044717
  63 C :   -0.067770
  64 C :    0.001072
  65 C :   -0.047284
  66 C :   -0.024473
  67 C :   -0.221518
  68 N :    0.136192
  69 C :    0.174595
  70 O :   -0.154837
  71 O :   -0.127759
  72 C :    0.327091
  73 C :   -0.328767
  74 C :   -0.177216
  75 N :    0.165352
  76 C :   -0.173587
  77 N :    0.161984
  78 H :    0.002795
  79 H :    0.191843
  80 H :    0.020590
  81 H :    0.018400
  82 H :    0.033887
  83 H :    0.049058
  84 H :   -0.011476
  85 H :    0.026121
  86 H :    0.051581
  87 H :    0.014269
  88 H :    0.031066
  89 H :    0.034360
  90 H :    0.050766
  91 H :    0.034354
  92 H :    0.028790
  93 H :    0.036343
  94 H :    0.003004
  95 H :   -0.008837
  96 H :    0.043267
  97 H :    0.038748
  98 H :    0.027246
  99 H :    0.027151
 100 H :    0.035184
 101 H :    0.020353
 102 H :    0.182747
Sum of atomic charges:   -0.0000000

LOEWDIN ATOMIC CHARGES
----------------------
   0 C :   -0.000979
   1 C :   -0.035006
   2 C :    0.080236
   3 O :   -0.116899
   4 O :   -0.012709
   5 C :   -0.020884
   6 C :   -0.034841
   7 N :   -0.019189
   8 C :    0.051530
   9 C :   -0.031072
  10 C :   -0.000696
  11 C :    0.072923
  12 C :   -0.129384
  13 C :   -0.015874
  14 N :   -0.047768
  15 C :   -0.025506
  16 N :   -0.035518
  17 C :   -0.094066
  18 C :    0.089625
  19 O :   -0.121822
  20 C :    0.051510
  21 C :   -0.174611
  22 S :    0.473325
  23 C :   -0.121283
  24 C :   -0.093516
  25 C :    0.025872
  26 C :   -0.035322
  27 N :   -0.024128
  28 C :    0.002485
  29 C :   -0.024357
  30 C :    0.070965
  31 N :    0.001664
  32 C :    0.036859
  33 C :   -0.059562
  34 C :    0.081434
  35 O :   -0.184262
  36 C :   -0.108017
  37 C :   -0.105196
  38 C :    0.081169
  39 O :   -0.174376
  40 N :    0.007919
  41 C :    0.035960
  42 C :   -0.062361
  43 C :    0.073477
  44 C :    0.000003
  45 C :   -0.006914
  46 C :    0.086119
  47 O :    0.044003
  48 C :    0.056287
  49 C :   -0.059237
  50 C :   -0.077717
  51 C :   -0.036491
  52 N :   -0.011684
  53 C :   -0.034921
  54 N :   -0.012968
  55 C :    0.021604
  56 C :   -0.021183
  57 C :    0.073714
  58 C :   -0.091711
  59 C :    0.082744
  60 O :   -0.122390
  61 C :   -0.033520
  62 C :    0.003989
  63 C :    0.036708
  64 C :   -0.029999
  65 C :   -0.051816
  66 C :    0.050477
  67 C :   -0.042459
  68 N :   -0.021925
  69 C :    0.081658
  70 O :   -0.134325
  71 O :   -0.005297
  72 C :    0.069835
  73 C :   -0.123961
  74 C :   -0.003222
  75 N :   -0.042883
  76 C :   -0.022152
  77 N :   -0.024876
  78 H :    0.036123
  79 H :    0.099679
  80 H :    0.054739
  81 H :    0.044923
  82 H :    0.045054
  83 H :    0.049763
  84 H :    0.026173
  85 H :    0.024036
  86 H :    0.041333
  87 H :    0.021283
  88 H :    0.034230
  89 H :    0.034520
  90 H :    0.041067
  91 H :    0.024729
  92 H :    0.032556
  93 H :    0.033873
  94 H :    0.017078
  95 H :    0.034463
  96 H :    0.048825
  97 H :    0.053952
  98 H :    0.034872
  99 H :    0.049582
 100 H :    0.051463
 101 H :    0.054283
 102 H :    0.088161

  Mayer bond orders larger than 0.100000
B(  0-C ,  1-C ) :   1.3278 B(  0-C , 10-C ) :   1.3809 B(  0-C , 78-H ) :   0.9645
B(  1-C ,  2-C ) :   0.8674 B(  1-C ,  5-C ) :   1.3929 B(  2-C ,  3-O ) :   2.1679
B(  2-C ,  4-O ) :   1.2573 B(  4-O , 79-H ) :   0.9456 B(  5-C ,  6-C ) :   1.0690
B(  5-C ,  8-C ) :   1.3604 B(  6-C ,  7-N ) :   3.0377 B(  8-C ,  9-C ) :   1.3487
B(  8-C , 80-H ) :   1.0180 B(  9-C , 10-C ) :   1.3463 B(  9-C , 18-C ) :   0.9327
B( 10-C , 11-C ) :   0.9767 B( 11-C , 12-C ) :   1.6423 B( 11-C , 17-C ) :   1.0816
B( 12-C , 13-C ) :   1.1443 B( 12-C , 15-C ) :   1.1355 B( 13-C , 14-N ) :   2.9750
B( 15-C , 16-N ) :   2.9837 B( 17-C , 18-C ) :   0.9419 B( 17-C , 20-C ) :   1.5955
B( 18-C , 19-O ) :   2.1859 B( 20-C , 21-C ) :   1.2099 B( 20-C , 81-H ) :   0.9145
B( 21-C , 22-S ) :   1.1004 B( 21-C , 25-C ) :   1.4180 B( 22-S , 23-C ) :   1.1510
B( 23-C , 24-C ) :   1.3808 B( 23-C , 28-C ) :   1.2042 B( 24-C , 25-C ) :   1.3136
B( 24-C , 26-C ) :   1.1075 B( 25-C , 82-H ) :   0.9830 B( 26-C , 27-N ) :   3.0283
B( 28-C , 29-C ) :   1.5540 B( 28-C , 83-H ) :   0.9395 B( 29-C , 30-C ) :   1.1785
B( 29-C , 84-H ) :   0.9612 B( 30-C , 31-N ) :   1.1621 B( 30-C , 37-C ) :   1.3272
B( 31-N , 32-C ) :   0.9393 B( 31-N , 34-C ) :   1.0595 B( 32-C , 33-C ) :   1.1222
B( 32-C , 85-H ) :   0.9501 B( 32-C , 86-H ) :   0.9279 B( 33-C , 87-H ) :   0.9685
B( 33-C , 88-H ) :   0.9676 B( 33-C , 89-H ) :   0.9632 B( 34-C , 35-O ) :   2.0415
B( 34-C , 36-C ) :   0.9760 B( 35-O , 96-H ) :   0.1087 B( 36-C , 37-C ) :   1.2815
B( 36-C , 43-C ) :   1.3135 B( 37-C , 38-C ) :   0.9703 B( 38-C , 39-O ) :   2.0499
B( 38-C , 40-N ) :   1.0595 B( 39-O , 83-H ) :   0.1083 B( 40-N , 41-C ) :   0.9279
B( 40-N , 43-C ) :   1.1790 B( 41-C , 42-C ) :   1.1252 B( 41-C , 90-H ) :   0.9272
B( 41-C , 91-H ) :   0.9430 B( 42-C , 92-H ) :   0.9604 B( 42-C , 93-H ) :   0.9628
B( 42-C , 94-H ) :   0.9664 B( 43-C , 44-C ) :   1.1533 B( 44-C , 45-C ) :   1.5666
B( 44-C , 95-H ) :   0.9604 B( 45-C , 46-C ) :   1.2104 B( 45-C , 96-H ) :   0.9274
B( 46-C , 47-O ) :   1.1625 B( 46-C , 50-C ) :   1.3344 B( 47-O , 48-C ) :   1.1444
B( 48-C , 49-C ) :   1.3494 B( 48-C , 55-C ) :   1.1923 B( 49-C , 50-C ) :   1.3485
B( 49-C , 53-C ) :   1.1552 B( 50-C , 51-C ) :   1.1605 B( 51-C , 52-N ) :   3.0181
B( 53-C , 54-N ) :   3.0215 B( 55-C , 56-C ) :   1.5880 B( 55-C , 97-H ) :   0.9693
B( 56-C , 57-C ) :   1.1328 B( 56-C , 98-H ) :   0.9683 B( 57-C , 58-C ) :   1.5864
B( 57-C , 99-H ) :   0.9577 B( 58-C , 59-C ) :   0.9453 B( 58-C , 72-C ) :   1.0372
B( 59-C , 60-O ) :   2.2770 B( 59-C , 61-C ) :   0.9017 B( 61-C , 62-C ) :   1.3285
B( 61-C , 66-C ) :   1.3829 B( 62-C , 63-C ) :   1.3249 B( 62-C , 72-C ) :   0.9875
B( 63-C , 64-C ) :   1.3857 B( 63-C ,100-H ) :   0.9838 B( 64-C , 65-C ) :   1.3515
B( 64-C , 69-C ) :   0.8564 B( 65-C , 66-C ) :   1.3544 B( 65-C , 67-C ) :   1.0585
B( 66-C ,101-H ) :   1.0108 B( 67-C , 68-N ) :   2.9900 B( 69-C , 70-O ) :   2.1721
B( 69-C , 71-O ) :   1.2800 B( 71-O ,102-H ) :   0.9380 B( 72-C , 73-C ) :   1.6305
B( 73-C , 74-C ) :   1.1827 B( 73-C , 76-C ) :   1.1332 B( 74-C , 75-N ) :   2.8791
B( 76-C , 77-N ) :   2.9093

-----------------------------------------------------------------------------
         ABSORPTION SPECTRUM VIA TRANSITION ELECTRIC DIPOLE MOMENTS
-----------------------------------------------------------------------------
State   Energy  Wavelength   fosc         T2         TX        TY        TZ
        (cm-1)    (nm)                  (au**2)     (au)      (au)      (au)
-----------------------------------------------------------------------------
   0   10535.1    949.2   0.989729887  30.92812  -1.48881   5.18211  -1.36285
   1   14536.8    687.9   0.262535277   5.94558   0.18822  -2.19259  -1.05009
   2   19520.7    512.3   0.016573476   0.27951  -0.13689   0.02138   0.51021
   3   20352.8    491.3   0.286633126   4.63637   0.52708  -0.31543   2.06375
   4   21408.2    467.1   0.086196142   1.32551  -0.17292   0.80133  -0.80838
   5   22728.3    440.0   0.038490538   0.55752   0.03526  -0.74385  -0.05445
   6   23360.4    428.1   0.613898868   8.65150   0.31366  -2.90039  -0.37533
   7   24188.2    413.4   0.046430598   0.63194   0.11140  -0.75844   0.21047
   8   25798.7    387.6   0.155337229   1.98223  -0.13313   1.14791   0.80424
   9   25993.7    384.7   0.021298863   0.26975   0.14280  -0.46457  -0.18313
  10   27330.2    365.9   0.010571178   0.12734   0.10380  -0.09988  -0.32648
  11   27972.4    357.5   0.136135531   1.60220   0.01855  -0.86969  -0.91951
  12   28465.7    351.3   0.063194658   0.73086  -0.07385   0.44397  -0.72684
  13   28936.9    345.6   0.096852194   1.10188  -0.32155   0.84485  -0.53358
  14   28984.9    345.0   0.118963831   1.35120   0.14150  -0.11083   1.14843
  15   29506.3    338.9   0.000375648   0.00419  -0.01640  -0.00921   0.06195
  16   29970.3    333.7   0.011318908   0.12433   0.09036  -0.12105  -0.31862
  17   30238.6    330.7   0.193548353   2.10719   0.18985  -1.43779  -0.06256
  18   30619.9    326.6   0.065668876   0.70604   0.28670  -0.60759  -0.50466
  19   31100.7    321.5   0.223727496   2.36823   0.26070  -0.71169  -1.33931
  20   31282.1    319.7   0.019946489   0.20992  -0.02052   0.34550  -0.30021
  21   31584.9    316.6   0.016766610   0.17476   0.02036  -0.08409   0.40899
  22   31804.9    314.4   0.088456501   0.91561   0.01664   0.43408   0.85259
  23   32154.5    311.0   0.010367789   0.10615  -0.07813   0.02138  -0.31558
  24   32793.7    304.9   0.032647915   0.32775  -0.21751   0.32529  -0.41788
  25   33411.8    299.3   0.086907964   0.85632  -0.22012   0.87040  -0.22419
  26   33619.1    297.4   0.020446674   0.20022  -0.23431  -0.05231   0.37760
  27   33955.9    294.5   0.368496426   3.57268   0.01028  -0.10216  -1.88736
  28   34270.1    291.8   0.010859082   0.10432  -0.03602   0.08090  -0.31060
  29   34802.2    287.3   0.117045729   1.10720  -0.23453   0.46760   0.91299
  30   35100.1    284.9   0.266011593   2.49499   0.13648  -1.22441  -0.98853
  31   35361.0    282.8   0.320257577   2.98160  -0.21725   0.24875   1.69485
  32   35594.7    280.9   0.292065289   2.70129   0.28134  -1.14148   1.14855
  33   36060.8    277.3   0.523301755   4.77741   0.20293   0.76683   2.03671
  34   36465.6    274.2   0.058585562   0.52891  -0.34281   0.15468   0.62247
  35   36670.5    272.7   0.111698222   1.00278  -0.18550   0.75922   0.62606
  36   36998.0    270.3   0.004845948   0.04312   0.15624  -0.09966  -0.09368
  37   37094.1    269.6   0.007003453   0.06216   0.09174   0.06166   0.22347
  38   37493.7    266.7   0.036020029   0.31627  -0.08254   0.14369  -0.53741
  39   37601.1    265.9   0.116901609   1.02352  -0.14653  -0.67984   0.73476
  40   37800.5    264.5   0.002743549   0.02389   0.02653  -0.14548   0.04501
  41   37852.0    264.2   0.030250166   0.26310  -0.22640   0.39002   0.24438
  42   37913.3    263.8   0.001647315   0.01430  -0.04906   0.09629  -0.05125
  43   38030.6    262.9   0.017475336   0.15128  -0.06778   0.15976  -0.34808
  44   38086.6    262.6   0.001971319   0.01704   0.06022  -0.06449  -0.09620
  45   38412.3    260.3   0.255046828   2.18587  -0.39256   1.34503  -0.47187
  46   38620.8    258.9   0.157512649   1.34267  -0.14779   0.02360  -1.14903
  47   38646.4    258.8   0.066141894   0.56343   0.02334   0.42054   0.62132
  48   38664.4    258.6   0.076625408   0.65243  -0.00898  -0.37672  -0.71445
  49   39024.4    256.2   0.072854743   0.61461   0.08911  -0.68526  -0.37024
  50   39925.9    250.5   0.012918479   0.10652  -0.06479   0.19152  -0.25621
  51   40020.3    249.9   0.109999720   0.90487  -0.21651   0.39052  -0.83994

FINAL SINGLE POINT ENERGY     -3860.030352421033

DIPOLE MOMENT
-------------
                                X             Y             Z
Electronic contribution:      0.15412      12.57709      10.99602
Nuclear contribution   :      1.01851     -15.84974     -12.27049
                        -----------------------------------------
Total Dipole Moment    :      1.17263      -3.27265      -1.27447
                        -----------------------------------------
Magnitude (a.u.)       :      3.70264
Magnitude (Debye)      :      9.41137

Rotational constants in cm-1:     0.001317     0.000212     0.000184
Rotational constants in MHz :    39.474734     6.361958     5.517271

                             ****ORCA TERMINATED NORMALLY****
TOTAL RUN TIME: 0 days 0 hours 11 minutes 24 seconds 865 msec
