                         Program Version 4.2.0 -  RELEASE  -
|  1> # ORCA input file
|  2> # SCF done       -192.173621356895          0.000660738195
|  3> ! CAM-B3LYP def2-SVP def2/J RIJCOSX Grid4 TightSCF
|  4> %maxcore 5000
|  5> %tddft
|  6>     Mode sTDDFT
|  7>     Ethresh 5.0
|  8>     maxcore 5000
|  9> end
| 10>
| 11> %pal
| 12>   nprocs 6
| 13>   end
| 14> * xyz 0 1
| 15>    C      -11.47418         0.56822         6.93399
| 16>    O      -12.37765        -0.10682         6.51671
| 17>    C      -11.59676         1.88358         7.60555
| 18>    C      -10.35326         2.27274         8.13170
| 19>    C      -10.24150         3.48274         8.80028
| 20>    C      -11.37316         4.27766         8.93183
| 21>    C      -12.60750         3.87662         8.41287
| 22>    C      -12.72487         2.66522         7.74465
| 23>   Br      -14.12777         4.97855         8.61024
| 24>   Br      -11.21877         5.93094         9.83389
| 25>    C       -9.36405         1.24053         7.83442
| 26>    C       -8.07216         1.23244         8.28408
| 27>    C       -7.51254         2.24321         9.09795
| 28>    N       -7.00254         3.02706         9.76222
| 29>    C       -7.11653         0.22102         8.04035
| 30>    N       -6.28338        -0.55520         7.89677
| 31>    C      -10.01595         0.24145         6.99641
| 32>    C       -9.39775        -0.80240         6.38800
| 33>    C       -9.95627        -1.69700         5.43598
| 34>    S       -9.07809        -3.16941         4.99148
| 35>    C      -10.38099        -3.44358         3.85838
| 36>    N      -11.27876        -2.49298         3.88687
| 37>    N      -11.04522        -1.55219         4.73910
| 38>    C      -10.40411        -4.57154         2.98411
| 39>    C      -11.42694        -4.79701         2.14292
| 40>    C      -11.50584        -5.90485         1.21637
| 41>    C      -10.46789        -6.35554         0.37529
| 42>    C       -9.20286        -5.61483         0.19202
| 43>    O       -8.82593        -4.62292         0.74497
| 44>    S       -8.23592        -6.40689        -1.08808
| 45>    C       -9.49832        -7.64695        -1.41726
| 46>    O       -9.40450        -8.40125        -2.33899
| 47>    C      -10.60266        -7.47738        -0.45602
| 48>    C      -11.77093        -8.27546        -0.47031
| 49>    C      -12.83612        -7.73545         0.26968
| 50>    C      -12.70993        -6.60215         1.06679
| 51>    C      -14.02129        -6.36452         1.70836
| 52>    O      -14.36239        -5.51814         2.47543
| 53>    O      -14.87192        -7.34790         1.25827
| 54>    C      -14.22823        -8.20946         0.40188
| 55>    O      -14.77907        -9.14354        -0.10033
| 56>    C      -11.95044        -9.52951        -1.14745
| 57>    C      -10.99551       -10.46392        -1.31247
| 58>    C      -11.18214       -11.74437        -1.94303
| 59>    C      -12.41076       -12.28292        -2.28857
| 60>    C      -12.51764       -13.52097        -2.91551
| 61>    C      -11.40784       -14.27502        -3.24880
| 62>    C      -10.12646       -13.75330        -2.92087
| 63>    C      -10.01865       -12.51128        -2.24125
| 64>    N       -8.80823       -12.05717        -1.87637
| 65>    C       -7.73250       -12.72532        -2.19721
| 66>    C       -6.43427       -12.18635        -1.67805
| 67>    C       -6.09686       -12.83455        -0.33261
| 68>    C       -7.83498       -13.92502        -2.96206
| 69>    C       -6.64451       -14.67059        -3.48494
| 70>    C       -6.18063       -14.05614        -4.80791
| 71>    N       -9.00694       -14.40685        -3.27981
| 72>    C      -11.53060       -15.56791        -3.92097
| 73>    C      -10.71898       -16.63295        -3.59030
| 74>    C      -10.83009       -17.87245        -4.23172
| 75>    C      -11.75672       -18.07499        -5.21784
| 76>    C      -12.60682       -17.01805        -5.59030
| 77>    C      -12.50024       -15.75524        -4.94443
| 78>    N      -13.30603       -14.75092        -5.32894
| 79>    C      -14.19323       -14.94319        -6.26818
| 80>    C      -15.08572       -13.78011        -6.58226
| 81>    C      -16.34448       -13.83236        -5.71197
| 82>    C      -14.31208       -16.21706        -6.90155
| 83>    C      -15.27736       -16.49221        -8.01520
| 84>    C      -14.64507       -16.13344        -9.36246
| 85>    N      -13.52500       -17.20050        -6.55716
| 86>    H       -9.30839         3.82669         9.21577
| 87>    H      -13.67021         2.34143         7.33752
| 88>    H       -8.35307        -0.98693         6.60108
| 89>    H       -9.55110        -5.23189         3.03440
| 90>    H      -12.29684        -4.15616         2.20088
| 91>    H      -12.97058        -9.73831        -1.43674
| 92>    H       -9.98636       -10.28902        -0.96912
| 93>    H      -13.31619       -11.74796        -2.04696
| 94>    H      -13.49761       -13.90764        -3.14381
| 95>    H       -6.54812       -11.11051        -1.53903
| 96>    H       -5.62806       -12.36614        -2.38862
| 97>    H       -5.15944       -12.43820         0.04893
| 98>    H       -6.00134       -13.91382        -0.43268
| 99>    H       -6.88206       -12.62616         0.38979
|100>    H       -6.94322       -15.70490        -3.66019
|101>    H       -5.82974       -14.65507        -2.76129
|102>    H       -5.90765       -13.01102        -4.67934
|103>    H       -6.97933       -14.11315        -5.54304
|104>    H       -5.31754       -14.59637        -5.18880
|105>    H       -9.98859       -16.51211        -2.80650
|106>    H      -10.17428       -18.67651        -3.93235
|107>    H      -11.86467       -19.02262        -5.72131
|108>    H      -15.36284       -13.77721        -7.63593
|109>    H      -14.53725       -12.86418        -6.35812
|110>    H      -16.07340       -13.79154        -4.65995
|111>    H      -16.90319       -14.74971        -5.88620
|112>    H      -16.98891       -12.98625        -5.93634
|113>    H      -16.20037       -15.93016        -7.87518
|114>    H      -15.50778       -17.55824        -8.00537
|115>    H      -14.37796       -15.07936        -9.40155
|116>    H      -15.34172       -16.34480       -10.16979
|117>    H      -13.74364       -16.72110        -9.51717
|118> *
|119>
|120>                          ****END OF INPUT****

CARTESIAN COORDINATES (ANGSTROEM)
---------------------------------
  C    -11.474180    0.568220    6.933990
  O    -12.377650   -0.106820    6.516710
  C    -11.596760    1.883580    7.605550
  C    -10.353260    2.272740    8.131700
  C    -10.241500    3.482740    8.800280
  C    -11.373160    4.277660    8.931830
  C    -12.607500    3.876620    8.412870
  C    -12.724870    2.665220    7.744650
  Br   -14.127770    4.978550    8.610240
  Br   -11.218770    5.930940    9.833890
  C     -9.364050    1.240530    7.834420
  C     -8.072160    1.232440    8.284080
  C     -7.512540    2.243210    9.097950
  N     -7.002540    3.027060    9.762220
  C     -7.116530    0.221020    8.040350
  N     -6.283380   -0.555200    7.896770
  C    -10.015950    0.241450    6.996410
  C     -9.397750   -0.802400    6.388000
  C     -9.956270   -1.697000    5.435980
  S     -9.078090   -3.169410    4.991480
  C    -10.380990   -3.443580    3.858380
  N    -11.278760   -2.492980    3.886870
  N    -11.045220   -1.552190    4.739100
  C    -10.404110   -4.571540    2.984110
  C    -11.426940   -4.797010    2.142920
  C    -11.505840   -5.904850    1.216370
  C    -10.467890   -6.355540    0.375290
  C     -9.202860   -5.614830    0.192020
  O     -8.825930   -4.622920    0.744970
  S     -8.235920   -6.406890   -1.088080
  C     -9.498320   -7.646950   -1.417260
  O     -9.404500   -8.401250   -2.338990
  C    -10.602660   -7.477380   -0.456020
  C    -11.770930   -8.275460   -0.470310
  C    -12.836120   -7.735450    0.269680
  C    -12.709930   -6.602150    1.066790
  C    -14.021290   -6.364520    1.708360
  O    -14.362390   -5.518140    2.475430
  O    -14.871920   -7.347900    1.258270
  C    -14.228230   -8.209460    0.401880
  O    -14.779070   -9.143540   -0.100330
  C    -11.950440   -9.529510   -1.147450
  C    -10.995510  -10.463920   -1.312470
  C    -11.182140  -11.744370   -1.943030
  C    -12.410760  -12.282920   -2.288570
  C    -12.517640  -13.520970   -2.915510
  C    -11.407840  -14.275020   -3.248800
  C    -10.126460  -13.753300   -2.920870
  C    -10.018650  -12.511280   -2.241250
  N     -8.808230  -12.057170   -1.876370
  C     -7.732500  -12.725320   -2.197210
  C     -6.434270  -12.186350   -1.678050
  C     -6.096860  -12.834550   -0.332610
  C     -7.834980  -13.925020   -2.962060
  C     -6.644510  -14.670590   -3.484940
  C     -6.180630  -14.056140   -4.807910
  N     -9.006940  -14.406850   -3.279810
  C    -11.530600  -15.567910   -3.920970
  C    -10.718980  -16.632950   -3.590300
  C    -10.830090  -17.872450   -4.231720
  C    -11.756720  -18.074990   -5.217840
  C    -12.606820  -17.018050   -5.590300
  C    -12.500240  -15.755240   -4.944430
  N    -13.306030  -14.750920   -5.328940
  C    -14.193230  -14.943190   -6.268180
  C    -15.085720  -13.780110   -6.582260
  C    -16.344480  -13.832360   -5.711970
  C    -14.312080  -16.217060   -6.901550
  C    -15.277360  -16.492210   -8.015200
  C    -14.645070  -16.133440   -9.362460
  N    -13.525000  -17.200500   -6.557160
  H     -9.308390    3.826690    9.215770
  H    -13.670210    2.341430    7.337520
  H     -8.353070   -0.986930    6.601080
  H     -9.551100   -5.231890    3.034400
  H    -12.296840   -4.156160    2.200880
  H    -12.970580   -9.738310   -1.436740
  H     -9.986360  -10.289020   -0.969120
  H    -13.316190  -11.747960   -2.046960
  H    -13.497610  -13.907640   -3.143810
  H     -6.548120  -11.110510   -1.539030
  H     -5.628060  -12.366140   -2.388620
  H     -5.159440  -12.438200    0.048930
  H     -6.001340  -13.913820   -0.432680
  H     -6.882060  -12.626160    0.389790
  H     -6.943220  -15.704900   -3.660190
  H     -5.829740  -14.655070   -2.761290
  H     -5.907650  -13.011020   -4.679340
  H     -6.979330  -14.113150   -5.543040
  H     -5.317540  -14.596370   -5.188800
  H     -9.988590  -16.512110   -2.806500
  H    -10.174280  -18.676510   -3.932350
  H    -11.864670  -19.022620   -5.721310
  H    -15.362840  -13.777210   -7.635930
  H    -14.537250  -12.864180   -6.358120
  H    -16.073400  -13.791540   -4.659950
  H    -16.903190  -14.749710   -5.886200
  H    -16.988910  -12.986250   -5.936340
  H    -16.200370  -15.930160   -7.875180
  H    -15.507780  -17.558240   -8.005370
  H    -14.377960  -15.079360   -9.401550
  H    -15.341720  -16.344800  -10.169790
  H    -13.743640  -16.721100   -9.517170

 Total Charge           Charge          ....    0
 Multiplicity           Mult            ....    1
 Number of Electrons    NEL             ....  556
 Basis Dimension        Dim             .... 1198

ORBITAL ENERGIES
----------------

  NO   OCC          E(Eh)            E(eV)
   0   2.0000    -482.879133    -13139.8092
   1   2.0000    -482.877493    -13139.7646
   2   2.0000     -88.986225     -2421.4383
   3   2.0000     -88.954911     -2420.5862
   4   2.0000     -62.556739     -1702.2554
   5   2.0000     -62.555122     -1702.2114
   6   2.0000     -56.390689     -1534.4687
   7   2.0000     -56.389089     -1534.4251
   8   2.0000     -56.388041     -1534.3966
   9   2.0000     -56.387935     -1534.3937
  10   2.0000     -56.386408     -1534.3522
  11   2.0000     -56.386316     -1534.3497
  12   2.0000     -19.296601      -525.0872
  13   2.0000     -19.247314      -523.7460
  14   2.0000     -19.245077      -523.6852
  15   2.0000     -19.244888      -523.6800
  16   2.0000     -19.244860      -523.6793
  17   2.0000     -19.222834      -523.0799
  18   2.0000     -14.452131      -393.2625
  19   2.0000     -14.448078      -393.1522
  20   2.0000     -14.430436      -392.6721
  21   2.0000     -14.426309      -392.5598
  22   2.0000     -14.414998      -392.2520
  23   2.0000     -14.412570      -392.1860
  24   2.0000     -14.406680      -392.0257
  25   2.0000     -14.405934      -392.0054
  26   2.0000     -10.438304      -284.0407
  27   2.0000     -10.438043      -284.0336
  28   2.0000     -10.412228      -283.3311
  29   2.0000     -10.409420      -283.2547
  30   2.0000     -10.375632      -282.3353
  31   2.0000     -10.359043      -281.8839
  32   2.0000     -10.357143      -281.8322
  33   2.0000     -10.356755      -281.8216
  34   2.0000     -10.356383      -281.8115
  35   2.0000     -10.356178      -281.8059
  36   2.0000     -10.354195      -281.7520
  37   2.0000     -10.340287      -281.3735
  38   2.0000     -10.340111      -281.3687
  39   2.0000     -10.337755      -281.3046
  40   2.0000     -10.334507      -281.2162
  41   2.0000     -10.333610      -281.1918
  42   2.0000     -10.332583      -281.1639
  43   2.0000     -10.332145      -281.1520
  44   2.0000     -10.329178      -281.0712
  45   2.0000     -10.328158      -281.0435
  46   2.0000     -10.322411      -280.8871
  47   2.0000     -10.319262      -280.8014
  48   2.0000     -10.317648      -280.7575
  49   2.0000     -10.316591      -280.7287
  50   2.0000     -10.315243      -280.6920
  51   2.0000     -10.313702      -280.6501
  52   2.0000     -10.311394      -280.5873
  53   2.0000     -10.310328      -280.5583
  54   2.0000     -10.309455      -280.5345
  55   2.0000     -10.309240      -280.5287
  56   2.0000     -10.308903      -280.5195
  57   2.0000     -10.306734      -280.4605
  58   2.0000     -10.304514      -280.4001
  59   2.0000     -10.303691      -280.3777
  60   2.0000     -10.300230      -280.2835
  61   2.0000     -10.289578      -279.9937
  62   2.0000     -10.285246      -279.8758
  63   2.0000     -10.283614      -279.8314
  64   2.0000     -10.281316      -279.7688
  65   2.0000     -10.280240      -279.7396
  66   2.0000     -10.278249      -279.6854
  67   2.0000     -10.273188      -279.5476
  68   2.0000     -10.272028      -279.5161
  69   2.0000     -10.271474      -279.5010
  70   2.0000     -10.271322      -279.4969
  71   2.0000     -10.270397      -279.4717
  72   2.0000     -10.268300      -279.4146
  73   2.0000     -10.267484      -279.3924
  74   2.0000     -10.266085      -279.3544
  75   2.0000     -10.265313      -279.3334
  76   2.0000     -10.262807      -279.2652
  77   2.0000     -10.261373      -279.2262
  78   2.0000     -10.258878      -279.1582
  79   2.0000      -8.786063      -239.0809
  80   2.0000      -8.784457      -239.0372
  81   2.0000      -8.082527      -219.9368
  82   2.0000      -8.054309      -219.1689
  83   2.0000      -6.622197      -180.1991
  84   2.0000      -6.620654      -180.1572
  85   2.0000      -6.608206      -179.8184
  86   2.0000      -6.607374      -179.7958
  87   2.0000      -6.606529      -179.7728
  88   2.0000      -6.605776      -179.7523
  89   2.0000      -6.050965      -164.6551
  90   2.0000      -6.047774      -164.5683
  91   2.0000      -6.045157      -164.4971
  92   2.0000      -6.023124      -163.8975
  93   2.0000      -6.019916      -163.8102
  94   2.0000      -6.015364      -163.6864
  95   2.0000      -2.738112       -74.5078
  96   2.0000      -2.736515       -74.4643
  97   2.0000      -2.734378       -74.4062
  98   2.0000      -2.733688       -74.3874
  99   2.0000      -2.732783       -74.3628
 100   2.0000      -2.732146       -74.3455
 101   2.0000      -2.722574       -74.0850
 102   2.0000      -2.722566       -74.0848
 103   2.0000      -2.720935       -74.0404
 104   2.0000      -2.720917       -74.0399
 105   2.0000      -1.245812       -33.9003
 106   2.0000      -1.172596       -31.9080
 107   2.0000      -1.171478       -31.8775
 108   2.0000      -1.167588       -31.7717
 109   2.0000      -1.158494       -31.5242
 110   2.0000      -1.140413       -31.0322
 111   2.0000      -1.133745       -30.8508
 112   2.0000      -1.076577       -29.2951
 113   2.0000      -1.068509       -29.0756
 114   2.0000      -1.032998       -28.1093
 115   2.0000      -1.022048       -27.8113
 116   2.0000      -1.016024       -27.6474
 117   2.0000      -1.006265       -27.3819
 118   2.0000      -1.000106       -27.2143
 119   2.0000      -0.991719       -26.9860
 120   2.0000      -0.984729       -26.7958
 121   2.0000      -0.961924       -26.1753
 122   2.0000      -0.960921       -26.1480
 123   2.0000      -0.956538       -26.0287
 124   2.0000      -0.944874       -25.7113
 125   2.0000      -0.941550       -25.6209
 126   2.0000      -0.930624       -25.3236
 127   2.0000      -0.926317       -25.2064
 128   2.0000      -0.915396       -24.9092
 129   2.0000      -0.902572       -24.5602
 130   2.0000      -0.896299       -24.3895
 131   2.0000      -0.893378       -24.3101
 132   2.0000      -0.888506       -24.1775
 133   2.0000      -0.883194       -24.0329
 134   2.0000      -0.867952       -23.6182
 135   2.0000      -0.860236       -23.4082
 136   2.0000      -0.858064       -23.3491
 137   2.0000      -0.856079       -23.2951
 138   2.0000      -0.849547       -23.1173
 139   2.0000      -0.838756       -22.8237
 140   2.0000      -0.825126       -22.4528
 141   2.0000      -0.816961       -22.2306
 142   2.0000      -0.810083       -22.0435
 143   2.0000      -0.805069       -21.9070
 144   2.0000      -0.791661       -21.5422
 145   2.0000      -0.784949       -21.3595
 146   2.0000      -0.773047       -21.0357
 147   2.0000      -0.771000       -20.9800
 148   2.0000      -0.755354       -20.5542
 149   2.0000      -0.750133       -20.4121
 150   2.0000      -0.748029       -20.3549
 151   2.0000      -0.745660       -20.2904
 152   2.0000      -0.740437       -20.1483
 153   2.0000      -0.734144       -19.9771
 154   2.0000      -0.725602       -19.7446
 155   2.0000      -0.707566       -19.2538
 156   2.0000      -0.700043       -19.0491
 157   2.0000      -0.696926       -18.9643
 158   2.0000      -0.694034       -18.8856
 159   2.0000      -0.690922       -18.8009
 160   2.0000      -0.689394       -18.7594
 161   2.0000      -0.684576       -18.6283
 162   2.0000      -0.682340       -18.5674
 163   2.0000      -0.680474       -18.5166
 164   2.0000      -0.664902       -18.0929
 165   2.0000      -0.658340       -17.9143
 166   2.0000      -0.644177       -17.5290
 167   2.0000      -0.642081       -17.4719
 168   2.0000      -0.637451       -17.3459
 169   2.0000      -0.632249       -17.2044
 170   2.0000      -0.626537       -17.0489
 171   2.0000      -0.623016       -16.9531
 172   2.0000      -0.611491       -16.6395
 173   2.0000      -0.610026       -16.5996
 174   2.0000      -0.607874       -16.5411
 175   2.0000      -0.604167       -16.4402
 176   2.0000      -0.599926       -16.3248
 177   2.0000      -0.595083       -16.1930
 178   2.0000      -0.587870       -15.9967
 179   2.0000      -0.583489       -15.8775
 180   2.0000      -0.580544       -15.7974
 181   2.0000      -0.566392       -15.4123
 182   2.0000      -0.563849       -15.3431
 183   2.0000      -0.562539       -15.3075
 184   2.0000      -0.560392       -15.2491
 185   2.0000      -0.557071       -15.1587
 186   2.0000      -0.555548       -15.1172
 187   2.0000      -0.553970       -15.0743
 188   2.0000      -0.550759       -14.9869
 189   2.0000      -0.548258       -14.9189
 190   2.0000      -0.546815       -14.8796
 191   2.0000      -0.544942       -14.8286
 192   2.0000      -0.542911       -14.7734
 193   2.0000      -0.541871       -14.7451
 194   2.0000      -0.538051       -14.6411
 195   2.0000      -0.537062       -14.6142
 196   2.0000      -0.533135       -14.5073
 197   2.0000      -0.527607       -14.3569
 198   2.0000      -0.526054       -14.3146
 199   2.0000      -0.524683       -14.2774
 200   2.0000      -0.519825       -14.1452
 201   2.0000      -0.518975       -14.1220
 202   2.0000      -0.518210       -14.1012
 203   2.0000      -0.516730       -14.0609
 204   2.0000      -0.514275       -13.9941
 205   2.0000      -0.512851       -13.9554
 206   2.0000      -0.511623       -13.9220
 207   2.0000      -0.511500       -13.9186
 208   2.0000      -0.511086       -13.9073
 209   2.0000      -0.509108       -13.8535
 210   2.0000      -0.506978       -13.7956
 211   2.0000      -0.503783       -13.7086
 212   2.0000      -0.502235       -13.6665
 213   2.0000      -0.499312       -13.5870
 214   2.0000      -0.498276       -13.5588
 215   2.0000      -0.493222       -13.4212
 216   2.0000      -0.490227       -13.3398
 217   2.0000      -0.479925       -13.0594
 218   2.0000      -0.478775       -13.0281
 219   2.0000      -0.474315       -12.9068
 220   2.0000      -0.470253       -12.7962
 221   2.0000      -0.466569       -12.6960
 222   2.0000      -0.466413       -12.6917
 223   2.0000      -0.465054       -12.6548
 224   2.0000      -0.463761       -12.6196
 225   2.0000      -0.461704       -12.5636
 226   2.0000      -0.460569       -12.5327
 227   2.0000      -0.457433       -12.4474
 228   2.0000      -0.454182       -12.3589
 229   2.0000      -0.449753       -12.2384
 230   2.0000      -0.446936       -12.1617
 231   2.0000      -0.444477       -12.0948
 232   2.0000      -0.442520       -12.0416
 233   2.0000      -0.441588       -12.0162
 234   2.0000      -0.439575       -11.9614
 235   2.0000      -0.437781       -11.9126
 236   2.0000      -0.434332       -11.8188
 237   2.0000      -0.433487       -11.7958
 238   2.0000      -0.431948       -11.7539
 239   2.0000      -0.428995       -11.6736
 240   2.0000      -0.426540       -11.6067
 241   2.0000      -0.422824       -11.5056
 242   2.0000      -0.421327       -11.4649
 243   2.0000      -0.420620       -11.4457
 244   2.0000      -0.419214       -11.4074
 245   2.0000      -0.419076       -11.4036
 246   2.0000      -0.417812       -11.3692
 247   2.0000      -0.411984       -11.2106
 248   2.0000      -0.409689       -11.1482
 249   2.0000      -0.405242       -11.0272
 250   2.0000      -0.404394       -11.0041
 251   2.0000      -0.401131       -10.9153
 252   2.0000      -0.398974       -10.8566
 253   2.0000      -0.396663       -10.7937
 254   2.0000      -0.394011       -10.7216
 255   2.0000      -0.392047       -10.6681
 256   2.0000      -0.381345       -10.3769
 257   2.0000      -0.379757       -10.3337
 258   2.0000      -0.377019       -10.2592
 259   2.0000      -0.375202       -10.2098
 260   2.0000      -0.370206       -10.0738
 261   2.0000      -0.365676        -9.9506
 262   2.0000      -0.355706        -9.6792
 263   2.0000      -0.352970        -9.6048
 264   2.0000      -0.351384        -9.5616
 265   2.0000      -0.350465        -9.5366
 266   2.0000      -0.345137        -9.3916
 267   2.0000      -0.342186        -9.3114
 268   2.0000      -0.333766        -9.0822
 269   2.0000      -0.322323        -8.7709
 270   2.0000      -0.318132        -8.6568
 271   2.0000      -0.316351        -8.6083
 272   2.0000      -0.314525        -8.5587
 273   2.0000      -0.309819        -8.4306
 274   2.0000      -0.304394        -8.2830
 275   2.0000      -0.300933        -8.1888
 276   2.0000      -0.294636        -8.0175
 277   2.0000      -0.263160        -7.1610
 278   0.0000      -0.110126        -2.9967
 279   0.0000      -0.101102        -2.7511
 280   0.0000      -0.082566        -2.2467
 281   0.0000      -0.069494        -1.8910
 282   0.0000      -0.051150        -1.3919

MULLIKEN ATOMIC CHARGES
-----------------------
   0 C :    0.142344
   1 O :   -0.082226
   2 C :   -0.019215
   3 C :    0.038223
   4 C :   -0.009869
   5 C :   -0.023540
   6 C :   -0.012282
   7 C :   -0.020171
   8 Br:    0.020480
   9 Br:    0.023919
  10 C :    0.305016
  11 C :   -0.340257
  12 C :   -0.185438
  13 N :    0.164024
  14 C :   -0.180651
  15 N :    0.160198
  16 C :   -0.062735
  17 C :    0.060629
  18 C :   -0.149034
  19 S :    0.128198
  20 C :   -0.112179
  21 N :   -0.040342
  22 N :    0.014955
  23 C :    0.131961
  24 C :   -0.029251
  25 C :    0.012906
  26 C :    0.032558
  27 C :    0.028478
  28 O :   -0.124432
  29 S :    0.019152
  30 C :    0.021492
  31 O :   -0.107622
  32 C :    0.015687
  33 C :    0.060336
  34 C :   -0.073686
  35 C :   -0.058125
  36 C :    0.239354
  37 O :   -0.095434
  38 O :   -0.232794
  39 C :    0.237234
  40 O :   -0.108394
  41 C :   -0.049982
  42 C :    0.068930
  43 C :    0.053005
  44 C :   -0.049490
  45 C :    0.016486
  46 C :    0.059230
  47 C :   -0.041367
  48 C :   -0.029900
  49 N :    0.001674
  50 C :   -0.145764
  51 C :    0.101709
  52 C :    0.006924
  53 C :   -0.148575
  54 C :    0.103090
  55 C :    0.004036
  56 N :    0.009586
  57 C :    0.046656
  58 C :    0.005699
  59 C :    0.031760
  60 C :    0.006602
  61 C :   -0.031043
  62 C :   -0.031485
  63 N :    0.001621
  64 C :   -0.149741
  65 C :    0.110943
  66 C :    0.004878
  67 C :   -0.159709
  68 C :    0.108020
  69 C :    0.008053
  70 N :    0.007791
  71 H :    0.008933
  72 H :    0.011366
  73 H :    0.013516
  74 H :   -0.001830
  75 H :    0.056599
  76 H :    0.018596
  77 H :   -0.001019
  78 H :   -0.012683
  79 H :   -0.022049
  80 H :    0.016395
  81 H :    0.003584
  82 H :    0.022980
  83 H :    0.011742
  84 H :    0.020118
  85 H :    0.011693
  86 H :    0.002647
  87 H :    0.013118
  88 H :    0.026817
  89 H :    0.022913
  90 H :   -0.020473
  91 H :   -0.013662
  92 H :   -0.031559
  93 H :    0.000307
  94 H :    0.013589
  95 H :    0.020381
  96 H :    0.011720
  97 H :    0.022825
  98 H :   -0.001786
  99 H :    0.013051
 100 H :    0.009475
 101 H :    0.021107
 102 H :    0.022482
Sum of atomic charges:   -0.0000000

LOEWDIN ATOMIC CHARGES
----------------------
   0 C :    0.075168
   1 O :   -0.089204
   2 C :   -0.038638
   3 C :   -0.015646
   4 C :   -0.006254
   5 C :   -0.119181
   6 C :   -0.119683
   7 C :    0.007970
   8 Br:    0.143156
   9 Br:    0.143183
  10 C :    0.073545
  11 C :   -0.125492
  12 C :   -0.019127
  13 N :   -0.037674
  14 C :   -0.020934
  15 N :   -0.039736
  16 C :   -0.059130
  17 C :    0.031962
  18 C :   -0.162842
  19 S :    0.416278
  20 C :   -0.133249
  21 N :   -0.064458
  22 N :   -0.022094
  23 C :   -0.020791
  24 C :    0.017025
  25 C :    0.013705
  26 C :   -0.048604
  27 C :   -0.048456
  28 O :   -0.113012
  29 S :    0.304963
  30 C :   -0.045382
  31 O :   -0.100012
  32 C :   -0.058997
  33 C :    0.042311
  34 C :   -0.049712
  35 C :   -0.038675
  36 C :    0.108116
  37 O :   -0.089251
  38 O :   -0.056090
  39 C :    0.110221
  40 O :   -0.102155
  41 C :   -0.052712
  42 C :    0.052702
  43 C :   -0.038578
  44 C :    0.004394
  45 C :    0.002440
  46 C :   -0.000779
  47 C :   -0.008423
  48 C :   -0.001473
  49 N :   -0.043403
  50 C :    0.005798
  51 C :   -0.036972
  52 C :   -0.046993
  53 C :    0.001576
  54 C :   -0.037440
  55 C :   -0.046750
  56 N :   -0.038392
  57 C :   -0.020894
  58 C :    0.005224
  59 C :   -0.022764
  60 C :   -0.013094
  61 C :   -0.017630
  62 C :   -0.006673
  63 N :   -0.044341
  64 C :    0.002020
  65 C :   -0.037082
  66 C :   -0.046799
  67 C :   -0.001994
  68 C :   -0.037359
  69 C :   -0.046959
  70 N :   -0.046315
  71 H :    0.044622
  72 H :    0.048173
  73 H :    0.045663
  74 H :    0.031787
  75 H :    0.049252
  76 H :    0.031963
  77 H :    0.027045
  78 H :    0.034027
  79 H :    0.029930
  80 H :    0.036050
  81 H :    0.025548
  82 H :    0.027257
  83 H :    0.021252
  84 H :    0.027086
  85 H :    0.035106
  86 H :    0.024397
  87 H :    0.021478
  88 H :    0.029963
  89 H :    0.027157
  90 H :    0.027794
  91 H :    0.029841
  92 H :    0.032167
  93 H :    0.024290
  94 H :    0.035753
  95 H :    0.026216
  96 H :    0.021418
  97 H :    0.027336
  98 H :    0.023318
  99 H :    0.035641
 100 H :    0.020334
 101 H :    0.026285
 102 H :    0.028394

  Mayer bond orders larger than 0.100000
B(  0-C ,  1-O ) :   2.3107 B(  0-C ,  2-C ) :   0.9242 B(  0-C , 16-C ) :   0.9041
B(  2-C ,  3-C ) :   1.3288 B(  2-C ,  7-C ) :   1.3743 B(  3-C ,  4-C ) :   1.3535
B(  3-C , 10-C ) :   0.9989 B(  4-C ,  5-C ) :   1.3836 B(  4-C , 71-H ) :   0.9781
B(  5-C ,  6-C ) :   1.4105 B(  5-C ,  9-Br) :   1.0578 B(  6-C ,  7-C ) :   1.3565
B(  6-C ,  8-Br) :   1.0385 B(  7-C , 72-H ) :   1.0073 B( 10-C , 11-C ) :   1.6507
B( 10-C , 16-C ) :   1.0608 B( 11-C , 12-C ) :   1.1390 B( 11-C , 14-C ) :   1.1390
B( 12-C , 13-N ) :   2.9731 B( 14-C , 15-N ) :   2.9647 B( 16-C , 17-C ) :   1.6995
B( 17-C , 18-C ) :   1.1294 B( 17-C , 73-H ) :   0.9109 B( 18-C , 19-S ) :   1.0875
B( 18-C , 22-N ) :   1.6402 B( 19-S , 20-C ) :   1.1291 B( 19-S , 22-N ) :   0.1092
B( 20-C , 21-N ) :   1.6352 B( 20-C , 23-C ) :   1.1199 B( 21-N , 22-N ) :   1.2699
B( 23-C , 24-C ) :   1.7698 B( 23-C , 74-H ) :   0.9374 B( 24-C , 25-C ) :   1.0617
B( 24-C , 75-H ) :   0.9442 B( 25-C , 26-C ) :   1.3603 B( 25-C , 35-C ) :   1.3530
B( 26-C , 27-C ) :   0.8414 B( 26-C , 32-C ) :   1.3260 B( 27-C , 28-O ) :   2.1778
B( 27-C , 29-S ) :   1.0388 B( 28-O , 29-S ) :   0.1077 B( 29-S , 30-C ) :   1.0152
B( 29-S , 31-O ) :   0.1035 B( 30-C , 31-O ) :   2.2016 B( 30-C , 32-C ) :   0.8473
B( 32-C , 33-C ) :   1.3198 B( 33-C , 34-C ) :   1.3137 B( 33-C , 41-C ) :   1.1358
B( 34-C , 35-C ) :   1.3531 B( 34-C , 39-C ) :   0.9174 B( 35-C , 36-C ) :   0.9066
B( 36-C , 37-O ) :   2.2488 B( 36-C , 38-O ) :   1.0514 B( 38-O , 39-C ) :   1.0589
B( 39-C , 40-O ) :   2.2272 B( 41-C , 42-C ) :   1.6555 B( 41-C , 76-H ) :   0.9405
B( 42-C , 43-C ) :   1.1412 B( 42-C , 77-H ) :   0.9571 B( 43-C , 44-C ) :   1.3853
B( 43-C , 46-C ) :   0.1159 B( 43-C , 48-C ) :   1.1961 B( 44-C , 45-C ) :   1.2639
B( 44-C , 78-H ) :   0.9990 B( 45-C , 46-C ) :   1.4525 B( 45-C , 79-H ) :   0.9891
B( 46-C , 47-C ) :   1.2503 B( 46-C , 57-C ) :   0.9572 B( 47-C , 48-C ) :   1.2543
B( 47-C , 56-N ) :   1.4390 B( 48-C , 49-N ) :   1.4521 B( 49-N , 50-C ) :   1.6795
B( 50-C , 51-C ) :   1.0588 B( 50-C , 53-C ) :   1.1754 B( 51-C , 52-C ) :   1.1078
B( 51-C , 80-H ) :   0.9148 B( 51-C , 81-H ) :   0.9180 B( 52-C , 82-H ) :   0.9699
B( 52-C , 83-H ) :   0.9703 B( 52-C , 84-H ) :   0.9643 B( 53-C , 54-C ) :   1.0592
B( 53-C , 56-N ) :   1.6792 B( 54-C , 55-C ) :   1.1092 B( 54-C , 85-H ) :   0.9139
B( 54-C , 86-H ) :   0.9189 B( 55-C , 87-H ) :   0.9708 B( 55-C , 88-H ) :   0.9639
B( 55-C , 89-H ) :   0.9695 B( 57-C , 58-C ) :   1.4956 B( 57-C , 60-C ) :   0.1079
B( 57-C , 62-C ) :   1.2364 B( 58-C , 59-C ) :   1.2395 B( 58-C , 90-H ) :   0.9905
B( 59-C , 60-C ) :   1.4288 B( 59-C , 91-H ) :   0.9892 B( 60-C , 61-C ) :   1.2573
B( 60-C , 92-H ) :   1.0098 B( 61-C , 62-C ) :   1.2559 B( 61-C , 70-N ) :   1.4050
B( 62-C , 63-N ) :   1.4341 B( 63-N , 64-C ) :   1.6845 B( 64-C , 65-C ) :   1.0572
B( 64-C , 67-C ) :   1.1817 B( 65-C , 66-C ) :   1.1043 B( 65-C , 93-H ) :   0.9178
B( 65-C , 94-H ) :   0.9149 B( 66-C , 95-H ) :   0.9665 B( 66-C , 96-H ) :   0.9698
B( 66-C , 97-H ) :   0.9691 B( 67-C , 68-C ) :   1.0586 B( 67-C , 70-N ) :   1.6926
B( 68-C , 69-C ) :   1.1093 B( 68-C , 98-H ) :   0.9180 B( 68-C , 99-H ) :   0.9135
B( 69-C ,100-H ) :   0.9699 B( 69-C ,101-H ) :   0.9699 B( 69-C ,102-H ) :   0.9642

-----------------------------------------------------------------------------
         ABSORPTION SPECTRUM VIA TRANSITION ELECTRIC DIPOLE MOMENTS
-----------------------------------------------------------------------------
State   Energy  Wavelength   fosc         T2         TX        TY        TZ
        (cm-1)    (nm)                  (au**2)     (au)      (au)      (au)
-----------------------------------------------------------------------------
   0   18263.0    547.6   0.035460463   0.63922  -0.66579  -0.40213   0.18503
   1   21293.7    469.6   1.382458382  21.37356   0.48591   3.72740   2.69145
   2   21860.7    457.4   0.368354586   5.54725  -0.06924   1.93598   1.33956
   3   24656.1    405.6   0.003401833   0.04542  -0.05508  -0.08060   0.18945
   4   25021.8    399.7   0.059382965   0.78130  -0.64974   0.39478  -0.45088
   5   27046.4    369.7   0.136948303   1.66695  -0.10976   1.10364   0.66097
   6   27424.5    364.6   0.306298444   3.67690  -0.71449  -1.21933  -1.29601
   7   28240.8    354.1   0.213770993   2.49200   0.99832  -1.15495  -0.40182
   8   28633.5    349.2   0.034089551   0.39194  -0.49860  -0.37237   0.06847
   9   28810.1    347.1   0.001865929   0.02132   0.07964  -0.02795  -0.11916
  10   29153.9    343.0   0.012713070   0.14356   0.26880  -0.22874  -0.13779
  11   29959.1    333.8   0.048002278   0.52748   0.02860  -0.51843  -0.50784
  12   30613.8    326.7   0.004380374   0.04711  -0.08064  -0.15735  -0.12587
  13   30769.0    325.0   0.040392322   0.43218   0.59109   0.26671  -0.10798
  14   31129.8    321.2   0.018336736   0.19392  -0.44020   0.01207   0.00118
  15   31650.0    316.0   0.012799771   0.13314   0.10848  -0.28575  -0.19929
  16   31772.5    314.7   0.050949966   0.52792  -0.02851  -0.51688  -0.50984
  17   31943.9    313.0   0.014988809   0.15447   0.11465  -0.31217  -0.20948
  18   32292.7    309.7   0.144837372   1.47656  -0.54128   0.96491   0.50251
  19   32455.2    308.1   0.001508584   0.01530  -0.03679   0.02005  -0.11639
  20   32631.4    306.5   0.019994845   0.20172   0.34385   0.23073   0.17393
  21   32810.4    304.8   0.016038053   0.16092   0.25912  -0.22323   0.20964
  22   32880.6    304.1   0.089857578   0.89968  -0.91808   0.05659  -0.23154
  23   33339.3    299.9   0.026976890   0.26639   0.49042   0.15266   0.05067
  24   33543.4    298.1   0.010629266   0.10432   0.18098   0.16166   0.21315
  25   33625.8    297.4   0.158642741   1.55319   0.32051  -1.06399  -0.56425
  26   34006.6    294.1   0.005731149   0.05548   0.10399   0.17640   0.11640
  27   34122.1    293.1   0.004999317   0.04823   0.20046   0.08970   0.00153
  28   34369.6    291.0   0.016502209   0.15807   0.28071   0.06678   0.27352
  29   34716.2    288.1   0.019243673   0.18249   0.09418  -0.37615   0.17925
  30   35150.6    284.5   0.005795936   0.05428  -0.09221   0.13892  -0.16274
  31   35334.0    283.0   0.092514016   0.86197  -0.79998   0.46190   0.09300
  32   35424.8    282.3   0.113474790   1.05455  -0.93087   0.41931  -0.11049
  33   35615.9    280.8   0.293341275   2.71147   1.57317  -0.39616   0.28223
  34   36045.7    277.4   0.054602574   0.49870  -0.35277  -0.47760  -0.38229
  35   36098.0    277.0   0.104353089   0.95170   0.66032   0.45781   0.55325
  36   36212.6    276.1   0.005343289   0.04858   0.17940   0.06799   0.10848
  37   36619.7    273.1   0.017399269   0.15642  -0.31090  -0.10497  -0.22078
  38   36701.6    272.5   0.007135606   0.06401  -0.01485   0.21687   0.12943
  39   36867.9    271.2   0.008064946   0.07202   0.23489   0.10776   0.07232
  40   37194.6    268.9   0.029185041   0.25832  -0.42371   0.21462  -0.18090
  41   37525.1    266.5   0.014323224   0.12566   0.04556  -0.26025  -0.23633
  42   37898.5    263.9   0.051020707   0.44320  -0.64878   0.05697  -0.13796
  43   38213.5    261.7   0.009214754   0.07939  -0.01197   0.06213  -0.27456
  44   38474.6    259.9   0.005958643   0.05099  -0.10479   0.09630   0.17531
  45   39010.7    256.3   0.122140434   1.03074   0.62522   0.77866   0.18310
  46   39087.3    255.8   0.068379494   0.57592  -0.29631   0.66124   0.22557
  47   39139.7    255.5   0.064669314   0.54395   0.43985  -0.15527  -0.57129
  48   39259.0    254.7   0.026706179   0.22395   0.02284  -0.31596  -0.35156
  49   39637.1    252.3   0.049432114   0.41057  -0.52906  -0.06293  -0.35595
  50   39803.9    251.2   0.003420271   0.02829   0.13683  -0.08922   0.04006
  51   40212.3    248.7   0.003188830   0.02611   0.00617  -0.13839  -0.08317

FINAL SINGLE POINT ENERGY     -8868.673499333372

DIPOLE MOMENT
-------------
                                X             Y             Z
Electronic contribution:    -32.71474     396.75354     277.20547
Nuclear contribution   :     33.01790    -399.07625    -278.96441
                        -----------------------------------------
Total Dipole Moment    :      0.30315      -2.32271      -1.75894
                        -----------------------------------------
Magnitude (a.u.)       :      2.92929
Magnitude (Debye)      :      7.44566

Rotational constants in cm-1:     0.002081     0.000173     0.000163
Rotational constants in MHz :    62.400759     5.180979     4.875875

                             ****ORCA TERMINATED NORMALLY****
TOTAL RUN TIME: 0 days 0 hours 9 minutes 53 seconds 186 msec
