                         Program Version 4.2.0 -  RELEASE  -
|  1> # ORCA input file
|  2> # SCF done       -184.095543102134          0.000515572712
|  3> ! CAM-B3LYP def2-SVP def2/J RIJCOSX Grid4 TightSCF
|  4> %maxcore 5000
|  5> %tddft
|  6>     Mode sTDDFT
|  7>     Ethresh 5.0
|  8>     maxcore 5000
|  9> end
| 10>
| 11> %pal
| 12>   nprocs 6
| 13>   end
| 14> * xyz 0 1
| 15>    C        2.28879        -5.83981        -4.37898
| 16>    C        1.15480        -6.28006        -4.99175
| 17>    S        0.97540        -5.58658        -6.55876
| 18>    C        2.46728        -4.69465        -6.40206
| 19>   Cl        3.01183        -3.68952        -7.64723
| 20>    C        3.04398        -4.92525        -5.18646
| 21>    C        4.22655        -4.48204        -4.44675
| 22>    O        5.17786        -3.84658        -4.83323
| 23>    C        4.05325        -5.05815        -3.07434
| 24>    C        2.95222        -6.01968        -3.10248
| 25>    C        2.55827        -6.86985        -2.11229
| 26>    C        1.38945        -7.64937        -2.24809
| 27>    N        0.42298        -8.25916        -2.34457
| 28>    C        3.23998        -7.06833        -0.89161
| 29>    N        3.75952        -7.29347         0.10480
| 30>    C        4.72274        -4.61174        -1.99467
| 31>    C        5.48526        -3.37392        -1.98152
| 32>    C        6.74465        -3.26403        -1.44712
| 33>    C        7.56168        -4.40122        -0.93174
| 34>    F        7.49640        -5.47411        -1.73477
| 35>    F        8.85551        -4.07948        -0.81330
| 36>    F        7.15449        -4.81078         0.27986
| 37>    S        7.35545        -1.66067        -1.42310
| 38>    C        5.88312        -1.08720        -2.13978
| 39>    C        5.70104         0.29633        -2.24972
| 40>    N        5.57713         1.43644        -2.28370
| 41>    C        4.98453        -2.09855        -2.41640
| 42>    C        3.67742        -1.98693        -3.03741
| 43>    N        3.39769        -1.39273        -4.24231
| 44>    C        4.19379        -0.44711        -4.99625
| 45>    C        5.31056        -1.08575        -5.81255
| 46>    C        2.11982        -1.77805        -4.71010
| 47>    O        1.69742        -1.50460        -5.81607
| 48>    C        1.55809        -2.55352        -3.63548
| 49>    C        2.54312        -2.65973        -2.61763
| 50>    C        1.99513        -3.49373        -1.57070
| 51>    O        2.46201        -3.88393        -0.52127
| 52>    N        0.71602        -3.85937        -2.03915
| 53>    C       -0.16588        -4.64631        -1.21004
| 54>    C       -1.30436        -3.80753        -0.63802
| 55>    C        0.46167        -3.32801        -3.28256
| 56>    C       -0.59096        -3.60624        -4.19833
| 57>    C       -1.66676        -4.41251        -4.11948
| 58>    C       -2.44222        -4.65996        -5.32326
| 59>    N       -3.63395        -5.24425        -5.19776
| 60>    C       -4.30366        -5.47585        -6.31301
| 61>    C       -3.80424        -5.15568        -7.56689
| 62>    C       -2.53513        -4.56209        -7.60399
| 63>    N       -1.87431        -4.32318        -6.47450
| 64>    C       -1.86897        -4.20986        -8.84080
| 65>    C       -0.72970        -3.49029        -8.84764
| 66>    C        0.00866        -3.18347       -10.02492
| 67>    C        1.02678        -2.29513       -10.13405
| 68>    C        1.97244        -2.40183       -11.29428
| 69>    O        1.79585        -3.03743       -12.30458
| 70>    C        3.14422        -1.62623       -10.87605
| 71>    C        4.40058        -1.37783       -11.34480
| 72>    S        5.26986        -0.33632       -10.24435
| 73>    C        3.92130        -0.23909        -9.16944
| 74>    C        2.87265        -0.97030        -9.62924
| 75>    C        1.51206        -1.27132        -9.21966
| 76>    C        0.80572        -0.55908        -8.29275
| 77>    C        1.41970         0.48927        -7.57227
| 78>    N        1.92231         1.35302        -7.00933
| 79>    C       -0.57083        -0.69995        -8.02463
| 80>    N       -1.69610        -0.73685        -7.80329
| 81>   Cl        5.11433        -1.94598       -12.77216
| 82>    H        0.41194        -6.96425        -4.63243
| 83>    H        4.62182        -5.10411        -1.03570
| 84>    H        4.60254         0.29562        -4.31030
| 85>    H        3.48760         0.05700        -5.66376
| 86>    H        5.98410        -1.65593        -5.17946
| 87>    H        5.87666        -0.30563        -6.31436
| 88>    H        4.90116        -1.76061        -6.55876
| 89>    H        0.45474        -5.02655        -0.39242
| 90>    H       -0.54669        -5.49605        -1.78310
| 91>    H       -0.90287        -3.01465        -0.01163
| 92>    H       -1.94999        -4.43562        -0.03111
| 93>    H       -1.89554        -3.35644        -1.43135
| 94>    H       -0.43554        -3.11633        -5.15305
| 95>    H       -2.00898        -4.91457        -3.23025
| 96>    H       -5.27269        -5.94234        -6.19044
| 97>    H       -4.36077        -5.35497        -8.46768
| 98>    H       -2.33698        -4.52731        -9.76217
| 99>    H       -0.33438        -3.15925        -7.89752
|100>    H       -0.19338        -3.77784       -10.91022
|101>    H        4.00169         0.34621        -8.27587
|102> *
|103>
|104>                          ****END OF INPUT****

CARTESIAN COORDINATES (ANGSTROEM)
---------------------------------
  C      2.288790   -5.839810   -4.378980
  C      1.154800   -6.280060   -4.991750
  S      0.975400   -5.586580   -6.558760
  C      2.467280   -4.694650   -6.402060
  Cl     3.011830   -3.689520   -7.647230
  C      3.043980   -4.925250   -5.186460
  C      4.226550   -4.482040   -4.446750
  O      5.177860   -3.846580   -4.833230
  C      4.053250   -5.058150   -3.074340
  C      2.952220   -6.019680   -3.102480
  C      2.558270   -6.869850   -2.112290
  C      1.389450   -7.649370   -2.248090
  N      0.422980   -8.259160   -2.344570
  C      3.239980   -7.068330   -0.891610
  N      3.759520   -7.293470    0.104800
  C      4.722740   -4.611740   -1.994670
  C      5.485260   -3.373920   -1.981520
  C      6.744650   -3.264030   -1.447120
  C      7.561680   -4.401220   -0.931740
  F      7.496400   -5.474110   -1.734770
  F      8.855510   -4.079480   -0.813300
  F      7.154490   -4.810780    0.279860
  S      7.355450   -1.660670   -1.423100
  C      5.883120   -1.087200   -2.139780
  C      5.701040    0.296330   -2.249720
  N      5.577130    1.436440   -2.283700
  C      4.984530   -2.098550   -2.416400
  C      3.677420   -1.986930   -3.037410
  N      3.397690   -1.392730   -4.242310
  C      4.193790   -0.447110   -4.996250
  C      5.310560   -1.085750   -5.812550
  C      2.119820   -1.778050   -4.710100
  O      1.697420   -1.504600   -5.816070
  C      1.558090   -2.553520   -3.635480
  C      2.543120   -2.659730   -2.617630
  C      1.995130   -3.493730   -1.570700
  O      2.462010   -3.883930   -0.521270
  N      0.716020   -3.859370   -2.039150
  C     -0.165880   -4.646310   -1.210040
  C     -1.304360   -3.807530   -0.638020
  C      0.461670   -3.328010   -3.282560
  C     -0.590960   -3.606240   -4.198330
  C     -1.666760   -4.412510   -4.119480
  C     -2.442220   -4.659960   -5.323260
  N     -3.633950   -5.244250   -5.197760
  C     -4.303660   -5.475850   -6.313010
  C     -3.804240   -5.155680   -7.566890
  C     -2.535130   -4.562090   -7.603990
  N     -1.874310   -4.323180   -6.474500
  C     -1.868970   -4.209860   -8.840800
  C     -0.729700   -3.490290   -8.847640
  C      0.008660   -3.183470  -10.024920
  C      1.026780   -2.295130  -10.134050
  C      1.972440   -2.401830  -11.294280
  O      1.795850   -3.037430  -12.304580
  C      3.144220   -1.626230  -10.876050
  C      4.400580   -1.377830  -11.344800
  S      5.269860   -0.336320  -10.244350
  C      3.921300   -0.239090   -9.169440
  C      2.872650   -0.970300   -9.629240
  C      1.512060   -1.271320   -9.219660
  C      0.805720   -0.559080   -8.292750
  C      1.419700    0.489270   -7.572270
  N      1.922310    1.353020   -7.009330
  C     -0.570830   -0.699950   -8.024630
  N     -1.696100   -0.736850   -7.803290
  Cl     5.114330   -1.945980  -12.772160
  H      0.411940   -6.964250   -4.632430
  H      4.621820   -5.104110   -1.035700
  H      4.602540    0.295620   -4.310300
  H      3.487600    0.057000   -5.663760
  H      5.984100   -1.655930   -5.179460
  H      5.876660   -0.305630   -6.314360
  H      4.901160   -1.760610   -6.558760
  H      0.454740   -5.026550   -0.392420
  H     -0.546690   -5.496050   -1.783100
  H     -0.902870   -3.014650   -0.011630
  H     -1.949990   -4.435620   -0.031110
  H     -1.895540   -3.356440   -1.431350
  H     -0.435540   -3.116330   -5.153050
  H     -2.008980   -4.914570   -3.230250
  H     -5.272690   -5.942340   -6.190440
  H     -4.360770   -5.354970   -8.467680
  H     -2.336980   -4.527310   -9.762170
  H     -0.334380   -3.159250   -7.897520
  H     -0.193380   -3.777840  -10.910220
  H      4.001690    0.346210   -8.275870

 Total Charge           Charge          ....    0
 Multiplicity           Mult            ....    1
 Number of Electrons    NEL             ....  500
 Basis Dimension        Dim             .... 1058

ORBITAL ENERGIES
----------------

  NO   OCC          E(Eh)            E(eV)
   0   2.0000    -101.632137     -2765.5510
   1   2.0000    -101.619379     -2765.2039
   2   2.0000     -89.012578     -2422.1554
   3   2.0000     -89.003927     -2421.9200
   4   2.0000     -88.995119     -2421.6803
   5   2.0000     -24.820180      -675.3914
   6   2.0000     -24.815364      -675.2604
   7   2.0000     -24.811948      -675.1674
   8   2.0000     -19.236505      -523.4519
   9   2.0000     -19.223170      -523.0890
  10   2.0000     -19.211766      -522.7787
  11   2.0000     -19.211429      -522.7696
  12   2.0000     -14.473716      -393.8498
  13   2.0000     -14.472265      -393.8103
  14   2.0000     -14.435660      -392.8143
  15   2.0000     -14.432633      -392.7319
  16   2.0000     -14.427381      -392.5890
  17   2.0000     -14.425502      -392.5379
  18   2.0000     -14.424598      -392.5133
  19   2.0000     -14.418776      -392.3548
  20   2.0000     -14.417291      -392.3144
  21   2.0000     -10.543148      -286.8936
  22   2.0000     -10.393875      -282.8317
  23   2.0000     -10.393053      -282.8094
  24   2.0000     -10.391184      -282.7585
  25   2.0000     -10.385840      -282.6131
  26   2.0000     -10.379234      -282.4333
  27   2.0000     -10.378520      -282.4139
  28   2.0000     -10.368743      -282.1478
  29   2.0000     -10.367450      -282.1126
  30   2.0000     -10.360170      -281.9146
  31   2.0000     -10.359411      -281.8939
  32   2.0000     -10.358727      -281.8753
  33   2.0000     -10.357663      -281.8463
  34   2.0000     -10.350535      -281.6524
  35   2.0000     -10.349803      -281.6325
  36   2.0000     -10.347510      -281.5701
  37   2.0000     -10.346779      -281.5502
  38   2.0000     -10.346364      -281.5389
  39   2.0000     -10.338829      -281.3338
  40   2.0000     -10.338362      -281.3211
  41   2.0000     -10.337229      -281.2903
  42   2.0000     -10.336928      -281.2821
  43   2.0000     -10.334301      -281.2106
  44   2.0000     -10.332085      -281.1503
  45   2.0000     -10.329829      -281.0889
  46   2.0000     -10.325692      -280.9764
  47   2.0000     -10.323272      -280.9105
  48   2.0000     -10.321352      -280.8583
  49   2.0000     -10.320381      -280.8318
  50   2.0000     -10.320032      -280.8224
  51   2.0000     -10.319964      -280.8205
  52   2.0000     -10.317045      -280.7411
  53   2.0000     -10.314577      -280.6739
  54   2.0000     -10.311608      -280.5931
  55   2.0000     -10.310425      -280.5609
  56   2.0000     -10.307328      -280.4766
  57   2.0000     -10.306598      -280.4568
  58   2.0000     -10.304595      -280.4023
  59   2.0000     -10.304542      -280.4008
  60   2.0000     -10.304112      -280.3891
  61   2.0000     -10.302627      -280.3487
  62   2.0000     -10.302113      -280.3347
  63   2.0000     -10.283479      -279.8277
  64   2.0000     -10.280209      -279.7387
  65   2.0000     -10.270561      -279.4762
  66   2.0000     -10.257719      -279.1267
  67   2.0000      -9.585754      -260.8416
  68   2.0000      -9.574166      -260.5263
  69   2.0000      -8.107607      -220.6192
  70   2.0000      -8.098355      -220.3674
  71   2.0000      -8.090728      -220.1599
  72   2.0000      -7.356296      -200.1750
  73   2.0000      -7.345832      -199.8903
  74   2.0000      -7.345440      -199.8796
  75   2.0000      -7.344795      -199.8620
  76   2.0000      -7.334209      -199.5740
  77   2.0000      -7.333668      -199.5593
  78   2.0000      -6.076994      -165.3634
  79   2.0000      -6.072587      -165.2435
  80   2.0000      -6.069677      -165.1643
  81   2.0000      -6.067810      -165.1135
  82   2.0000      -6.063010      -164.9829
  83   2.0000      -6.060772      -164.9220
  84   2.0000      -6.060105      -164.9039
  85   2.0000      -6.055506      -164.7787
  86   2.0000      -6.053018      -164.7110
  87   2.0000      -1.407468       -38.2992
  88   2.0000      -1.311855       -35.6974
  89   2.0000      -1.305247       -35.5176
  90   2.0000      -1.156524       -31.4706
  91   2.0000      -1.152365       -31.3574
  92   2.0000      -1.146498       -31.1978
  93   2.0000      -1.140043       -31.0222
  94   2.0000      -1.101804       -29.9816
  95   2.0000      -1.083607       -29.4864
  96   2.0000      -1.074039       -29.2261
  97   2.0000      -1.049048       -28.5460
  98   2.0000      -1.044097       -28.4113
  99   2.0000      -1.039758       -28.2933
 100   2.0000      -1.026967       -27.9452
 101   2.0000      -1.016143       -27.6507
 102   2.0000      -1.014761       -27.6131
 103   2.0000      -1.006865       -27.3982
 104   2.0000      -1.000889       -27.2356
 105   2.0000      -0.999274       -27.1916
 106   2.0000      -0.996794       -27.1241
 107   2.0000      -0.989121       -26.9153
 108   2.0000      -0.966382       -26.2966
 109   2.0000      -0.957178       -26.0461
 110   2.0000      -0.946105       -25.7448
 111   2.0000      -0.941163       -25.6104
 112   2.0000      -0.929989       -25.3063
 113   2.0000      -0.920844       -25.0574
 114   2.0000      -0.917776       -24.9739
 115   2.0000      -0.913442       -24.8560
 116   2.0000      -0.904747       -24.6194
 117   2.0000      -0.892587       -24.2885
 118   2.0000      -0.880248       -23.9528
 119   2.0000      -0.868655       -23.6373
 120   2.0000      -0.857773       -23.3412
 121   2.0000      -0.843045       -22.9404
 122   2.0000      -0.834133       -22.6979
 123   2.0000      -0.833306       -22.6754
 124   2.0000      -0.829252       -22.5651
 125   2.0000      -0.819300       -22.2943
 126   2.0000      -0.806280       -21.9400
 127   2.0000      -0.799070       -21.7438
 128   2.0000      -0.791617       -21.5410
 129   2.0000      -0.769974       -20.9521
 130   2.0000      -0.765320       -20.8254
 131   2.0000      -0.764734       -20.8095
 132   2.0000      -0.755691       -20.5634
 133   2.0000      -0.747086       -20.3292
 134   2.0000      -0.740876       -20.1603
 135   2.0000      -0.722426       -19.6582
 136   2.0000      -0.719526       -19.5793
 137   2.0000      -0.702949       -19.1282
 138   2.0000      -0.700225       -19.0541
 139   2.0000      -0.697511       -18.9802
 140   2.0000      -0.695790       -18.9334
 141   2.0000      -0.688717       -18.7409
 142   2.0000      -0.687654       -18.7120
 143   2.0000      -0.686890       -18.6912
 144   2.0000      -0.685432       -18.6515
 145   2.0000      -0.678008       -18.4495
 146   2.0000      -0.677249       -18.4289
 147   2.0000      -0.663949       -18.0670
 148   2.0000      -0.654769       -17.8172
 149   2.0000      -0.647643       -17.6233
 150   2.0000      -0.629991       -17.1429
 151   2.0000      -0.629042       -17.1171
 152   2.0000      -0.626238       -17.0408
 153   2.0000      -0.621856       -16.9216
 154   2.0000      -0.614204       -16.7134
 155   2.0000      -0.613154       -16.6848
 156   2.0000      -0.608495       -16.5580
 157   2.0000      -0.603407       -16.4195
 158   2.0000      -0.597630       -16.2623
 159   2.0000      -0.587538       -15.9877
 160   2.0000      -0.584312       -15.9000
 161   2.0000      -0.579235       -15.7618
 162   2.0000      -0.570964       -15.5367
 163   2.0000      -0.567982       -15.4556
 164   2.0000      -0.566037       -15.4026
 165   2.0000      -0.565462       -15.3870
 166   2.0000      -0.564005       -15.3474
 167   2.0000      -0.560232       -15.2447
 168   2.0000      -0.556198       -15.1349
 169   2.0000      -0.552618       -15.0375
 170   2.0000      -0.549662       -14.9571
 171   2.0000      -0.549285       -14.9468
 172   2.0000      -0.546861       -14.8808
 173   2.0000      -0.544220       -14.8090
 174   2.0000      -0.543099       -14.7785
 175   2.0000      -0.537351       -14.6221
 176   2.0000      -0.534797       -14.5526
 177   2.0000      -0.534320       -14.5396
 178   2.0000      -0.532436       -14.4883
 179   2.0000      -0.529112       -14.3979
 180   2.0000      -0.526666       -14.3313
 181   2.0000      -0.525495       -14.2995
 182   2.0000      -0.522132       -14.2079
 183   2.0000      -0.520047       -14.1512
 184   2.0000      -0.518070       -14.0974
 185   2.0000      -0.517585       -14.0842
 186   2.0000      -0.515116       -14.0170
 187   2.0000      -0.510846       -13.9008
 188   2.0000      -0.508156       -13.8276
 189   2.0000      -0.506846       -13.7920
 190   2.0000      -0.505422       -13.7532
 191   2.0000      -0.503873       -13.7111
 192   2.0000      -0.500429       -13.6174
 193   2.0000      -0.498741       -13.5714
 194   2.0000      -0.497267       -13.5313
 195   2.0000      -0.491979       -13.3874
 196   2.0000      -0.488827       -13.3016
 197   2.0000      -0.483961       -13.1692
 198   2.0000      -0.480829       -13.0840
 199   2.0000      -0.474614       -12.9149
 200   2.0000      -0.473651       -12.8887
 201   2.0000      -0.470276       -12.7969
 202   2.0000      -0.467874       -12.7315
 203   2.0000      -0.464264       -12.6333
 204   2.0000      -0.464086       -12.6284
 205   2.0000      -0.462685       -12.5903
 206   2.0000      -0.461804       -12.5663
 207   2.0000      -0.460328       -12.5262
 208   2.0000      -0.459008       -12.4902
 209   2.0000      -0.457818       -12.4579
 210   2.0000      -0.454051       -12.3553
 211   2.0000      -0.452744       -12.3198
 212   2.0000      -0.452078       -12.3017
 213   2.0000      -0.449640       -12.2353
 214   2.0000      -0.447787       -12.1849
 215   2.0000      -0.443873       -12.0784
 216   2.0000      -0.441886       -12.0243
 217   2.0000      -0.441093       -12.0028
 218   2.0000      -0.439408       -11.9569
 219   2.0000      -0.437420       -11.9028
 220   2.0000      -0.434513       -11.8237
 221   2.0000      -0.432813       -11.7774
 222   2.0000      -0.427828       -11.6418
 223   2.0000      -0.424876       -11.5615
 224   2.0000      -0.422306       -11.4915
 225   2.0000      -0.420622       -11.4457
 226   2.0000      -0.416564       -11.3353
 227   2.0000      -0.415347       -11.3022
 228   2.0000      -0.410982       -11.1834
 229   2.0000      -0.405976       -11.0472
 230   2.0000      -0.404264       -11.0006
 231   2.0000      -0.404070       -10.9953
 232   2.0000      -0.396461       -10.7883
 233   2.0000      -0.383221       -10.4280
 234   2.0000      -0.380615       -10.3571
 235   2.0000      -0.368720       -10.0334
 236   2.0000      -0.361200        -9.8288
 237   2.0000      -0.355279        -9.6676
 238   2.0000      -0.351108        -9.5541
 239   2.0000      -0.350598        -9.5402
 240   2.0000      -0.347345        -9.4517
 241   2.0000      -0.344747        -9.3810
 242   2.0000      -0.341271        -9.2865
 243   2.0000      -0.336562        -9.1583
 244   2.0000      -0.334733        -9.1086
 245   2.0000      -0.323485        -8.8025
 246   2.0000      -0.320549        -8.7226
 247   2.0000      -0.314730        -8.5642
 248   2.0000      -0.303186        -8.2501
 249   2.0000      -0.266716        -7.2577
 250   0.0000      -0.104672        -2.8483
 251   0.0000      -0.101627        -2.7654
 252   0.0000      -0.098650        -2.6844
 253   0.0000      -0.062723        -1.7068
 254   0.0000      -0.056498        -1.5374

MULLIKEN ATOMIC CHARGES
-----------------------
   0 C :    0.045000
   1 C :   -0.150280
   2 S :    0.210282
   3 C :   -0.171210
   4 Cl:    0.013895
   5 C :    0.085353
   6 C :    0.162026
   7 O :   -0.125206
   8 C :   -0.114924
   9 C :    0.309974
  10 C :   -0.327541
  11 C :   -0.200439
  12 N :    0.156406
  13 C :   -0.186699
  14 N :    0.186919
  15 C :   -0.023918
  16 C :    0.054331
  17 C :   -0.263720
  18 C :    0.542696
  19 F :   -0.149375
  20 F :   -0.151690
  21 F :   -0.146151
  22 S :    0.282873
  23 C :   -0.316343
  24 C :   -0.207700
  25 N :    0.161425
  26 C :    0.251215
  27 C :    0.021642
  28 N :   -0.249746
  29 C :    0.088221
  30 C :    0.011521
  31 C :    0.164761
  32 O :   -0.201211
  33 C :   -0.043483
  34 C :   -0.030159
  35 C :    0.147316
  36 O :   -0.186099
  37 N :   -0.279899
  38 C :    0.080873
  39 C :    0.009612
  40 C :    0.140523
  41 C :    0.001407
  42 C :    0.015944
  43 C :   -0.064082
  44 N :   -0.056892
  45 C :    0.086504
  46 C :   -0.032860
  47 C :    0.061550
  48 N :   -0.087899
  49 C :    0.005130
  50 C :    0.043341
  51 C :    0.020198
  52 C :   -0.115329
  53 C :    0.137272
  54 O :   -0.125780
  55 C :    0.084206
  56 C :   -0.171297
  57 S :    0.185277
  58 C :   -0.124667
  59 C :    0.009460
  60 C :    0.263043
  61 C :   -0.273436
  62 C :   -0.141448
  63 N :    0.127392
  64 C :   -0.210748
  65 N :    0.179624
  66 Cl:    0.000924
  67 H :    0.051049
  68 H :    0.067980
  69 H :    0.029905
  70 H :    0.036794
  71 H :    0.035445
  72 H :    0.011062
  73 H :    0.012015
  74 H :    0.052935
  75 H :    0.035822
  76 H :    0.028726
  77 H :    0.031442
  78 H :    0.025362
  79 H :    0.036776
  80 H :    0.002348
  81 H :    0.015587
  82 H :    0.002366
  83 H :   -0.004335
  84 H :    0.045390
  85 H :    0.020223
  86 H :    0.045203
Sum of atomic charges:   -0.0000000

LOEWDIN ATOMIC CHARGES
----------------------
   0 C :   -0.058892
   1 C :   -0.148130
   2 S :    0.521209
   3 C :   -0.273696
   4 Cl:    0.227987
   5 C :   -0.118100
   6 C :    0.081335
   7 O :   -0.119735
   8 C :   -0.063338
   9 C :    0.070462
  10 C :   -0.122348
  11 C :   -0.011563
  12 N :   -0.050793
  13 C :   -0.023788
  14 N :   -0.027386
  15 C :    0.069302
  16 C :   -0.016058
  17 C :   -0.218654
  18 C :    0.151008
  19 F :   -0.049130
  20 F :   -0.053143
  21 F :   -0.050911
  22 S :    0.540401
  23 C :   -0.200968
  24 C :   -0.057533
  25 N :   -0.024350
  26 C :   -0.013663
  27 C :    0.075969
  28 N :    0.016120
  29 C :    0.034073
  30 C :   -0.065825
  31 C :    0.087452
  32 O :   -0.190629
  33 C :   -0.114072
  34 C :   -0.121681
  35 C :    0.078647
  36 O :   -0.182194
  37 N :    0.003821
  38 C :    0.032608
  39 C :   -0.059098
  40 C :    0.076788
  41 C :   -0.008789
  42 C :   -0.011004
  43 C :    0.023860
  44 N :   -0.084180
  45 C :    0.057470
  46 C :   -0.052482
  47 C :    0.034981
  48 N :   -0.080629
  49 C :   -0.000200
  50 C :    0.003296
  51 C :    0.054225
  52 C :   -0.070197
  53 C :    0.079733
  54 O :   -0.130856
  55 C :   -0.122134
  56 C :   -0.272220
  57 S :    0.475284
  58 C :   -0.150936
  59 C :   -0.061732
  60 C :    0.052615
  61 C :   -0.106425
  62 C :    0.000013
  63 N :   -0.058049
  64 C :   -0.019412
  65 N :   -0.042978
  66 Cl:    0.192359
  67 H :    0.035849
  68 H :    0.053864
  69 H :    0.028496
  70 H :    0.035193
  71 H :    0.022564
  72 H :    0.024230
  73 H :    0.013772
  74 H :    0.038998
  75 H :    0.022837
  76 H :    0.032913
  77 H :    0.035259
  78 H :    0.024336
  79 H :    0.046205
  80 H :    0.035761
  81 H :    0.030545
  82 H :    0.037134
  83 H :    0.034130
  84 H :    0.033865
  85 H :    0.045695
  86 H :    0.035239

  Mayer bond orders larger than 0.100000
B(  0-C ,  1-C ) :   1.5182 B(  0-C ,  5-C ) :   1.2296 B(  0-C ,  9-C ) :   1.0033
B(  1-C ,  2-S ) :   1.1776 B(  1-C , 67-H ) :   0.9565 B(  2-S ,  3-C ) :   1.1696
B(  3-C ,  4-Cl) :   1.1232 B(  3-C ,  5-C ) :   1.4602 B(  5-C ,  6-C ) :   0.9404
B(  6-C ,  7-O ) :   2.2140 B(  6-C ,  8-C ) :   0.9175 B(  8-C ,  9-C ) :   1.0214
B(  8-C , 15-C ) :   1.7443 B(  9-C , 10-C ) :   1.6972 B( 10-C , 11-C ) :   1.1498
B( 10-C , 13-C ) :   1.1339 B( 11-C , 12-N ) :   2.9499 B( 13-C , 14-N ) :   2.9942
B( 15-C , 16-C ) :   1.0492 B( 15-C , 68-H ) :   0.9093 B( 16-C , 17-C ) :   1.5659
B( 16-C , 26-C ) :   1.2748 B( 17-C , 18-C ) :   0.9477 B( 17-C , 22-S ) :   1.1337
B( 17-C , 23-C ) :   0.1168 B( 18-C , 19-F ) :   1.1658 B( 18-C , 20-F ) :   1.1736
B( 18-C , 21-F ) :   1.1814 B( 22-S , 23-C ) :   1.1608 B( 23-C , 24-C ) :   1.2553
B( 23-C , 26-C ) :   1.4867 B( 24-C , 25-N ) :   2.9388 B( 26-C , 27-C ) :   0.9828
B( 27-C , 28-N ) :   1.2261 B( 27-C , 34-C ) :   1.4242 B( 28-N , 29-C ) :   0.9186
B( 28-N , 31-C ) :   1.0403 B( 29-C , 30-C ) :   1.1179 B( 29-C , 69-H ) :   0.9429
B( 29-C , 70-H ) :   0.9207 B( 30-C , 71-H ) :   0.9569 B( 30-C , 72-H ) :   0.9604
B( 30-C , 73-H ) :   0.9541 B( 31-C , 32-O ) :   2.0340 B( 31-C , 33-C ) :   0.9937
B( 33-C , 34-C ) :   1.2060 B( 33-C , 40-C ) :   1.3828 B( 34-C , 35-C ) :   0.9612
B( 35-C , 36-O ) :   2.1061 B( 35-C , 37-N ) :   1.0462 B( 37-N , 38-C ) :   0.9311
B( 37-N , 40-C ) :   1.1626 B( 38-C , 39-C ) :   1.1186 B( 38-C , 74-H ) :   0.9262
B( 38-C , 75-H ) :   0.9415 B( 39-C , 76-H ) :   0.9618 B( 39-C , 77-H ) :   0.9676
B( 39-C , 78-H ) :   0.9667 B( 40-C , 41-C ) :   1.1360 B( 41-C , 42-C ) :   1.6368
B( 41-C , 79-H ) :   0.9431 B( 42-C , 43-C ) :   1.0176 B( 42-C , 80-H ) :   0.9807
B( 43-C , 44-N ) :   1.5343 B( 43-C , 48-N ) :   1.5150 B( 44-N , 45-C ) :   1.5419
B( 45-C , 46-C ) :   1.3727 B( 45-C , 81-H ) :   0.9792 B( 46-C , 47-C ) :   1.3312
B( 46-C , 82-H ) :   0.9774 B( 47-C , 48-N ) :   1.5018 B( 47-C , 49-C ) :   1.0491
B( 49-C , 50-C ) :   1.7234 B( 49-C , 83-H ) :   0.9844 B( 50-C , 51-C ) :   1.0763
B( 50-C , 84-H ) :   0.9480 B( 51-C , 52-C ) :   1.6907 B( 51-C , 85-H ) :   0.9543
B( 52-C , 53-C ) :   0.9285 B( 52-C , 60-C ) :   1.0109 B( 53-C , 54-O ) :   2.2817
B( 53-C , 55-C ) :   0.9275 B( 55-C , 56-C ) :   1.4752 B( 55-C , 59-C ) :   1.2227
B( 56-C , 57-S ) :   1.1570 B( 56-C , 66-Cl) :   1.1292 B( 57-S , 58-C ) :   1.1515
B( 58-C , 59-C ) :   1.5642 B( 58-C , 86-H ) :   0.9539 B( 59-C , 60-C ) :   0.9940
B( 60-C , 61-C ) :   1.7192 B( 61-C , 62-C ) :   1.1326 B( 61-C , 64-C ) :   1.1554
B( 62-C , 63-N ) :   2.9115 B( 64-C , 65-N ) :   3.0114

-----------------------------------------------------------------------------
         ABSORPTION SPECTRUM VIA TRANSITION ELECTRIC DIPOLE MOMENTS
-----------------------------------------------------------------------------
State   Energy  Wavelength   fosc         T2         TX        TY        TZ
        (cm-1)    (nm)                  (au**2)     (au)      (au)      (au)
-----------------------------------------------------------------------------
   0   15561.6    642.6   0.008549879   0.18088   0.01469   0.35121  -0.23940
   1   19567.7    511.0   0.305425408   5.13856   2.04290   0.98083   0.05574
   2   19920.2    502.0   0.003471353   0.05737   0.16191   0.15495  -0.08454
   3   23480.7    425.9   0.004057876   0.05689  -0.21977   0.03745  -0.08482
   4   25155.3    397.5   0.010540416   0.13794   0.15180   0.31908  -0.11442
   5   26305.4    380.1   0.179019718   2.24043   0.76255   1.22976  -0.38293
   6   27474.7    364.0   0.031621680   0.37890  -0.14075  -0.59918   0.00840
   7   27594.1    362.4   0.006429135   0.07670   0.11275  -0.14731   0.20564
   8   27909.3    358.3   0.013100993   0.15454  -0.20565   0.01382  -0.33475
   9   28087.5    356.0   0.100943422   1.18315  -0.42066  -0.97346   0.24202
  10   28751.1    347.8   0.074448253   0.85246   0.63966   0.54447  -0.38322
  11   28968.6    345.2   0.018925274   0.21507  -0.01426  -0.14000   0.44190
  12   29289.8    341.4   0.152098982   1.70956  -0.92356  -0.86359   0.33289
  13   29363.4    340.6   0.089365544   1.00193   0.51270   0.80968  -0.28896
  14   29571.4    338.2   0.087486489   0.97397  -0.81415  -0.48027   0.28368
  15   29752.1    336.1   0.020397061   0.22570  -0.35467   0.21591  -0.23085
  16   30327.9    329.7   0.001337385   0.01452   0.02353  -0.11733   0.01409
  17   30477.3    328.1   0.019931317   0.21530   0.37224  -0.02490  -0.27588
  18   30829.9    324.4   0.001682731   0.01797   0.07927   0.09690   0.04792
  19   31384.3    318.6   0.002562785   0.02688  -0.11445  -0.03760   0.11122
  20   31826.7    314.2   0.017819952   0.18433   0.14989  -0.39170   0.09184
  21   32108.5    311.4   0.017970307   0.18425   0.35937   0.23167   0.03787
  22   32653.0    306.3   0.057443690   0.57915  -0.60073  -0.27612  -0.37688
  23   32813.4    304.8   0.020304136   0.20371  -0.37984  -0.04294   0.23997
  24   33011.3    302.9   0.011318421   0.11288   0.25540   0.05257  -0.21186
  25   33217.8    301.0   0.082073386   0.81341   0.63322   0.54079   0.34639
  26   33532.3    298.2   0.070720009   0.69431   0.64933   0.51273   0.09896
  27   33578.9    297.8   0.012631909   0.12385  -0.22021  -0.15774  -0.22466
  28   33877.2    295.2   0.045476007   0.44193   0.40089   0.37423   0.37572
  29   34306.0    291.5   0.088597884   0.85022   0.80739   0.35774   0.26525
  30   34605.6    289.0   0.065851439   0.62646  -0.35007   0.02151  -0.70954
  31   34869.9    286.8   0.055202260   0.52117  -0.31495   0.22993  -0.60755
  32   35078.9    285.1   0.170824606   1.60317   0.06754  -0.53810   1.14414
  33   35277.8    283.5   0.094185488   0.87894   0.12780   0.69185   0.61964
  34   35445.9    282.1   0.056556499   0.52528  -0.63442   0.02922   0.34919
  35   35725.8    279.9   0.027152710   0.25021   0.25122  -0.35231  -0.25095
  36   35929.1    278.3   0.164285224   1.50531   1.10897   0.46426  -0.24487
  37   36220.5    276.1   0.124585486   1.13237   0.43573  -0.35789  -0.90245
  38   36277.3    275.7   0.107798614   0.97826   0.69160   0.04448  -0.70567
  39   36554.6    273.6   0.016777607   0.15110   0.26954  -0.27542  -0.05090
  40   36592.6    273.3   0.112554910   1.01262  -0.80362   0.32341   0.51207
  41   36938.2    270.7   0.443237669   3.95036  -0.62619  -0.52391   1.81212
  42   37008.3    270.2   0.203891208   1.81374  -1.19795  -0.57623  -0.21586
  43   37542.3    266.4   0.229346560   2.01116   1.26963   0.50288   0.38252
  44   37568.0    266.2   0.148071456   1.29756   0.36070   0.36190  -1.01808
  45   37782.4    264.7   0.016000173   0.13942   0.36737   0.06533  -0.01354
  46   37905.1    263.8   0.090179663   0.78323  -0.55970  -0.27670   0.62721
  47   38148.8    262.1   0.196317505   1.69416   1.20805   0.43298  -0.21746
  48   38274.5    261.3   0.229575866   1.97466  -0.81021   0.20399  -1.12987
  49   38493.6    259.8   0.021114469   0.18058  -0.20704   0.13146  -0.34703
  50   38630.4    258.9   0.083677418   0.71311  -0.50949   0.14918  -0.65671
  51   38892.2    257.1   0.174129107   1.47395  -0.84959   0.34228   0.79687
  52   39291.5    254.5   0.031278828   0.26208  -0.23799   0.11600  -0.43815
  53   39496.9    253.2   0.180309362   1.50290   0.78511   0.46376   0.81941
  54   39736.5    251.7   0.058831059   0.48741   0.17378   0.21749   0.64024

FINAL SINGLE POINT ENERGY     -4968.815123131424

DIPOLE MOMENT
-------------
                                X             Y             Z
Electronic contribution:     53.87074      -1.89281     -10.65607
Nuclear contribution   :    -54.48359       1.07534       8.84854
                        -----------------------------------------
Total Dipole Moment    :     -0.61285      -0.81746      -1.80754
                        -----------------------------------------
Magnitude (a.u.)       :      2.07630
Magnitude (Debye)      :      5.27754

Rotational constants in cm-1:     0.001440     0.000979     0.000718
Rotational constants in MHz :    43.155725    29.335698    21.517560

                             ****ORCA TERMINATED NORMALLY****
TOTAL RUN TIME: 0 days 0 hours 11 minutes 22 seconds 228 msec
