                         Program Version 4.2.0 -  RELEASE  -
|  1> # ORCA input file
|  2> # SCF done       -185.371892012404          0.000624507699
|  3> ! CAM-B3LYP def2-SVP def2/J RIJCOSX Grid4 TightSCF
|  4> %maxcore 5000
|  5> %tddft
|  6>     Mode sTDDFT
|  7>     Ethresh 5.0
|  8>     maxcore 5000
|  9> end
| 10>
| 11> %pal
| 12>   nprocs 6
| 13>   end
| 14> * xyz 0 1
| 15>    C       -5.96775        -0.31688         4.79344
| 16>    N       -6.76863         0.77777         4.79717
| 17>    C       -8.09065         0.85812         5.36573
| 18>    C       -8.04318         0.91656         6.89050
| 19>    C       -6.11422         1.90085         4.22440
| 20>    O       -6.62886         2.99413         4.12690
| 21>    C       -4.82095         1.38415         3.84809
| 22>    C       -4.76670         0.00839         4.22057
| 23>    C       -3.46018        -0.49111         3.84838
| 24>    O       -2.94185        -1.57983         3.95667
| 25>    N       -2.80357         0.62614         3.28292
| 26>    C       -1.47297         0.46164         2.75018
| 27>    C       -1.46727         0.40957         1.22400
| 28>    C       -3.60888         1.74720         3.27209
| 29>    C       -3.34251         3.06123         2.81259
| 30>    C       -2.18284         3.59346         2.34519
| 31>    C       -2.04240         4.94269         1.94769
| 32>    S       -3.39538         6.03158         1.93182
| 33>    C       -2.39821         7.33345         1.34948
| 34>    C       -1.07146         6.91985         1.18700
| 35>    C       -0.87211         5.58181         1.52443
| 36>    C        0.46933         4.90283         1.40271
| 37>    O        0.66578         4.07344         2.53571
| 38>    C        1.73845         3.17121         2.42991
| 39>    C        1.58399         5.94767         1.25189
| 40>    C        1.20776         6.99188         0.21009
| 41>    C        0.02024         7.81597         0.69760
| 42>    C       -2.91834         8.61690         1.10501
| 43>    C       -4.24981         8.92695         1.15048
| 44>    C       -4.77287        10.19819         0.84626
| 45>    C       -5.98902        10.44830         0.21344
| 46>    N       -7.00480         9.53849        -0.10334
| 47>    O       -6.88321         8.36899         0.23448
| 48>    O       -7.97720         9.97282        -0.70315
| 49>    C       -6.01135        11.81290        -0.23809
| 50>    C       -4.86901        12.43017         0.15325
| 51>    C       -4.10276        11.51964         0.95755
| 52>    C       -3.10891        11.83485         1.85666
| 53>    C       -2.50145        10.93432         2.81952
| 54>    C       -1.40440        11.51771         3.34486
| 55>    C       -1.28362        12.83956         2.77707
| 56>    N       -0.27144        13.73833         3.14070
| 57>    O        0.63523        13.31255         3.83943
| 58>    O       -0.34314        14.89361         2.74619
| 59>    C       -2.35280        13.09157         1.93708
| 60>    C       -2.58929        14.35257         1.29027
| 61>    C       -3.74477        15.03200         1.36080
| 62>    C       -3.94774        16.32788         0.73753
| 63>    C       -3.50787        16.58732        -0.56364
| 64>    C       -2.89437        15.69807        -1.57654
| 65>    O       -2.62397        14.52940        -1.51423
| 66>    O       -2.69479        16.42145        -2.70388
| 67>    C       -3.14571        17.75641        -2.55486
| 68>    C       -3.70620        17.82315        -1.17155
| 69>    C       -4.35004        18.84950        -0.50838
| 70>    C       -4.81083        18.60024         0.77126
| 71>    C       -4.63319        17.36594         1.40695
| 72>    C       -5.09436        17.16653         2.76978
| 73>    C       -6.15809        17.78079         3.31066
| 74>    C       -6.60446        17.63130         4.68141
| 75>    C       -7.95702        17.83407         5.03582
| 76>    N       -8.93322        18.03358         4.09218
| 77>    C       -8.33005        17.73556         6.37905
| 78>    C       -7.40747        17.43175         7.35542
| 79>    C       -6.07845        17.21997         7.01283
| 80>    C       -5.69217        17.32094         5.69423
| 81>    H       -6.30820        -1.25462         5.19275
| 82>    H       -8.67812        -0.00375         5.03513
| 83>    H       -8.54067         1.77318         4.97134
| 84>    H       -7.57063         0.02420         7.29559
| 85>    H       -9.05131         0.98924         7.28860
| 86>    H       -7.47743         1.78721         7.21330
| 87>    H       -1.11897        -0.49651         3.14449
| 88>    H       -0.82017         1.25241         3.12837
| 89>    H       -2.05842        -0.43684         0.88289
| 90>    H       -0.44918         0.28693         0.86350
| 91>    H       -1.88724         1.31710         0.79616
| 92>    H       -4.20922         3.70880         2.88811
| 93>    H       -1.27912         3.01280         2.28641
| 94>    H        0.45167         4.26649         0.49519
| 95>    H        1.67109         2.51707         3.29781
| 96>    H        2.70823         3.67767         2.44411
| 97>    H        1.66394         2.57181         1.51326
| 98>    H        2.51094         5.45107         0.96163
| 99>    H        1.73840         6.42564         2.22157
|100>    H        0.94874         6.49330        -0.72690
|101>    H        2.05671         7.64915         0.01868
|102>    H       -0.34745         8.45536        -0.10692
|103>    H        0.33658         8.46810         1.51812
|104>    H       -2.20723         9.38079         0.82128
|105>    H       -4.96589         8.12602         1.28900
|106>    H       -6.81741        12.22818        -0.81300
|107>    H       -4.58247        13.43555        -0.07249
|108>    H       -2.89710         9.97576         3.08775
|109>    H       -0.73085        11.12684         4.08296
|110>    H       -1.72441        14.81964         0.83820
|111>    H       -4.56711        14.64070         1.94695
|112>    H       -3.89349        17.96265        -3.32867
|113>    H       -2.29805        18.43631        -2.69929
|114>    H       -4.48951        19.81375        -0.97194
|115>    H       -5.29953        19.39563         1.31326
|116>    H       -4.53786        16.45078         3.35647
|117>    H       -6.74808        18.43492         2.67918
|118>    H       -8.66500        18.33142         3.17076
|119>    H       -9.82138        18.37290         4.42062
|120>    H       -9.36612        17.89757         6.64197
|121>    H       -7.72030        17.36313         8.38658
|122>    H       -5.35067        16.98825         7.77504
|123>    H       -4.65321        17.18906         5.43307
|124> *
|125>
|126>                          ****END OF INPUT****

CARTESIAN COORDINATES (ANGSTROEM)
---------------------------------
  C     -5.967750   -0.316880    4.793440
  N     -6.768630    0.777770    4.797170
  C     -8.090650    0.858120    5.365730
  C     -8.043180    0.916560    6.890500
  C     -6.114220    1.900850    4.224400
  O     -6.628860    2.994130    4.126900
  C     -4.820950    1.384150    3.848090
  C     -4.766700    0.008390    4.220570
  C     -3.460180   -0.491110    3.848380
  O     -2.941850   -1.579830    3.956670
  N     -2.803570    0.626140    3.282920
  C     -1.472970    0.461640    2.750180
  C     -1.467270    0.409570    1.224000
  C     -3.608880    1.747200    3.272090
  C     -3.342510    3.061230    2.812590
  C     -2.182840    3.593460    2.345190
  C     -2.042400    4.942690    1.947690
  S     -3.395380    6.031580    1.931820
  C     -2.398210    7.333450    1.349480
  C     -1.071460    6.919850    1.187000
  C     -0.872110    5.581810    1.524430
  C      0.469330    4.902830    1.402710
  O      0.665780    4.073440    2.535710
  C      1.738450    3.171210    2.429910
  C      1.583990    5.947670    1.251890
  C      1.207760    6.991880    0.210090
  C      0.020240    7.815970    0.697600
  C     -2.918340    8.616900    1.105010
  C     -4.249810    8.926950    1.150480
  C     -4.772870   10.198190    0.846260
  C     -5.989020   10.448300    0.213440
  N     -7.004800    9.538490   -0.103340
  O     -6.883210    8.368990    0.234480
  O     -7.977200    9.972820   -0.703150
  C     -6.011350   11.812900   -0.238090
  C     -4.869010   12.430170    0.153250
  C     -4.102760   11.519640    0.957550
  C     -3.108910   11.834850    1.856660
  C     -2.501450   10.934320    2.819520
  C     -1.404400   11.517710    3.344860
  C     -1.283620   12.839560    2.777070
  N     -0.271440   13.738330    3.140700
  O      0.635230   13.312550    3.839430
  O     -0.343140   14.893610    2.746190
  C     -2.352800   13.091570    1.937080
  C     -2.589290   14.352570    1.290270
  C     -3.744770   15.032000    1.360800
  C     -3.947740   16.327880    0.737530
  C     -3.507870   16.587320   -0.563640
  C     -2.894370   15.698070   -1.576540
  O     -2.623970   14.529400   -1.514230
  O     -2.694790   16.421450   -2.703880
  C     -3.145710   17.756410   -2.554860
  C     -3.706200   17.823150   -1.171550
  C     -4.350040   18.849500   -0.508380
  C     -4.810830   18.600240    0.771260
  C     -4.633190   17.365940    1.406950
  C     -5.094360   17.166530    2.769780
  C     -6.158090   17.780790    3.310660
  C     -6.604460   17.631300    4.681410
  C     -7.957020   17.834070    5.035820
  N     -8.933220   18.033580    4.092180
  C     -8.330050   17.735560    6.379050
  C     -7.407470   17.431750    7.355420
  C     -6.078450   17.219970    7.012830
  C     -5.692170   17.320940    5.694230
  H     -6.308200   -1.254620    5.192750
  H     -8.678120   -0.003750    5.035130
  H     -8.540670    1.773180    4.971340
  H     -7.570630    0.024200    7.295590
  H     -9.051310    0.989240    7.288600
  H     -7.477430    1.787210    7.213300
  H     -1.118970   -0.496510    3.144490
  H     -0.820170    1.252410    3.128370
  H     -2.058420   -0.436840    0.882890
  H     -0.449180    0.286930    0.863500
  H     -1.887240    1.317100    0.796160
  H     -4.209220    3.708800    2.888110
  H     -1.279120    3.012800    2.286410
  H      0.451670    4.266490    0.495190
  H      1.671090    2.517070    3.297810
  H      2.708230    3.677670    2.444110
  H      1.663940    2.571810    1.513260
  H      2.510940    5.451070    0.961630
  H      1.738400    6.425640    2.221570
  H      0.948740    6.493300   -0.726900
  H      2.056710    7.649150    0.018680
  H     -0.347450    8.455360   -0.106920
  H      0.336580    8.468100    1.518120
  H     -2.207230    9.380790    0.821280
  H     -4.965890    8.126020    1.289000
  H     -6.817410   12.228180   -0.813000
  H     -4.582470   13.435550   -0.072490
  H     -2.897100    9.975760    3.087750
  H     -0.730850   11.126840    4.082960
  H     -1.724410   14.819640    0.838200
  H     -4.567110   14.640700    1.946950
  H     -3.893490   17.962650   -3.328670
  H     -2.298050   18.436310   -2.699290
  H     -4.489510   19.813750   -0.971940
  H     -5.299530   19.395630    1.313260
  H     -4.537860   16.450780    3.356470
  H     -6.748080   18.434920    2.679180
  H     -8.665000   18.331420    3.170760
  H     -9.821380   18.372900    4.420620
  H     -9.366120   17.897570    6.641970
  H     -7.720300   17.363130    8.386580
  H     -5.350670   16.988250    7.775040
  H     -4.653210   17.189060    5.433070

 Total Charge           Charge          ....    0
 Multiplicity           Mult            ....    1
 Number of Electrons    NEL             ....  472
 Basis Dimension        Dim             .... 1143

ORBITAL ENERGIES
----------------

  NO   OCC          E(Eh)            E(eV)
   0   2.0000     -88.959569     -2420.7129
   1   2.0000     -19.257364      -524.0195
   2   2.0000     -19.228246      -523.2272
   3   2.0000     -19.228060      -523.2221
   4   2.0000     -19.226832      -523.1887
   5   2.0000     -19.218333      -522.9574
   6   2.0000     -19.218165      -522.9528
   7   2.0000     -19.196713      -522.3691
   8   2.0000     -19.182650      -521.9865
   9   2.0000     -19.179416      -521.8984
  10   2.0000     -14.636196      -398.2711
  11   2.0000     -14.627695      -398.0398
  12   2.0000     -14.447152      -393.1270
  13   2.0000     -14.444707      -393.0605
  14   2.0000     -14.415315      -392.2607
  15   2.0000     -10.398079      -282.9461
  16   2.0000     -10.365819      -282.0683
  17   2.0000     -10.365331      -282.0550
  18   2.0000     -10.341472      -281.4058
  19   2.0000     -10.335046      -281.2309
  20   2.0000     -10.333334      -281.1843
  21   2.0000     -10.326642      -281.0022
  22   2.0000     -10.321139      -280.8525
  23   2.0000     -10.319885      -280.8184
  24   2.0000     -10.318082      -280.7693
  25   2.0000     -10.315591      -280.7015
  26   2.0000     -10.312375      -280.6140
  27   2.0000     -10.311705      -280.5958
  28   2.0000     -10.310365      -280.5593
  29   2.0000     -10.308521      -280.5091
  30   2.0000     -10.308282      -280.5026
  31   2.0000     -10.306166      -280.4450
  32   2.0000     -10.303544      -280.3737
  33   2.0000     -10.301431      -280.3162
  34   2.0000     -10.301245      -280.3111
  35   2.0000     -10.297663      -280.2137
  36   2.0000     -10.294326      -280.1229
  37   2.0000     -10.291973      -280.0588
  38   2.0000     -10.291140      -280.0362
  39   2.0000     -10.290025      -280.0058
  40   2.0000     -10.287779      -279.9447
  41   2.0000     -10.287321      -279.9322
  42   2.0000     -10.287247      -279.9302
  43   2.0000     -10.286672      -279.9146
  44   2.0000     -10.286431      -279.9080
  45   2.0000     -10.284840      -279.8647
  46   2.0000     -10.284733      -279.8618
  47   2.0000     -10.283418      -279.8260
  48   2.0000     -10.281904      -279.7848
  49   2.0000     -10.280398      -279.7439
  50   2.0000     -10.279528      -279.7202
  51   2.0000     -10.278962      -279.7048
  52   2.0000     -10.275871      -279.6207
  53   2.0000     -10.274851      -279.5929
  54   2.0000     -10.272514      -279.5293
  55   2.0000     -10.270729      -279.4807
  56   2.0000     -10.266274      -279.3595
  57   2.0000     -10.264361      -279.3075
  58   2.0000     -10.262291      -279.2511
  59   2.0000     -10.261021      -279.2166
  60   2.0000     -10.260370      -279.1989
  61   2.0000     -10.260157      -279.1931
  62   2.0000     -10.255663      -279.0708
  63   2.0000     -10.253346      -279.0077
  64   2.0000     -10.252476      -278.9841
  65   2.0000     -10.249289      -278.8973
  66   2.0000      -8.054734      -219.1804
  67   2.0000      -6.023806      -163.9161
  68   2.0000      -6.019953      -163.8113
  69   2.0000      -6.016991      -163.7307
  70   2.0000      -1.305727       -35.5306
  71   2.0000      -1.296237       -35.2724
  72   2.0000      -1.192197       -32.4413
  73   2.0000      -1.128867       -30.7180
  74   2.0000      -1.124296       -30.5936
  75   2.0000      -1.122709       -30.5505
  76   2.0000      -1.117689       -30.4139
  77   2.0000      -1.113002       -30.2863
  78   2.0000      -1.102906       -30.0116
  79   2.0000      -1.055054       -28.7095
  80   2.0000      -1.045521       -28.4501
  81   2.0000      -1.008644       -27.4466
  82   2.0000      -1.005382       -27.3578
  83   2.0000      -0.997632       -27.1470
  84   2.0000      -0.984582       -26.7919
  85   2.0000      -0.976411       -26.5695
  86   2.0000      -0.926373       -25.2079
  87   2.0000      -0.925663       -25.1886
  88   2.0000      -0.921232       -25.0680
  89   2.0000      -0.918688       -24.9988
  90   2.0000      -0.907347       -24.6902
  91   2.0000      -0.898838       -24.4586
  92   2.0000      -0.897931       -24.4339
  93   2.0000      -0.888787       -24.1851
  94   2.0000      -0.870657       -23.6918
  95   2.0000      -0.868202       -23.6250
  96   2.0000      -0.862233       -23.4625
  97   2.0000      -0.859270       -23.3819
  98   2.0000      -0.855472       -23.2786
  99   2.0000      -0.834940       -22.7199
 100   2.0000      -0.828210       -22.5367
 101   2.0000      -0.820971       -22.3398
 102   2.0000      -0.816265       -22.2117
 103   2.0000      -0.814953       -22.1760
 104   2.0000      -0.808589       -22.0028
 105   2.0000      -0.804957       -21.9040
 106   2.0000      -0.794829       -21.6284
 107   2.0000      -0.783091       -21.3090
 108   2.0000      -0.775657       -21.1067
 109   2.0000      -0.772927       -21.0324
 110   2.0000      -0.755707       -20.5638
 111   2.0000      -0.750122       -20.4119
 112   2.0000      -0.733958       -19.9720
 113   2.0000      -0.724981       -19.7277
 114   2.0000      -0.717809       -19.5326
 115   2.0000      -0.715045       -19.4574
 116   2.0000      -0.707768       -19.2593
 117   2.0000      -0.704246       -19.1635
 118   2.0000      -0.695347       -18.9214
 119   2.0000      -0.690218       -18.7818
 120   2.0000      -0.688830       -18.7440
 121   2.0000      -0.676619       -18.4117
 122   2.0000      -0.671782       -18.2801
 123   2.0000      -0.663677       -18.0596
 124   2.0000      -0.659033       -17.9332
 125   2.0000      -0.648864       -17.6565
 126   2.0000      -0.645848       -17.5744
 127   2.0000      -0.638798       -17.3826
 128   2.0000      -0.637728       -17.3535
 129   2.0000      -0.631267       -17.1776
 130   2.0000      -0.624108       -16.9828
 131   2.0000      -0.618091       -16.8191
 132   2.0000      -0.617404       -16.8004
 133   2.0000      -0.613082       -16.6828
 134   2.0000      -0.609206       -16.5773
 135   2.0000      -0.606106       -16.4930
 136   2.0000      -0.602924       -16.4064
 137   2.0000      -0.598518       -16.2865
 138   2.0000      -0.598198       -16.2778
 139   2.0000      -0.595221       -16.1968
 140   2.0000      -0.590956       -16.0807
 141   2.0000      -0.588593       -16.0164
 142   2.0000      -0.587171       -15.9777
 143   2.0000      -0.583552       -15.8793
 144   2.0000      -0.575537       -15.6612
 145   2.0000      -0.574888       -15.6435
 146   2.0000      -0.572639       -15.5823
 147   2.0000      -0.566673       -15.4199
 148   2.0000      -0.566140       -15.4054
 149   2.0000      -0.562756       -15.3134
 150   2.0000      -0.561065       -15.2673
 151   2.0000      -0.555489       -15.1156
 152   2.0000      -0.554622       -15.0920
 153   2.0000      -0.543718       -14.7953
 154   2.0000      -0.543208       -14.7814
 155   2.0000      -0.542110       -14.7516
 156   2.0000      -0.533964       -14.5299
 157   2.0000      -0.529178       -14.3997
 158   2.0000      -0.527301       -14.3486
 159   2.0000      -0.526923       -14.3383
 160   2.0000      -0.522999       -14.2315
 161   2.0000      -0.522830       -14.2269
 162   2.0000      -0.519561       -14.1380
 163   2.0000      -0.515342       -14.0232
 164   2.0000      -0.512984       -13.9590
 165   2.0000      -0.511454       -13.9174
 166   2.0000      -0.509848       -13.8737
 167   2.0000      -0.507963       -13.8224
 168   2.0000      -0.505711       -13.7611
 169   2.0000      -0.504470       -13.7273
 170   2.0000      -0.500491       -13.6191
 171   2.0000      -0.499893       -13.6028
 172   2.0000      -0.498940       -13.5769
 173   2.0000      -0.496364       -13.5068
 174   2.0000      -0.492848       -13.4111
 175   2.0000      -0.491705       -13.3800
 176   2.0000      -0.488240       -13.2857
 177   2.0000      -0.485887       -13.2217
 178   2.0000      -0.483287       -13.1509
 179   2.0000      -0.478836       -13.0298
 180   2.0000      -0.475320       -12.9341
 181   2.0000      -0.471316       -12.8252
 182   2.0000      -0.468402       -12.7459
 183   2.0000      -0.466397       -12.6913
 184   2.0000      -0.465821       -12.6756
 185   2.0000      -0.462937       -12.5972
 186   2.0000      -0.462282       -12.5793
 187   2.0000      -0.461488       -12.5577
 188   2.0000      -0.459252       -12.4969
 189   2.0000      -0.457517       -12.4497
 190   2.0000      -0.452325       -12.3084
 191   2.0000      -0.451152       -12.2765
 192   2.0000      -0.449406       -12.2290
 193   2.0000      -0.447434       -12.1753
 194   2.0000      -0.446845       -12.1593
 195   2.0000      -0.440745       -11.9933
 196   2.0000      -0.440106       -11.9759
 197   2.0000      -0.431143       -11.7320
 198   2.0000      -0.430082       -11.7031
 199   2.0000      -0.428298       -11.6546
 200   2.0000      -0.426632       -11.6092
 201   2.0000      -0.422192       -11.4884
 202   2.0000      -0.417008       -11.3474
 203   2.0000      -0.416090       -11.3224
 204   2.0000      -0.411870       -11.2076
 205   2.0000      -0.411499       -11.1974
 206   2.0000      -0.405563       -11.0359
 207   2.0000      -0.399375       -10.8676
 208   2.0000      -0.397898       -10.8273
 209   2.0000      -0.390800       -10.6342
 210   2.0000      -0.390260       -10.6195
 211   2.0000      -0.384687       -10.4679
 212   2.0000      -0.382868       -10.4184
 213   2.0000      -0.370001       -10.0682
 214   2.0000      -0.368054       -10.0153
 215   2.0000      -0.367836       -10.0093
 216   2.0000      -0.366188        -9.9645
 217   2.0000      -0.360508        -9.8099
 218   2.0000      -0.353798        -9.6273
 219   2.0000      -0.351016        -9.5516
 220   2.0000      -0.345073        -9.3899
 221   2.0000      -0.344460        -9.3732
 222   2.0000      -0.343613        -9.3502
 223   2.0000      -0.338662        -9.2155
 224   2.0000      -0.332063        -9.0359
 225   2.0000      -0.331250        -9.0138
 226   2.0000      -0.322712        -8.7814
 227   2.0000      -0.322342        -8.7714
 228   2.0000      -0.318086        -8.6556
 229   2.0000      -0.308643        -8.3986
 230   2.0000      -0.306439        -8.3386
 231   2.0000      -0.291729        -7.9383
 232   2.0000      -0.279319        -7.6006
 233   2.0000      -0.260280        -7.0826
 234   2.0000      -0.251231        -6.8364
 235   2.0000      -0.231229        -6.2921
 236   0.0000      -0.116254        -3.1634
 237   0.0000      -0.075262        -2.0480
 238   0.0000      -0.043148        -1.1741
 239   0.0000      -0.026701        -0.7266
 240   0.0000      -0.022435        -0.6105

MULLIKEN ATOMIC CHARGES
-----------------------
   0 C :    0.043599
   1 N :   -0.264035
   2 C :    0.113355
   3 C :   -0.000904
   4 C :    0.156698
   5 O :   -0.189575
   6 C :   -0.070053
   7 C :    0.008544
   8 C :    0.158600
   9 O :   -0.192215
  10 N :   -0.278246
  11 C :    0.103374
  12 C :    0.000133
  13 C :    0.134692
  14 C :   -0.047006
  15 C :    0.027044
  16 C :   -0.094975
  17 S :    0.143410
  18 C :   -0.104658
  19 C :   -0.061807
  20 C :   -0.017812
  21 C :    0.193081
  22 O :   -0.386127
  23 C :    0.185986
  24 C :    0.025078
  25 C :    0.021070
  26 C :    0.121029
  27 C :   -0.015628
  28 C :   -0.054123
  29 C :    0.013982
  30 C :    0.079272
  31 N :    0.272958
  32 O :   -0.262067
  33 O :   -0.260912
  34 C :    0.026258
  35 C :    0.005777
  36 C :    0.049636
  37 C :    0.037704
  38 C :   -0.015739
  39 C :    0.004775
  40 C :    0.080759
  41 N :    0.268716
  42 O :   -0.254515
  43 O :   -0.252014
  44 C :    0.002198
  45 C :    0.049761
  46 C :   -0.097336
  47 C :    0.047786
  48 C :   -0.072941
  49 C :    0.205048
  50 O :   -0.167680
  51 O :   -0.283403
  52 C :    0.329733
  53 C :   -0.107043
  54 C :   -0.024942
  55 C :   -0.030909
  56 C :    0.087937
  57 C :   -0.041653
  58 C :   -0.028778
  59 C :    0.073169
  60 C :    0.022583
  61 N :   -0.059247
  62 C :   -0.040633
  63 C :    0.031578
  64 C :    0.016577
  65 C :   -0.036126
  66 H :    0.014716
  67 H :    0.017231
  68 H :    0.043912
  69 H :    0.012831
  70 H :    0.022426
  71 H :    0.030244
  72 H :    0.040487
  73 H :    0.022620
  74 H :    0.026544
  75 H :    0.014141
  76 H :    0.021300
  77 H :    0.016477
  78 H :   -0.014696
  79 H :    0.002526
  80 H :    0.038190
  81 H :    0.016288
  82 H :    0.001875
  83 H :    0.004205
  84 H :    0.012717
  85 H :    0.009534
  86 H :    0.009042
  87 H :    0.025457
  88 H :    0.025483
  89 H :    0.027482
  90 H :    0.035589
  91 H :    0.001145
  92 H :    0.000672
  93 H :    0.012782
  94 H :   -0.005120
  95 H :    0.028204
  96 H :    0.029150
  97 H :    0.039673
  98 H :    0.045092
  99 H :   -0.024590
 100 H :   -0.012810
 101 H :    0.007687
 102 H :   -0.028538
 103 H :    0.101350
 104 H :    0.111134
 105 H :   -0.048176
 106 H :   -0.017511
 107 H :   -0.023703
 108 H :   -0.021862
Sum of atomic charges:   -0.0000000

LOEWDIN ATOMIC CHARGES
----------------------
   0 C :    0.095971
   1 N :   -0.003151
   2 C :    0.038395
   3 C :   -0.060309
   4 C :    0.076515
   5 O :   -0.192551
   6 C :   -0.118321
   7 C :   -0.133844
   8 C :    0.082922
   9 O :   -0.193998
  10 N :   -0.013095
  11 C :    0.033351
  12 C :   -0.063515
  13 C :    0.076518
  14 C :   -0.034725
  15 C :   -0.016533
  16 C :   -0.144108
  17 S :    0.469481
  18 C :   -0.178846
  19 C :   -0.030468
  20 C :   -0.059691
  21 C :    0.071669
  22 O :   -0.162205
  23 C :    0.065513
  24 C :   -0.038783
  25 C :   -0.024390
  26 C :   -0.026113
  27 C :    0.002920
  28 C :   -0.034947
  29 C :    0.021279
  30 C :   -0.061965
  31 N :    0.285252
  32 O :   -0.224906
  33 O :   -0.225719
  34 C :    0.021757
  35 C :   -0.040564
  36 C :    0.056870
  37 C :    0.020930
  38 C :   -0.036351
  39 C :   -0.013500
  40 C :   -0.041580
  41 N :    0.285431
  42 O :   -0.219260
  43 O :   -0.213573
  44 C :    0.016478
  45 C :    0.015984
  46 C :   -0.022294
  47 C :    0.004463
  48 C :   -0.075686
  49 C :    0.086863
  50 O :   -0.159230
  51 O :   -0.084581
  52 C :    0.101168
  53 C :   -0.026313
  54 C :   -0.027711
  55 C :    0.005258
  56 C :   -0.013773
  57 C :   -0.031199
  58 C :   -0.006391
  59 C :   -0.074698
  60 C :    0.039095
  61 N :   -0.022783
  62 C :   -0.068953
  63 C :   -0.007789
  64 C :   -0.060012
  65 C :   -0.001109
  66 H :    0.032513
  67 H :    0.024096
  68 H :    0.037090
  69 H :    0.021581
  70 H :    0.029933
  71 H :    0.031775
  72 H :    0.036555
  73 H :    0.020443
  74 H :    0.032471
  75 H :    0.026672
  76 H :    0.021694
  77 H :    0.038474
  78 H :    0.030872
  79 H :    0.014249
  80 H :    0.024748
  81 H :    0.009493
  82 H :    0.006744
  83 H :    0.023959
  84 H :    0.028203
  85 H :    0.024358
  86 H :    0.029312
  87 H :    0.035155
  88 H :    0.038932
  89 H :    0.038425
  90 H :    0.032659
  91 H :    0.036932
  92 H :    0.031607
  93 H :    0.032758
  94 H :    0.034449
  95 H :    0.038492
  96 H :    0.032845
  97 H :    0.035242
  98 H :    0.036790
  99 H :    0.030285
 100 H :    0.030117
 101 H :    0.030618
 102 H :    0.015980
 103 H :    0.064983
 104 H :    0.072672
 105 H :    0.020898
 106 H :    0.027962
 107 H :    0.024910
 108 H :    0.027506

  Mayer bond orders larger than 0.100000
B(  0-C ,  1-N ) :   1.2050 B(  0-C ,  7-C ) :   1.4407 B(  0-C , 66-H ) :   0.9900
B(  1-N ,  2-C ) :   0.9408 B(  1-N ,  4-C ) :   1.0229 B(  2-C ,  3-C ) :   1.1181
B(  2-C , 67-H ) :   0.9542 B(  2-C , 68-H ) :   0.9346 B(  3-C , 69-H ) :   0.9693
B(  3-C , 70-H ) :   0.9687 B(  3-C , 71-H ) :   0.9676 B(  4-C ,  5-O ) :   2.1253
B(  4-C ,  6-C ) :   0.9929 B(  6-C ,  7-C ) :   1.1983 B(  6-C , 13-C ) :   1.3788
B(  7-C ,  8-C ) :   0.9549 B(  8-C ,  9-O ) :   2.1618 B(  8-C , 10-N ) :   1.0209
B( 10-N , 11-C ) :   0.9471 B( 10-N , 13-C ) :   1.1547 B( 11-C , 12-C ) :   1.1141
B( 11-C , 72-H ) :   0.9207 B( 11-C , 73-H ) :   0.9511 B( 12-C , 74-H ) :   0.9611
B( 12-C , 75-H ) :   0.9677 B( 12-C , 76-H ) :   0.9680 B( 13-C , 14-C ) :   1.1973
B( 14-C , 15-C ) :   1.5421 B( 14-C , 77-H ) :   0.9469 B( 15-C , 16-C ) :   1.1946
B( 15-C , 78-H ) :   0.9611 B( 16-C , 17-S ) :   1.1316 B( 16-C , 20-C ) :   1.4367
B( 17-S , 18-C ) :   1.1059 B( 18-C , 19-C ) :   1.4220 B( 18-C , 27-C ) :   1.2332
B( 19-C , 20-C ) :   1.3808 B( 19-C , 26-C ) :   1.0488 B( 20-C , 21-C ) :   0.9608
B( 21-C , 22-O ) :   1.0223 B( 21-C , 24-C ) :   1.0747 B( 21-C , 79-H ) :   0.9041
B( 22-O , 23-C ) :   0.9776 B( 23-C , 80-H ) :   0.9791 B( 23-C , 81-H ) :   0.9688
B( 23-C , 82-H ) :   0.9625 B( 24-C , 25-C ) :   1.0672 B( 24-C , 83-H ) :   0.9268
B( 24-C , 84-H ) :   0.9319 B( 25-C , 26-C ) :   1.0875 B( 25-C , 85-H ) :   0.9461
B( 25-C , 86-H ) :   0.9303 B( 26-C , 87-H ) :   0.9148 B( 26-C , 88-H ) :   0.9076
B( 27-C , 28-C ) :   1.5199 B( 27-C , 89-H ) :   0.9558 B( 28-C , 29-C ) :   1.2262
B( 28-C , 90-H ) :   0.9477 B( 29-C , 30-C ) :   1.4989 B( 29-C , 36-C ) :   0.9814
B( 30-C , 31-N ) :   0.9684 B( 30-C , 34-C ) :   1.1204 B( 31-N , 32-O ) :   1.4846
B( 31-N , 33-O ) :   1.5209 B( 32-O , 33-O ) :   0.2515 B( 34-C , 35-C ) :   1.5726
B( 34-C , 91-H ) :   1.0115 B( 35-C , 36-C ) :   1.1252 B( 35-C , 92-H ) :   0.9989
B( 36-C , 37-C ) :   1.5532 B( 37-C , 38-C ) :   1.0850 B( 37-C , 44-C ) :   1.0586
B( 38-C , 39-C ) :   1.6163 B( 38-C , 93-H ) :   0.9883 B( 39-C , 40-C ) :   1.1094
B( 39-C , 94-H ) :   1.0178 B( 40-C , 41-N ) :   0.9465 B( 40-C , 44-C ) :   1.5722
B( 41-N , 42-O ) :   1.5239 B( 41-N , 43-O ) :   1.5017 B( 42-O , 43-O ) :   0.2614
B( 44-C , 45-C ) :   1.1033 B( 45-C , 46-C ) :   1.7754 B( 45-C , 95-H ) :   0.9218
B( 46-C , 47-C ) :   1.0533 B( 46-C , 96-H ) :   0.9479 B( 47-C , 48-C ) :   1.3385
B( 47-C , 56-C ) :   1.3518 B( 48-C , 49-C ) :   0.9074 B( 48-C , 53-C ) :   1.4149
B( 49-C , 50-O ) :   2.1526 B( 49-C , 51-O ) :   1.1399 B( 51-O , 52-C ) :   0.9729
B( 52-C , 53-C ) :   1.0094 B( 52-C , 97-H ) :   0.9278 B( 52-C , 98-H ) :   0.9254
B( 53-C , 54-C ) :   1.3542 B( 54-C , 55-C ) :   1.3765 B( 54-C , 99-H ) :   1.0076
B( 55-C , 56-C ) :   1.3438 B( 55-C ,100-H ) :   0.9881 B( 56-C , 57-C ) :   1.0464
B( 57-C , 58-C ) :   1.7821 B( 57-C ,101-H ) :   0.9635 B( 58-C , 59-C ) :   1.0343
B( 58-C ,102-H ) :   0.9610 B( 59-C , 60-C ) :   1.3062 B( 59-C , 65-C ) :   1.3633
B( 60-C , 61-N ) :   1.2635 B( 60-C , 62-C ) :   1.3239 B( 61-N ,103-H ) :   0.9517
B( 61-N ,104-H ) :   0.9460 B( 62-C , 63-C ) :   1.4132 B( 62-C ,105-H ) :   0.9904
B( 63-C , 64-C ) :   1.3438 B( 63-C ,106-H ) :   0.9893 B( 64-C , 65-C ) :   1.4069
B( 64-C ,107-H ) :   0.9909 B( 65-C ,108-H ) :   0.9890

-----------------------------------------------------------------------------
         ABSORPTION SPECTRUM VIA TRANSITION ELECTRIC DIPOLE MOMENTS
-----------------------------------------------------------------------------
State   Energy  Wavelength   fosc         T2         TX        TY        TZ
        (cm-1)    (nm)                  (au**2)     (au)      (au)      (au)
-----------------------------------------------------------------------------
   0    9977.4   1002.3   0.343800383  11.34397   0.23666  -3.31896   0.52198
   1   15207.6    657.6   0.033633855   0.72810   0.68608   0.29115  -0.41549
   2   16689.6    599.2   0.093722603   1.84873  -0.38413  -1.16732   0.58184
   3   18664.8    535.8   0.068880365   1.21492   0.45274   0.61010  -0.79857
   4   19696.0    507.7   0.248724832   4.15735  -0.57919  -1.72234   0.92490
   5   23909.1    418.3   0.052919826   0.72867  -0.75983   0.38673  -0.04217
   6   23952.1    417.5   0.313126041   4.30379   1.22553  -1.66260   0.19396
   7   25103.5    398.4   0.053143413   0.69693  -0.75426  -0.06827   0.35123
   8   26151.2    382.4   0.039321921   0.49502   0.05469  -0.64866   0.26695
   9   26670.8    374.9   0.131545092   1.62373   1.25118   0.22711  -0.08188
  10   27370.6    365.4   0.027010777   0.32488  -0.29266   0.46959   0.13683
  11   27434.4    364.5   0.019044179   0.22853   0.41048  -0.22283  -0.10191
  12   27608.0    362.2   0.102941990   1.22753  -0.26883   1.04953   0.23185
  13   27782.8    359.9   0.152502321   1.80708   1.14696  -0.41479  -0.56524
  14   28514.5    350.7   0.043584305   0.50320   0.51450  -0.20699   0.44232
  15   29020.8    344.6   0.000454394   0.00515   0.00268   0.00414  -0.07163
  16   29654.8    337.2   0.134303805   1.49097  -0.61129  -0.89050  -0.56948
  17   30454.9    328.4   0.350403169   3.78779  -0.83129  -0.52929   1.67828
  18   30941.5    323.2   0.315826180   3.36033  -1.54733   0.90471   0.38418
  19   31701.7    315.4   0.021835389   0.22675  -0.28578   0.32620  -0.19666
  20   31790.5    314.6   0.075408525   0.78091  -0.60400   0.34362  -0.54591
  21   31963.7    312.9   0.110372602   1.13679   0.71448  -0.67714   0.40962
  22   32259.7    310.0   0.018190171   0.18563  -0.31661  -0.13479   0.25927
  23   32684.9    306.0   0.020378004   0.20525   0.31392   0.31896   0.07051
  24   33064.6    302.4   0.151744024   1.51086   0.63375   0.82915   0.64940
  25   33375.0    299.6   0.045826419   0.45203  -0.38599  -0.42679  -0.34769
  26   33503.8    298.5   0.045791851   0.44996  -0.60607  -0.21911  -0.18607
  27   33676.3    296.9   0.152399648   1.48983  -1.01404  -0.66403  -0.14356
  28   33810.5    295.8   0.298520605   2.90669   1.65986   0.15404   0.35751
  29   34118.8    293.1   0.004939677   0.04766   0.13043   0.12213   0.12544
  30   34428.0    290.5   0.010714932   0.10246  -0.11835   0.28251   0.09296
  31   34801.9    287.3   0.251519485   2.37928  -1.09403  -1.00312  -0.41969
  32   34999.5    285.7   0.022498495   0.21162   0.25033  -0.34442  -0.17416
  33   35384.2    282.6   0.112790935   1.04940   0.75092   0.50123   0.48403
  34   35897.0    278.6   0.023176521   0.21255  -0.43252  -0.03680   0.15533
  35   36041.9    277.5   0.142218742   1.29905   1.13499   0.04787   0.09249
  36   36144.0    276.7   0.091414643   0.83264  -0.50442   0.13826  -0.74772
  37   36330.9    275.2   0.020577375   0.18646  -0.12475   0.38704  -0.14527
  38   36396.1    274.8   0.038721171   0.35024  -0.22934  -0.54555  -0.00436
  39   36601.4    273.2   0.051970960   0.46745   0.61686  -0.28646   0.06983
  40   36867.6    271.2   0.017590918   0.15708   0.24772  -0.30501   0.05177
  41   37638.7    265.7   0.112776448   0.98642  -0.23772   0.15890   0.95113
  42   37966.9    263.4   0.099194558   0.86012   0.18613  -0.62536  -0.65909
  43   38529.1    259.5   0.006581767   0.05624  -0.03200   0.09085  -0.21670
  44   38857.8    257.3   0.021380063   0.18114  -0.15625  -0.35170  -0.18173
  45   39091.8    255.8   0.016237682   0.13675   0.09827  -0.10967   0.33921
  46   39446.6    253.5   0.068045161   0.56789   0.09440   0.18105   0.72539
  47   39529.6    253.0   0.021002821   0.17492  -0.07104  -0.15083  -0.38356
  48   39630.8    252.3   0.012478147   0.10366   0.08917   0.01505  -0.30900
  49   39804.2    251.2   0.054498095   0.45074   0.25076  -0.21971  -0.58274
  50   39932.1    250.4   0.153661141   1.26683   0.09247   0.36982  -1.05901
  51   40213.9    248.7   0.000279313   0.00229  -0.03711   0.02682   0.01380

FINAL SINGLE POINT ENERGY     -3314.272397058370

DIPOLE MOMENT
-------------
                                X             Y             Z
Electronic contribution:    -11.66013      32.30697     -14.81607
Nuclear contribution   :     11.80189     -30.77240      14.60407
                        -----------------------------------------
Total Dipole Moment    :      0.14176       1.53458      -0.21200
                        -----------------------------------------
Magnitude (a.u.)       :      1.55562
Magnitude (Debye)      :      3.95408

Rotational constants in cm-1:     0.001589     0.000421     0.000379
Rotational constants in MHz :    47.626809    12.630980    11.348346

                             ****ORCA TERMINATED NORMALLY****
TOTAL RUN TIME: 0 days 0 hours 10 minutes 54 seconds 189 msec
