                         Program Version 4.2.0 -  RELEASE  -
|  1> # ORCA input file
|  2> # SCF done       -199.751660076514          0.000728077042
|  3> ! CAM-B3LYP def2-SVP def2/J RIJCOSX Grid4 TightSCF
|  4> %maxcore 5000
|  5> %tddft
|  6>     Mode sTDDFT
|  7>     Ethresh 5.0
|  8>     maxcore 5000
|  9> end
| 10>
| 11> %pal
| 12>   nprocs 6
| 13>   end
| 14> * xyz 0 1
| 15>    C       -8.42417         3.44173         2.74042
| 16>    C       -7.11660         3.03021         2.84499
| 17>    C       -6.53050         2.54244         4.02840
| 18>    N       -6.00586         2.14220         4.96812
| 19>    C       -6.24103         2.99163         1.74486
| 20>    N       -5.53162         2.91503         0.84312
| 21>    C       -9.44209         3.36038         3.78487
| 22>    C      -10.69923         3.70925         3.22573
| 23>    C      -11.85805         3.71426         3.96147
| 24>    C      -11.77362         3.36649         5.31476
| 25>    C      -10.51562         3.02480         5.86355
| 26>    C       -9.34235         3.01267         5.11717
| 27>    S      -10.63971         2.63461         7.55200
| 28>    C      -12.35609         2.93569         7.49942
| 29>    C      -12.81539         3.30517         6.28011
| 30>   Br      -13.38137         2.72586         9.05608
| 31>    C      -10.50827         4.05573         1.80649
| 32>    O      -11.36147         4.40209         0.99747
| 33>    C       -9.07410         3.93675         1.55676
| 34>    C       -8.49806         4.34816         0.37463
| 35>    N       -9.24016         4.72318        -0.66112
| 36>    C       -8.81499         5.24766        -1.86909
| 37>    C       -9.68227         5.92281        -2.68558
| 38>    S       -8.92139         6.53578        -4.08705
| 39>    C       -7.42001         5.85456        -3.61294
| 40>    C       -7.48513         5.19100        -2.41875
| 41>    N       -6.42486         4.51358        -1.83972
| 42>    C       -5.10017         4.88740        -1.89914
| 43>    C       -4.65771         6.12875        -2.14620
| 44>    C       -3.27002         6.53429        -2.17567
| 45>    C       -2.22286         5.62124        -2.36916
| 46>    C       -0.92490         6.07091        -2.40808
| 47>    C       -0.63705         7.43124        -2.19015
| 48>    C       -1.66428         8.34576        -2.00404
| 49>    C       -2.96651         7.89334        -2.02158
| 50>    C        0.79503         7.60927        -2.18693
| 51>    C        1.40207         6.36372        -2.43102
| 52>    C        0.35104         5.29302        -2.64514
| 53>    C        0.51203         4.12474        -1.66172
| 54>    C        0.49290         4.58527        -0.20862
| 55>    C        0.47673         4.82635        -4.11466
| 56>    C       -0.60345         3.87304        -4.60868
| 57>    C        2.76710         6.24804        -2.48943
| 58>    C        3.56973         7.38327        -2.27672
| 59>    C        2.94603         8.61062        -1.99330
| 60>    C        1.57471         8.73671        -1.96026
| 61>    C        5.00440         7.35161        -2.34522
| 62>    C        5.74716         6.36038        -2.89425
| 63>    C        7.16571         6.32899        -3.02302
| 64>    C        8.08734         7.20976        -2.40581
| 65>    C        9.50512         7.14295        -2.67460
| 66>    N       10.33707         8.00586        -2.08519
| 67>    C        9.86287         8.90798        -1.25289
| 68>    C        8.46596         8.95456        -0.95977
| 69>    N        7.63085         8.12027        -1.53077
| 70>    C        7.95904         9.90701        -0.04157
| 71>    N        7.57428        10.69465         0.69655
| 72>    C       10.75494         9.82288        -0.64685
| 73>    N       11.45158        10.58100        -0.14224
| 74>    C       10.07811         6.19094        -3.57655
| 75>    C        9.15651         5.27359        -4.13853
| 76>    C        7.74386         5.34040        -3.85644
| 77>    N        7.06870         4.38044        -4.48941
| 78>    S        8.09342         3.48331        -5.34387
| 79>    N        9.44604         4.27082        -4.95861
| 80>    C       11.45528         6.25578        -3.82811
| 81>    C       12.27075         5.57211        -4.70333
| 82>    C       13.65687         5.85965        -4.81639
| 83>    C       14.31076         5.14924        -5.77403
| 84>    C       13.46998         4.25310        -6.47161
| 85>    S       11.83158         4.32697        -5.84847
| 86>    C       13.81418         3.41438        -7.51141
| 87>    C       15.09193         3.26862        -8.11711
| 88>    C       15.12927         2.37729        -9.13396
| 89>    C       13.87252         1.74407        -9.40927
| 90>    S       12.65077         2.36359        -8.28491
| 91>    C       13.60254         0.82789       -10.35057
| 92>    H      -12.80134         3.98143         3.51140
| 93>    H       -8.40561         2.74738         5.57880
| 94>    H      -13.84565         3.52630         6.06880
| 95>    H       -7.42523         4.42051         0.27918
| 96>    H      -10.25142         4.73217        -0.47716
| 97>    H      -10.72267         6.10750        -2.50786
| 98>    H       -6.56234         5.96472        -4.24411
| 99>    H       -6.61097         3.60314        -1.44725
|100>    H       -4.42363         4.08743        -1.63922
|101>    H       -5.37947         6.92038        -2.29869
|102>    H       -2.44766         4.57377        -2.49264
|103>    H       -1.44856         9.39254        -1.84955
|104>    H       -3.77768         8.59501        -1.88617
|105>    H        1.45566         3.61588        -1.87011
|106>    H       -0.29724         3.41012        -1.81745
|107>    H        1.30520         5.28236        -0.01485
|108>    H        0.60423         3.73248         0.45728
|109>    H       -0.44706         5.08191         0.02239
|110>    H        1.45217         4.34763        -4.22709
|111>    H        0.47265         5.71709        -4.74884
|112>    H       -0.65032         2.97525        -3.99796
|113>    H       -0.37803         3.57338        -5.63023
|114>    H       -1.57702         4.35549        -4.60573
|115>    H        3.23026         5.29099        -2.67455
|116>    H        3.56759         9.47615        -1.81367
|117>    H        1.11517         9.69235        -1.75645
|118>    H        5.51188         8.22424        -1.96041
|119>    H        5.25976         5.51315        -3.35847
|120>    H       11.96004         7.01470        -3.24073
|121>    H       14.12189         6.59629        -4.18473
|122>    H       15.35855         5.25089        -5.99303
|123>    H       15.94045         3.83526        -7.77686
|124>    H       16.00435         2.13729        -9.71128
|125>    H       14.37330         0.47951       -11.01518
|126>    H       12.61744         0.41633       -10.47224
|127> *
|128>
|129>                          ****END OF INPUT****

CARTESIAN COORDINATES (ANGSTROEM)
---------------------------------
  C     -8.424170    3.441730    2.740420
  C     -7.116600    3.030210    2.844990
  C     -6.530500    2.542440    4.028400
  N     -6.005860    2.142200    4.968120
  C     -6.241030    2.991630    1.744860
  N     -5.531620    2.915030    0.843120
  C     -9.442090    3.360380    3.784870
  C    -10.699230    3.709250    3.225730
  C    -11.858050    3.714260    3.961470
  C    -11.773620    3.366490    5.314760
  C    -10.515620    3.024800    5.863550
  C     -9.342350    3.012670    5.117170
  S    -10.639710    2.634610    7.552000
  C    -12.356090    2.935690    7.499420
  C    -12.815390    3.305170    6.280110
  Br   -13.381370    2.725860    9.056080
  C    -10.508270    4.055730    1.806490
  O    -11.361470    4.402090    0.997470
  C     -9.074100    3.936750    1.556760
  C     -8.498060    4.348160    0.374630
  N     -9.240160    4.723180   -0.661120
  C     -8.814990    5.247660   -1.869090
  C     -9.682270    5.922810   -2.685580
  S     -8.921390    6.535780   -4.087050
  C     -7.420010    5.854560   -3.612940
  C     -7.485130    5.191000   -2.418750
  N     -6.424860    4.513580   -1.839720
  C     -5.100170    4.887400   -1.899140
  C     -4.657710    6.128750   -2.146200
  C     -3.270020    6.534290   -2.175670
  C     -2.222860    5.621240   -2.369160
  C     -0.924900    6.070910   -2.408080
  C     -0.637050    7.431240   -2.190150
  C     -1.664280    8.345760   -2.004040
  C     -2.966510    7.893340   -2.021580
  C      0.795030    7.609270   -2.186930
  C      1.402070    6.363720   -2.431020
  C      0.351040    5.293020   -2.645140
  C      0.512030    4.124740   -1.661720
  C      0.492900    4.585270   -0.208620
  C      0.476730    4.826350   -4.114660
  C     -0.603450    3.873040   -4.608680
  C      2.767100    6.248040   -2.489430
  C      3.569730    7.383270   -2.276720
  C      2.946030    8.610620   -1.993300
  C      1.574710    8.736710   -1.960260
  C      5.004400    7.351610   -2.345220
  C      5.747160    6.360380   -2.894250
  C      7.165710    6.328990   -3.023020
  C      8.087340    7.209760   -2.405810
  C      9.505120    7.142950   -2.674600
  N     10.337070    8.005860   -2.085190
  C      9.862870    8.907980   -1.252890
  C      8.465960    8.954560   -0.959770
  N      7.630850    8.120270   -1.530770
  C      7.959040    9.907010   -0.041570
  N      7.574280   10.694650    0.696550
  C     10.754940    9.822880   -0.646850
  N     11.451580   10.581000   -0.142240
  C     10.078110    6.190940   -3.576550
  C      9.156510    5.273590   -4.138530
  C      7.743860    5.340400   -3.856440
  N      7.068700    4.380440   -4.489410
  S      8.093420    3.483310   -5.343870
  N      9.446040    4.270820   -4.958610
  C     11.455280    6.255780   -3.828110
  C     12.270750    5.572110   -4.703330
  C     13.656870    5.859650   -4.816390
  C     14.310760    5.149240   -5.774030
  C     13.469980    4.253100   -6.471610
  S     11.831580    4.326970   -5.848470
  C     13.814180    3.414380   -7.511410
  C     15.091930    3.268620   -8.117110
  C     15.129270    2.377290   -9.133960
  C     13.872520    1.744070   -9.409270
  S     12.650770    2.363590   -8.284910
  C     13.602540    0.827890  -10.350570
  H    -12.801340    3.981430    3.511400
  H     -8.405610    2.747380    5.578800
  H    -13.845650    3.526300    6.068800
  H     -7.425230    4.420510    0.279180
  H    -10.251420    4.732170   -0.477160
  H    -10.722670    6.107500   -2.507860
  H     -6.562340    5.964720   -4.244110
  H     -6.610970    3.603140   -1.447250
  H     -4.423630    4.087430   -1.639220
  H     -5.379470    6.920380   -2.298690
  H     -2.447660    4.573770   -2.492640
  H     -1.448560    9.392540   -1.849550
  H     -3.777680    8.595010   -1.886170
  H      1.455660    3.615880   -1.870110
  H     -0.297240    3.410120   -1.817450
  H      1.305200    5.282360   -0.014850
  H      0.604230    3.732480    0.457280
  H     -0.447060    5.081910    0.022390
  H      1.452170    4.347630   -4.227090
  H      0.472650    5.717090   -4.748840
  H     -0.650320    2.975250   -3.997960
  H     -0.378030    3.573380   -5.630230
  H     -1.577020    4.355490   -4.605730
  H      3.230260    5.290990   -2.674550
  H      3.567590    9.476150   -1.813670
  H      1.115170    9.692350   -1.756450
  H      5.511880    8.224240   -1.960410
  H      5.259760    5.513150   -3.358470
  H     11.960040    7.014700   -3.240730
  H     14.121890    6.596290   -4.184730
  H     15.358550    5.250890   -5.993030
  H     15.940450    3.835260   -7.776860
  H     16.004350    2.137290   -9.711280
  H     14.373300    0.479510  -11.015180
  H     12.617440    0.416330  -10.472240

 Total Charge           Charge          ....    0
 Multiplicity           Mult            ....    1
 Number of Electrons    NEL             ....  588
 Basis Dimension        Dim             .... 1291

ORBITAL ENERGIES
----------------

  NO   OCC          E(Eh)            E(eV)
   0   2.0000    -482.885420    -13139.9803
   1   2.0000     -89.030528     -2422.6438
   2   2.0000     -88.975672     -2421.1511
   3   2.0000     -88.966829     -2420.9105
   4   2.0000     -88.949142     -2420.4292
   5   2.0000     -88.948316     -2420.4067
   6   2.0000     -62.563131     -1702.4293
   7   2.0000     -56.397084     -1534.6427
   8   2.0000     -56.394364     -1534.5687
   9   2.0000     -56.394332     -1534.5678
  10   2.0000     -19.222720      -523.0768
  11   2.0000     -14.485505      -394.1706
  12   2.0000     -14.447326      -393.1317
  13   2.0000     -14.444441      -393.0532
  14   2.0000     -14.443059      -393.0156
  15   2.0000     -14.442533      -393.0013
  16   2.0000     -14.438603      -392.8944
  17   2.0000     -14.421438      -392.4273
  18   2.0000     -14.416726      -392.2991
  19   2.0000     -14.414444      -392.2370
  20   2.0000     -14.410241      -392.1226
  21   2.0000     -10.370607      -282.1986
  22   2.0000     -10.365081      -282.0482
  23   2.0000     -10.361593      -281.9533
  24   2.0000     -10.359960      -281.9088
  25   2.0000     -10.358522      -281.8697
  26   2.0000     -10.342291      -281.4281
  27   2.0000     -10.335384      -281.2401
  28   2.0000     -10.333981      -281.2019
  29   2.0000     -10.332359      -281.1578
  30   2.0000     -10.332082      -281.1502
  31   2.0000     -10.330113      -281.0967
  32   2.0000     -10.327956      -281.0380
  33   2.0000     -10.326786      -281.0061
  34   2.0000     -10.326323      -280.9935
  35   2.0000     -10.324866      -280.9539
  36   2.0000     -10.322274      -280.8833
  37   2.0000     -10.317229      -280.7461
  38   2.0000     -10.316237      -280.7191
  39   2.0000     -10.314277      -280.6657
  40   2.0000     -10.310501      -280.5630
  41   2.0000     -10.309074      -280.5242
  42   2.0000     -10.307369      -280.4778
  43   2.0000     -10.306982      -280.4672
  44   2.0000     -10.305664      -280.4314
  45   2.0000     -10.305586      -280.4292
  46   2.0000     -10.304260      -280.3932
  47   2.0000     -10.303986      -280.3857
  48   2.0000     -10.303685      -280.3775
  49   2.0000     -10.301969      -280.3308
  50   2.0000     -10.297868      -280.2192
  51   2.0000     -10.296641      -280.1858
  52   2.0000     -10.296302      -280.1766
  53   2.0000     -10.295483      -280.1543
  54   2.0000     -10.293464      -280.0994
  55   2.0000     -10.291503      -280.0460
  56   2.0000     -10.291281      -280.0400
  57   2.0000     -10.285996      -279.8962
  58   2.0000     -10.285687      -279.8878
  59   2.0000     -10.282674      -279.8058
  60   2.0000     -10.281312      -279.7687
  61   2.0000     -10.267344      -279.3886
  62   2.0000     -10.266169      -279.3567
  63   2.0000     -10.263490      -279.2838
  64   2.0000     -10.262296      -279.2513
  65   2.0000     -10.261635      -279.2333
  66   2.0000     -10.259328      -279.1705
  67   2.0000     -10.258021      -279.1349
  68   2.0000     -10.257852      -279.1304
  69   2.0000     -10.257570      -279.1227
  70   2.0000     -10.257504      -279.1209
  71   2.0000     -10.256315      -279.0885
  72   2.0000     -10.255414      -279.0640
  73   2.0000     -10.254178      -279.0304
  74   2.0000     -10.253892      -279.0226
  75   2.0000     -10.253577      -279.0140
  76   2.0000     -10.253528      -279.0127
  77   2.0000     -10.252067      -278.9729
  78   2.0000     -10.248714      -278.8817
  79   2.0000     -10.243755      -278.7468
  80   2.0000     -10.234664      -278.4994
  81   2.0000      -8.792561      -239.2577
  82   2.0000      -8.121861      -221.0071
  83   2.0000      -8.071612      -219.6397
  84   2.0000      -8.062746      -219.3985
  85   2.0000      -8.045837      -218.9383
  86   2.0000      -8.042831      -218.8566
  87   2.0000      -6.628873      -180.3808
  88   2.0000      -6.614293      -179.9841
  89   2.0000      -6.614082      -179.9783
  90   2.0000      -6.093063      -165.8007
  91   2.0000      -6.085393      -165.5920
  92   2.0000      -6.084299      -165.5622
  93   2.0000      -6.041299      -164.3921
  94   2.0000      -6.037011      -164.2754
  95   2.0000      -6.032862      -164.1625
  96   2.0000      -6.032043      -164.1402
  97   2.0000      -6.027801      -164.0248
  98   2.0000      -6.024956      -163.9474
  99   2.0000      -6.015618      -163.6933
 100   2.0000      -6.012653      -163.6126
 101   2.0000      -6.011630      -163.5848
 102   2.0000      -6.008266      -163.4932
 103   2.0000      -6.006504      -163.4453
 104   2.0000      -6.003906      -163.3746
 105   2.0000      -2.744722       -74.6877
 106   2.0000      -2.740632       -74.5764
 107   2.0000      -2.740533       -74.5737
 108   2.0000      -2.728906       -74.2573
 109   2.0000      -2.728898       -74.2571
 110   2.0000      -1.136546       -30.9270
 111   2.0000      -1.128930       -30.7198
 112   2.0000      -1.103497       -30.0277
 113   2.0000      -1.089077       -29.6353
 114   2.0000      -1.043265       -28.3887
 115   2.0000      -1.030159       -28.0320
 116   2.0000      -1.022648       -27.8277
 117   2.0000      -1.014208       -27.5980
 118   2.0000      -1.000028       -27.2121
 119   2.0000      -0.998974       -27.1835
 120   2.0000      -0.995298       -27.0834
 121   2.0000      -0.990272       -26.9467
 122   2.0000      -0.988773       -26.9059
 123   2.0000      -0.985334       -26.8123
 124   2.0000      -0.980056       -26.6687
 125   2.0000      -0.974897       -26.5283
 126   2.0000      -0.973928       -26.5019
 127   2.0000      -0.960803       -26.1448
 128   2.0000      -0.940727       -25.5985
 129   2.0000      -0.932384       -25.3714
 130   2.0000      -0.908434       -24.7197
 131   2.0000      -0.908263       -24.7151
 132   2.0000      -0.900045       -24.4915
 133   2.0000      -0.893320       -24.3085
 134   2.0000      -0.893199       -24.3052
 135   2.0000      -0.885753       -24.1026
 136   2.0000      -0.883829       -24.0502
 137   2.0000      -0.875016       -23.8104
 138   2.0000      -0.863000       -23.4834
 139   2.0000      -0.859491       -23.3879
 140   2.0000      -0.851933       -23.1823
 141   2.0000      -0.845496       -23.0071
 142   2.0000      -0.833491       -22.6804
 143   2.0000      -0.829586       -22.5742
 144   2.0000      -0.826654       -22.4944
 145   2.0000      -0.825250       -22.4562
 146   2.0000      -0.821284       -22.3483
 147   2.0000      -0.819285       -22.2939
 148   2.0000      -0.817648       -22.2493
 149   2.0000      -0.811586       -22.0844
 150   2.0000      -0.806531       -21.9468
 151   2.0000      -0.791705       -21.5434
 152   2.0000      -0.785191       -21.3661
 153   2.0000      -0.767837       -20.8939
 154   2.0000      -0.763376       -20.7725
 155   2.0000      -0.758561       -20.6415
 156   2.0000      -0.753052       -20.4916
 157   2.0000      -0.741429       -20.1753
 158   2.0000      -0.724789       -19.7225
 159   2.0000      -0.720155       -19.5964
 160   2.0000      -0.719127       -19.5684
 161   2.0000      -0.708110       -19.2687
 162   2.0000      -0.699704       -19.0399
 163   2.0000      -0.694331       -18.8937
 164   2.0000      -0.690005       -18.7760
 165   2.0000      -0.687655       -18.7120
 166   2.0000      -0.682443       -18.5702
 167   2.0000      -0.680368       -18.5138
 168   2.0000      -0.679917       -18.5015
 169   2.0000      -0.676255       -18.4018
 170   2.0000      -0.666728       -18.1426
 171   2.0000      -0.661202       -17.9922
 172   2.0000      -0.658387       -17.9156
 173   2.0000      -0.655203       -17.8290
 174   2.0000      -0.650869       -17.7110
 175   2.0000      -0.645399       -17.5622
 176   2.0000      -0.637675       -17.3520
 177   2.0000      -0.635140       -17.2830
 178   2.0000      -0.630968       -17.1695
 179   2.0000      -0.629108       -17.1189
 180   2.0000      -0.618552       -16.8317
 181   2.0000      -0.616166       -16.7667
 182   2.0000      -0.609945       -16.5974
 183   2.0000      -0.608557       -16.5597
 184   2.0000      -0.605727       -16.4827
 185   2.0000      -0.603020       -16.4090
 186   2.0000      -0.597512       -16.2591
 187   2.0000      -0.587601       -15.9894
 188   2.0000      -0.580433       -15.7944
 189   2.0000      -0.578971       -15.7546
 190   2.0000      -0.578246       -15.7349
 191   2.0000      -0.565746       -15.3947
 192   2.0000      -0.563591       -15.3361
 193   2.0000      -0.559493       -15.2246
 194   2.0000      -0.553993       -15.0749
 195   2.0000      -0.549893       -14.9634
 196   2.0000      -0.548117       -14.9150
 197   2.0000      -0.545229       -14.8364
 198   2.0000      -0.543728       -14.7956
 199   2.0000      -0.543186       -14.7808
 200   2.0000      -0.537754       -14.6330
 201   2.0000      -0.535076       -14.5601
 202   2.0000      -0.529958       -14.4209
 203   2.0000      -0.527335       -14.3495
 204   2.0000      -0.524541       -14.2735
 205   2.0000      -0.523365       -14.2415
 206   2.0000      -0.521561       -14.1924
 207   2.0000      -0.518085       -14.0978
 208   2.0000      -0.515570       -14.0294
 209   2.0000      -0.513414       -13.9707
 210   2.0000      -0.512521       -13.9464
 211   2.0000      -0.511403       -13.9160
 212   2.0000      -0.507680       -13.8147
 213   2.0000      -0.506640       -13.7864
 214   2.0000      -0.504648       -13.7322
 215   2.0000      -0.502707       -13.6794
 216   2.0000      -0.500918       -13.6307
 217   2.0000      -0.495907       -13.4943
 218   2.0000      -0.494464       -13.4550
 219   2.0000      -0.491693       -13.3796
 220   2.0000      -0.489607       -13.3229
 221   2.0000      -0.487129       -13.2555
 222   2.0000      -0.486200       -13.2302
 223   2.0000      -0.484135       -13.1740
 224   2.0000      -0.479403       -13.0452
 225   2.0000      -0.476589       -12.9686
 226   2.0000      -0.475705       -12.9446
 227   2.0000      -0.472370       -12.8538
 228   2.0000      -0.468096       -12.7375
 229   2.0000      -0.467583       -12.7236
 230   2.0000      -0.465901       -12.6778
 231   2.0000      -0.462956       -12.5977
 232   2.0000      -0.461393       -12.5551
 233   2.0000      -0.459710       -12.5093
 234   2.0000      -0.458731       -12.4827
 235   2.0000      -0.456974       -12.4349
 236   2.0000      -0.452280       -12.3072
 237   2.0000      -0.449786       -12.2393
 238   2.0000      -0.447707       -12.1827
 239   2.0000      -0.443535       -12.0692
 240   2.0000      -0.443165       -12.0591
 241   2.0000      -0.442632       -12.0446
 242   2.0000      -0.440895       -11.9974
 243   2.0000      -0.440696       -11.9920
 244   2.0000      -0.439622       -11.9627
 245   2.0000      -0.439180       -11.9507
 246   2.0000      -0.437800       -11.9131
 247   2.0000      -0.436007       -11.8644
 248   2.0000      -0.433418       -11.7939
 249   2.0000      -0.431652       -11.7459
 250   2.0000      -0.429236       -11.6801
 251   2.0000      -0.429157       -11.6779
 252   2.0000      -0.427922       -11.6444
 253   2.0000      -0.426517       -11.6061
 254   2.0000      -0.423092       -11.5129
 255   2.0000      -0.420608       -11.4453
 256   2.0000      -0.418044       -11.3756
 257   2.0000      -0.416370       -11.3300
 258   2.0000      -0.411272       -11.1913
 259   2.0000      -0.411123       -11.1872
 260   2.0000      -0.410070       -11.1586
 261   2.0000      -0.409268       -11.1367
 262   2.0000      -0.407534       -11.0896
 263   2.0000      -0.402055       -10.9405
 264   2.0000      -0.400845       -10.9076
 265   2.0000      -0.393528       -10.7084
 266   2.0000      -0.390363       -10.6223
 267   2.0000      -0.388617       -10.5748
 268   2.0000      -0.387784       -10.5521
 269   2.0000      -0.384955       -10.4752
 270   2.0000      -0.375964       -10.2305
 271   2.0000      -0.374911       -10.2018
 272   2.0000      -0.371009       -10.0957
 273   2.0000      -0.368296       -10.0218
 274   2.0000      -0.367072        -9.9885
 275   2.0000      -0.353091        -9.6081
 276   2.0000      -0.349320        -9.5055
 277   2.0000      -0.348034        -9.4705
 278   2.0000      -0.344363        -9.3706
 279   2.0000      -0.339568        -9.2401
 280   2.0000      -0.338567        -9.2129
 281   2.0000      -0.335832        -9.1384
 282   2.0000      -0.331809        -9.0290
 283   2.0000      -0.327596        -8.9143
 284   2.0000      -0.317080        -8.6282
 285   2.0000      -0.316848        -8.6219
 286   2.0000      -0.308166        -8.3856
 287   2.0000      -0.301793        -8.2122
 288   2.0000      -0.294705        -8.0193
 289   2.0000      -0.291875        -7.9423
 290   2.0000      -0.275967        -7.5095
 291   2.0000      -0.266238        -7.2447
 292   2.0000      -0.234542        -6.3822
 293   2.0000      -0.207639        -5.6502
 294   0.0000      -0.113515        -3.0889
 295   0.0000      -0.076828        -2.0906
 296   0.0000      -0.058075        -1.5803
 297   0.0000      -0.050876        -1.3844
 298   0.0000      -0.037970        -1.0332

MULLIKEN ATOMIC CHARGES
-----------------------
   0 C :    0.318039
   1 C :   -0.347703
   2 C :   -0.180904
   3 N :    0.144788
   4 C :   -0.191283
   5 N :    0.113883
   6 C :    0.009250
   7 C :   -0.006796
   8 C :   -0.072716
   9 C :    0.116312
  10 C :   -0.091314
  11 C :   -0.021028
  12 S :    0.187215
  13 C :   -0.125019
  14 C :    0.037967
  15 Br:    0.022822
  16 C :    0.168465
  17 O :   -0.218417
  18 C :   -0.143562
  19 C :   -0.001308
  20 N :    0.021944
  21 C :    0.078406
  22 C :   -0.163473
  23 S :    0.140686
  24 C :   -0.173278
  25 C :    0.117635
  26 N :   -0.102046
  27 C :    0.069394
  28 C :   -0.065500
  29 C :    0.128596
  30 C :   -0.101189
  31 C :    0.024378
  32 C :    0.090903
  33 C :   -0.049426
  34 C :   -0.029093
  35 C :    0.102478
  36 C :    0.017137
  37 C :   -0.134423
  38 C :    0.051193
  39 C :    0.025543
  40 C :    0.079048
  41 C :    0.033075
  42 C :   -0.085933
  43 C :    0.114633
  44 C :   -0.014394
  45 C :   -0.045802
  46 C :    0.015985
  47 C :   -0.078392
  48 C :    0.100937
  49 C :   -0.066110
  50 C :   -0.041883
  51 N :    0.047995
  52 C :   -0.146152
  53 C :   -0.121543
  54 N :    0.037425
  55 C :   -0.219454
  56 N :    0.229634
  57 C :   -0.219103
  58 N :    0.226843
  59 C :    0.109499
  60 C :    0.039661
  61 C :    0.004389
  62 N :   -0.286633
  63 S :    0.527994
  64 N :   -0.322943
  65 C :   -0.137858
  66 C :    0.019303
  67 C :    0.022098
  68 C :    0.038948
  69 C :   -0.034331
  70 S :    0.124656
  71 C :   -0.067386
  72 C :    0.031461
  73 C :    0.057718
  74 C :   -0.068464
  75 S :    0.093179
  76 C :   -0.019192
  77 H :   -0.012356
  78 H :   -0.004982
  79 H :   -0.003583
  80 H :    0.048644
  81 H :    0.155287
  82 H :    0.022789
  83 H :    0.031860
  84 H :    0.141166
  85 H :    0.019211
  86 H :   -0.013242
  87 H :   -0.047171
  88 H :   -0.038681
  89 H :   -0.037214
  90 H :   -0.004209
  91 H :    0.004876
  92 H :    0.022192
  93 H :    0.008262
  94 H :    0.021972
  95 H :   -0.006747
  96 H :    0.003966
  97 H :    0.001147
  98 H :    0.007170
  99 H :    0.019691
 100 H :   -0.038878
 101 H :   -0.023768
 102 H :   -0.038412
 103 H :   -0.003027
 104 H :   -0.010262
 105 H :    0.002930
 106 H :   -0.003394
 107 H :   -0.012858
 108 H :   -0.007079
 109 H :   -0.005998
 110 H :    0.026479
 111 H :    0.026760
Sum of atomic charges:   -0.0000000

LOEWDIN ATOMIC CHARGES
----------------------
   0 C :    0.086511
   1 C :   -0.165701
   2 C :   -0.022437
   3 N :   -0.061068
   4 C :   -0.004455
   5 N :   -0.081402
   6 C :   -0.019666
   7 C :   -0.048911
   8 C :    0.020631
   9 C :   -0.034578
  10 C :   -0.145976
  11 C :   -0.007679
  12 S :    0.434438
  13 C :   -0.272630
  14 C :   -0.070726
  15 Br:    0.135968
  16 C :    0.090288
  17 O :   -0.183553
  18 C :   -0.166761
  19 C :    0.113132
  20 N :    0.095858
  21 C :   -0.038322
  22 C :   -0.212010
  23 S :    0.461370
  24 C :   -0.204316
  25 C :   -0.030089
  26 N :    0.004277
  27 C :    0.037385
  28 C :   -0.097375
  29 C :   -0.011159
  30 C :   -0.032086
  31 C :    0.007614
  32 C :   -0.029283
  33 C :   -0.017319
  34 C :   -0.030913
  35 C :   -0.008938
  36 C :    0.003292
  37 C :   -0.034430
  38 C :   -0.015850
  39 C :   -0.056241
  40 C :   -0.009782
  41 C :   -0.059898
  42 C :   -0.012998
  43 C :   -0.031226
  44 C :   -0.010297
  45 C :   -0.024345
  46 C :    0.015081
  47 C :   -0.035139
  48 C :   -0.037013
  49 C :   -0.009117
  50 C :   -0.007375
  51 N :    0.001006
  52 C :   -0.044978
  53 C :   -0.030412
  54 N :    0.003283
  55 C :   -0.035627
  56 N :   -0.014464
  57 C :   -0.037857
  58 N :   -0.020305
  59 C :   -0.032858
  60 C :   -0.041117
  61 C :   -0.039372
  62 N :   -0.287404
  63 S :    0.651930
  64 N :   -0.291434
  65 C :   -0.048744
  66 C :   -0.128461
  67 C :   -0.032200
  68 C :   -0.025009
  69 C :   -0.196057
  70 S :    0.431806
  71 C :   -0.161249
  72 C :   -0.026474
  73 C :   -0.022172
  74 C :   -0.141160
  75 S :    0.363931
  76 C :   -0.060680
  77 H :    0.040353
  78 H :    0.041732
  79 H :    0.038520
  80 H :    0.038292
  81 H :    0.088706
  82 H :    0.027242
  83 H :    0.029191
  84 H :    0.079223
  85 H :    0.029865
  86 H :    0.024015
  87 H :    0.019166
  88 H :    0.025415
  89 H :    0.022919
  90 H :    0.019252
  91 H :    0.018845
  92 H :    0.025600
  93 H :    0.023489
  94 H :    0.026237
  95 H :    0.019033
  96 H :    0.026237
  97 H :    0.019089
  98 H :    0.025504
  99 H :    0.023946
 100 H :    0.023499
 101 H :    0.028017
 102 H :    0.025888
 103 H :    0.025897
 104 H :    0.028835
 105 H :    0.039913
 106 H :    0.036196
 107 H :    0.030882
 108 H :    0.034437
 109 H :    0.035759
 110 H :    0.031492
 111 H :    0.028610

  Mayer bond orders larger than 0.100000
B(  0-C ,  1-C ) :   1.5996 B(  0-C ,  6-C ) :   1.0043 B(  0-C , 18-C ) :   1.1324
B(  1-C ,  2-C ) :   1.1387 B(  1-C ,  4-C ) :   1.1573 B(  2-C ,  3-N ) :   2.9734
B(  4-C ,  5-N ) :   2.9600 B(  6-C ,  7-C ) :   1.2750 B(  6-C , 11-C ) :   1.4280
B(  7-C ,  8-C ) :   1.4328 B(  7-C , 16-C ) :   0.9685 B(  8-C ,  9-C ) :   1.2372
B(  8-C , 77-H ) :   1.0177 B(  9-C , 10-C ) :   1.3162 B(  9-C , 14-C ) :   1.1636
B( 10-C , 11-C ) :   1.3158 B( 10-C , 12-S ) :   1.0861 B( 11-C , 78-H ) :   0.9817
B( 12-S , 13-C ) :   1.0897 B( 13-C , 14-C ) :   1.6162 B( 13-C , 15-Br) :   1.0184
B( 14-C , 79-H ) :   1.0005 B( 16-C , 17-O ) :   2.0662 B( 16-C , 18-C ) :   1.0106
B( 17-O , 81-H ) :   0.1311 B( 18-C , 19-C ) :   1.3746 B( 19-C , 20-N ) :   1.4178
B( 19-C , 80-H ) :   0.9332 B( 20-N , 21-C ) :   1.0863 B( 20-N , 81-H ) :   0.8472
B( 21-C , 22-C ) :   1.5082 B( 21-C , 25-C ) :   1.2561 B( 22-C , 23-S ) :   1.1804
B( 22-C , 82-H ) :   0.9706 B( 23-S , 24-C ) :   1.1655 B( 24-C , 25-C ) :   1.5329
B( 24-C , 83-H ) :   0.9694 B( 25-C , 26-N ) :   1.0745 B( 26-N , 27-C ) :   1.1115
B( 26-N , 84-H ) :   0.9201 B( 27-C , 28-C ) :   1.7266 B( 27-C , 85-H ) :   0.9610
B( 28-C , 29-C ) :   1.0742 B( 28-C , 86-H ) :   0.9648 B( 29-C , 30-C ) :   1.3058
B( 29-C , 34-C ) :   1.3450 B( 30-C , 31-C ) :   1.4093 B( 30-C , 87-H ) :   0.9891
B( 31-C , 32-C ) :   1.3737 B( 31-C , 37-C ) :   0.9191 B( 32-C , 33-C ) :   1.3360
B( 32-C , 35-C ) :   1.0039 B( 33-C , 34-C ) :   1.3787 B( 33-C , 88-H ) :   0.9910
B( 34-C , 89-H ) :   0.9922 B( 35-C , 36-C ) :   1.3574 B( 35-C , 45-C ) :   1.3368
B( 36-C , 37-C ) :   0.9256 B( 36-C , 42-C ) :   1.4105 B( 37-C , 38-C ) :   1.0301
B( 37-C , 40-C ) :   1.0171 B( 38-C , 39-C ) :   1.1046 B( 38-C , 90-H ) :   0.9398
B( 38-C , 91-H ) :   0.9379 B( 39-C , 92-H ) :   0.9639 B( 39-C , 93-H ) :   0.9644
B( 39-C , 94-H ) :   0.9643 B( 40-C , 41-C ) :   1.1144 B( 40-C , 95-H ) :   0.9366
B( 40-C , 96-H ) :   0.9388 B( 41-C , 97-H ) :   0.9628 B( 41-C , 98-H ) :   0.9591
B( 41-C , 99-H ) :   0.9605 B( 42-C , 43-C ) :   1.2903 B( 42-C ,100-H ) :   0.9982
B( 43-C , 44-C ) :   1.3230 B( 43-C , 46-C ) :   1.0677 B( 44-C , 45-C ) :   1.3800
B( 44-C ,101-H ) :   0.9940 B( 45-C ,102-H ) :   0.9910 B( 46-C , 47-C ) :   1.6016
B( 46-C ,103-H ) :   0.9688 B( 47-C , 48-C ) :   1.2004 B( 47-C ,104-H ) :   0.9559
B( 48-C , 49-C ) :   1.2260 B( 48-C , 59-C ) :   0.1137 B( 48-C , 61-C ) :   1.1726
B( 49-C , 50-C ) :   1.1090 B( 49-C , 54-N ) :   1.4275 B( 50-C , 51-N ) :   1.4874
B( 50-C , 59-C ) :   1.1935 B( 51-N , 52-C ) :   1.6970 B( 52-C , 53-C ) :   1.2245
B( 52-C , 57-C ) :   1.1635 B( 53-C , 54-N ) :   1.7240 B( 53-C , 55-C ) :   1.1466
B( 55-C , 56-N ) :   3.0491 B( 57-C , 58-N ) :   3.0436 B( 59-C , 60-C ) :   1.1489
B( 59-C , 65-C ) :   1.2842 B( 60-C , 61-C ) :   1.1149 B( 60-C , 64-N ) :   1.4893
B( 61-C , 62-N ) :   1.5324 B( 62-N , 63-S ) :   1.2654 B( 62-N , 64-N ) :   0.1448
B( 63-S , 64-N ) :   1.2495 B( 65-C , 66-C ) :   1.4499 B( 65-C ,105-H ) :   0.9425
B( 66-C , 67-C ) :   1.1585 B( 66-C , 70-S ) :   1.0733 B( 67-C , 68-C ) :   1.5713
B( 67-C ,106-H ) :   1.0037 B( 68-C , 69-C ) :   1.1847 B( 68-C ,107-H ) :   0.9926
B( 69-C , 70-S ) :   1.0079 B( 69-C , 71-C ) :   1.5171 B( 71-C , 72-C ) :   1.1632
B( 71-C , 75-S ) :   1.0628 B( 72-C , 73-C ) :   1.6474 B( 72-C ,108-H ) :   0.9922
B( 73-C , 74-C ) :   1.0842 B( 73-C ,109-H ) :   0.9933 B( 74-C , 75-S ) :   1.0051
B( 74-C , 76-C ) :   1.8559 B( 76-C ,110-H ) :   0.9511 B( 76-C ,111-H ) :   0.9421

-----------------------------------------------------------------------------
         ABSORPTION SPECTRUM VIA TRANSITION ELECTRIC DIPOLE MOMENTS
-----------------------------------------------------------------------------
State   Energy  Wavelength   fosc         T2         TX        TY        TZ
        (cm-1)    (nm)                  (au**2)     (au)      (au)      (au)
-----------------------------------------------------------------------------
   0    6538.0   1529.5   0.463089647  23.31833   3.99357  -1.54852  -2.22975
   1   15424.7    648.3   0.155759433   3.32440  -1.61133  -0.60932  -0.59728
   2   18506.6    540.3   0.761752071  13.55072   1.69018  -2.03252  -2.56181
   3   18961.6    527.4   0.027347736   0.47481  -0.32686  -0.33354   0.50668
   4   20301.5    492.6   0.137910780   2.23638  -1.26209   0.32883   0.73170
   5   21937.2    455.8   0.324729076   4.87322   2.17613   0.36906   0.03816
   6   22635.3    441.8   0.070522037   1.02568   0.17766   0.66955   0.73880
   7   23674.9    422.4   0.042836993   0.59567  -0.01710  -0.36457   0.68005
   8   24709.4    404.7   0.052729278   0.70253  -0.73528   0.22571  -0.33310
   9   25424.6    393.3   0.192392747   2.49120  -0.33186   0.76684  -1.33904
  10   25646.2    389.9   0.108551642   1.39344   0.91211  -0.55862  -0.49943
  11   26395.3    378.9   0.024504569   0.30563  -0.52179  -0.13346   0.12473
  12   27687.9    361.2   0.686594327   8.16367   2.72502   0.78927   0.33908
  13   28091.0    356.0   0.005846617   0.06852   0.17644  -0.19284  -0.01429
  14   28673.7    348.8   0.028949257   0.33238   0.32163   0.39873   0.26448
  15   28810.6    347.1   0.118494589   1.35401   1.05663   0.35477   0.33419
  16   29195.6    342.5   0.145882523   1.64498  -0.35527   0.63278  -1.05752
  17   29365.1    340.5   0.008319109   0.09327  -0.05238  -0.15546   0.25759
  18   29851.2    335.0   0.241144252   2.65944  -1.36197  -0.02134   0.89668
  19   29876.6    334.7   0.046945554   0.51730   0.48476  -0.18952  -0.49637
  20   30353.7    329.4   0.697268605   7.56248   1.98690   0.59096  -1.80706
  21   30755.3    325.1   0.365602114   3.91349  -0.60022   0.26192  -1.86671
  22   31544.8    317.0   0.008531740   0.08904  -0.20877  -0.18778  -0.10097
  23   31705.3    315.4   0.386716949   4.01548   0.49503   1.49519   1.23888
  24   32030.8    312.2   0.161406696   1.65894   0.79150  -0.85528  -0.54861
  25   32213.5    310.4   0.008905719   0.09101   0.03458   0.15163  -0.25851
  26   32628.7    306.5   0.011857155   0.11963   0.33381  -0.05480  -0.07214
  27   32970.3    303.3   0.007146054   0.07135   0.16876  -0.17027   0.11782
  28   33038.0    302.7   0.430550674   4.29029  -1.55917  -0.08322   1.36101
  29   33628.7    297.4   0.002781109   0.02723   0.11973  -0.09608   0.06049
  30   33955.5    294.5   0.024556816   0.23809  -0.44253   0.13891  -0.15153
  31   34149.4    292.8   0.171351108   1.65189   0.56852   0.94662   0.65770
  32   34513.3    289.7   0.000488153   0.00466  -0.06706  -0.00820   0.00959
  33   34690.1    288.3   0.105162964   0.99801  -0.24158   0.64079   0.72734
  34   35498.7    281.7   0.131611399   1.22055   1.01724  -0.34264  -0.26148
  35   35624.3    280.7   0.179023909   1.65440   1.01334  -0.30670   0.73039
  36   36329.9    275.3   0.028631500   0.25945   0.50016   0.09366  -0.02272
  37   36412.5    274.6   0.104826569   0.94776  -0.01671  -0.38845  -0.89252
  38   36740.8    272.2   0.005052766   0.04527  -0.08576  -0.15551  -0.11721
  39   37255.3    268.4   0.167176665   1.47728   0.65542   0.84212   0.58184
  40   37319.5    268.0   0.108741115   0.95925  -0.54518  -0.70269  -0.41019
  41   37918.8    263.7   0.047707223   0.41420  -0.59101  -0.23243  -0.10429
  42   38027.0    263.0   0.005521039   0.04780   0.15159  -0.15572  -0.02380
  43   38060.9    262.7   0.007565487   0.06544  -0.06423  -0.18356  -0.16619
  44   38096.1    262.5   0.003766814   0.03255  -0.17290   0.05127   0.00541
  45   38314.0    261.0   0.004188106   0.03599  -0.10349   0.15796  -0.01799
  46   38683.7    258.5   0.008509469   0.07242   0.20836   0.14834   0.08368
  47   38798.7    257.7   0.004152217   0.03523  -0.04151  -0.04080  -0.17845
  48   39030.1    256.2   0.010451280   0.08815   0.14432   0.14105   0.21779
  49   39359.4    254.1   0.000408504   0.00342   0.00851   0.03281  -0.04762
  50   39545.9    252.9   0.063808438   0.53119  -0.00702  -0.69477  -0.22010
  51   39880.5    250.7   0.128863429   1.06376   0.53997   0.22693  -0.84894
  52   40051.6    249.7   0.027623344   0.22706  -0.24887  -0.20811   0.34902

FINAL SINGLE POINT ENERGY     -7490.668133152164

DIPOLE MOMENT
-------------
                                X             Y             Z
Electronic contribution:   -147.27127     -22.82417     144.81033
Nuclear contribution   :    145.66254      20.50727    -148.17700
                        -----------------------------------------
Total Dipole Moment    :     -1.60873      -2.31689      -3.36667
                        -----------------------------------------
Magnitude (a.u.)       :      4.39209
Magnitude (Debye)      :     11.16381

Rotational constants in cm-1:     0.001251     0.000135     0.000131
Rotational constants in MHz :    37.504889     4.045103     3.936303

                             ****ORCA TERMINATED NORMALLY****
TOTAL RUN TIME: 0 days 0 hours 19 minutes 6 seconds 558 msec
