                         Program Version 4.2.0 -  RELEASE  -
|  1> # ORCA input file
|  2> # SCF done       -192.540831624134          0.000666554035
|  3> ! CAM-B3LYP def2-SVP def2/J RIJCOSX Grid4 TightSCF
|  4> %maxcore 5000
|  5> %tddft
|  6>     Mode sTDDFT
|  7>     Ethresh 5.0
|  8>     maxcore 5000
|  9> end
| 10>
| 11> %pal
| 12>   nprocs 6
| 13>   end
| 14> * xyz 0 1
| 15>    C       -1.36731        -0.70635         3.64807
| 16>    C       -1.64649        -1.96917         3.19280
| 17>    C       -0.81306        -3.08630         3.40451
| 18>    N       -0.17686        -4.03031         3.55352
| 19>    C       -2.77642        -2.31894         2.42405
| 20>    N       -3.65540        -2.67773         1.77774
| 21>    C       -0.15962        -0.30552         4.35648
| 22>    C       -0.17733         1.10055         4.51860
| 23>    C        0.82780         1.78643         5.15557
| 24>    C        1.90478         1.04810         5.65686
| 25>    C        1.91342        -0.35747         5.49230
| 26>    C        0.89639        -1.05086         4.84828
| 27>    S        3.33347        -1.07377         6.19308
| 28>    C        3.88883         0.50327         6.68836
| 29>    C        3.05583         1.51516         6.34871
| 30>   Br        5.51523         0.66455         7.60902
| 31>    C       -1.40984         1.65634         3.92166
| 32>    O       -1.72505         2.82633         3.91162
| 33>    C       -2.17888         0.48062         3.43931
| 34>    C       -3.49967         0.47952         3.10520
| 35>    C       -4.33055         1.61781         2.83690
| 36>    C       -3.84989         2.75644         2.16843
| 37>    C       -4.68695         3.82679         1.97818
| 38>    C       -5.99605         3.80834         2.49840
| 39>    C       -6.49906         2.66448         3.10902
| 40>    C       -5.67534         1.56978         3.24261
| 41>    C       -6.58984         5.10753         2.30072
| 42>    C       -5.65972         5.92866         1.63781
| 43>    C       -4.41129         5.14481         1.29200
| 44>    C       -3.13547         5.82582         1.80564
| 45>    C       -3.14388         6.01255         3.31833
| 46>    C       -4.39229         4.98470        -0.24782
| 47>    C       -3.35463         4.01443        -0.79665
| 48>    C       -5.95787         7.24079         1.36910
| 49>    C       -7.18311         7.78082         1.79611
| 50>    C       -8.10541         6.94189         2.44163
| 51>    C       -7.82338         5.61627         2.68849
| 52>    C       -7.44159         9.17878         1.56926
| 53>    C       -8.36872         9.91480         2.22419
| 54>    C       -8.59718        11.29636         2.02557
| 55>    S       -9.70630        12.14652         3.08756
| 56>    C       -8.08323        12.19556         1.11124
| 57>    S       -6.96834        12.11985        -0.21339
| 58>    C       -7.24915        13.84464        -0.45195
| 59>    N       -8.06496        14.41062         0.34748
| 60>    C       -8.56450        13.52605         1.24762
| 61>    C       -9.46535        13.69327         2.30245
| 62>    C      -10.08595        14.86904         2.73141
| 63>    C      -10.88420        14.93267         3.84778
| 64>    C      -11.50397        16.07880         4.33278
| 65>    C      -12.24332        16.10344         5.50185
| 66>    C      -12.90498        17.20196         6.08443
| 67>    C      -13.53686        16.91731         7.26476
| 68>    C      -13.40165        15.57886         7.67229
| 69>    S      -12.45494        14.68242         6.50586
| 70>    C      -13.89492        14.96526         8.81508
| 71>    C      -14.66451        15.52733         9.85205
| 72>    C      -14.98003        14.64392        10.84318
| 73>    C      -14.47784        13.33438        10.65056
| 74>    S      -13.58349        13.27910         9.13841
| 75>    C      -14.66472        12.27854        11.50995
| 76>    C      -14.19896        10.95386        11.40871
| 77>    C      -14.47335         9.94860        12.34738
| 78>    C      -13.84977         8.75094        11.93209
| 79>    C      -13.81232         7.48804        12.48699
| 80>    C      -13.08707         6.49795        11.80912
| 81>    C      -12.86222         5.15795        12.09903
| 82>    C      -12.04477         4.59019        11.07416
| 83>    C      -11.76478         5.58200        10.14938
| 84>    C      -12.39561         6.79335        10.56531
| 85>    C      -12.42979         8.04381        10.00846
| 86>    C      -13.16147         9.04230        10.68580
| 87>    C      -13.38062        10.37114        10.38094
| 88>    C      -11.57869         3.22701        10.99172
| 89>    C      -11.84275         2.26299        11.86968
| 90>    H        0.78386         2.85885         5.26411
| 91>    H        0.94473        -2.12283         4.75434
| 92>    H        3.24263         2.54870         6.57656
| 93>    H       -4.01399        -0.47504         3.09979
| 94>    H       -2.83737         2.76918         1.80195
| 95>    H       -7.51428         2.63675         3.47531
| 96>    H       -6.04359         0.67232         3.71885
| 97>    H       -3.03825         6.79671         1.31424
| 98>    H       -2.26929         5.22229         1.53413
| 99>    H       -4.03592         6.54771         3.63806
|100>    H       -2.27067         6.58260         3.62704
|101>    H       -3.11386         5.04805         3.81821
|102>    H       -4.22513         5.97343        -0.68118
|103>    H       -5.38419         4.65002        -0.56375
|104>    H       -2.34943         4.29293        -0.49183
|105>    H       -3.39167         4.02488        -1.88401
|106>    H       -3.55660         3.00035        -0.46186
|107>    H       -5.25006         7.87977         0.86072
|108>    H       -9.06384         7.33943         2.73766
|109>    H       -8.54740         4.98583         3.18306
|110>    H       -6.79701         9.67132         0.85230
|111>    H       -8.97911         9.46229         2.99301
|112>    H       -6.73695        14.35589        -1.24265
|113>    H       -9.88579        15.75567         2.14583
|114>    H      -11.03204        14.01703         4.41040
|115>    H      -11.40074        17.00636         3.78582
|116>    H      -12.89696        18.17284         5.62093
|117>    H      -14.08721        17.63735         7.84372
|118>    H      -14.96486        16.55973         9.84329
|119>    H      -15.56024        14.89494        11.71402
|120>    H      -15.25594        12.49863        12.39163
|121>    H      -15.06365        10.06963        13.23720
|122>    H      -14.32258         7.26211        13.41280
|123>    H      -13.24091         4.63144        12.95570
|124>    H      -11.17029         5.46959         9.26097
|125>    H      -11.91992         8.27329         9.08339
|126>    H      -12.99875        10.88492         9.51904
|127>    H      -10.96549         3.00795        10.12610
|128>    H      -12.44863         2.43134        12.74333
|129>    H      -11.46096         1.26492        11.74174
|130> *
|131>
|132>                          ****END OF INPUT****

CARTESIAN COORDINATES (ANGSTROEM)
---------------------------------
  C     -1.367310   -0.706350    3.648070
  C     -1.646490   -1.969170    3.192800
  C     -0.813060   -3.086300    3.404510
  N     -0.176860   -4.030310    3.553520
  C     -2.776420   -2.318940    2.424050
  N     -3.655400   -2.677730    1.777740
  C     -0.159620   -0.305520    4.356480
  C     -0.177330    1.100550    4.518600
  C      0.827800    1.786430    5.155570
  C      1.904780    1.048100    5.656860
  C      1.913420   -0.357470    5.492300
  C      0.896390   -1.050860    4.848280
  S      3.333470   -1.073770    6.193080
  C      3.888830    0.503270    6.688360
  C      3.055830    1.515160    6.348710
  Br     5.515230    0.664550    7.609020
  C     -1.409840    1.656340    3.921660
  O     -1.725050    2.826330    3.911620
  C     -2.178880    0.480620    3.439310
  C     -3.499670    0.479520    3.105200
  C     -4.330550    1.617810    2.836900
  C     -3.849890    2.756440    2.168430
  C     -4.686950    3.826790    1.978180
  C     -5.996050    3.808340    2.498400
  C     -6.499060    2.664480    3.109020
  C     -5.675340    1.569780    3.242610
  C     -6.589840    5.107530    2.300720
  C     -5.659720    5.928660    1.637810
  C     -4.411290    5.144810    1.292000
  C     -3.135470    5.825820    1.805640
  C     -3.143880    6.012550    3.318330
  C     -4.392290    4.984700   -0.247820
  C     -3.354630    4.014430   -0.796650
  C     -5.957870    7.240790    1.369100
  C     -7.183110    7.780820    1.796110
  C     -8.105410    6.941890    2.441630
  C     -7.823380    5.616270    2.688490
  C     -7.441590    9.178780    1.569260
  C     -8.368720    9.914800    2.224190
  C     -8.597180   11.296360    2.025570
  S     -9.706300   12.146520    3.087560
  C     -8.083230   12.195560    1.111240
  S     -6.968340   12.119850   -0.213390
  C     -7.249150   13.844640   -0.451950
  N     -8.064960   14.410620    0.347480
  C     -8.564500   13.526050    1.247620
  C     -9.465350   13.693270    2.302450
  C    -10.085950   14.869040    2.731410
  C    -10.884200   14.932670    3.847780
  C    -11.503970   16.078800    4.332780
  C    -12.243320   16.103440    5.501850
  C    -12.904980   17.201960    6.084430
  C    -13.536860   16.917310    7.264760
  C    -13.401650   15.578860    7.672290
  S    -12.454940   14.682420    6.505860
  C    -13.894920   14.965260    8.815080
  C    -14.664510   15.527330    9.852050
  C    -14.980030   14.643920   10.843180
  C    -14.477840   13.334380   10.650560
  S    -13.583490   13.279100    9.138410
  C    -14.664720   12.278540   11.509950
  C    -14.198960   10.953860   11.408710
  C    -14.473350    9.948600   12.347380
  C    -13.849770    8.750940   11.932090
  C    -13.812320    7.488040   12.486990
  C    -13.087070    6.497950   11.809120
  C    -12.862220    5.157950   12.099030
  C    -12.044770    4.590190   11.074160
  C    -11.764780    5.582000   10.149380
  C    -12.395610    6.793350   10.565310
  C    -12.429790    8.043810   10.008460
  C    -13.161470    9.042300   10.685800
  C    -13.380620   10.371140   10.380940
  C    -11.578690    3.227010   10.991720
  C    -11.842750    2.262990   11.869680
  H      0.783860    2.858850    5.264110
  H      0.944730   -2.122830    4.754340
  H      3.242630    2.548700    6.576560
  H     -4.013990   -0.475040    3.099790
  H     -2.837370    2.769180    1.801950
  H     -7.514280    2.636750    3.475310
  H     -6.043590    0.672320    3.718850
  H     -3.038250    6.796710    1.314240
  H     -2.269290    5.222290    1.534130
  H     -4.035920    6.547710    3.638060
  H     -2.270670    6.582600    3.627040
  H     -3.113860    5.048050    3.818210
  H     -4.225130    5.973430   -0.681180
  H     -5.384190    4.650020   -0.563750
  H     -2.349430    4.292930   -0.491830
  H     -3.391670    4.024880   -1.884010
  H     -3.556600    3.000350   -0.461860
  H     -5.250060    7.879770    0.860720
  H     -9.063840    7.339430    2.737660
  H     -8.547400    4.985830    3.183060
  H     -6.797010    9.671320    0.852300
  H     -8.979110    9.462290    2.993010
  H     -6.736950   14.355890   -1.242650
  H     -9.885790   15.755670    2.145830
  H    -11.032040   14.017030    4.410400
  H    -11.400740   17.006360    3.785820
  H    -12.896960   18.172840    5.620930
  H    -14.087210   17.637350    7.843720
  H    -14.964860   16.559730    9.843290
  H    -15.560240   14.894940   11.714020
  H    -15.255940   12.498630   12.391630
  H    -15.063650   10.069630   13.237200
  H    -14.322580    7.262110   13.412800
  H    -13.240910    4.631440   12.955700
  H    -11.170290    5.469590    9.260970
  H    -11.919920    8.273290    9.083390
  H    -12.998750   10.884920    9.519040
  H    -10.965490    3.007950   10.126100
  H    -12.448630    2.431340   12.743330
  H    -11.460960    1.264920   11.741740

 Total Charge           Charge          ....    0
 Multiplicity           Mult            ....    1
 Number of Electrons    NEL             ....  574
 Basis Dimension        Dim             .... 1288

ORBITAL ENERGIES
----------------

  NO   OCC          E(Eh)            E(eV)
   0   2.0000    -482.885639    -13139.9863
   1   2.0000     -88.975614     -2421.1495
   2   2.0000     -88.956415     -2420.6271
   3   2.0000     -88.953107     -2420.5371
   4   2.0000     -88.940299     -2420.1886
   5   2.0000     -88.936800     -2420.0934
   6   2.0000     -62.563353     -1702.4354
   7   2.0000     -56.397308     -1534.6488
   8   2.0000     -56.394586     -1534.5747
   9   2.0000     -56.394552     -1534.5738
  10   2.0000     -19.216234      -522.9003
  11   2.0000     -14.413580      -392.2135
  12   2.0000     -14.412474      -392.1834
  13   2.0000     -14.411183      -392.1482
  14   2.0000     -10.368320      -282.1363
  15   2.0000     -10.359105      -281.8856
  16   2.0000     -10.340179      -281.3706
  17   2.0000     -10.339106      -281.3414
  18   2.0000     -10.332315      -281.1566
  19   2.0000     -10.325671      -280.9758
  20   2.0000     -10.316457      -280.7251
  21   2.0000     -10.315356      -280.6951
  22   2.0000     -10.314562      -280.6735
  23   2.0000     -10.307727      -280.4875
  24   2.0000     -10.307479      -280.4808
  25   2.0000     -10.305677      -280.4317
  26   2.0000     -10.305398      -280.4241
  27   2.0000     -10.302204      -280.3372
  28   2.0000     -10.301216      -280.3103
  29   2.0000     -10.301209      -280.3101
  30   2.0000     -10.301121      -280.3078
  31   2.0000     -10.300851      -280.3004
  32   2.0000     -10.299825      -280.2725
  33   2.0000     -10.299605      -280.2665
  34   2.0000     -10.299408      -280.2611
  35   2.0000     -10.299263      -280.2572
  36   2.0000     -10.297460      -280.2081
  37   2.0000     -10.296825      -280.1909
  38   2.0000     -10.295201      -280.1467
  39   2.0000     -10.291896      -280.0567
  40   2.0000     -10.286072      -279.8982
  41   2.0000     -10.283840      -279.8375
  42   2.0000     -10.282174      -279.7922
  43   2.0000     -10.281712      -279.7796
  44   2.0000     -10.280858      -279.7564
  45   2.0000     -10.280535      -279.7476
  46   2.0000     -10.280208      -279.7387
  47   2.0000     -10.279777      -279.7269
  48   2.0000     -10.279691      -279.7246
  49   2.0000     -10.278503      -279.6923
  50   2.0000     -10.278439      -279.6905
  51   2.0000     -10.276727      -279.6440
  52   2.0000     -10.276053      -279.6256
  53   2.0000     -10.276012      -279.6245
  54   2.0000     -10.274603      -279.5862
  55   2.0000     -10.273866      -279.5661
  56   2.0000     -10.273734      -279.5625
  57   2.0000     -10.272414      -279.5266
  58   2.0000     -10.272174      -279.5201
  59   2.0000     -10.271692      -279.5070
  60   2.0000     -10.271300      -279.4963
  61   2.0000     -10.270964      -279.4871
  62   2.0000     -10.269325      -279.4425
  63   2.0000     -10.269071      -279.4356
  64   2.0000     -10.269037      -279.4347
  65   2.0000     -10.268707      -279.4257
  66   2.0000     -10.268220      -279.4125
  67   2.0000     -10.268158      -279.4108
  68   2.0000     -10.267541      -279.3940
  69   2.0000     -10.266811      -279.3741
  70   2.0000     -10.265916      -279.3498
  71   2.0000     -10.264953      -279.3236
  72   2.0000     -10.264696      -279.3166
  73   2.0000     -10.264098      -279.3003
  74   2.0000     -10.262012      -279.2435
  75   2.0000     -10.257670      -279.1254
  76   2.0000     -10.256802      -279.1018
  77   2.0000     -10.249485      -278.9027
  78   2.0000     -10.236238      -278.5422
  79   2.0000      -8.792782      -239.2638
  80   2.0000      -8.071532      -219.6375
  81   2.0000      -8.052085      -219.1084
  82   2.0000      -8.048136      -219.0009
  83   2.0000      -8.036360      -218.6805
  84   2.0000      -8.033159      -218.5934
  85   2.0000      -6.629106      -180.3871
  86   2.0000      -6.614500      -179.9897
  87   2.0000      -6.614307      -179.9844
  88   2.0000      -6.041236      -164.3904
  89   2.0000      -6.036944      -164.2736
  90   2.0000      -6.032771      -164.1600
  91   2.0000      -6.021650      -163.8574
  92   2.0000      -6.017529      -163.7453
  93   2.0000      -6.017469      -163.7437
  94   2.0000      -6.013575      -163.6377
  95   2.0000      -6.013533      -163.6365
  96   2.0000      -6.010067      -163.5422
  97   2.0000      -6.006110      -163.4346
  98   2.0000      -6.002844      -163.3457
  99   2.0000      -6.002060      -163.3244
 100   2.0000      -5.998890      -163.2381
 101   2.0000      -5.997295      -163.1947
 102   2.0000      -5.994101      -163.1078
 103   2.0000      -2.744940       -74.6936
 104   2.0000      -2.740909       -74.5839
 105   2.0000      -2.740718       -74.5787
 106   2.0000      -2.729130       -74.2634
 107   2.0000      -2.729113       -74.2629
 108   2.0000      -1.131722       -30.7957
 109   2.0000      -1.063510       -28.9396
 110   2.0000      -1.022255       -27.8170
 111   2.0000      -1.011866       -27.5343
 112   2.0000      -0.991672       -26.9848
 113   2.0000      -0.989854       -26.9353
 114   2.0000      -0.989484       -26.9252
 115   2.0000      -0.987478       -26.8706
 116   2.0000      -0.986054       -26.8319
 117   2.0000      -0.971328       -26.4312
 118   2.0000      -0.967791       -26.3349
 119   2.0000      -0.959166       -26.1002
 120   2.0000      -0.951430       -25.8897
 121   2.0000      -0.940363       -25.5886
 122   2.0000      -0.923009       -25.1164
 123   2.0000      -0.911013       -24.7899
 124   2.0000      -0.907626       -24.6978
 125   2.0000      -0.900119       -24.4935
 126   2.0000      -0.896137       -24.3851
 127   2.0000      -0.889238       -24.1974
 128   2.0000      -0.885625       -24.0991
 129   2.0000      -0.883466       -24.0403
 130   2.0000      -0.871253       -23.7080
 131   2.0000      -0.868242       -23.6261
 132   2.0000      -0.863758       -23.5041
 133   2.0000      -0.852941       -23.2097
 134   2.0000      -0.847061       -23.0497
 135   2.0000      -0.837466       -22.7886
 136   2.0000      -0.836655       -22.7666
 137   2.0000      -0.834473       -22.7072
 138   2.0000      -0.832467       -22.6526
 139   2.0000      -0.828909       -22.5558
 140   2.0000      -0.828427       -22.5426
 141   2.0000      -0.819036       -22.2871
 142   2.0000      -0.814974       -22.1766
 143   2.0000      -0.807138       -21.9633
 144   2.0000      -0.798435       -21.7265
 145   2.0000      -0.796137       -21.6640
 146   2.0000      -0.777539       -21.1579
 147   2.0000      -0.766098       -20.8466
 148   2.0000      -0.762088       -20.7375
 149   2.0000      -0.758007       -20.6264
 150   2.0000      -0.750516       -20.4226
 151   2.0000      -0.744384       -20.2557
 152   2.0000      -0.734821       -19.9955
 153   2.0000      -0.722165       -19.6511
 154   2.0000      -0.710405       -19.3311
 155   2.0000      -0.705302       -19.1922
 156   2.0000      -0.701742       -19.0954
 157   2.0000      -0.692040       -18.8314
 158   2.0000      -0.691399       -18.8139
 159   2.0000      -0.685602       -18.6562
 160   2.0000      -0.683001       -18.5854
 161   2.0000      -0.676643       -18.4124
 162   2.0000      -0.673038       -18.3143
 163   2.0000      -0.668814       -18.1994
 164   2.0000      -0.663981       -18.0679
 165   2.0000      -0.657919       -17.9029
 166   2.0000      -0.652890       -17.7660
 167   2.0000      -0.651792       -17.7362
 168   2.0000      -0.641724       -17.4622
 169   2.0000      -0.640472       -17.4281
 170   2.0000      -0.633019       -17.2253
 171   2.0000      -0.624659       -16.9978
 172   2.0000      -0.623459       -16.9652
 173   2.0000      -0.622504       -16.9392
 174   2.0000      -0.619062       -16.8455
 175   2.0000      -0.612578       -16.6691
 176   2.0000      -0.606065       -16.4919
 177   2.0000      -0.602563       -16.3966
 178   2.0000      -0.596848       -16.2411
 179   2.0000      -0.592799       -16.1309
 180   2.0000      -0.590759       -16.0754
 181   2.0000      -0.588478       -16.0133
 182   2.0000      -0.579661       -15.7734
 183   2.0000      -0.578736       -15.7482
 184   2.0000      -0.574637       -15.6367
 185   2.0000      -0.568478       -15.4691
 186   2.0000      -0.557992       -15.1837
 187   2.0000      -0.555626       -15.1193
 188   2.0000      -0.547266       -14.8919
 189   2.0000      -0.544803       -14.8248
 190   2.0000      -0.542140       -14.7524
 191   2.0000      -0.539912       -14.6918
 192   2.0000      -0.539448       -14.6791
 193   2.0000      -0.535344       -14.5675
 194   2.0000      -0.533479       -14.5167
 195   2.0000      -0.530244       -14.4287
 196   2.0000      -0.528587       -14.3836
 197   2.0000      -0.528111       -14.3706
 198   2.0000      -0.524231       -14.2651
 199   2.0000      -0.521855       -14.2004
 200   2.0000      -0.520363       -14.1598
 201   2.0000      -0.519758       -14.1433
 202   2.0000      -0.517673       -14.0866
 203   2.0000      -0.517082       -14.0705
 204   2.0000      -0.515471       -14.0267
 205   2.0000      -0.512313       -13.9408
 206   2.0000      -0.508551       -13.8384
 207   2.0000      -0.505533       -13.7562
 208   2.0000      -0.502309       -13.6685
 209   2.0000      -0.498714       -13.5707
 210   2.0000      -0.495640       -13.4871
 211   2.0000      -0.495117       -13.4728
 212   2.0000      -0.492345       -13.3974
 213   2.0000      -0.491260       -13.3679
 214   2.0000      -0.490378       -13.3439
 215   2.0000      -0.489725       -13.3261
 216   2.0000      -0.488079       -13.2813
 217   2.0000      -0.486261       -13.2318
 218   2.0000      -0.480817       -13.0837
 219   2.0000      -0.474132       -12.9018
 220   2.0000      -0.473815       -12.8932
 221   2.0000      -0.472472       -12.8566
 222   2.0000      -0.471580       -12.8323
 223   2.0000      -0.467776       -12.7288
 224   2.0000      -0.464383       -12.6365
 225   2.0000      -0.462170       -12.5763
 226   2.0000      -0.459606       -12.5065
 227   2.0000      -0.457265       -12.4428
 228   2.0000      -0.454339       -12.3632
 229   2.0000      -0.452565       -12.3149
 230   2.0000      -0.450414       -12.2564
 231   2.0000      -0.450156       -12.2494
 232   2.0000      -0.447768       -12.1844
 233   2.0000      -0.447183       -12.1685
 234   2.0000      -0.446800       -12.1580
 235   2.0000      -0.445824       -12.1315
 236   2.0000      -0.441974       -12.0267
 237   2.0000      -0.441247       -12.0069
 238   2.0000      -0.440048       -11.9743
 239   2.0000      -0.438075       -11.9206
 240   2.0000      -0.437349       -11.9009
 241   2.0000      -0.435209       -11.8426
 242   2.0000      -0.430471       -11.7137
 243   2.0000      -0.425807       -11.5868
 244   2.0000      -0.424666       -11.5557
 245   2.0000      -0.424385       -11.5481
 246   2.0000      -0.422184       -11.4882
 247   2.0000      -0.421980       -11.4827
 248   2.0000      -0.420652       -11.4465
 249   2.0000      -0.419546       -11.4164
 250   2.0000      -0.417386       -11.3576
 251   2.0000      -0.415820       -11.3150
 252   2.0000      -0.413524       -11.2526
 253   2.0000      -0.406397       -11.0586
 254   2.0000      -0.405727       -11.0404
 255   2.0000      -0.405519       -11.0347
 256   2.0000      -0.402424       -10.9505
 257   2.0000      -0.398989       -10.8570
 258   2.0000      -0.393065       -10.6958
 259   2.0000      -0.388529       -10.5724
 260   2.0000      -0.388104       -10.5608
 261   2.0000      -0.386384       -10.5140
 262   2.0000      -0.382009       -10.3950
 263   2.0000      -0.378540       -10.3006
 264   2.0000      -0.376583       -10.2474
 265   2.0000      -0.375046       -10.2055
 266   2.0000      -0.367008        -9.9868
 267   2.0000      -0.366612        -9.9760
 268   2.0000      -0.357218        -9.7204
 269   2.0000      -0.347398        -9.4532
 270   2.0000      -0.346364        -9.4251
 271   2.0000      -0.342136        -9.3100
 272   2.0000      -0.333932        -9.0867
 273   2.0000      -0.328989        -8.9523
 274   2.0000      -0.319988        -8.7073
 275   2.0000      -0.317810        -8.6480
 276   2.0000      -0.315479        -8.5846
 277   2.0000      -0.313986        -8.5440
 278   2.0000      -0.312186        -8.4950
 279   2.0000      -0.306445        -8.3388
 280   2.0000      -0.296790        -8.0761
 281   2.0000      -0.292555        -7.9608
 282   2.0000      -0.274837        -7.4787
 283   2.0000      -0.268413        -7.3039
 284   2.0000      -0.255370        -6.9490
 285   2.0000      -0.232859        -6.3364
 286   2.0000      -0.190103        -5.1730
 287   0.0000      -0.097669        -2.6577
 288   0.0000      -0.087330        -2.3764
 289   0.0000      -0.078435        -2.1343
 290   0.0000      -0.058441        -1.5903
 291   0.0000      -0.036232        -0.9859

MULLIKEN ATOMIC CHARGES
-----------------------
   0 C :    0.292680
   1 C :   -0.341195
   2 C :   -0.182002
   3 N :    0.146960
   4 C :   -0.205632
   5 N :    0.160241
   6 C :    0.019135
   7 C :   -0.018078
   8 C :   -0.073154
   9 C :    0.117907
  10 C :   -0.090080
  11 C :   -0.022254
  12 S :    0.186455
  13 C :   -0.122897
  14 C :    0.038877
  15 Br:    0.023470
  16 C :    0.145570
  17 O :   -0.141773
  18 C :   -0.088276
  19 C :   -0.028517
  20 C :    0.066777
  21 C :    0.010536
  22 C :   -0.019589
  23 C :    0.117904
  24 C :   -0.058126
  25 C :    0.011236
  26 C :    0.090309
  27 C :    0.030523
  28 C :   -0.135923
  29 C :    0.057865
  30 C :    0.025875
  31 C :    0.084434
  32 C :    0.025331
  33 C :   -0.109577
  34 C :    0.126389
  35 C :   -0.017662
  36 C :   -0.038533
  37 C :   -0.034865
  38 C :    0.077269
  39 C :   -0.187797
  40 S :    0.114903
  41 C :   -0.008125
  42 S :    0.077044
  43 C :    0.017440
  44 N :   -0.047192
  45 C :    0.071806
  46 C :   -0.117769
  47 C :   -0.016913
  48 C :    0.001816
  49 C :   -0.007245
  50 C :   -0.017831
  51 C :    0.026894
  52 C :    0.024354
  53 C :   -0.048445
  54 S :    0.062257
  55 C :   -0.026181
  56 C :    0.023384
  57 C :    0.034407
  58 C :   -0.027173
  59 S :    0.043906
  60 C :   -0.011530
  61 C :    0.060063
  62 C :   -0.039573
  63 C :    0.068352
  64 C :    0.000460
  65 C :    0.047907
  66 C :   -0.019350
  67 C :    0.061787
  68 C :   -0.027264
  69 C :    0.059160
  70 C :    0.003077
  71 C :    0.039291
  72 C :   -0.027507
  73 C :    0.010641
  74 C :   -0.024894
  75 H :   -0.009779
  76 H :   -0.004742
  77 H :   -0.002712
  78 H :    0.033466
  79 H :   -0.029436
  80 H :   -0.032176
  81 H :   -0.019607
  82 H :   -0.005975
  83 H :    0.006962
  84 H :    0.012339
  85 H :    0.002853
  86 H :    0.033492
  87 H :   -0.004732
  88 H :    0.003569
  89 H :    0.003834
  90 H :    0.014316
  91 H :    0.023114
  92 H :   -0.039178
  93 H :   -0.028021
  94 H :   -0.036395
  95 H :   -0.023366
  96 H :   -0.024344
  97 H :    0.040719
  98 H :   -0.003326
  99 H :    0.005014
 100 H :   -0.018347
 101 H :   -0.016292
 102 H :   -0.015622
 103 H :   -0.017347
 104 H :   -0.015108
 105 H :   -0.024942
 106 H :   -0.029810
 107 H :   -0.026232
 108 H :   -0.023567
 109 H :   -0.027932
 110 H :   -0.024346
 111 H :   -0.005199
 112 H :   -0.020256
 113 H :    0.007161
 114 H :    0.020179
Sum of atomic charges:   -0.0000000

LOEWDIN ATOMIC CHARGES
----------------------
   0 C :    0.076360
   1 C :   -0.141139
   2 C :   -0.017915
   3 N :   -0.054645
   4 C :   -0.025661
   5 N :   -0.050488
   6 C :   -0.021430
   7 C :   -0.050498
   8 C :    0.021451
   9 C :   -0.032563
  10 C :   -0.143506
  11 C :   -0.009819
  12 S :    0.432466
  13 C :   -0.271222
  14 C :   -0.070435
  15 Br:    0.136739
  16 C :    0.086013
  17 O :   -0.136470
  18 C :   -0.101467
  19 C :    0.088266
  20 C :   -0.047817
  21 C :    0.023210
  22 C :   -0.001962
  23 C :    0.011035
  24 C :   -0.028543
  25 C :    0.005461
  26 C :   -0.028414
  27 C :    0.012863
  28 C :   -0.034178
  29 C :   -0.014824
  30 C :   -0.057465
  31 C :   -0.008242
  32 C :   -0.059152
  33 C :   -0.022968
  34 C :   -0.014068
  35 C :   -0.020077
  36 C :   -0.012247
  37 C :   -0.029592
  38 C :   -0.039168
  39 C :   -0.193480
  40 S :    0.437004
  41 C :   -0.202809
  42 S :    0.369688
  43 C :   -0.100517
  44 N :   -0.082016
  45 C :   -0.072907
  46 C :   -0.163100
  47 C :   -0.042056
  48 C :   -0.032408
  49 C :   -0.064124
  50 C :   -0.141116
  51 C :   -0.043567
  52 C :   -0.030890
  53 C :   -0.187881
  54 S :    0.369111
  55 C :   -0.173464
  56 C :   -0.044212
  57 C :   -0.028247
  58 C :   -0.158926
  59 S :    0.376321
  60 C :   -0.040619
  61 C :   -0.065490
  62 C :    0.013547
  63 C :   -0.061024
  64 C :    0.073458
  65 C :   -0.064031
  66 C :    0.048866
  67 C :   -0.060579
  68 C :    0.017286
  69 C :   -0.060795
  70 C :    0.073359
  71 C :   -0.063022
  72 C :    0.031971
  73 C :   -0.021274
  74 C :   -0.055160
  75 H :    0.040919
  76 H :    0.041254
  77 H :    0.038971
  78 H :    0.045877
  79 H :    0.027614
  80 H :    0.028075
  81 H :    0.030368
  82 H :    0.018471
  83 H :    0.021170
  84 H :    0.021876
  85 H :    0.022880
  86 H :    0.027678
  87 H :    0.020095
  88 H :    0.026129
  89 H :    0.019834
  90 H :    0.028097
  91 H :    0.024694
  92 H :    0.024312
  93 H :    0.025006
  94 H :    0.026753
  95 H :    0.017166
  96 H :    0.026328
  97 H :    0.018812
  98 H :    0.038814
  99 H :    0.013302
 100 H :    0.032326
 101 H :    0.032013
 102 H :    0.030905
 103 H :    0.030697
 104 H :    0.032223
 105 H :    0.034794
 106 H :    0.023133
 107 H :    0.034477
 108 H :    0.025185
 109 H :    0.024099
 110 H :    0.035514
 111 H :    0.014469
 112 H :    0.028944
 113 H :    0.017529
 114 H :    0.024408

  Mayer bond orders larger than 0.100000
B(  0-C ,  1-C ) :   1.6461 B(  0-C ,  6-C ) :   1.0099 B(  0-C , 18-C ) :   1.0538
B(  1-C ,  2-C ) :   1.1383 B(  1-C ,  4-C ) :   1.1398 B(  2-C ,  3-N ) :   2.9718
B(  4-C ,  5-N ) :   2.9968 B(  6-C ,  7-C ) :   1.2706 B(  6-C , 11-C ) :   1.4057
B(  7-C ,  8-C ) :   1.4234 B(  7-C , 16-C ) :   0.9460 B(  8-C ,  9-C ) :   1.2445
B(  8-C , 75-H ) :   1.0174 B(  9-C , 10-C ) :   1.3056 B(  9-C , 14-C ) :   1.1631
B( 10-C , 11-C ) :   1.3312 B( 10-C , 12-S ) :   1.0852 B( 11-C , 76-H ) :   0.9813
B( 12-S , 13-C ) :   1.0868 B( 13-C , 14-C ) :   1.6184 B( 13-C , 15-Br) :   1.0181
B( 14-C , 77-H ) :   1.0004 B( 16-C , 17-O ) :   2.1947 B( 16-C , 18-C ) :   0.9406
B( 18-C , 19-C ) :   1.6141 B( 19-C , 20-C ) :   1.0913 B( 19-C , 78-H ) :   0.9543
B( 20-C , 21-C ) :   1.2908 B( 20-C , 25-C ) :   1.3062 B( 21-C , 22-C ) :   1.4451
B( 21-C , 79-H ) :   0.9811 B( 22-C , 23-C ) :   1.3690 B( 22-C , 28-C ) :   0.9121
B( 23-C , 24-C ) :   1.3234 B( 23-C , 26-C ) :   1.0114 B( 24-C , 25-C ) :   1.3927
B( 24-C , 80-H ) :   0.9919 B( 25-C , 81-H ) :   0.9931 B( 26-C , 27-C ) :   1.3679
B( 26-C , 36-C ) :   1.3213 B( 27-C , 28-C ) :   0.9272 B( 27-C , 33-C ) :   1.3856
B( 28-C , 29-C ) :   1.0413 B( 28-C , 31-C ) :   1.0116 B( 29-C , 30-C ) :   1.1065
B( 29-C , 82-H ) :   0.9389 B( 29-C , 83-H ) :   0.9341 B( 30-C , 84-H ) :   0.9646
B( 30-C , 85-H ) :   0.9630 B( 30-C , 86-H ) :   0.9570 B( 31-C , 32-C ) :   1.1141
B( 31-C , 87-H ) :   0.9379 B( 31-C , 88-H ) :   0.9387 B( 32-C , 89-H ) :   0.9636
B( 32-C , 90-H ) :   0.9593 B( 32-C , 91-H ) :   0.9610 B( 33-C , 34-C ) :   1.2864
B( 33-C , 92-H ) :   1.0107 B( 34-C , 35-C ) :   1.3376 B( 34-C , 37-C ) :   1.0829
B( 35-C , 36-C ) :   1.4067 B( 35-C , 93-H ) :   0.9829 B( 36-C , 94-H ) :   0.9890
B( 37-C , 38-C ) :   1.6624 B( 37-C , 95-H ) :   0.9763 B( 38-C , 39-C ) :   1.1604
B( 38-C , 96-H ) :   0.9513 B( 39-C , 40-S ) :   1.1047 B( 39-C , 41-C ) :   1.4924
B( 39-C , 46-C ) :   0.1029 B( 40-S , 46-C ) :   1.1040 B( 41-C , 42-S ) :   1.0554
B( 41-C , 45-C ) :   1.2585 B( 42-S , 43-C ) :   1.0742 B( 42-S , 44-N ) :   0.1047
B( 43-C , 44-N ) :   1.7897 B( 43-C , 97-H ) :   0.9628 B( 44-N , 45-C ) :   1.3204
B( 45-C , 46-C ) :   1.3671 B( 46-C , 47-C ) :   1.2260 B( 47-C , 48-C ) :   1.5260
B( 47-C , 98-H ) :   0.9908 B( 48-C , 49-C ) :   1.2105 B( 48-C , 99-H ) :   0.9654
B( 49-C , 50-C ) :   1.5043 B( 49-C ,100-H ) :   0.9860 B( 50-C , 51-C ) :   1.1729
B( 50-C , 54-S ) :   1.0437 B( 51-C , 52-C ) :   1.5515 B( 51-C ,101-H ) :   0.9998
B( 52-C , 53-C ) :   1.2191 B( 52-C ,102-H ) :   0.9945 B( 53-C , 54-S ) :   1.0427
B( 53-C , 55-C ) :   1.4700 B( 55-C , 56-C ) :   1.2050 B( 55-C , 59-S ) :   1.0519
B( 56-C , 57-C ) :   1.5735 B( 56-C ,103-H ) :   0.9930 B( 57-C , 58-C ) :   1.1524
B( 57-C ,104-H ) :   0.9988 B( 58-C , 59-S ) :   1.0197 B( 58-C , 60-C ) :   1.5623
B( 60-C , 61-C ) :   1.1423 B( 60-C ,105-H ) :   0.9689 B( 61-C , 62-C ) :   1.4171
B( 61-C , 72-C ) :   1.1366 B( 62-C , 63-C ) :   1.1261 B( 62-C ,106-H ) :   1.0193
B( 63-C , 64-C ) :   1.4119 B( 63-C , 71-C ) :   1.1315 B( 64-C , 65-C ) :   1.1501
B( 64-C ,107-H ) :   1.0048 B( 65-C , 66-C ) :   1.4147 B( 65-C , 69-C ) :   1.1282
B( 66-C , 67-C ) :   1.1605 B( 66-C ,108-H ) :   1.0081 B( 67-C , 68-C ) :   1.4904
B( 67-C , 73-C ) :   1.0832 B( 68-C , 69-C ) :   1.0929 B( 68-C ,109-H ) :   1.0167
B( 69-C , 70-C ) :   1.4526 B( 70-C , 71-C ) :   1.1304 B( 70-C ,110-H ) :   1.0047
B( 71-C , 72-C ) :   1.4516 B( 72-C ,111-H ) :   0.9908 B( 73-C , 74-C ) :   1.9354
B( 73-C ,112-H ) :   0.9663 B( 74-C ,113-H ) :   0.9526 B( 74-C ,114-H ) :   0.9491

-----------------------------------------------------------------------------
         ABSORPTION SPECTRUM VIA TRANSITION ELECTRIC DIPOLE MOMENTS
-----------------------------------------------------------------------------
State   Energy  Wavelength   fosc         T2         TX        TY        TZ
        (cm-1)    (nm)                  (au**2)     (au)      (au)      (au)
-----------------------------------------------------------------------------
   0    5122.8   1952.1   0.018791810   1.20765  -0.40700  -0.52082   0.87792
   1   10999.5    909.1   1.009150634  30.20358  -3.13138  -0.08267   4.51566
   2   13099.2    763.4   0.014191740   0.35667   0.32738   0.00415  -0.49948
   3   15518.5    644.4   0.404486964   8.58084  -0.67635   2.51867  -1.33406
   4   19083.6    524.0   0.090302568   1.55781  -0.78471   0.95384   0.17951
   5   20736.3    482.2   1.733866832  27.52705  -2.01885   4.76062  -0.88755
   6   21198.5    471.7   0.031636824   0.49132  -0.26228  -0.21300   0.61413
   7   21969.9    455.2   0.010009423   0.14999   0.11118  -0.35372  -0.11183
   8   22129.2    451.9   0.529534194   7.87778   1.38026  -2.38120   0.55006
   9   22997.0    434.8   0.985970033  14.11460   0.57148  -3.70108  -0.30006
  10   25244.4    396.1   0.068113309   0.88826   0.55855  -0.72713   0.21811
  11   26212.8    381.5   0.074633960   0.93734   0.65806  -0.67322   0.22601
  12   26875.6    372.1   0.070390648   0.86225   0.43960   0.25100  -0.77846
  13   27084.0    369.2   0.042968793   0.52230   0.38813   0.10125  -0.60116
  14   27155.8    368.2   0.030149271   0.36550   0.33050  -0.09187  -0.49782
  15   27842.5    359.2   0.031774631   0.37571   0.19639  -0.58013  -0.02409
  16   28822.2    347.0   0.199085826   2.27399   1.24168   0.30255   0.80043
  17   28956.6    345.3   0.213351341   2.42562  -1.13090  -0.59778  -0.88845
  18   29351.6    340.7   0.166649921   1.86917  -0.80782   0.95375   0.55402
  19   30197.5    331.2   0.039943629   0.43546   0.27197   0.55367  -0.23440
  20   30647.0    326.3   0.106981052   1.14920   0.98092  -0.43240   0.00370
  21   30688.7    325.9   0.016132311   0.17306   0.28536   0.30167  -0.02495
  22   31093.9    321.6   0.111243789   1.17781   0.68988  -0.79300   0.27022
  23   31263.5    319.9   0.009746133   0.10263  -0.10612   0.27795   0.11879
  24   31647.7    316.0   0.040418897   0.42045  -0.46989  -0.43556  -0.09975
  25   32083.4    311.7   0.028205699   0.28942   0.42690  -0.32631  -0.02648
  26   32459.0    308.1   0.000175954   0.00178  -0.00126  -0.04222  -0.00079
  27   32586.9    306.9   0.002605805   0.02633  -0.10743   0.12159   0.00045
  28   32731.2    305.5   0.006322220   0.06359  -0.13756  -0.14654  -0.15230
  29   32808.5    304.8   0.126667453   1.27103   0.66030  -0.85868   0.31259
  30   33245.4    300.8   0.049022399   0.48544  -0.29281  -0.54506  -0.32033
  31   33583.3    297.8   0.027204476   0.26668  -0.40045  -0.25508   0.20310
  32   33756.9    296.2   0.021534825   0.21002   0.30376   0.33443  -0.07685
  33   34029.6    293.9   0.565610945   5.47188   1.60139   1.32943   1.06772
  34   34338.1    291.2   0.050417465   0.48337  -0.10983  -0.20387   0.65555
  35   34552.1    289.4   0.079757292   0.75993   0.49094   0.16705  -0.70072
  36   35171.8    284.3   0.522942717   4.89481  -0.38957   2.17717  -0.05437
  37   35603.0    280.9   0.000924431   0.00855  -0.03946   0.00496   0.08346
  38   35890.8    278.6   0.047343376   0.43426   0.35085  -0.55781  -0.00423
  39   36022.3    277.6   0.082213800   0.75136   0.61572   0.60589   0.07180
  40   36269.8    275.7   0.011731014   0.10648   0.25766  -0.18212  -0.08320
  41   36303.6    275.5   0.106351734   0.96443   0.12382  -0.97185  -0.06787
  42   36344.9    275.1   0.065422812   0.59260  -0.06074   0.76588   0.04837
  43   36581.4    273.4   0.016087869   0.14478  -0.22590   0.11507  -0.28374
  44   36607.5    273.2   0.014512112   0.13051  -0.27626  -0.14827   0.17945
  45   36685.1    272.6   0.069249620   0.62145  -0.56634   0.50109  -0.22273
  46   36842.7    271.4   0.053953688   0.48211   0.34457   0.07235  -0.59845
  47   37272.9    268.3   0.129041489   1.13975  -0.64389   0.77332  -0.35658
  48   37954.5    263.5   0.000541827   0.00470   0.01086  -0.03711  -0.05661
  49   38087.0    262.6   0.010464563   0.09045  -0.11320  -0.26386   0.08952
  50   38507.2    259.7   0.073092930   0.62490  -0.34959   0.66822   0.23700
  51   38774.0    257.9   0.004144297   0.03519  -0.05160   0.15662  -0.08941
  52   38888.7    257.1   0.082091767   0.69495  -0.31395   0.75870  -0.14404
  53   38955.4    256.7   0.023647535   0.19985   0.24882  -0.30410   0.21321
  54   39048.3    256.1   0.022964730   0.19361  -0.08082   0.33793  -0.26998
  55   39105.4    255.7   0.004850311   0.04083  -0.19527   0.03438   0.03899
  56   39383.0    253.9   0.016126998   0.13481  -0.05797  -0.05463   0.35842
  57   39478.0    253.3   0.057315475   0.47796   0.60063  -0.30459   0.15628
  58   39624.5    252.4   0.026104758   0.21689   0.03677   0.44281   0.13947
  59   39939.9    250.4   0.036052130   0.29717   0.50164  -0.04601   0.20835
  60   40196.0    248.8   0.056375244   0.46172  -0.09228   0.66603  -0.09805
  61   40316.5    248.0   0.006574476   0.05369  -0.03728  -0.00833  -0.22853

FINAL SINGLE POINT ENERGY     -7301.116960432687

DIPOLE MOMENT
-------------
                                X             Y             Z
Electronic contribution:    162.58184     -78.38214      29.81904
Nuclear contribution   :   -163.08087      80.77453     -28.02131
                        -----------------------------------------
Total Dipole Moment    :     -0.49904       2.39239       1.79773
                        -----------------------------------------
Magnitude (a.u.)       :      3.03388
Magnitude (Debye)      :      7.71151

Rotational constants in cm-1:     0.000714     0.000208     0.000183
Rotational constants in MHz :    21.409235     6.247199     5.498877

                             ****ORCA TERMINATED NORMALLY****
TOTAL RUN TIME: 0 days 0 hours 25 minutes 38 seconds 988 msec
