                         Program Version 4.2.0 -  RELEASE  -
|  1> # ORCA input file
|  2> # SCF done       -202.270048326716          0.000511973435
|  3> ! CAM-B3LYP def2-SVP def2/J RIJCOSX Grid4 TightSCF
|  4> %maxcore 5000
|  5> %tddft
|  6>     Mode sTDDFT
|  7>     Ethresh 5.0
|  8>     maxcore 5000
|  9> end
| 10>
| 11> %pal
| 12>   nprocs 6
| 13>   end
| 14> * xyz 0 1
| 15>    C       24.09291       -19.07941         1.40304
| 16>    C       23.29293       -18.13086         0.89254
| 17>    C       23.38930       -17.49185        -0.38545
| 18>    C       22.43121       -16.56259        -0.61758
| 19>    C       21.51077       -16.39332         0.44834
| 20>    S       21.90310       -17.46918         1.76876
| 21>    C       20.44589       -15.51143         0.50106
| 22>    C       20.03516       -14.59246        -0.48331
| 23>    C       18.95555       -13.83656        -0.11479
| 24>    C       18.46334       -14.12020         1.17043
| 25>    S       19.40660       -15.39625         1.90630
| 26>    C       17.41270       -13.47484         1.81303
| 27>    C       16.96866       -13.75394         3.08606
| 28>    C       15.98276       -13.02727         3.74895
| 29>    C       15.52254       -13.21706         5.05861
| 30>    C       14.60737       -12.28020         5.47461
| 31>    C       14.30972       -11.31559         4.50354
| 32>    S       15.19012       -11.64083         3.03191
| 33>    C       13.50867       -10.18004         4.62134
| 34>    C       12.86584        -9.67655         5.76118
| 35>    C       12.27261        -8.45690         5.56393
| 36>    C       12.41764        -7.94847         4.25842
| 37>    S       13.28914        -9.09614         3.26824
| 38>    C       12.03903        -6.68695         3.83198
| 39>    C       12.22264        -6.14803         2.56147
| 40>    S       12.66803        -7.12202         1.18742
| 41>    C       12.77978        -5.71873         0.14849
| 42>    C       12.48050        -4.55183         0.86433
| 43>    C       12.12782        -4.79478         2.18226
| 44>    C       11.76218        -3.70772         3.15419
| 45>    C       12.90753        -3.47071         4.10333
| 46>    O       14.07404        -3.50499         3.84394
| 47>    C       12.44948        -3.11029         5.55231
| 48>    F       11.63138        -2.04498         5.55888
| 49>    F       11.75680        -4.12260         6.10511
| 50>    F       13.46925        -2.83815         6.35897
| 51>    C       11.48095        -2.38637         2.40240
| 52>    C       12.55765        -2.12073         1.35876
| 53>    C       12.49945        -3.18240         0.26397
| 54>    C       13.14816        -5.85640        -1.19439
| 55>    C       13.17175        -7.06614        -1.84084
| 56>    C       13.63861        -7.29808        -3.13441
| 57>    S       14.57836        -6.13280        -4.01314
| 58>    C       14.84878        -7.22266        -5.35374
| 59>    C       14.16289        -8.44331        -5.13363
| 60>    C       13.48893        -8.49121        -3.88815
| 61>    C       12.74293        -9.62226        -3.53859
| 62>    C       12.65173       -10.69971        -4.39517
| 63>    C       11.79650       -11.89362        -3.99823
| 64>    C       10.34621       -11.42158        -3.81700
| 65>    C       11.80543       -13.00699        -5.04906
| 66>    C       12.32334       -12.47635        -2.67926
| 67>    C       13.34631       -10.64272        -5.61853
| 68>    C       14.08924        -9.54991        -5.98820
| 69>    C       15.67567        -6.92472        -6.42734
| 70>    C       16.37305        -5.74756        -6.58692
| 71>    C       17.29443        -5.42463        -7.58603
| 72>    C       17.84784        -6.14109        -8.63638
| 73>    C       18.85927        -5.57574        -9.50674
| 74>    C       19.26995        -4.26429        -9.58282
| 75>    C       20.27129        -3.80097       -10.45925
| 76>    N       21.07899        -3.34568       -11.13833
| 77>    C       18.76390        -3.17111        -8.85136
| 78>    N       18.42045        -2.20593        -8.32824
| 79>    C       19.37590        -6.64301       -10.36030
| 80>    C       18.64429        -7.82090       -10.08488
| 81>    C       17.64533        -7.54458        -9.03484
| 82>    O       16.83508        -8.36325        -8.63054
| 83>    C       18.88066        -9.01160       -10.72626
| 84>    C       19.89902        -9.04511       -11.68426
| 85>    C       20.63018        -7.86518       -11.94925
| 86>    C       20.38467        -6.65789       -11.30352
| 87>    S       21.84392        -8.13772       -13.16158
| 88>    C       21.36854        -9.79596       -13.29959
| 89>    C       20.35039       -10.13608       -12.48028
| 90>    H       24.92833       -19.45388         0.83850
| 91>    H       23.92829       -19.49179         2.38137
| 92>    H       24.17255       -17.75379        -1.07412
| 93>    H       22.35452       -15.98601        -1.52214
| 94>    H       20.53860       -14.50289        -1.42880
| 95>    H       18.50714       -13.07935        -0.73362
| 96>    H       16.93175       -12.67384         1.26498
| 97>    H       17.42891       -14.56790         3.63198
| 98>    H       15.88170       -14.02446         5.67216
| 99>    H       14.15995       -12.26674         6.45203
|100>    H       12.87364       -10.19717         6.70184
|101>    H       11.75608        -7.90246         6.32739
|102>    H       11.61221        -6.04643         4.59133
|103>    H       10.87159        -3.98639         3.72732
|104>    H       11.41902        -1.56133         3.11317
|105>    H       10.51054        -2.48339         1.91198
|106>    H       12.41175        -1.13149         0.92335
|107>    H       13.54134        -2.14022         1.83148
|108>    H       13.35743        -3.08038        -0.40236
|109>    H       11.59637        -3.04478        -0.33999
|110>    H       13.40910        -4.96103        -1.74254
|111>    H       12.79444        -7.92743        -1.30432
|112>    H       12.22764        -9.62889        -2.59125
|113>    H        9.97583       -10.98024        -4.74005
|114>    H       10.26528       -10.67878        -3.02824
|115>    H        9.70868       -12.26407        -3.55786
|116>    H       11.40587       -12.65553        -5.99747
|117>    H       11.17978       -13.82920        -4.70765
|118>    H       12.81012       -13.39341        -5.20404
|119>    H       12.27335       -11.75018        -1.87285
|120>    H       13.35916       -12.78897        -2.79308
|121>    H       11.73162       -13.34267        -2.39220
|122>    H       13.29835       -11.47546        -6.30010
|123>    H       14.60715        -9.53751        -6.93431
|124>    H       15.79754        -7.70125        -7.16828
|125>    H       16.20569        -4.97147        -5.84722
|126>    H       17.68498        -4.41928        -7.48775
|127>    H       18.29939        -9.89063       -10.49353
|128>    H       20.97465        -5.78971       -11.54313
|129>    H       21.89059       -10.42166       -13.99721
|130>    H       19.92255       -11.12119       -12.42835
|131> *
|132>
|133>                          ****END OF INPUT****

CARTESIAN COORDINATES (ANGSTROEM)
---------------------------------
  C     24.092910  -19.079410    1.403040
  C     23.292930  -18.130860    0.892540
  C     23.389300  -17.491850   -0.385450
  C     22.431210  -16.562590   -0.617580
  C     21.510770  -16.393320    0.448340
  S     21.903100  -17.469180    1.768760
  C     20.445890  -15.511430    0.501060
  C     20.035160  -14.592460   -0.483310
  C     18.955550  -13.836560   -0.114790
  C     18.463340  -14.120200    1.170430
  S     19.406600  -15.396250    1.906300
  C     17.412700  -13.474840    1.813030
  C     16.968660  -13.753940    3.086060
  C     15.982760  -13.027270    3.748950
  C     15.522540  -13.217060    5.058610
  C     14.607370  -12.280200    5.474610
  C     14.309720  -11.315590    4.503540
  S     15.190120  -11.640830    3.031910
  C     13.508670  -10.180040    4.621340
  C     12.865840   -9.676550    5.761180
  C     12.272610   -8.456900    5.563930
  C     12.417640   -7.948470    4.258420
  S     13.289140   -9.096140    3.268240
  C     12.039030   -6.686950    3.831980
  C     12.222640   -6.148030    2.561470
  S     12.668030   -7.122020    1.187420
  C     12.779780   -5.718730    0.148490
  C     12.480500   -4.551830    0.864330
  C     12.127820   -4.794780    2.182260
  C     11.762180   -3.707720    3.154190
  C     12.907530   -3.470710    4.103330
  O     14.074040   -3.504990    3.843940
  C     12.449480   -3.110290    5.552310
  F     11.631380   -2.044980    5.558880
  F     11.756800   -4.122600    6.105110
  F     13.469250   -2.838150    6.358970
  C     11.480950   -2.386370    2.402400
  C     12.557650   -2.120730    1.358760
  C     12.499450   -3.182400    0.263970
  C     13.148160   -5.856400   -1.194390
  C     13.171750   -7.066140   -1.840840
  C     13.638610   -7.298080   -3.134410
  S     14.578360   -6.132800   -4.013140
  C     14.848780   -7.222660   -5.353740
  C     14.162890   -8.443310   -5.133630
  C     13.488930   -8.491210   -3.888150
  C     12.742930   -9.622260   -3.538590
  C     12.651730  -10.699710   -4.395170
  C     11.796500  -11.893620   -3.998230
  C     10.346210  -11.421580   -3.817000
  C     11.805430  -13.006990   -5.049060
  C     12.323340  -12.476350   -2.679260
  C     13.346310  -10.642720   -5.618530
  C     14.089240   -9.549910   -5.988200
  C     15.675670   -6.924720   -6.427340
  C     16.373050   -5.747560   -6.586920
  C     17.294430   -5.424630   -7.586030
  C     17.847840   -6.141090   -8.636380
  C     18.859270   -5.575740   -9.506740
  C     19.269950   -4.264290   -9.582820
  C     20.271290   -3.800970  -10.459250
  N     21.078990   -3.345680  -11.138330
  C     18.763900   -3.171110   -8.851360
  N     18.420450   -2.205930   -8.328240
  C     19.375900   -6.643010  -10.360300
  C     18.644290   -7.820900  -10.084880
  C     17.645330   -7.544580   -9.034840
  O     16.835080   -8.363250   -8.630540
  C     18.880660   -9.011600  -10.726260
  C     19.899020   -9.045110  -11.684260
  C     20.630180   -7.865180  -11.949250
  C     20.384670   -6.657890  -11.303520
  S     21.843920   -8.137720  -13.161580
  C     21.368540   -9.795960  -13.299590
  C     20.350390  -10.136080  -12.480280
  H     24.928330  -19.453880    0.838500
  H     23.928290  -19.491790    2.381370
  H     24.172550  -17.753790   -1.074120
  H     22.354520  -15.986010   -1.522140
  H     20.538600  -14.502890   -1.428800
  H     18.507140  -13.079350   -0.733620
  H     16.931750  -12.673840    1.264980
  H     17.428910  -14.567900    3.631980
  H     15.881700  -14.024460    5.672160
  H     14.159950  -12.266740    6.452030
  H     12.873640  -10.197170    6.701840
  H     11.756080   -7.902460    6.327390
  H     11.612210   -6.046430    4.591330
  H     10.871590   -3.986390    3.727320
  H     11.419020   -1.561330    3.113170
  H     10.510540   -2.483390    1.911980
  H     12.411750   -1.131490    0.923350
  H     13.541340   -2.140220    1.831480
  H     13.357430   -3.080380   -0.402360
  H     11.596370   -3.044780   -0.339990
  H     13.409100   -4.961030   -1.742540
  H     12.794440   -7.927430   -1.304320
  H     12.227640   -9.628890   -2.591250
  H      9.975830  -10.980240   -4.740050
  H     10.265280  -10.678780   -3.028240
  H      9.708680  -12.264070   -3.557860
  H     11.405870  -12.655530   -5.997470
  H     11.179780  -13.829200   -4.707650
  H     12.810120  -13.393410   -5.204040
  H     12.273350  -11.750180   -1.872850
  H     13.359160  -12.788970   -2.793080
  H     11.731620  -13.342670   -2.392200
  H     13.298350  -11.475460   -6.300100
  H     14.607150   -9.537510   -6.934310
  H     15.797540   -7.701250   -7.168280
  H     16.205690   -4.971470   -5.847220
  H     17.684980   -4.419280   -7.487750
  H     18.299390   -9.890630  -10.493530
  H     20.974650   -5.789710  -11.543130
  H     21.890590  -10.421660  -13.997210
  H     19.922550  -11.121190  -12.428350

 Total Charge           Charge          ....    0
 Multiplicity           Mult            ....    1
 Number of Electrons    NEL             ....  576
 Basis Dimension        Dim             .... 1283

ORBITAL ENERGIES
----------------

  NO   OCC          E(Eh)            E(eV)
   0   2.0000     -88.961000     -2420.7519
   1   2.0000     -88.955401     -2420.5995
   2   2.0000     -88.954565     -2420.5768
   3   2.0000     -88.953484     -2420.5474
   4   2.0000     -88.952463     -2420.5196
   5   2.0000     -88.951615     -2420.4965
   6   2.0000     -88.948316     -2420.4067
   7   2.0000     -24.819464      -675.3719
   8   2.0000     -24.817257      -675.3119
   9   2.0000     -24.811297      -675.1497
  10   2.0000     -19.249063      -523.7936
  11   2.0000     -19.192528      -522.2552
  12   2.0000     -14.387884      -391.5142
  13   2.0000     -14.386447      -391.4751
  14   2.0000     -10.524754      -286.3931
  15   2.0000     -10.391941      -282.7791
  16   2.0000     -10.342671      -281.4384
  17   2.0000     -10.324764      -280.9511
  18   2.0000     -10.320956      -280.8475
  19   2.0000     -10.318790      -280.7886
  20   2.0000     -10.318758      -280.7877
  21   2.0000     -10.318267      -280.7743
  22   2.0000     -10.317853      -280.7631
  23   2.0000     -10.314593      -280.6744
  24   2.0000     -10.312133      -280.6074
  25   2.0000     -10.311293      -280.5845
  26   2.0000     -10.311158      -280.5809
  27   2.0000     -10.310140      -280.5532
  28   2.0000     -10.308690      -280.5137
  29   2.0000     -10.304445      -280.3982
  30   2.0000     -10.299627      -280.2671
  31   2.0000     -10.299478      -280.2631
  32   2.0000     -10.298237      -280.2293
  33   2.0000     -10.297223      -280.2017
  34   2.0000     -10.296714      -280.1878
  35   2.0000     -10.296539      -280.1831
  36   2.0000     -10.294761      -280.1347
  37   2.0000     -10.293661      -280.1048
  38   2.0000     -10.293525      -280.1011
  39   2.0000     -10.292647      -280.0772
  40   2.0000     -10.292444      -280.0717
  41   2.0000     -10.291502      -280.0460
  42   2.0000     -10.290824      -280.0276
  43   2.0000     -10.290340      -280.0144
  44   2.0000     -10.290022      -280.0057
  45   2.0000     -10.286919      -279.9213
  46   2.0000     -10.286788      -279.9177
  47   2.0000     -10.286556      -279.9114
  48   2.0000     -10.284979      -279.8685
  49   2.0000     -10.284820      -279.8642
  50   2.0000     -10.283766      -279.8355
  51   2.0000     -10.283745      -279.8349
  52   2.0000     -10.283721      -279.8343
  53   2.0000     -10.282138      -279.7912
  54   2.0000     -10.281926      -279.7854
  55   2.0000     -10.281511      -279.7741
  56   2.0000     -10.280791      -279.7545
  57   2.0000     -10.280086      -279.7354
  58   2.0000     -10.279925      -279.7310
  59   2.0000     -10.278898      -279.7030
  60   2.0000     -10.278419      -279.6900
  61   2.0000     -10.276864      -279.6477
  62   2.0000     -10.276681      -279.6427
  63   2.0000     -10.273579      -279.5583
  64   2.0000     -10.272447      -279.5275
  65   2.0000     -10.271688      -279.5068
  66   2.0000     -10.271633      -279.5053
  67   2.0000     -10.270638      -279.4783
  68   2.0000     -10.269380      -279.4440
  69   2.0000     -10.266020      -279.3526
  70   2.0000     -10.263816      -279.2926
  71   2.0000     -10.259730      -279.1814
  72   2.0000     -10.253812      -279.0204
  73   2.0000     -10.253442      -279.0103
  74   2.0000     -10.252717      -278.9906
  75   2.0000      -8.055944      -219.2134
  76   2.0000      -8.051738      -219.0989
  77   2.0000      -8.049897      -219.0488
  78   2.0000      -8.049834      -219.0471
  79   2.0000      -8.048432      -219.0090
  80   2.0000      -8.048415      -219.0085
  81   2.0000      -8.044537      -218.9030
  82   2.0000      -6.024934      -163.9468
  83   2.0000      -6.021377      -163.8500
  84   2.0000      -6.021004      -163.8399
  85   2.0000      -6.019484      -163.7985
  86   2.0000      -6.019060      -163.7870
  87   2.0000      -6.018577      -163.7738
  88   2.0000      -6.018175      -163.7629
  89   2.0000      -6.018099      -163.7608
  90   2.0000      -6.017413      -163.7421
  91   2.0000      -6.015460      -163.6890
  92   2.0000      -6.015167      -163.6810
  93   2.0000      -6.014242      -163.6558
  94   2.0000      -6.014029      -163.6501
  95   2.0000      -6.013889      -163.6463
  96   2.0000      -6.012771      -163.6158
  97   2.0000      -6.011795      -163.5893
  98   2.0000      -6.011061      -163.5693
  99   2.0000      -6.009795      -163.5348
 100   2.0000      -6.009642      -163.5307
 101   2.0000      -6.009043      -163.5144
 102   2.0000      -6.006212      -163.4373
 103   2.0000      -1.405093       -38.2345
 104   2.0000      -1.308754       -35.6130
 105   2.0000      -1.307340       -35.5745
 106   2.0000      -1.166643       -31.7460
 107   2.0000      -1.105397       -30.0794
 108   2.0000      -1.004597       -27.3365
 109   2.0000      -1.003012       -27.2933
 110   2.0000      -0.996732       -27.1225
 111   2.0000      -0.994941       -27.0737
 112   2.0000      -0.993555       -27.0360
 113   2.0000      -0.984956       -26.8020
 114   2.0000      -0.981886       -26.7185
 115   2.0000      -0.977715       -26.6050
 116   2.0000      -0.966293       -26.2942
 117   2.0000      -0.959610       -26.1123
 118   2.0000      -0.942764       -25.6539
 119   2.0000      -0.935300       -25.4508
 120   2.0000      -0.918361       -24.9899
 121   2.0000      -0.912627       -24.8338
 122   2.0000      -0.908125       -24.7113
 123   2.0000      -0.898419       -24.4472
 124   2.0000      -0.897760       -24.4293
 125   2.0000      -0.885062       -24.0838
 126   2.0000      -0.877921       -23.8894
 127   2.0000      -0.871636       -23.7184
 128   2.0000      -0.866406       -23.5761
 129   2.0000      -0.859203       -23.3801
 130   2.0000      -0.855325       -23.2746
 131   2.0000      -0.854447       -23.2507
 132   2.0000      -0.850676       -23.1481
 133   2.0000      -0.845243       -23.0002
 134   2.0000      -0.832331       -22.6489
 135   2.0000      -0.830115       -22.5886
 136   2.0000      -0.827283       -22.5115
 137   2.0000      -0.824533       -22.4367
 138   2.0000      -0.820026       -22.3140
 139   2.0000      -0.819103       -22.2889
 140   2.0000      -0.811809       -22.0904
 141   2.0000      -0.802090       -21.8260
 142   2.0000      -0.797770       -21.7084
 143   2.0000      -0.783341       -21.3158
 144   2.0000      -0.771382       -20.9904
 145   2.0000      -0.768583       -20.9142
 146   2.0000      -0.767739       -20.8912
 147   2.0000      -0.754355       -20.5270
 148   2.0000      -0.750790       -20.4300
 149   2.0000      -0.737465       -20.0675
 150   2.0000      -0.732621       -19.9356
 151   2.0000      -0.722752       -19.6671
 152   2.0000      -0.716325       -19.4922
 153   2.0000      -0.709586       -19.3088
 154   2.0000      -0.704447       -19.1690
 155   2.0000      -0.696471       -18.9520
 156   2.0000      -0.694392       -18.8954
 157   2.0000      -0.688836       -18.7442
 158   2.0000      -0.685946       -18.6655
 159   2.0000      -0.683098       -18.5880
 160   2.0000      -0.673282       -18.3209
 161   2.0000      -0.669467       -18.2171
 162   2.0000      -0.665162       -18.1000
 163   2.0000      -0.660521       -17.9737
 164   2.0000      -0.657282       -17.8856
 165   2.0000      -0.648417       -17.6443
 166   2.0000      -0.640957       -17.4413
 167   2.0000      -0.640310       -17.4237
 168   2.0000      -0.636462       -17.3190
 169   2.0000      -0.633323       -17.2336
 170   2.0000      -0.630692       -17.1620
 171   2.0000      -0.628711       -17.1081
 172   2.0000      -0.623525       -16.9670
 173   2.0000      -0.615621       -16.7519
 174   2.0000      -0.611034       -16.6271
 175   2.0000      -0.608285       -16.5523
 176   2.0000      -0.602358       -16.3910
 177   2.0000      -0.601569       -16.3695
 178   2.0000      -0.597489       -16.2585
 179   2.0000      -0.594031       -16.1644
 180   2.0000      -0.585592       -15.9348
 181   2.0000      -0.583381       -15.8746
 182   2.0000      -0.571974       -15.5642
 183   2.0000      -0.570580       -15.5263
 184   2.0000      -0.568435       -15.4679
 185   2.0000      -0.566999       -15.4288
 186   2.0000      -0.564835       -15.3700
 187   2.0000      -0.558862       -15.2074
 188   2.0000      -0.555964       -15.1286
 189   2.0000      -0.552483       -15.0338
 190   2.0000      -0.549721       -14.9587
 191   2.0000      -0.541367       -14.7313
 192   2.0000      -0.538601       -14.6561
 193   2.0000      -0.536142       -14.5892
 194   2.0000      -0.532681       -14.4950
 195   2.0000      -0.530954       -14.4480
 196   2.0000      -0.527619       -14.3573
 197   2.0000      -0.525802       -14.3078
 198   2.0000      -0.523872       -14.2553
 199   2.0000      -0.522333       -14.2134
 200   2.0000      -0.520625       -14.1669
 201   2.0000      -0.519696       -14.1417
 202   2.0000      -0.519033       -14.1236
 203   2.0000      -0.516291       -14.0490
 204   2.0000      -0.514916       -14.0116
 205   2.0000      -0.513284       -13.9672
 206   2.0000      -0.510592       -13.8939
 207   2.0000      -0.507667       -13.8143
 208   2.0000      -0.506894       -13.7933
 209   2.0000      -0.506053       -13.7704
 210   2.0000      -0.502169       -13.6647
 211   2.0000      -0.501588       -13.6489
 212   2.0000      -0.501190       -13.6381
 213   2.0000      -0.500740       -13.6258
 214   2.0000      -0.499795       -13.6001
 215   2.0000      -0.498388       -13.5618
 216   2.0000      -0.497025       -13.5247
 217   2.0000      -0.494062       -13.4441
 218   2.0000      -0.492145       -13.3919
 219   2.0000      -0.486906       -13.2494
 220   2.0000      -0.485507       -13.2113
 221   2.0000      -0.481822       -13.1110
 222   2.0000      -0.479298       -13.0424
 223   2.0000      -0.478878       -13.0309
 224   2.0000      -0.475329       -12.9344
 225   2.0000      -0.472527       -12.8581
 226   2.0000      -0.471474       -12.8295
 227   2.0000      -0.470784       -12.8107
 228   2.0000      -0.469388       -12.7727
 229   2.0000      -0.469140       -12.7659
 230   2.0000      -0.467822       -12.7301
 231   2.0000      -0.465859       -12.6767
 232   2.0000      -0.464562       -12.6414
 233   2.0000      -0.460062       -12.5189
 234   2.0000      -0.457946       -12.4614
 235   2.0000      -0.456967       -12.4347
 236   2.0000      -0.451537       -12.2869
 237   2.0000      -0.446050       -12.1376
 238   2.0000      -0.444079       -12.0840
 239   2.0000      -0.441642       -12.0177
 240   2.0000      -0.439098       -11.9485
 241   2.0000      -0.435757       -11.8575
 242   2.0000      -0.434001       -11.8098
 243   2.0000      -0.431988       -11.7550
 244   2.0000      -0.431642       -11.7456
 245   2.0000      -0.428273       -11.6539
 246   2.0000      -0.427660       -11.6372
 247   2.0000      -0.424115       -11.5408
 248   2.0000      -0.422521       -11.4974
 249   2.0000      -0.421010       -11.4563
 250   2.0000      -0.417448       -11.3594
 251   2.0000      -0.416634       -11.3372
 252   2.0000      -0.413689       -11.2570
 253   2.0000      -0.412536       -11.2257
 254   2.0000      -0.411883       -11.2079
 255   2.0000      -0.410105       -11.1595
 256   2.0000      -0.407842       -11.0979
 257   2.0000      -0.406964       -11.0741
 258   2.0000      -0.405710       -11.0399
 259   2.0000      -0.402400       -10.9499
 260   2.0000      -0.399674       -10.8757
 261   2.0000      -0.398223       -10.8362
 262   2.0000      -0.393179       -10.6989
 263   2.0000      -0.392135       -10.6705
 264   2.0000      -0.387565       -10.5462
 265   2.0000      -0.385518       -10.4905
 266   2.0000      -0.383792       -10.4435
 267   2.0000      -0.377946       -10.2844
 268   2.0000      -0.371169       -10.1000
 269   2.0000      -0.359129        -9.7724
 270   2.0000      -0.356934        -9.7127
 271   2.0000      -0.349529        -9.5112
 272   2.0000      -0.346962        -9.4413
 273   2.0000      -0.342363        -9.3162
 274   2.0000      -0.339542        -9.2394
 275   2.0000      -0.333718        -9.0809
 276   2.0000      -0.328807        -8.9473
 277   2.0000      -0.317397        -8.6368
 278   2.0000      -0.314112        -8.5474
 279   2.0000      -0.313928        -8.5424
 280   2.0000      -0.311818        -8.4850
 281   2.0000      -0.297863        -8.1053
 282   2.0000      -0.292554        -7.9608
 283   2.0000      -0.282970        -7.7000
 284   2.0000      -0.272191        -7.4067
 285   2.0000      -0.251464        -6.8427
 286   2.0000      -0.221461        -6.0263
 287   2.0000      -0.191944        -5.2231
 288   0.0000      -0.112717        -3.0672
 289   0.0000      -0.084855        -2.3090
 290   0.0000      -0.052857        -1.4383
 291   0.0000      -0.042548        -1.1578
 292   0.0000      -0.024229        -0.6593

MULLIKEN ATOMIC CHARGES
-----------------------
   0 C :   -0.017963
   1 C :   -0.070400
   2 C :    0.056467
   3 C :    0.027831
   4 C :   -0.058547
   5 S :    0.093400
   6 C :   -0.051264
   7 C :    0.028395
   8 C :    0.024472
   9 C :   -0.017743
  10 S :    0.087834
  11 C :   -0.020242
  12 C :    0.008619
  13 C :   -0.037486
  14 C :    0.036746
  15 C :    0.011442
  16 C :   -0.032447
  17 S :    0.087869
  18 C :   -0.043351
  19 C :    0.032885
  20 C :    0.018756
  21 C :   -0.035800
  22 S :    0.079737
  23 C :   -0.040769
  24 C :   -0.073636
  25 S :    0.082456
  26 C :   -0.091790
  27 C :   -0.045948
  28 C :    0.013474
  29 C :   -0.048591
  30 C :   -0.028165
  31 O :   -0.122478
  32 C :    0.512239
  33 F :   -0.161043
  34 F :   -0.160335
  35 F :   -0.132040
  36 C :    0.064842
  37 C :    0.013496
  38 C :    0.122605
  39 C :    0.001198
  40 C :   -0.062998
  41 C :   -0.051043
  42 S :    0.137496
  43 C :   -0.090254
  44 C :    0.118202
  45 C :    0.126348
  46 C :   -0.115132
  47 C :    0.104094
  48 C :   -0.281846
  49 C :    0.091527
  50 C :    0.102783
  51 C :    0.090119
  52 C :   -0.014137
  53 C :   -0.033162
  54 C :    0.019714
  55 C :   -0.048632
  56 C :    0.020997
  57 C :   -0.095754
  58 C :    0.315832
  59 C :   -0.374721
  60 C :   -0.190381
  61 N :    0.126536
  62 C :   -0.192884
  63 N :    0.137329
  64 C :    0.009720
  65 C :    0.002742
  66 C :    0.153539
  67 O :   -0.192623
  68 C :   -0.080086
  69 C :    0.114350
  70 C :   -0.098903
  71 C :   -0.023927
  72 S :    0.128435
  73 C :   -0.054774
  74 C :    0.024183
  75 H :    0.026325
  76 H :    0.027178
  77 H :   -0.005391
  78 H :   -0.006665
  79 H :   -0.009601
  80 H :   -0.005875
  81 H :   -0.000811
  82 H :   -0.002247
  83 H :   -0.009478
  84 H :   -0.013441
  85 H :   -0.013681
  86 H :   -0.009997
  87 H :   -0.025741
  88 H :    0.035256
  89 H :    0.010554
  90 H :    0.019437
  91 H :    0.008195
  92 H :    0.027801
  93 H :    0.022322
  94 H :    0.020805
  95 H :   -0.002510
  96 H :    0.002361
  97 H :   -0.033378
  98 H :    0.011153
  99 H :    0.002431
 100 H :    0.002546
 101 H :    0.010617
 102 H :    0.003854
 103 H :    0.008657
 104 H :    0.002626
 105 H :    0.007648
 106 H :    0.003782
 107 H :   -0.023465
 108 H :   -0.007217
 109 H :    0.019817
 110 H :   -0.019810
 111 H :   -0.001410
 112 H :   -0.024129
 113 H :   -0.011878
 114 H :    0.031151
 115 H :   -0.015207
Sum of atomic charges:   -0.0000000

LOEWDIN ATOMIC CHARGES
----------------------
   0 C :   -0.061035
   1 C :   -0.141154
   2 C :   -0.023620
   3 C :   -0.027484
   4 C :   -0.166173
   5 S :    0.364722
   6 C :   -0.184554
   7 C :   -0.024867
   8 C :   -0.038772
   9 C :   -0.133952
  10 S :    0.382238
  11 C :   -0.071730
  12 C :   -0.038927
  13 C :   -0.158733
  14 C :   -0.025509
  15 C :   -0.045780
  16 C :   -0.160527
  17 S :    0.390406
  18 C :   -0.195382
  19 C :   -0.028820
  20 C :   -0.046445
  21 C :   -0.139177
  22 S :    0.386259
  23 C :   -0.101520
  24 C :   -0.146780
  25 S :    0.426423
  26 C :   -0.183479
  27 C :   -0.029527
  28 C :   -0.065169
  29 C :   -0.055185
  30 C :    0.048034
  31 O :   -0.075203
  32 C :    0.136406
  33 F :   -0.057830
  34 F :   -0.059710
  35 F :   -0.033640
  36 C :   -0.008534
  37 C :   -0.029369
  38 C :   -0.022815
  39 C :   -0.014898
  40 C :   -0.078209
  41 C :   -0.128146
  42 S :    0.460054
  43 C :   -0.193165
  44 C :   -0.019601
  45 C :   -0.050515
  46 C :   -0.011398
  47 C :   -0.008553
  48 C :   -0.048841
  49 C :   -0.034260
  50 C :   -0.041307
  51 C :   -0.034894
  52 C :   -0.013043
  53 C :   -0.010620
  54 C :    0.028897
  55 C :   -0.085516
  56 C :    0.057096
  57 C :   -0.125142
  58 C :    0.077900
  59 C :   -0.163252
  60 C :   -0.017755
  61 N :   -0.076034
  62 C :   -0.025195
  63 N :   -0.070575
  64 C :   -0.020054
  65 C :   -0.049290
  66 C :    0.086156
  67 O :   -0.172175
  68 C :    0.013801
  69 C :   -0.040763
  70 C :   -0.148735
  71 C :   -0.013801
  72 S :    0.419203
  73 C :   -0.157995
  74 C :   -0.060873
  75 H :    0.031569
  76 H :    0.028742
  77 H :    0.035969
  78 H :    0.034501
  79 H :    0.033346
  80 H :    0.036358
  81 H :    0.029526
  82 H :    0.030829
  83 H :    0.034967
  84 H :    0.032010
  85 H :    0.032244
  86 H :    0.033707
  87 H :    0.029171
  88 H :    0.039702
  89 H :    0.025255
  90 H :    0.030714
  91 H :    0.028605
  92 H :    0.027879
  93 H :    0.035134
  94 H :    0.035836
  95 H :    0.029774
  96 H :    0.025343
  97 H :    0.022549
  98 H :    0.024711
  99 H :    0.019006
 100 H :    0.020481
 101 H :    0.022109
 102 H :    0.024192
 103 H :    0.021381
 104 H :    0.018894
 105 H :    0.023269
 106 H :    0.021045
 107 H :    0.029576
 108 H :    0.037429
 109 H :    0.034546
 110 H :    0.020873
 111 H :    0.045247
 112 H :    0.035108
 113 H :    0.039091
 114 H :    0.025912
 115 H :    0.031808

  Mayer bond orders larger than 0.100000
B(  0-C ,  1-C ) :   1.8525 B(  0-C , 75-H ) :   0.9513 B(  0-C , 76-H ) :   0.9420
B(  1-C ,  2-C ) :   1.0869 B(  1-C ,  5-S ) :   1.0070 B(  2-C ,  3-C ) :   1.6424
B(  2-C , 77-H ) :   0.9934 B(  3-C ,  4-C ) :   1.1727 B(  3-C , 78-H ) :   0.9922
B(  4-C ,  5-S ) :   1.0631 B(  4-C ,  6-C ) :   1.4950 B(  6-C ,  7-C ) :   1.2172
B(  6-C , 10-S ) :   1.0432 B(  7-C ,  8-C ) :   1.5388 B(  7-C , 79-H ) :   0.9939
B(  8-C ,  9-C ) :   1.1965 B(  8-C , 80-H ) :   1.0015 B(  9-C , 10-S ) :   1.0603
B(  9-C , 11-C ) :   1.4724 B( 11-C , 12-C ) :   1.2606 B( 11-C , 81-H ) :   0.9713
B( 12-C , 13-C ) :   1.4628 B( 12-C , 82-H ) :   0.9739 B( 13-C , 14-C ) :   1.2218
B( 13-C , 17-S ) :   1.0466 B( 14-C , 15-C ) :   1.4995 B( 14-C , 83-H ) :   1.0004
B( 15-C , 16-C ) :   1.2592 B( 15-C , 84-H ) :   0.9956 B( 16-C , 17-S ) :   1.0771
B( 16-C , 18-C ) :   1.4033 B( 18-C , 19-C ) :   1.2512 B( 18-C , 22-S ) :   1.0463
B( 19-C , 20-C ) :   1.5183 B( 19-C , 85-H ) :   0.9939 B( 20-C , 21-C ) :   1.2028
B( 20-C , 86-H ) :   1.0001 B( 21-C , 22-S ) :   1.0698 B( 21-C , 23-C ) :   1.4710
B( 23-C , 24-C ) :   1.2677 B( 23-C , 87-H ) :   0.9506 B( 24-C , 25-S ) :   1.1063
B( 24-C , 28-C ) :   1.3568 B( 25-S , 26-C ) :   1.0762 B( 26-C , 27-C ) :   1.3647
B( 26-C , 39-C ) :   1.2744 B( 27-C , 28-C ) :   1.4468 B( 27-C , 38-C ) :   1.0482
B( 28-C , 29-C ) :   0.9768 B( 29-C , 30-C ) :   0.8888 B( 29-C , 36-C ) :   1.0500
B( 29-C , 88-H ) :   0.8986 B( 30-C , 31-O ) :   2.2303 B( 30-C , 32-C ) :   0.8698
B( 32-C , 33-F ) :   1.1364 B( 32-C , 34-F ) :   1.1274 B( 32-C , 35-F ) :   1.2028
B( 36-C , 37-C ) :   1.0677 B( 36-C , 89-H ) :   0.9305 B( 36-C , 90-H ) :   0.9422
B( 37-C , 38-C ) :   1.0885 B( 37-C , 91-H ) :   0.9323 B( 37-C , 92-H ) :   0.9427
B( 38-C , 93-H ) :   0.9123 B( 38-C , 94-H ) :   0.9120 B( 39-C , 40-C ) :   1.4996
B( 39-C , 95-H ) :   0.9673 B( 40-C , 41-C ) :   1.2764 B( 40-C , 96-H ) :   0.9607
B( 41-C , 42-S ) :   1.1664 B( 41-C , 45-C ) :   1.2095 B( 42-S , 43-C ) :   1.0569
B( 43-C , 44-C ) :   1.2163 B( 43-C , 54-C ) :   1.3506 B( 44-C , 45-C ) :   1.2431
B( 44-C , 53-C ) :   1.2582 B( 45-C , 46-C ) :   1.2586 B( 46-C , 47-C ) :   1.4748
B( 46-C , 97-H ) :   0.9915 B( 47-C , 48-C ) :   0.9174 B( 47-C , 52-C ) :   1.2967
B( 48-C , 49-C ) :   1.0427 B( 48-C , 50-C ) :   1.0925 B( 48-C , 51-C ) :   1.0425
B( 49-C , 98-H ) :   0.9647 B( 49-C , 99-H ) :   0.9634 B( 49-C ,100-H ) :   0.9646
B( 50-C ,101-H ) :   0.9497 B( 50-C ,102-H ) :   0.9591 B( 50-C ,103-H ) :   0.9500
B( 51-C ,104-H ) :   0.9634 B( 51-C ,105-H ) :   0.9651 B( 51-C ,106-H ) :   0.9649
B( 52-C , 53-C ) :   1.4707 B( 52-C ,107-H ) :   0.9809 B( 53-C ,108-H ) :   0.9923
B( 54-C , 55-C ) :   1.4215 B( 54-C ,109-H ) :   0.9257 B( 55-C , 56-C ) :   1.3847
B( 55-C ,110-H ) :   0.9597 B( 56-C , 57-C ) :   1.4077 B( 56-C ,111-H ) :   0.9307
B( 57-C , 58-C ) :   1.1357 B( 57-C , 66-C ) :   0.9747 B( 58-C , 59-C ) :   1.5657
B( 58-C , 64-C ) :   0.9803 B( 59-C , 60-C ) :   1.1552 B( 59-C , 62-C ) :   1.1461
B( 60-C , 61-N ) :   2.9586 B( 62-C , 63-N ) :   2.9696 B( 64-C , 65-C ) :   1.2778
B( 64-C , 71-C ) :   1.4219 B( 65-C , 66-C ) :   0.9600 B( 65-C , 68-C ) :   1.4320
B( 66-C , 67-O ) :   2.0931 B( 67-O ,109-H ) :   0.1254 B( 68-C , 69-C ) :   1.2345
B( 68-C ,112-H ) :   1.0161 B( 69-C , 70-C ) :   1.3169 B( 69-C , 74-C ) :   1.1691
B( 70-C , 71-C ) :   1.3127 B( 70-C , 72-S ) :   1.0933 B( 71-C ,113-H ) :   0.9816
B( 72-S , 73-C ) :   1.1248 B( 73-C , 74-C ) :   1.6288 B( 73-C ,114-H ) :   0.9691
B( 74-C ,115-H ) :   0.9987

-----------------------------------------------------------------------------
         ABSORPTION SPECTRUM VIA TRANSITION ELECTRIC DIPOLE MOMENTS
-----------------------------------------------------------------------------
State   Energy  Wavelength   fosc         T2         TX        TY        TZ
        (cm-1)    (nm)                  (au**2)     (au)      (au)      (au)
-----------------------------------------------------------------------------
   0    5608.4   1783.0   0.602811926  35.38505  -2.13664   4.43152  -3.34386
   1   11238.3    889.8   0.087654904   2.56774   1.06937  -0.55228  -1.05791
   2   12820.6    780.0   2.329619953  59.82094   5.26762  -2.12441  -5.24976
   3   17009.2    587.9   0.003937327   0.07621   0.17247  -0.14054  -0.16343
   4   18093.0    552.7   0.034141195   0.62122  -0.30739  -0.66108  -0.29951
   5   19595.6    510.3   0.101022116   1.69720   0.31470  -1.00062  -0.77261
   6   21124.0    473.4   0.055117671   0.85899   0.59443   0.60661  -0.37103
   7   23126.6    432.4   0.031421224   0.44729  -0.30294   0.32836   0.49769
   8   23832.6    419.6   0.004580511   0.06327   0.08692   0.23601   0.00419
   9   24590.6    406.7   0.055639679   0.74489  -0.36117  -0.72985  -0.28593
  10   24884.0    401.9   0.051046635   0.67534   0.50316   0.64843  -0.04140
  11   25198.2    396.9   0.025597157   0.33442   0.52507   0.12851  -0.20546
  12   25469.5    392.6   0.154414902   1.99593   0.52344   1.21583   0.49365
  13   26912.5    371.6   0.050444554   0.61707   0.71776   0.16045   0.27596
  14   27417.7    364.7   0.014211253   0.17064   0.16705  -0.32751   0.18834
  15   27844.8    359.1   0.042663117   0.50441   0.02938  -0.15064   0.69344
  16   28091.4    356.0   0.116033627   1.35983   0.44187   0.44492  -0.98318
  17   28860.9    346.5   0.033956299   0.38733   0.12512   0.11222  -0.59924
  18   28987.5    345.0   0.031110451   0.35332  -0.12510   0.41420  -0.40757
  19   29682.0    336.9   0.042678427   0.47336  -0.15502   0.18006   0.64568
  20   29896.5    334.5   0.001907675   0.02101   0.07143  -0.12237  -0.03051
  21   29937.2    334.0   0.112164513   1.23345   0.25187  -1.02074  -0.35792
  22   30398.2    329.0   0.092746718   1.00444   0.32087   0.22300  -0.92291
  23   30717.4    325.5   0.023336713   0.25011   0.48750   0.02868   0.10784
  24   30972.8    322.9   0.042698601   0.45385   0.23181  -0.08411  -0.62693
  25   31026.4    322.3   0.078543553   0.83340  -0.02363   0.88978   0.20280
  26   31640.6    316.0   0.085525779   0.88987  -0.39417  -0.00740   0.85700
  27   31941.5    313.1   0.151684124   1.56336   0.27391  -1.15566   0.39087
  28   32280.0    309.8   0.112949260   1.15193   0.49294  -0.60003  -0.74088
  29   32382.9    308.8   0.017840227   0.18137  -0.08024   0.30683   0.28423
  30   33002.3    303.0   0.002828716   0.02822   0.08115  -0.07650  -0.12562
  31   33065.4    302.4   0.002771600   0.02760   0.10530   0.01016  -0.12808
  32   33338.6    300.0   0.026695154   0.26361  -0.25654   0.41471   0.16065
  33   33380.6    299.6   0.045337146   0.44713   0.14452  -0.59728  -0.26364
  34   33771.2    296.1   0.025604732   0.24960  -0.02521  -0.38500   0.31740
  35   33820.4    295.7   0.027014435   0.26296  -0.13403  -0.29151  -0.40003
  36   34075.5    293.5   0.006354636   0.06139  -0.08164  -0.15378   0.17630
  37   34475.9    290.1   0.232264475   2.21790   0.00219  -1.48175   0.14942
  38   34645.0    288.6   0.066342267   0.63041  -0.16808   0.41868   0.65336
  39   35158.3    284.4   0.343194589   3.21357   0.05925  -1.76641  -0.29974
  40   35356.1    282.8   0.013685890   0.12743   0.01860  -0.28757  -0.21069
  41   35634.0    280.6   0.067479865   0.62343   0.11296   0.71085   0.32458
  42   35839.6    279.0   0.177732971   1.63260   0.58457  -1.11556  -0.21542
  43   36542.4    273.7   0.003723466   0.03354   0.03157  -0.16244  -0.07850
  44   36757.7    272.1   0.081248069   0.72768  -0.08139  -0.84151   0.11364
  45   37224.6    268.6   0.004789765   0.04236   0.20273  -0.03218  -0.01501
  46   37583.6    266.1   0.005245255   0.04595  -0.05189   0.18140  -0.10173
  47   38074.6    262.6   0.183021399   1.58249  -0.22004   1.22187  -0.20273
  48   38337.0    260.8   0.012707496   0.10912  -0.21691   0.24125   0.06223
  49   38639.7    258.8   0.213862388   1.82212  -0.72724  -1.13402   0.08513
  50   38857.1    257.4   0.005130925   0.04347  -0.03894   0.05081   0.19843
  51   39185.3    255.2   0.007252693   0.06093  -0.21582  -0.04653   0.11040
  52   39304.2    254.4   0.011011261   0.09223   0.20311  -0.13938  -0.17763
  53   39430.5    253.6   0.082277327   0.68695  -0.60747  -0.50382   0.25317
  54   39525.5    253.0   0.109708918   0.91378  -0.21732  -0.92932  -0.05401
  55   39964.1    250.2   0.007984299   0.06577  -0.05248  -0.25075  -0.01188
  56   40107.9    249.3   0.034225736   0.28093   0.27006   0.45411   0.04226

FINAL SINGLE POINT ENERGY     -5691.388476670448

DIPOLE MOMENT
-------------
                                X             Y             Z
Electronic contribution:     25.67790      48.70845      27.20057
Nuclear contribution   :    -27.14548     -54.02918     -23.47443
                        -----------------------------------------
Total Dipole Moment    :     -1.46757      -5.32073       3.72615
                        -----------------------------------------
Magnitude (a.u.)       :      6.65944
Magnitude (Debye)      :     16.92695

Rotational constants in cm-1:     0.000517     0.000354     0.000240
Rotational constants in MHz :    15.499497    10.617584     7.209720

                             ****ORCA TERMINATED NORMALLY****
TOTAL RUN TIME: 0 days 0 hours 20 minutes 42 seconds 628 msec
