                         Program Version 4.2.0 -  RELEASE  -
|  1> # ORCA input file
|  2> # SCF done       -191.316429294871          0.000645157489
|  3> ! CAM-B3LYP def2-SVP def2/J RIJCOSX Grid4 TightSCF
|  4> %maxcore 5000
|  5> %tddft
|  6>     Mode sTDDFT
|  7>     Ethresh 5.0
|  8>     maxcore 5000
|  9> end
| 10>
| 11> %pal
| 12>   nprocs 6
| 13>   end
| 14> * xyz 0 1
| 15>    C        4.16281         6.95628        -4.75109
| 16>    C        4.21785         6.61222        -6.07699
| 17>    C        5.41065         6.29074        -6.75948
| 18>    N        6.34107         6.01758        -7.37371
| 19>    C        3.11633         6.51265        -6.95229
| 20>    N        2.27362         6.40829        -7.72611
| 21>    C        5.31057         7.02859        -3.85233
| 22>    C        4.84593         7.36483        -2.54829
| 23>    C        5.69588         7.50876        -1.48956
| 24>    C        7.08155         7.32265        -1.69034
| 25>    C        7.55661         6.98649        -2.99096
| 26>    C        6.65032         6.84159        -4.06718
| 27>    C        8.94133         6.80509        -3.18112
| 28>    C        9.81609         6.94989        -2.13841
| 29>    C        9.34710         7.28181        -0.85878
| 30>    C        8.00838         7.46365        -0.63912
| 31>    C        3.38728         7.52039        -2.58229
| 32>    O        2.66562         7.78675        -1.63498
| 33>    C        2.97952         7.29463        -3.97770
| 34>    C        1.70881         7.42624        -4.47078
| 35>    C        0.51353         7.77373        -3.81530
| 36>    S        0.30359         8.09689        -2.11302
| 37>    C       -1.38602         8.42424        -2.33425
| 38>    C       -1.75811         8.28387        -3.68326
| 39>    C       -0.69307         7.91475        -4.49744
| 40>    C       -3.07271         8.49428        -4.13478
| 41>    N       -4.14979         8.66984        -4.48732
| 42>    C       -2.23187         8.80584        -1.27443
| 43>    C       -1.80812         8.86974         0.02043
| 44>    C       -2.57837         9.28618         1.11488
| 45>    S       -4.21650         9.88817         0.99980
| 46>    C       -4.35456        10.21648         2.71495
| 47>    C       -3.16222         9.84182         3.36088
| 48>    C       -2.19163         9.33356         2.45424
| 49>    N       -1.07673         9.00434         3.15034
| 50>    C       -1.30546         9.28466         4.48089
| 51>    C       -0.33180         9.04717         5.46139
| 52>    N        0.46744         8.85022         6.26035
| 53>    C       -2.57567         9.80073         4.64587
| 54>    C       -5.52854        10.80532         3.19976
| 55>    C       -5.73822        11.15557         4.50629
| 56>    C       -6.88086        11.80754         5.00311
| 57>    C       -7.06099        12.19974         6.32151
| 58>    C       -8.29618        12.87336         6.45110
| 59>    C       -8.90576        12.86644         5.10478
| 60>    C       -8.05849        12.23008         4.25629
| 61>    C      -10.14399        13.40835         4.74133
| 62>    N      -11.15456        13.83933         4.40597
| 63>    C       -8.82584        13.45103         7.58963
| 64>    C      -10.03205        14.18689         7.71708
| 65>    C      -10.17061        14.61829         9.02551
| 66>    C       -9.01941        14.13405         9.77424
| 67>    C       -8.21186        13.43995         8.92999
| 68>    C       -7.01143        12.82361         9.29926
| 69>    N       -6.02965        12.32755         9.63176
| 70>    C      -11.23073        15.40046         9.53684
| 71>    C      -11.32195        15.81666        10.83315
| 72>    C      -12.39085        16.61101        11.29541
| 73>    C      -12.52369        17.05165        12.58524
| 74>    C      -13.59095        17.87497        13.12036
| 75>    C      -14.65285        18.40241        12.42961
| 76>    C      -15.65614        19.20424        13.01323
| 77>    N      -16.50609        19.85965        13.42089
| 78>    C      -14.90529        18.23900        11.05179
| 79>    N      -15.18368        18.16014         9.94014
| 80>    C      -13.33688        18.06490        14.54518
| 81>    C      -12.13135        17.38869        14.88683
| 82>    C      -11.57574        16.73984        13.68844
| 83>    O      -10.55319        16.08757        13.63066
| 84>    C      -11.63598        17.38948        16.15878
| 85>    C      -12.33847        18.08050        17.17084
| 86>    C      -13.54606        18.75978        16.83887
| 87>    C      -14.03365        18.74113        15.51166
| 88>    C      -14.23974        19.44630        17.85613
| 89>    C      -13.76516        19.46177        19.13952
| 90>    C      -12.57618        18.79211        19.46507
| 91>    C      -11.87785        18.11617        18.50153
| 92>    H        5.31621         7.76440        -0.51136
| 93>    H        7.04483         6.58901        -5.03825
| 94>    H        9.29819         6.54946        -4.16795
| 95>    H       10.87504         6.80953        -2.29464
| 96>    H       10.05121         7.39295        -0.04792
| 97>    H        7.64119         7.71925         0.34411
| 98>    H        1.57261         7.26137        -5.53269
| 99>    H       -0.78012         7.75507        -5.55837
|100>    H       -3.25633         9.05727        -1.51946
|101>    H       -0.78596         8.58476         0.23972
|102>    H       -0.22318         8.62050         2.78010
|103>    H       -2.99747        10.09571         5.58482
|104>    H       -6.29610        11.00488         2.46487
|105>    H       -4.96779        10.94588         5.23310
|106>    H       -6.36385        12.03319         7.11873
|107>    H       -8.22623        12.06433         3.20861
|108>    H      -10.71990        14.38429         6.91797
|109>    H       -8.84174        14.29998        10.81993
|110>    H      -12.00672        15.68168         8.83439
|111>    H      -10.55970        15.54392        11.54651
|112>    H      -13.14638        16.87974        10.56804
|113>    H      -10.71900        16.86763        16.38940
|114>    H      -14.95115        19.26482        15.29584
|115>    H      -15.15471        19.96053        17.60089
|116>    H      -14.30387        19.99045        19.91157
|117>    H      -12.21642        18.81445        20.48291
|118>    H      -10.96166        17.59859        18.74577
|119> *
|120>
|121>                          ****END OF INPUT****

CARTESIAN COORDINATES (ANGSTROEM)
---------------------------------
  C      4.162810    6.956280   -4.751090
  C      4.217850    6.612220   -6.076990
  C      5.410650    6.290740   -6.759480
  N      6.341070    6.017580   -7.373710
  C      3.116330    6.512650   -6.952290
  N      2.273620    6.408290   -7.726110
  C      5.310570    7.028590   -3.852330
  C      4.845930    7.364830   -2.548290
  C      5.695880    7.508760   -1.489560
  C      7.081550    7.322650   -1.690340
  C      7.556610    6.986490   -2.990960
  C      6.650320    6.841590   -4.067180
  C      8.941330    6.805090   -3.181120
  C      9.816090    6.949890   -2.138410
  C      9.347100    7.281810   -0.858780
  C      8.008380    7.463650   -0.639120
  C      3.387280    7.520390   -2.582290
  O      2.665620    7.786750   -1.634980
  C      2.979520    7.294630   -3.977700
  C      1.708810    7.426240   -4.470780
  C      0.513530    7.773730   -3.815300
  S      0.303590    8.096890   -2.113020
  C     -1.386020    8.424240   -2.334250
  C     -1.758110    8.283870   -3.683260
  C     -0.693070    7.914750   -4.497440
  C     -3.072710    8.494280   -4.134780
  N     -4.149790    8.669840   -4.487320
  C     -2.231870    8.805840   -1.274430
  C     -1.808120    8.869740    0.020430
  C     -2.578370    9.286180    1.114880
  S     -4.216500    9.888170    0.999800
  C     -4.354560   10.216480    2.714950
  C     -3.162220    9.841820    3.360880
  C     -2.191630    9.333560    2.454240
  N     -1.076730    9.004340    3.150340
  C     -1.305460    9.284660    4.480890
  C     -0.331800    9.047170    5.461390
  N      0.467440    8.850220    6.260350
  C     -2.575670    9.800730    4.645870
  C     -5.528540   10.805320    3.199760
  C     -5.738220   11.155570    4.506290
  C     -6.880860   11.807540    5.003110
  C     -7.060990   12.199740    6.321510
  C     -8.296180   12.873360    6.451100
  C     -8.905760   12.866440    5.104780
  C     -8.058490   12.230080    4.256290
  C    -10.143990   13.408350    4.741330
  N    -11.154560   13.839330    4.405970
  C     -8.825840   13.451030    7.589630
  C    -10.032050   14.186890    7.717080
  C    -10.170610   14.618290    9.025510
  C     -9.019410   14.134050    9.774240
  C     -8.211860   13.439950    8.929990
  C     -7.011430   12.823610    9.299260
  N     -6.029650   12.327550    9.631760
  C    -11.230730   15.400460    9.536840
  C    -11.321950   15.816660   10.833150
  C    -12.390850   16.611010   11.295410
  C    -12.523690   17.051650   12.585240
  C    -13.590950   17.874970   13.120360
  C    -14.652850   18.402410   12.429610
  C    -15.656140   19.204240   13.013230
  N    -16.506090   19.859650   13.420890
  C    -14.905290   18.239000   11.051790
  N    -15.183680   18.160140    9.940140
  C    -13.336880   18.064900   14.545180
  C    -12.131350   17.388690   14.886830
  C    -11.575740   16.739840   13.688440
  O    -10.553190   16.087570   13.630660
  C    -11.635980   17.389480   16.158780
  C    -12.338470   18.080500   17.170840
  C    -13.546060   18.759780   16.838870
  C    -14.033650   18.741130   15.511660
  C    -14.239740   19.446300   17.856130
  C    -13.765160   19.461770   19.139520
  C    -12.576180   18.792110   19.465070
  C    -11.877850   18.116170   18.501530
  H      5.316210    7.764400   -0.511360
  H      7.044830    6.589010   -5.038250
  H      9.298190    6.549460   -4.167950
  H     10.875040    6.809530   -2.294640
  H     10.051210    7.392950   -0.047920
  H      7.641190    7.719250    0.344110
  H      1.572610    7.261370   -5.532690
  H     -0.780120    7.755070   -5.558370
  H     -3.256330    9.057270   -1.519460
  H     -0.785960    8.584760    0.239720
  H     -0.223180    8.620500    2.780100
  H     -2.997470   10.095710    5.584820
  H     -6.296100   11.004880    2.464870
  H     -4.967790   10.945880    5.233100
  H     -6.363850   12.033190    7.118730
  H     -8.226230   12.064330    3.208610
  H    -10.719900   14.384290    6.917970
  H     -8.841740   14.299980   10.819930
  H    -12.006720   15.681680    8.834390
  H    -10.559700   15.543920   11.546510
  H    -13.146380   16.879740   10.568040
  H    -10.719000   16.867630   16.389400
  H    -14.951150   19.264820   15.295840
  H    -15.154710   19.960530   17.600890
  H    -14.303870   19.990450   19.911570
  H    -12.216420   18.814450   20.482910
  H    -10.961660   17.598590   18.745770

 Total Charge           Charge          ....    0
 Multiplicity           Mult            ....    1
 Number of Electrons    NEL             ....  522
 Basis Dimension        Dim             .... 1221

ORBITAL ENERGIES
----------------

  NO   OCC          E(Eh)            E(eV)
   0   2.0000     -88.991332     -2421.5773
   1   2.0000     -88.982916     -2421.3482
   2   2.0000     -19.231744      -523.3224
   3   2.0000     -19.219044      -522.9768
   4   2.0000     -14.504022      -394.6745
   5   2.0000     -14.434009      -392.7693
   6   2.0000     -14.423688      -392.4885
   7   2.0000     -14.419599      -392.3772
   8   2.0000     -14.417342      -392.3158
   9   2.0000     -14.416870      -392.3030
  10   2.0000     -14.414993      -392.2519
  11   2.0000     -14.414335      -392.2340
  12   2.0000     -14.412429      -392.1821
  13   2.0000     -10.379812      -282.4490
  14   2.0000     -10.370928      -282.2073
  15   2.0000     -10.369430      -282.1665
  16   2.0000     -10.350329      -281.6468
  17   2.0000     -10.348502      -281.5971
  18   2.0000     -10.347925      -281.5814
  19   2.0000     -10.343129      -281.4508
  20   2.0000     -10.343094      -281.4499
  21   2.0000     -10.341424      -281.4044
  22   2.0000     -10.338349      -281.3208
  23   2.0000     -10.337773      -281.3051
  24   2.0000     -10.334329      -281.2114
  25   2.0000     -10.332512      -281.1619
  26   2.0000     -10.332510      -281.1619
  27   2.0000     -10.330846      -281.1166
  28   2.0000     -10.326966      -281.0110
  29   2.0000     -10.326459      -280.9972
  30   2.0000     -10.326335      -280.9939
  31   2.0000     -10.325501      -280.9712
  32   2.0000     -10.324269      -280.9376
  33   2.0000     -10.322545      -280.8907
  34   2.0000     -10.319918      -280.8193
  35   2.0000     -10.319867      -280.8179
  36   2.0000     -10.319155      -280.7985
  37   2.0000     -10.318885      -280.7911
  38   2.0000     -10.318161      -280.7714
  39   2.0000     -10.317968      -280.7662
  40   2.0000     -10.317819      -280.7621
  41   2.0000     -10.316958      -280.7387
  42   2.0000     -10.314645      -280.6757
  43   2.0000     -10.314625      -280.6752
  44   2.0000     -10.313902      -280.6556
  45   2.0000     -10.313355      -280.6407
  46   2.0000     -10.312777      -280.6249
  47   2.0000     -10.310915      -280.5743
  48   2.0000     -10.310706      -280.5686
  49   2.0000     -10.310229      -280.5556
  50   2.0000     -10.309924      -280.5473
  51   2.0000     -10.309793      -280.5437
  52   2.0000     -10.308660      -280.5129
  53   2.0000     -10.306290      -280.4484
  54   2.0000     -10.305352      -280.4229
  55   2.0000     -10.304594      -280.4022
  56   2.0000     -10.304278      -280.3937
  57   2.0000     -10.303533      -280.3734
  58   2.0000     -10.303429      -280.3706
  59   2.0000     -10.301967      -280.3308
  60   2.0000     -10.298504      -280.2365
  61   2.0000     -10.298259      -280.2299
  62   2.0000     -10.297516      -280.2097
  63   2.0000     -10.297164      -280.2001
  64   2.0000     -10.296658      -280.1863
  65   2.0000     -10.294953      -280.1399
  66   2.0000     -10.293089      -280.0892
  67   2.0000     -10.292814      -280.0817
  68   2.0000     -10.292583      -280.0754
  69   2.0000     -10.292063      -280.0613
  70   2.0000     -10.291562      -280.0476
  71   2.0000     -10.289092      -279.9804
  72   2.0000     -10.288834      -279.9734
  73   2.0000     -10.287389      -279.9341
  74   2.0000     -10.286880      -279.9202
  75   2.0000     -10.286631      -279.9135
  76   2.0000     -10.286116      -279.8994
  77   2.0000      -8.086040      -220.0323
  78   2.0000      -8.076234      -219.7655
  79   2.0000      -6.055307      -164.7733
  80   2.0000      -6.051278      -164.6636
  81   2.0000      -6.048195      -164.5798
  82   2.0000      -6.045645      -164.5104
  83   2.0000      -6.041166      -164.3885
  84   2.0000      -6.038407      -164.3134
  85   2.0000      -1.146530       -31.1987
  86   2.0000      -1.133147       -30.8345
  87   2.0000      -1.126729       -30.6599
  88   2.0000      -1.025833       -27.9143
  89   2.0000      -1.022954       -27.8360
  90   2.0000      -1.022128       -27.8135
  91   2.0000      -1.018838       -27.7240
  92   2.0000      -1.016668       -27.6649
  93   2.0000      -1.007150       -27.4059
  94   2.0000      -1.006339       -27.3839
  95   2.0000      -1.005740       -27.3676
  96   2.0000      -0.999760       -27.2049
  97   2.0000      -0.999401       -27.1951
  98   2.0000      -0.994278       -27.0557
  99   2.0000      -0.993536       -27.0355
 100   2.0000      -0.992378       -27.0040
 101   2.0000      -0.987433       -26.8694
 102   2.0000      -0.978655       -26.6305
 103   2.0000      -0.972415       -26.4608
 104   2.0000      -0.948979       -25.8230
 105   2.0000      -0.934609       -25.4320
 106   2.0000      -0.933303       -25.3965
 107   2.0000      -0.923594       -25.1323
 108   2.0000      -0.920221       -25.0405
 109   2.0000      -0.916358       -24.9354
 110   2.0000      -0.906194       -24.6588
 111   2.0000      -0.895627       -24.3713
 112   2.0000      -0.891208       -24.2510
 113   2.0000      -0.887341       -24.1458
 114   2.0000      -0.882074       -24.0025
 115   2.0000      -0.879538       -23.9334
 116   2.0000      -0.873168       -23.7601
 117   2.0000      -0.871133       -23.7047
 118   2.0000      -0.862273       -23.4636
 119   2.0000      -0.857949       -23.3460
 120   2.0000      -0.847601       -23.0644
 121   2.0000      -0.836957       -22.7747
 122   2.0000      -0.835369       -22.7316
 123   2.0000      -0.828972       -22.5575
 124   2.0000      -0.819187       -22.2912
 125   2.0000      -0.803274       -21.8582
 126   2.0000      -0.791628       -21.5413
 127   2.0000      -0.776871       -21.1397
 128   2.0000      -0.770780       -20.9740
 129   2.0000      -0.764923       -20.8146
 130   2.0000      -0.762681       -20.7536
 131   2.0000      -0.757959       -20.6251
 132   2.0000      -0.742461       -20.2034
 133   2.0000      -0.736808       -20.0496
 134   2.0000      -0.729425       -19.8487
 135   2.0000      -0.720318       -19.6008
 136   2.0000      -0.719247       -19.5717
 137   2.0000      -0.710767       -19.3409
 138   2.0000      -0.705196       -19.1894
 139   2.0000      -0.704417       -19.1682
 140   2.0000      -0.700548       -19.0629
 141   2.0000      -0.691059       -18.8047
 142   2.0000      -0.689243       -18.7553
 143   2.0000      -0.683929       -18.6107
 144   2.0000      -0.680604       -18.5202
 145   2.0000      -0.676252       -18.4017
 146   2.0000      -0.671212       -18.2646
 147   2.0000      -0.664958       -18.0944
 148   2.0000      -0.654754       -17.8168
 149   2.0000      -0.653038       -17.7701
 150   2.0000      -0.647331       -17.6148
 151   2.0000      -0.641150       -17.4466
 152   2.0000      -0.639190       -17.3932
 153   2.0000      -0.633351       -17.2343
 154   2.0000      -0.628183       -17.0937
 155   2.0000      -0.619765       -16.8647
 156   2.0000      -0.613605       -16.6970
 157   2.0000      -0.612991       -16.6803
 158   2.0000      -0.607178       -16.5221
 159   2.0000      -0.600624       -16.3438
 160   2.0000      -0.596486       -16.2312
 161   2.0000      -0.589534       -16.0420
 162   2.0000      -0.581828       -15.8323
 163   2.0000      -0.573373       -15.6023
 164   2.0000      -0.570888       -15.5347
 165   2.0000      -0.570267       -15.5177
 166   2.0000      -0.566116       -15.4048
 167   2.0000      -0.563935       -15.3454
 168   2.0000      -0.556552       -15.1445
 169   2.0000      -0.554675       -15.0935
 170   2.0000      -0.553889       -15.0721
 171   2.0000      -0.549071       -14.9410
 172   2.0000      -0.548661       -14.9298
 173   2.0000      -0.546955       -14.8834
 174   2.0000      -0.546281       -14.8651
 175   2.0000      -0.543814       -14.7979
 176   2.0000      -0.541353       -14.7310
 177   2.0000      -0.538341       -14.6490
 178   2.0000      -0.533979       -14.5303
 179   2.0000      -0.530319       -14.4307
 180   2.0000      -0.528158       -14.3719
 181   2.0000      -0.527633       -14.3576
 182   2.0000      -0.522713       -14.2237
 183   2.0000      -0.522161       -14.2087
 184   2.0000      -0.521674       -14.1955
 185   2.0000      -0.520432       -14.1617
 186   2.0000      -0.516207       -14.0467
 187   2.0000      -0.515763       -14.0346
 188   2.0000      -0.510799       -13.8995
 189   2.0000      -0.508671       -13.8416
 190   2.0000      -0.506715       -13.7884
 191   2.0000      -0.504555       -13.7296
 192   2.0000      -0.502172       -13.6648
 193   2.0000      -0.500571       -13.6212
 194   2.0000      -0.499364       -13.5884
 195   2.0000      -0.497772       -13.5451
 196   2.0000      -0.496072       -13.4988
 197   2.0000      -0.495553       -13.4847
 198   2.0000      -0.493681       -13.4337
 199   2.0000      -0.492881       -13.4120
 200   2.0000      -0.488918       -13.3041
 201   2.0000      -0.487595       -13.2681
 202   2.0000      -0.483890       -13.1673
 203   2.0000      -0.473810       -12.8930
 204   2.0000      -0.472362       -12.8536
 205   2.0000      -0.465936       -12.6788
 206   2.0000      -0.463493       -12.6123
 207   2.0000      -0.461272       -12.5518
 208   2.0000      -0.461022       -12.5450
 209   2.0000      -0.459117       -12.4932
 210   2.0000      -0.455573       -12.3968
 211   2.0000      -0.452146       -12.3035
 212   2.0000      -0.449912       -12.2427
 213   2.0000      -0.449805       -12.2398
 214   2.0000      -0.449448       -12.2301
 215   2.0000      -0.448525       -12.2050
 216   2.0000      -0.447344       -12.1729
 217   2.0000      -0.446526       -12.1506
 218   2.0000      -0.445404       -12.1201
 219   2.0000      -0.445009       -12.1093
 220   2.0000      -0.444314       -12.0904
 221   2.0000      -0.442125       -12.0308
 222   2.0000      -0.442074       -12.0294
 223   2.0000      -0.440829       -11.9956
 224   2.0000      -0.440584       -11.9889
 225   2.0000      -0.440181       -11.9779
 226   2.0000      -0.438845       -11.9416
 227   2.0000      -0.434332       -11.8188
 228   2.0000      -0.433684       -11.8011
 229   2.0000      -0.433133       -11.7862
 230   2.0000      -0.432412       -11.7665
 231   2.0000      -0.428419       -11.6579
 232   2.0000      -0.424054       -11.5391
 233   2.0000      -0.423548       -11.5253
 234   2.0000      -0.422242       -11.4898
 235   2.0000      -0.420274       -11.4362
 236   2.0000      -0.416091       -11.3224
 237   2.0000      -0.414876       -11.2893
 238   2.0000      -0.411410       -11.1950
 239   2.0000      -0.406591       -11.0639
 240   2.0000      -0.403114       -10.9693
 241   2.0000      -0.399179       -10.8622
 242   2.0000      -0.392329       -10.6758
 243   2.0000      -0.383694       -10.4408
 244   2.0000      -0.380406       -10.3514
 245   2.0000      -0.373282       -10.1575
 246   2.0000      -0.358446        -9.7538
 247   2.0000      -0.346734        -9.4351
 248   2.0000      -0.346387        -9.4257
 249   2.0000      -0.344276        -9.3682
 250   2.0000      -0.337590        -9.1863
 251   2.0000      -0.331923        -9.0321
 252   2.0000      -0.328543        -8.9401
 253   2.0000      -0.324939        -8.8420
 254   2.0000      -0.321696        -8.7538
 255   2.0000      -0.317524        -8.6403
 256   2.0000      -0.304622        -8.2892
 257   2.0000      -0.298018        -8.1095
 258   2.0000      -0.294375        -8.0104
 259   2.0000      -0.280428        -7.6308
 260   2.0000      -0.246007        -6.6942
 261   0.0000      -0.143358        -3.9010
 262   0.0000      -0.108696        -2.9578
 263   0.0000      -0.089361        -2.4316
 264   0.0000      -0.077880        -2.1192
 265   0.0000      -0.066701        -1.8150

MULLIKEN ATOMIC CHARGES
-----------------------
   0 C :    0.333090
   1 C :   -0.353321
   2 C :   -0.181615
   3 N :    0.148820
   4 C :   -0.188689
   5 N :    0.147982
   6 C :    0.044439
   7 C :   -0.000577
   8 C :   -0.079466
   9 C :    0.097422
  10 C :    0.094978
  11 C :   -0.080343
  12 C :   -0.016805
  13 C :    0.035117
  14 C :    0.036444
  15 C :   -0.015664
  16 C :    0.169951
  17 O :   -0.190469
  18 C :   -0.095699
  19 C :   -0.012181
  20 C :   -0.043577
  21 S :    0.170391
  22 C :   -0.019249
  23 C :   -0.035123
  24 C :    0.012134
  25 C :   -0.186339
  26 N :    0.136591
  27 C :   -0.028243
  28 C :   -0.015041
  29 C :   -0.113743
  30 S :    0.167114
  31 C :   -0.136281
  32 C :    0.126109
  33 C :    0.095529
  34 N :   -0.024105
  35 C :   -0.098505
  36 C :   -0.146361
  37 N :    0.179692
  38 C :   -0.033955
  39 C :    0.070056
  40 C :   -0.002524
  41 C :    0.121819
  42 C :   -0.121464
  43 C :    0.136047
  44 C :   -0.099831
  45 C :   -0.007712
  46 C :   -0.176459
  47 N :    0.144684
  48 C :    0.117767
  49 C :   -0.095914
  50 C :    0.107948
  51 C :   -0.005482
  52 C :   -0.103582
  53 C :   -0.171476
  54 N :    0.129657
  55 C :    0.029215
  56 C :   -0.009356
  57 C :   -0.030439
  58 C :   -0.070835
  59 C :    0.335782
  60 C :   -0.351656
  61 C :   -0.181947
  62 N :    0.148504
  63 C :   -0.191650
  64 N :    0.150431
  65 C :    0.049817
  66 C :   -0.003686
  67 C :    0.152636
  68 O :   -0.155751
  69 C :   -0.079250
  70 C :    0.097875
  71 C :    0.096205
  72 C :   -0.084056
  73 C :   -0.019202
  74 C :    0.037516
  75 C :    0.035661
  76 C :   -0.015209
  77 H :   -0.016753
  78 H :   -0.006959
  79 H :   -0.007384
  80 H :   -0.001502
  81 H :   -0.001938
  82 H :   -0.017789
  83 H :    0.011757
  84 H :    0.020036
  85 H :    0.015016
  86 H :   -0.001013
  87 H :    0.138356
  88 H :    0.007886
  89 H :   -0.015835
  90 H :   -0.026801
  91 H :    0.000075
  92 H :    0.002864
  93 H :    0.007293
  94 H :    0.013466
  95 H :    0.011543
  96 H :    0.028428
  97 H :    0.013234
  98 H :   -0.013947
  99 H :   -0.009238
 100 H :   -0.009217
 101 H :   -0.004053
 102 H :   -0.004765
 103 H :   -0.017348
Sum of atomic charges:   -0.0000000

LOEWDIN ATOMIC CHARGES
----------------------
   0 C :    0.076436
   1 C :   -0.139672
   2 C :   -0.017112
   3 N :   -0.051801
   4 C :   -0.021529
   5 N :   -0.051216
   6 C :   -0.025245
   7 C :   -0.056779
   8 C :    0.032795
   9 C :   -0.008806
  10 C :   -0.005488
  11 C :    0.021401
  12 C :   -0.004177
  13 C :   -0.011342
  14 C :   -0.010623
  15 C :   -0.009421
  16 C :    0.086913
  17 O :   -0.175803
  18 C :   -0.103603
  19 C :    0.056701
  20 C :   -0.182454
  21 S :    0.511086
  22 C :   -0.127027
  23 C :   -0.114646
  24 C :    0.016886
  25 C :   -0.034935
  26 N :   -0.051219
  27 C :   -0.053487
  28 C :   -0.016292
  29 C :   -0.200008
  30 S :    0.471230
  31 C :   -0.153990
  32 C :   -0.061790
  33 C :    0.003539
  34 N :    0.082265
  35 C :   -0.020345
  36 C :   -0.046012
  37 N :   -0.026035
  38 C :   -0.028400
  39 C :   -0.024370
  40 C :   -0.008296
  41 C :   -0.008357
  42 C :   -0.033837
  43 C :    0.041271
  44 C :   -0.070504
  45 C :    0.051009
  46 C :   -0.032029
  47 N :   -0.054496
  48 C :    0.026289
  49 C :   -0.004742
  50 C :   -0.025235
  51 C :    0.055269
  52 C :   -0.081307
  53 C :   -0.028049
  54 N :   -0.065411
  55 C :    0.034900
  56 C :   -0.021190
  57 C :    0.066044
  58 C :   -0.084787
  59 C :    0.073755
  60 C :   -0.136419
  61 C :   -0.016815
  62 N :   -0.052661
  63 C :   -0.020882
  64 N :   -0.050147
  65 C :   -0.025385
  66 C :   -0.056151
  67 C :    0.086111
  68 O :   -0.148195
  69 C :    0.032825
  70 C :   -0.008324
  71 C :   -0.005812
  72 C :    0.019497
  73 C :   -0.005145
  74 C :   -0.012756
  75 C :   -0.011947
  76 C :   -0.009378
  77 H :    0.037682
  78 H :    0.039708
  79 H :    0.035533
  80 H :    0.034387
  81 H :    0.033897
  82 H :    0.031723
  83 H :    0.052330
  84 H :    0.048099
  85 H :    0.036903
  86 H :    0.028337
  87 H :    0.101337
  88 H :    0.038499
  89 H :    0.032220
  90 H :    0.036422
  91 H :    0.034577
  92 H :    0.036190
  93 H :    0.037306
  94 H :    0.041558
  95 H :    0.042459
  96 H :    0.032160
  97 H :    0.043214
  98 H :    0.038826
  99 H :    0.039007
 100 H :    0.034889
 101 H :    0.033471
 102 H :    0.032989
 103 H :    0.031943

  Mayer bond orders larger than 0.100000
B(  0-C ,  1-C ) :   1.6243 B(  0-C ,  6-C ) :   0.9887 B(  0-C , 18-C ) :   1.0710
B(  1-C ,  2-C ) :   1.1494 B(  1-C ,  4-C ) :   1.1446 B(  2-C ,  3-N ) :   2.9606
B(  4-C ,  5-N ) :   2.9573 B(  6-C ,  7-C ) :   1.2125 B(  6-C , 11-C ) :   1.4542
B(  7-C ,  8-C ) :   1.4647 B(  7-C , 16-C ) :   0.9673 B(  8-C ,  9-C ) :   1.1796
B(  8-C , 77-H ) :   1.0165 B(  9-C , 10-C ) :   1.2553 B(  9-C , 15-C ) :   1.2448
B( 10-C , 11-C ) :   1.2039 B( 10-C , 12-C ) :   1.2425 B( 11-C , 78-H ) :   0.9891
B( 12-C , 13-C ) :   1.4863 B( 12-C , 79-H ) :   0.9974 B( 13-C , 14-C ) :   1.2613
B( 13-C , 80-H ) :   0.9891 B( 14-C , 15-C ) :   1.4873 B( 14-C , 81-H ) :   0.9893
B( 15-C , 82-H ) :   0.9977 B( 16-C , 17-O ) :   2.1189 B( 16-C , 18-C ) :   0.9719
B( 18-C , 19-C ) :   1.5174 B( 19-C , 20-C ) :   1.2444 B( 19-C , 83-H ) :   0.9374
B( 20-C , 21-S ) :   1.0840 B( 20-C , 24-C ) :   1.3692 B( 21-S , 22-C ) :   1.1131
B( 22-C , 23-C ) :   1.3693 B( 22-C , 27-C ) :   1.2286 B( 23-C , 24-C ) :   1.3297
B( 23-C , 25-C ) :   1.0877 B( 24-C , 84-H ) :   1.0128 B( 25-C , 26-N ) :   3.0257
B( 27-C , 28-C ) :   1.5587 B( 27-C , 85-H ) :   0.9695 B( 28-C , 29-C ) :   1.2171
B( 28-C , 86-H ) :   0.9788 B( 29-C , 30-S ) :   1.0939 B( 29-C , 33-C ) :   1.3348
B( 30-S , 31-C ) :   1.1366 B( 31-C , 32-C ) :   1.2590 B( 31-C , 39-C ) :   1.2145
B( 32-C , 33-C ) :   1.2496 B( 32-C , 38-C ) :   1.1848 B( 33-C , 34-N ) :   1.1978
B( 34-N , 35-C ) :   1.2058 B( 34-N , 87-H ) :   0.9321 B( 35-C , 36-C ) :   1.0572
B( 35-C , 38-C ) :   1.5863 B( 36-C , 37-N ) :   3.0548 B( 38-C , 88-H ) :   1.0080
B( 39-C , 40-C ) :   1.5431 B( 39-C , 89-H ) :   0.9567 B( 40-C , 41-C ) :   1.1833
B( 40-C , 90-H ) :   0.9757 B( 41-C , 42-C ) :   1.4639 B( 41-C , 45-C ) :   1.0301
B( 42-C , 43-C ) :   1.1568 B( 42-C , 91-H ) :   1.0067 B( 43-C , 44-C ) :   1.0972
B( 43-C , 48-C ) :   1.3681 B( 44-C , 45-C ) :   1.6994 B( 44-C , 46-C ) :   1.0891
B( 45-C , 92-H ) :   1.0140 B( 46-C , 47-N ) :   2.9717 B( 48-C , 49-C ) :   1.1323
B( 48-C , 52-C ) :   1.1140 B( 49-C , 50-C ) :   1.4836 B( 49-C , 93-H ) :   1.0087
B( 50-C , 51-C ) :   1.0547 B( 50-C , 55-C ) :   1.1070 B( 51-C , 52-C ) :   1.6681
B( 51-C , 94-H ) :   1.0175 B( 52-C , 53-C ) :   1.0929 B( 53-C , 54-N ) :   2.9602
B( 55-C , 56-C ) :   1.5413 B( 55-C , 95-H ) :   0.9899 B( 56-C , 57-C ) :   1.1596
B( 56-C , 96-H ) :   0.9751 B( 57-C , 58-C ) :   1.5384 B( 57-C , 97-H ) :   0.9633
B( 58-C , 59-C ) :   1.0611 B( 58-C , 67-C ) :   0.9415 B( 59-C , 60-C ) :   1.6258
B( 59-C , 65-C ) :   0.9869 B( 60-C , 61-C ) :   1.1471 B( 60-C , 63-C ) :   1.1475
B( 61-C , 62-N ) :   2.9603 B( 63-C , 64-N ) :   2.9594 B( 65-C , 66-C ) :   1.2136
B( 65-C , 72-C ) :   1.4486 B( 66-C , 67-C ) :   0.9496 B( 66-C , 69-C ) :   1.4708
B( 67-C , 68-O ) :   2.1876 B( 69-C , 70-C ) :   1.1781 B( 69-C , 98-H ) :   1.0163
B( 70-C , 71-C ) :   1.2547 B( 70-C , 76-C ) :   1.2444 B( 71-C , 72-C ) :   1.2068
B( 71-C , 73-C ) :   1.2393 B( 72-C , 99-H ) :   0.9889 B( 73-C , 74-C ) :   1.4901
B( 73-C ,100-H ) :   0.9971 B( 74-C , 75-C ) :   1.2587 B( 74-C ,101-H ) :   0.9889
B( 75-C , 76-C ) :   1.4876 B( 75-C ,102-H ) :   0.9892 B( 76-C ,103-H ) :   0.9980

-----------------------------------------------------------------------------
         ABSORPTION SPECTRUM VIA TRANSITION ELECTRIC DIPOLE MOMENTS
-----------------------------------------------------------------------------
State   Energy  Wavelength   fosc         T2         TX        TY        TZ
        (cm-1)    (nm)                  (au**2)     (au)      (au)      (au)
-----------------------------------------------------------------------------
   0    9581.5   1043.7   1.820766080  62.55969  -4.77307   3.15817   5.45925
   1   15828.1    631.8   0.069630435   1.44826   0.23128  -0.65240  -0.98446
   2   16725.3    597.9   0.696491402  13.70937   2.86678  -0.84472  -2.18572
   3   19779.0    505.6   0.050754896   0.84479   0.64612  -0.38252  -0.53009
   4   21752.0    459.7   0.118695533   1.79643   0.85731  -0.83509  -0.60340
   5   22880.7    437.1   0.456493302   6.56812   1.17869  -1.46391  -1.74235
   6   23033.1    434.2   0.068741515   0.98252  -0.83852   0.45664   0.26626
   7   23755.5    421.0   0.201332125   2.79013   0.79969  -0.70631  -1.28520
   8   24457.5    408.9   0.082815291   1.11474   0.27629  -0.37567  -0.94724
   9   25095.0    398.5   0.000270415   0.00355  -0.05871  -0.00483   0.00882
  10   25160.7    397.4   0.051695385   0.67640   0.54562  -0.17593  -0.58970
  11   26095.1    383.2   0.049679299   0.62675   0.30223   0.23491   0.69298
  12   26524.3    377.0   0.120909267   1.50069   0.02498  -0.22994  -1.20299
  13   27240.6    367.1   0.087652620   1.05931  -0.83306   0.37988   0.47012
  14   27612.5    362.2   0.001998556   0.02383  -0.05541   0.07386  -0.12371
  15   27973.7    357.5   0.074276269   0.87413  -0.74947  -0.02234  -0.55850
  16   28195.0    354.7   0.018745378   0.21888   0.27661  -0.34957  -0.14199
  17   28652.1    349.0   0.046605163   0.53549   0.46402  -0.08027   0.56012
  18   29542.0    338.5   0.017876121   0.19921  -0.01001   0.15436  -0.41866
  19   29638.1    337.4   0.074687641   0.82961  -0.22187   0.33935   0.81562
  20   29987.3    333.5   0.233845671   2.56725   0.51922  -0.48414  -1.43641
  21   30302.1    330.0   0.438807199   4.76734  -1.04116  -0.10835  -1.91614
  22   30538.7    327.5   0.022629614   0.24395  -0.48580  -0.07243   0.05196
  23   31162.9    320.9   0.010817594   0.11428   0.13854  -0.05874  -0.30271
  24   31526.7    317.2   0.085317767   0.89092   0.77120  -0.03010   0.54337
  25   31992.0    312.6   0.053393424   0.54944  -0.30243   0.39885   0.54671
  26   32059.0    311.9   0.038087279   0.39112   0.09783  -0.31861  -0.52918
  27   32810.7    304.8   0.332946728   3.34068  -1.63843   0.19157  -0.78709
  28   32952.6    303.5   0.000106643   0.00107   0.01292  -0.02068   0.02169
  29   33467.8    298.8   0.088685085   0.87237  -0.48155   0.05245  -0.79858
  30   33989.5    294.2   0.000839485   0.00813   0.02385   0.00694   0.08668
  31   34447.1    290.3   0.073069807   0.69833   0.58882   0.10763   0.58312
  32   34527.7    289.6   0.392235124   3.73985   1.36266   0.13504   1.36557
  33   34664.3    288.5   0.581467335   5.52228  -1.59118   0.08118  -1.72737
  34   34731.6    287.9   0.244887451   2.32123   0.09041   0.10227   1.51743
  35   35117.4    284.8   0.018422726   0.17271   0.37579  -0.12684   0.12409
  36   35298.5    283.3   0.011270425   0.10511  -0.12369   0.03654   0.29745
  37   35417.8    282.3   0.139402100   1.29575  -0.25982  -0.14856  -1.09826
  38   35785.5    279.4   0.092841880   0.85411  -0.41560  -0.00322  -0.82545
  39   35916.0    278.4   0.010092302   0.09251   0.04268   0.01452   0.30079
  40   36173.8    276.4   0.150931132   1.37360  -0.25445  -0.18354  -1.12923
  41   36282.4    275.6   0.000923472   0.00838   0.03046   0.00872   0.08588
  42   36431.9    274.5   0.010607827   0.09586   0.00521   0.12765   0.28202
  43   36777.6    271.9   0.083247707   0.74518   0.75917  -0.36376   0.19110
  44   36872.7    271.2   0.018704620   0.16700  -0.36676   0.10830  -0.14408
  45   36975.8    270.4   0.062815982   0.55928   0.51158  -0.11384   0.53348
  46   37210.3    268.7   0.089074303   0.78807  -0.19450  -0.18870  -0.84536
  47   37578.6    266.1   0.111594302   0.97764  -0.84994   0.18393  -0.47053
  48   38045.9    262.8   0.050448642   0.43653  -0.57611   0.29418   0.13450
  49   38425.6    260.2   0.181882272   1.55828   0.97615  -0.61691  -0.47416
  50   38588.0    259.1   0.042816311   0.36529   0.38785  -0.29421   0.35819
  51   38701.3    258.4   0.131118176   1.11535  -0.46399   0.24692   0.91602
  52   39545.9    252.9   0.076025344   0.63290  -0.44605   0.50791   0.41948
  53   39786.1    251.3   0.218688668   1.80955  -1.15442   0.42890  -0.54121
  54   40025.5    249.8   0.025683694   0.21125   0.36121  -0.08725  -0.27049

FINAL SINGLE POINT ENERGY     -3890.262484655938

DIPOLE MOMENT
-------------
                                X             Y             Z
Electronic contribution:      0.64233     -13.09022     -35.56210
Nuclear contribution   :      2.80300      12.60625      38.31006
                        -----------------------------------------
Total Dipole Moment    :      3.44533      -0.48397       2.74796
                        -----------------------------------------
Magnitude (a.u.)       :      4.43349
Magnitude (Debye)      :     11.26903

Rotational constants in cm-1:     0.002089     0.000135     0.000128
Rotational constants in MHz :    62.638423     4.048077     3.838666

                             ****ORCA TERMINATED NORMALLY****
TOTAL RUN TIME: 0 days 0 hours 10 minutes 49 seconds 910 msec
