                         Program Version 4.2.0 -  RELEASE  -
|  1> # ORCA input file
|  2> # SCF done       -191.781806284438          0.000670923557
|  3> ! CAM-B3LYP def2-SVP def2/J RIJCOSX Grid4 TightSCF
|  4> %maxcore 5000
|  5> %tddft
|  6>     Mode sTDDFT
|  7>     Ethresh 5.0
|  8>     maxcore 5000
|  9> end
| 10>
| 11> %pal
| 12>   nprocs 6
| 13>   end
| 14> * xyz 0 1
| 15>    C      -15.30050        -9.99385       -16.95796
| 16>    S      -16.85874        -9.99350       -17.66259
| 17>    C      -17.16183       -11.59037       -17.15289
| 18>    C      -16.09624       -12.11304       -16.46005
| 19>    C      -15.00389       -11.18435       -16.33993
| 20>    C      -13.80592       -11.57131       -15.64687
| 21>    C      -13.77788       -12.84593       -15.12422
| 22>    C      -14.84310       -13.75544       -15.23760
| 23>    C      -15.99937       -13.41867       -15.89131
| 24>    O      -17.08960       -14.21053       -16.05869
| 25>    C      -17.05999       -15.50782       -15.51387
| 26>    C      -12.72225       -10.63515       -15.51451
| 27>    C      -11.49815       -10.89743       -15.00716
| 28>    C      -10.45294        -9.94077       -14.86583
| 29>    S       -8.92750       -10.44945       -14.19638
| 30>    C       -8.27014        -8.84514       -14.32357
| 31>    C       -9.20271        -7.98244       -14.86405
| 32>    C      -10.41829        -8.59379       -15.16644
| 33>    C       -6.94876        -8.55372       -13.88962
| 34>    C       -6.30601        -7.33223       -13.87020
| 35>    C       -5.01074        -7.39355       -13.35843
| 36>    C       -4.62885        -8.66375       -12.97678
| 37>    S       -5.91258        -9.80284       -13.26511
| 38>    C       -3.39713        -9.07863       -12.40322
| 39>    S       -3.07922       -10.75135       -12.06324
| 40>    C       -1.51249       -10.37608       -11.39658
| 41>    C       -1.27784        -9.01450       -11.46006
| 42>    C       -2.32504        -8.29171       -12.02349
| 43>    C       -0.71244       -11.42412       -10.87874
| 44>    C        0.46460       -11.26705       -10.22262
| 45>    C        1.18458       -12.36552        -9.70070
| 46>    S        2.64149       -12.08038        -8.69884
| 47>    C        2.75597       -13.77998        -8.50552
| 48>    C        1.72303       -14.41795        -9.20357
| 49>    N        0.87521       -13.62534        -9.84592
| 50>    C        1.81033       -15.90284        -9.04318
| 51>    C        3.00515       -16.02525        -8.14355
| 52>    C        3.53186       -14.76301        -7.85511
| 53>    S        4.88284       -14.84854        -6.80191
| 54>    C        4.74356       -16.59882        -6.73716
| 55>    C        3.69199       -17.05624        -7.51686
| 56>    C        5.64299       -17.32026        -5.91125
| 57>    C        5.66434       -18.66938        -5.78231
| 58>    C        6.51893       -19.38620        -4.90462
| 59>    S        6.44764       -21.13034        -4.88039
| 60>    C        7.64208       -21.21358        -3.61830
| 61>    C        8.05946       -19.94821        -3.25999
| 62>    C        7.43685       -18.93046        -3.97837
| 63>    C        8.05475       -22.45815        -3.07789
| 64>    C        7.70073       -23.72735        -3.48228
| 65>    C        8.27687       -24.73793        -2.71394
| 66>    C        9.08145       -24.26510        -1.69719
| 67>    S        9.13046       -22.52467        -1.70883
| 68>    C        9.78879       -25.01377        -0.71926
| 69>    S       10.62899       -24.23274         0.58791
| 70>    C       11.12088       -25.76298         1.26084
| 71>    C       10.65012       -26.80347         0.48206
| 72>    C        9.90672       -26.38662        -0.61909
| 73>    C       11.87778       -25.78623         2.46082
| 74>    C       12.32036       -26.91082         3.07439
| 75>    C       13.01370       -26.93271         4.30989
| 76>    S       13.08536       -25.50594         5.30690
| 77>    C       13.83121       -26.34086         6.58720
| 78>    C       14.04515       -27.66690         6.28611
| 79>    C       13.61079       -28.01611         4.96477
| 80>    C       13.82084       -29.34287         4.49322
| 81>    C       14.34616       -30.25682         5.37368
| 82>    C       14.72342       -29.93342         6.69039
| 83>    C       14.60765       -28.65084         7.15360
| 84>    O       14.97692       -28.19983         8.38169
| 85>    C       15.52952       -29.12220         9.28870
| 86>    C       13.58201       -29.72484         3.10150
| 87>    C       13.02372       -30.86498         2.71972
| 88>    H      -14.70023        -9.11183       -17.04907
| 89>    H      -18.09162       -12.06899       -17.38142
| 90>    H      -12.90573       -13.17934       -14.58419
| 91>    H      -14.72406       -14.72883       -14.78856
| 92>    H      -18.01988       -15.95603       -15.76477
| 93>    H      -16.94475       -15.48157       -14.42571
| 94>    H      -16.25449       -16.10682       -15.95003
| 95>    H      -12.92515        -9.63236       -15.85985
| 96>    H      -11.24890       -11.89423       -14.67217
| 97>    H       -9.00347        -6.93947       -15.03266
| 98>    H      -11.25234        -8.06524       -15.59116
| 99>    H       -6.76658        -6.42346       -14.21253
|100>    H       -4.36710        -6.53736       -13.26915
|101>    H       -0.36813        -8.56182       -11.10929
|102>    H       -2.31384        -7.22393       -12.14709
|103>    H       -1.08928       -12.43014       -10.99932
|104>    H        0.88394       -10.28760       -10.04734
|105>    H        1.96152       -16.40169       -10.00241
|106>    H        0.90666       -16.31596        -8.59199
|107>    H        3.43924       -18.09665        -7.60649
|108>    H        6.34202       -16.72130        -5.34475
|109>    H        4.98285       -19.27077        -6.36719
|110>    H        8.79680       -19.78471        -2.49349
|111>    H        7.64227       -17.88716        -3.82213
|112>    H        7.04025       -23.90255        -4.31334
|113>    H        8.10627       -25.78512        -2.88500
|114>    H       10.83618       -27.83725         0.71126
|115>    H        9.46469       -27.06246        -1.32882
|116>    H       12.09914       -24.82352         2.90368
|117>    H       12.11113       -27.87395         2.63382
|118>    H       14.07066       -25.83567         7.50044
|119>    H       14.51856       -31.26692         5.03274
|120>    H       15.13349       -30.71626         7.30837
|121>    H       15.74774       -28.55461        10.19184
|122>    H       16.45570       -29.55892         8.90153
|123>    H       14.82200       -29.92325         9.52570
|124>    H       13.93712       -29.01932         2.35989
|125>    H       12.64374       -31.57717         3.43326
|126>    H       12.90954       -31.12147         1.68008
|127> *
|128>
|129>                          ****END OF INPUT****

CARTESIAN COORDINATES (ANGSTROEM)
---------------------------------
  C    -15.300500   -9.993850  -16.957960
  S    -16.858740   -9.993500  -17.662590
  C    -17.161830  -11.590370  -17.152890
  C    -16.096240  -12.113040  -16.460050
  C    -15.003890  -11.184350  -16.339930
  C    -13.805920  -11.571310  -15.646870
  C    -13.777880  -12.845930  -15.124220
  C    -14.843100  -13.755440  -15.237600
  C    -15.999370  -13.418670  -15.891310
  O    -17.089600  -14.210530  -16.058690
  C    -17.059990  -15.507820  -15.513870
  C    -12.722250  -10.635150  -15.514510
  C    -11.498150  -10.897430  -15.007160
  C    -10.452940   -9.940770  -14.865830
  S     -8.927500  -10.449450  -14.196380
  C     -8.270140   -8.845140  -14.323570
  C     -9.202710   -7.982440  -14.864050
  C    -10.418290   -8.593790  -15.166440
  C     -6.948760   -8.553720  -13.889620
  C     -6.306010   -7.332230  -13.870200
  C     -5.010740   -7.393550  -13.358430
  C     -4.628850   -8.663750  -12.976780
  S     -5.912580   -9.802840  -13.265110
  C     -3.397130   -9.078630  -12.403220
  S     -3.079220  -10.751350  -12.063240
  C     -1.512490  -10.376080  -11.396580
  C     -1.277840   -9.014500  -11.460060
  C     -2.325040   -8.291710  -12.023490
  C     -0.712440  -11.424120  -10.878740
  C      0.464600  -11.267050  -10.222620
  C      1.184580  -12.365520   -9.700700
  S      2.641490  -12.080380   -8.698840
  C      2.755970  -13.779980   -8.505520
  C      1.723030  -14.417950   -9.203570
  N      0.875210  -13.625340   -9.845920
  C      1.810330  -15.902840   -9.043180
  C      3.005150  -16.025250   -8.143550
  C      3.531860  -14.763010   -7.855110
  S      4.882840  -14.848540   -6.801910
  C      4.743560  -16.598820   -6.737160
  C      3.691990  -17.056240   -7.516860
  C      5.642990  -17.320260   -5.911250
  C      5.664340  -18.669380   -5.782310
  C      6.518930  -19.386200   -4.904620
  S      6.447640  -21.130340   -4.880390
  C      7.642080  -21.213580   -3.618300
  C      8.059460  -19.948210   -3.259990
  C      7.436850  -18.930460   -3.978370
  C      8.054750  -22.458150   -3.077890
  C      7.700730  -23.727350   -3.482280
  C      8.276870  -24.737930   -2.713940
  C      9.081450  -24.265100   -1.697190
  S      9.130460  -22.524670   -1.708830
  C      9.788790  -25.013770   -0.719260
  S     10.628990  -24.232740    0.587910
  C     11.120880  -25.762980    1.260840
  C     10.650120  -26.803470    0.482060
  C      9.906720  -26.386620   -0.619090
  C     11.877780  -25.786230    2.460820
  C     12.320360  -26.910820    3.074390
  C     13.013700  -26.932710    4.309890
  S     13.085360  -25.505940    5.306900
  C     13.831210  -26.340860    6.587200
  C     14.045150  -27.666900    6.286110
  C     13.610790  -28.016110    4.964770
  C     13.820840  -29.342870    4.493220
  C     14.346160  -30.256820    5.373680
  C     14.723420  -29.933420    6.690390
  C     14.607650  -28.650840    7.153600
  O     14.976920  -28.199830    8.381690
  C     15.529520  -29.122200    9.288700
  C     13.582010  -29.724840    3.101500
  C     13.023720  -30.864980    2.719720
  H    -14.700230   -9.111830  -17.049070
  H    -18.091620  -12.068990  -17.381420
  H    -12.905730  -13.179340  -14.584190
  H    -14.724060  -14.728830  -14.788560
  H    -18.019880  -15.956030  -15.764770
  H    -16.944750  -15.481570  -14.425710
  H    -16.254490  -16.106820  -15.950030
  H    -12.925150   -9.632360  -15.859850
  H    -11.248900  -11.894230  -14.672170
  H     -9.003470   -6.939470  -15.032660
  H    -11.252340   -8.065240  -15.591160
  H     -6.766580   -6.423460  -14.212530
  H     -4.367100   -6.537360  -13.269150
  H     -0.368130   -8.561820  -11.109290
  H     -2.313840   -7.223930  -12.147090
  H     -1.089280  -12.430140  -10.999320
  H      0.883940  -10.287600  -10.047340
  H      1.961520  -16.401690  -10.002410
  H      0.906660  -16.315960   -8.591990
  H      3.439240  -18.096650   -7.606490
  H      6.342020  -16.721300   -5.344750
  H      4.982850  -19.270770   -6.367190
  H      8.796800  -19.784710   -2.493490
  H      7.642270  -17.887160   -3.822130
  H      7.040250  -23.902550   -4.313340
  H      8.106270  -25.785120   -2.885000
  H     10.836180  -27.837250    0.711260
  H      9.464690  -27.062460   -1.328820
  H     12.099140  -24.823520    2.903680
  H     12.111130  -27.873950    2.633820
  H     14.070660  -25.835670    7.500440
  H     14.518560  -31.266920    5.032740
  H     15.133490  -30.716260    7.308370
  H     15.747740  -28.554610   10.191840
  H     16.455700  -29.558920    8.901530
  H     14.822000  -29.923250    9.525700
  H     13.937120  -29.019320    2.359890
  H     12.643740  -31.577170    3.433260
  H     12.909540  -31.121470    1.680080

 Total Charge           Charge          ....    0
 Multiplicity           Mult            ....    1
 Number of Electrons    NEL             ....  582
 Basis Dimension        Dim             .... 1257

ORBITAL ENERGIES
----------------

  NO   OCC          E(Eh)            E(eV)
   0   2.0000     -88.956366     -2420.6258
   1   2.0000     -88.956095     -2420.6184
   2   2.0000     -88.954314     -2420.5699
   3   2.0000     -88.953102     -2420.5370
   4   2.0000     -88.950087     -2420.4549
   5   2.0000     -88.949589     -2420.4414
   6   2.0000     -88.947388     -2420.3815
   7   2.0000     -88.946146     -2420.3477
   8   2.0000     -88.946109     -2420.3467
   9   2.0000     -88.945091     -2420.3190
  10   2.0000     -19.246879      -523.7342
  11   2.0000     -19.246525      -523.7246
  12   2.0000     -14.398785      -391.8109
  13   2.0000     -10.329975      -281.0929
  14   2.0000     -10.329256      -281.0734
  15   2.0000     -10.324189      -280.9355
  16   2.0000     -10.321832      -280.8713
  17   2.0000     -10.321427      -280.8603
  18   2.0000     -10.301822      -280.3268
  19   2.0000     -10.300167      -280.2818
  20   2.0000     -10.299231      -280.2563
  21   2.0000     -10.297315      -280.2042
  22   2.0000     -10.296449      -280.1806
  23   2.0000     -10.296406      -280.1795
  24   2.0000     -10.296191      -280.1736
  25   2.0000     -10.295101      -280.1439
  26   2.0000     -10.295094      -280.1437
  27   2.0000     -10.294841      -280.1369
  28   2.0000     -10.294020      -280.1145
  29   2.0000     -10.293748      -280.1071
  30   2.0000     -10.293541      -280.1015
  31   2.0000     -10.292021      -280.0601
  32   2.0000     -10.291634      -280.0496
  33   2.0000     -10.290751      -280.0256
  34   2.0000     -10.290406      -280.0162
  35   2.0000     -10.287030      -279.9243
  36   2.0000     -10.283483      -279.8278
  37   2.0000     -10.281086      -279.7626
  38   2.0000     -10.278811      -279.7007
  39   2.0000     -10.278114      -279.6817
  40   2.0000     -10.275780      -279.6182
  41   2.0000     -10.274164      -279.5742
  42   2.0000     -10.273295      -279.5506
  43   2.0000     -10.272466      -279.5280
  44   2.0000     -10.271461      -279.5007
  45   2.0000     -10.271044      -279.4893
  46   2.0000     -10.270747      -279.4812
  47   2.0000     -10.270359      -279.4707
  48   2.0000     -10.270013      -279.4613
  49   2.0000     -10.269431      -279.4454
  50   2.0000     -10.269366      -279.4437
  51   2.0000     -10.269073      -279.4357
  52   2.0000     -10.269006      -279.4339
  53   2.0000     -10.268539      -279.4211
  54   2.0000     -10.268226      -279.4126
  55   2.0000     -10.267776      -279.4004
  56   2.0000     -10.266818      -279.3743
  57   2.0000     -10.266524      -279.3663
  58   2.0000     -10.265744      -279.3451
  59   2.0000     -10.265644      -279.3424
  60   2.0000     -10.265547      -279.3397
  61   2.0000     -10.265513      -279.3388
  62   2.0000     -10.265268      -279.3321
  63   2.0000     -10.265038      -279.3259
  64   2.0000     -10.265035      -279.3258
  65   2.0000     -10.264298      -279.3057
  66   2.0000     -10.264074      -279.2997
  67   2.0000     -10.263874      -279.2942
  68   2.0000     -10.263187      -279.2755
  69   2.0000     -10.261949      -279.2418
  70   2.0000     -10.258121      -279.1377
  71   2.0000     -10.258093      -279.1369
  72   2.0000     -10.254951      -279.0514
  73   2.0000      -8.052107      -219.1090
  74   2.0000      -8.051246      -219.0855
  75   2.0000      -8.049795      -219.0461
  76   2.0000      -8.048185      -219.0022
  77   2.0000      -8.046049      -218.9441
  78   2.0000      -8.045404      -218.9266
  79   2.0000      -8.043051      -218.8625
  80   2.0000      -8.042064      -218.8357
  81   2.0000      -8.041753      -218.8272
  82   2.0000      -8.040958      -218.8056
  83   2.0000      -6.021035      -163.8407
  84   2.0000      -6.020411      -163.8237
  85   2.0000      -6.018723      -163.7778
  86   2.0000      -6.017518      -163.7450
  87   2.0000      -6.016596      -163.7199
  88   2.0000      -6.016589      -163.7197
  89   2.0000      -6.015388      -163.6870
  90   2.0000      -6.015360      -163.6863
  91   2.0000      -6.014611      -163.6659
  92   2.0000      -6.014490      -163.6626
  93   2.0000      -6.013499      -163.6356
  94   2.0000      -6.013388      -163.6326
  95   2.0000      -6.012812      -163.6169
  96   2.0000      -6.012425      -163.6064
  97   2.0000      -6.011296      -163.5757
  98   2.0000      -6.011274      -163.5751
  99   2.0000      -6.011010      -163.5679
 100   2.0000      -6.010591      -163.5565
 101   2.0000      -6.010253      -163.5473
 102   2.0000      -6.010186      -163.5455
 103   2.0000      -6.008346      -163.4954
 104   2.0000      -6.007979      -163.4854
 105   2.0000      -6.007571      -163.4743
 106   2.0000      -6.007269      -163.4661
 107   2.0000      -6.007057      -163.4603
 108   2.0000      -6.006176      -163.4364
 109   2.0000      -6.004959      -163.4032
 110   2.0000      -6.004182      -163.3821
 111   2.0000      -6.003812      -163.3720
 112   2.0000      -6.003072      -163.3519
 113   2.0000      -1.149313       -31.2744
 114   2.0000      -1.149067       -31.2677
 115   2.0000      -1.055507       -28.7218
 116   2.0000      -0.991507       -26.9803
 117   2.0000      -0.988396       -26.8956
 118   2.0000      -0.986317       -26.8390
 119   2.0000      -0.983956       -26.7748
 120   2.0000      -0.981614       -26.7111
 121   2.0000      -0.977221       -26.5915
 122   2.0000      -0.974452       -26.5162
 123   2.0000      -0.960166       -26.1274
 124   2.0000      -0.957589       -26.0573
 125   2.0000      -0.923258       -25.1231
 126   2.0000      -0.922097       -25.0915
 127   2.0000      -0.921575       -25.0773
 128   2.0000      -0.895372       -24.3643
 129   2.0000      -0.893552       -24.3148
 130   2.0000      -0.887052       -24.1379
 131   2.0000      -0.883920       -24.0527
 132   2.0000      -0.879403       -23.9298
 133   2.0000      -0.871444       -23.7132
 134   2.0000      -0.860895       -23.4261
 135   2.0000      -0.850420       -23.1411
 136   2.0000      -0.842632       -22.9292
 137   2.0000      -0.835761       -22.7422
 138   2.0000      -0.833302       -22.6753
 139   2.0000      -0.830798       -22.6072
 140   2.0000      -0.828454       -22.5434
 141   2.0000      -0.823358       -22.4047
 142   2.0000      -0.822455       -22.3801
 143   2.0000      -0.821555       -22.3556
 144   2.0000      -0.820617       -22.3301
 145   2.0000      -0.816153       -22.2086
 146   2.0000      -0.812921       -22.1207
 147   2.0000      -0.808894       -22.0111
 148   2.0000      -0.803932       -21.8761
 149   2.0000      -0.790036       -21.4980
 150   2.0000      -0.788667       -21.4607
 151   2.0000      -0.782071       -21.2812
 152   2.0000      -0.772427       -21.0188
 153   2.0000      -0.767699       -20.8902
 154   2.0000      -0.762836       -20.7578
 155   2.0000      -0.752225       -20.4691
 156   2.0000      -0.739919       -20.1342
 157   2.0000      -0.723803       -19.6957
 158   2.0000      -0.708175       -19.2704
 159   2.0000      -0.704836       -19.1796
 160   2.0000      -0.695530       -18.9263
 161   2.0000      -0.694007       -18.8849
 162   2.0000      -0.680693       -18.5226
 163   2.0000      -0.678998       -18.4765
 164   2.0000      -0.673750       -18.3337
 165   2.0000      -0.669484       -18.2176
 166   2.0000      -0.668037       -18.1782
 167   2.0000      -0.658960       -17.9312
 168   2.0000      -0.658544       -17.9199
 169   2.0000      -0.651978       -17.7412
 170   2.0000      -0.641338       -17.4517
 171   2.0000      -0.639562       -17.4034
 172   2.0000      -0.637293       -17.3416
 173   2.0000      -0.625167       -17.0117
 174   2.0000      -0.623775       -16.9738
 175   2.0000      -0.617797       -16.8111
 176   2.0000      -0.616072       -16.7642
 177   2.0000      -0.612806       -16.6753
 178   2.0000      -0.612051       -16.6548
 179   2.0000      -0.611526       -16.6405
 180   2.0000      -0.606815       -16.5123
 181   2.0000      -0.605099       -16.4656
 182   2.0000      -0.602395       -16.3920
 183   2.0000      -0.599472       -16.3125
 184   2.0000      -0.591071       -16.0839
 185   2.0000      -0.586563       -15.9612
 186   2.0000      -0.584068       -15.8933
 187   2.0000      -0.577884       -15.7250
 188   2.0000      -0.576369       -15.6838
 189   2.0000      -0.573035       -15.5931
 190   2.0000      -0.565816       -15.3966
 191   2.0000      -0.559563       -15.2265
 192   2.0000      -0.554291       -15.0830
 193   2.0000      -0.552987       -15.0475
 194   2.0000      -0.552557       -15.0358
 195   2.0000      -0.549637       -14.9564
 196   2.0000      -0.545365       -14.8401
 197   2.0000      -0.542331       -14.7576
 198   2.0000      -0.541513       -14.7353
 199   2.0000      -0.539644       -14.6844
 200   2.0000      -0.533604       -14.5201
 201   2.0000      -0.525230       -14.2922
 202   2.0000      -0.521391       -14.1878
 203   2.0000      -0.517030       -14.0691
 204   2.0000      -0.515508       -14.0277
 205   2.0000      -0.515181       -14.0188
 206   2.0000      -0.511592       -13.9211
 207   2.0000      -0.505383       -13.7522
 208   2.0000      -0.502155       -13.6643
 209   2.0000      -0.500337       -13.6149
 210   2.0000      -0.497851       -13.5472
 211   2.0000      -0.493225       -13.4213
 212   2.0000      -0.490476       -13.3465
 213   2.0000      -0.488720       -13.2988
 214   2.0000      -0.487639       -13.2693
 215   2.0000      -0.484729       -13.1901
 216   2.0000      -0.484310       -13.1787
 217   2.0000      -0.483557       -13.1583
 218   2.0000      -0.483181       -13.1480
 219   2.0000      -0.482056       -13.1174
 220   2.0000      -0.480354       -13.0711
 221   2.0000      -0.478347       -13.0165
 222   2.0000      -0.476767       -12.9735
 223   2.0000      -0.473963       -12.8972
 224   2.0000      -0.473298       -12.8791
 225   2.0000      -0.472919       -12.8688
 226   2.0000      -0.468834       -12.7576
 227   2.0000      -0.466362       -12.6904
 228   2.0000      -0.463644       -12.6164
 229   2.0000      -0.461897       -12.5689
 230   2.0000      -0.458713       -12.4822
 231   2.0000      -0.457329       -12.4446
 232   2.0000      -0.454129       -12.3575
 233   2.0000      -0.449487       -12.2312
 234   2.0000      -0.447860       -12.1869
 235   2.0000      -0.447361       -12.1733
 236   2.0000      -0.446685       -12.1549
 237   2.0000      -0.445089       -12.1115
 238   2.0000      -0.443314       -12.0632
 239   2.0000      -0.442990       -12.0544
 240   2.0000      -0.440925       -11.9982
 241   2.0000      -0.434754       -11.8303
 242   2.0000      -0.433202       -11.7880
 243   2.0000      -0.432037       -11.7563
 244   2.0000      -0.427386       -11.6298
 245   2.0000      -0.426205       -11.5976
 246   2.0000      -0.425990       -11.5918
 247   2.0000      -0.425491       -11.5782
 248   2.0000      -0.420695       -11.4477
 249   2.0000      -0.420116       -11.4319
 250   2.0000      -0.415212       -11.2985
 251   2.0000      -0.414208       -11.2712
 252   2.0000      -0.412970       -11.2375
 253   2.0000      -0.410365       -11.1666
 254   2.0000      -0.410199       -11.1621
 255   2.0000      -0.408841       -11.1251
 256   2.0000      -0.406780       -11.0690
 257   2.0000      -0.405962       -11.0468
 258   2.0000      -0.404534       -11.0079
 259   2.0000      -0.403392       -10.9768
 260   2.0000      -0.401148       -10.9158
 261   2.0000      -0.395003       -10.7486
 262   2.0000      -0.394543       -10.7361
 263   2.0000      -0.394070       -10.7232
 264   2.0000      -0.391187       -10.6447
 265   2.0000      -0.382893       -10.4191
 266   2.0000      -0.370511       -10.0821
 267   2.0000      -0.358787        -9.7631
 268   2.0000      -0.343223        -9.3396
 269   2.0000      -0.339765        -9.2455
 270   2.0000      -0.339213        -9.2305
 271   2.0000      -0.338449        -9.2097
 272   2.0000      -0.326699        -8.8899
 273   2.0000      -0.325640        -8.8611
 274   2.0000      -0.322050        -8.7634
 275   2.0000      -0.318685        -8.6719
 276   2.0000      -0.316992        -8.6258
 277   2.0000      -0.315556        -8.5867
 278   2.0000      -0.314010        -8.5446
 279   2.0000      -0.310733        -8.4555
 280   2.0000      -0.309635        -8.4256
 281   2.0000      -0.307528        -8.3683
 282   2.0000      -0.305985        -8.3263
 283   2.0000      -0.301523        -8.2048
 284   2.0000      -0.286684        -7.8011
 285   2.0000      -0.272110        -7.4045
 286   2.0000      -0.255125        -6.9423
 287   2.0000      -0.241175        -6.5627
 288   2.0000      -0.223370        -6.0782
 289   2.0000      -0.212650        -5.7865
 290   2.0000      -0.202328        -5.5056
 291   0.0000      -0.061485        -1.6731
 292   0.0000      -0.049903        -1.3579
 293   0.0000      -0.038265        -1.0412
 294   0.0000      -0.025783        -0.7016
 295   0.0000      -0.009242        -0.2515

MULLIKEN ATOMIC CHARGES
-----------------------
   0 C :   -0.185887
   1 S :    0.146311
   2 C :   -0.149870
   3 C :    0.065201
   4 C :    0.087830
   5 C :    0.143363
   6 C :   -0.060305
   7 C :   -0.117832
   8 C :    0.224362
   9 O :   -0.303413
  10 C :    0.179835
  11 C :   -0.029178
  12 C :    0.083521
  13 C :   -0.073746
  14 S :    0.115859
  15 C :   -0.045174
  16 C :   -0.007240
  17 C :    0.005842
  18 C :   -0.025931
  19 C :   -0.007058
  20 C :   -0.003862
  21 C :   -0.030775
  22 S :    0.120338
  23 C :   -0.045277
  24 S :    0.128913
  25 C :   -0.074992
  26 C :    0.017969
  27 C :   -0.005330
  28 C :    0.070186
  29 C :    0.035650
  30 C :   -0.104205
  31 S :    0.115080
  32 C :   -0.064537
  33 C :   -0.224784
  34 N :   -0.016735
  35 C :    0.385882
  36 C :   -0.165571
  37 C :   -0.102356
  38 S :    0.139921
  39 C :   -0.081941
  40 C :   -0.017989
  41 C :    0.043090
  42 C :    0.054479
  43 C :   -0.072637
  44 S :    0.112305
  45 C :   -0.045086
  46 C :   -0.014815
  47 C :    0.010122
  48 C :   -0.028994
  49 C :   -0.014657
  50 C :   -0.003052
  51 C :   -0.029749
  52 S :    0.114641
  53 C :   -0.048047
  54 S :    0.117221
  55 C :   -0.072191
  56 C :    0.003371
  57 C :   -0.003329
  58 C :    0.043975
  59 C :   -0.019478
  60 C :   -0.163630
  61 S :    0.138257
  62 C :   -0.128966
  63 C :    0.058359
  64 C :    0.129891
  65 C :    0.049636
  66 C :   -0.035075
  67 C :   -0.128035
  68 C :    0.229860
  69 O :   -0.306496
  70 C :    0.179780
  71 C :   -0.048640
  72 C :   -0.029150
  73 H :    0.014955
  74 H :    0.019128
  75 H :   -0.030259
  76 H :   -0.040072
  77 H :    0.035988
  78 H :    0.025511
  79 H :    0.024871
  80 H :   -0.039134
  81 H :   -0.027758
  82 H :   -0.024328
  83 H :   -0.025064
  84 H :   -0.024055
  85 H :   -0.022412
  86 H :   -0.020074
  87 H :   -0.021802
  88 H :    0.001578
  89 H :   -0.020290
  90 H :    0.033144
  91 H :    0.033075
  92 H :   -0.027265
  93 H :   -0.022335
  94 H :   -0.022993
  95 H :   -0.013459
  96 H :   -0.021332
  97 H :   -0.015712
  98 H :   -0.023315
  99 H :   -0.020129
 100 H :   -0.024592
 101 H :   -0.018422
 102 H :    0.002506
 103 H :    0.020948
 104 H :   -0.027207
 105 H :   -0.036122
 106 H :    0.035933
 107 H :    0.024373
 108 H :    0.024873
 109 H :    0.020076
 110 H :    0.017361
 111 H :    0.018776
Sum of atomic charges:   -0.0000000

LOEWDIN ATOMIC CHARGES
----------------------
   0 C :   -0.215843
   1 S :    0.484786
   2 C :   -0.191599
   3 C :   -0.068738
   4 C :   -0.040160
   5 C :   -0.044992
   6 C :   -0.007532
   7 C :   -0.100377
   8 C :    0.066725
   9 O :   -0.095438
  10 C :    0.078041
  11 C :   -0.009665
  12 C :   -0.046633
  13 C :   -0.164649
  14 S :    0.423230
  15 C :   -0.192499
  16 C :   -0.052733
  17 C :   -0.060967
  18 C :   -0.180770
  19 C :   -0.058070
  20 C :   -0.052636
  21 C :   -0.188787
  22 S :    0.420716
  23 C :   -0.182742
  24 S :    0.432160
  25 C :   -0.175550
  26 C :   -0.048577
  27 C :   -0.056935
  28 C :   -0.011644
  29 C :   -0.065118
  30 C :   -0.120859
  31 S :    0.397417
  32 C :   -0.219979
  33 C :   -0.037723
  34 N :   -0.093539
  35 C :   -0.012672
  36 C :   -0.049773
  37 C :   -0.202287
  38 S :    0.430063
  39 C :   -0.167934
  40 C :   -0.055076
  41 C :   -0.040668
  42 C :   -0.045782
  43 C :   -0.167667
  44 S :    0.426089
  45 C :   -0.185873
  46 C :   -0.062244
  47 C :   -0.057073
  48 C :   -0.183790
  49 C :   -0.063083
  50 C :   -0.057134
  51 C :   -0.182304
  52 S :    0.423552
  53 C :   -0.191102
  54 S :    0.422119
  55 C :   -0.166845
  56 C :   -0.060081
  57 C :   -0.053078
  58 C :   -0.060917
  59 C :   -0.035951
  60 C :   -0.183871
  61 S :    0.477981
  62 C :   -0.180300
  63 C :   -0.067800
  64 C :   -0.036638
  65 C :   -0.045048
  66 C :   -0.007087
  67 C :   -0.101898
  68 C :    0.068078
  69 O :   -0.097223
  70 C :    0.077782
  71 C :   -0.018532
  72 C :   -0.054680
  73 H :    0.017670
  74 H :    0.024565
  75 H :    0.025497
  76 H :    0.025832
  77 H :    0.028240
  78 H :    0.016507
  79 H :    0.016238
  80 H :    0.023697
  81 H :    0.022957
  82 H :    0.027709
  83 H :    0.026498
  84 H :    0.028326
  85 H :    0.028760
  86 H :    0.028455
  87 H :    0.028485
  88 H :    0.034541
  89 H :    0.025824
  90 H :    0.055053
  91 H :    0.054146
  92 H :    0.028498
  93 H :    0.025851
  94 H :    0.024870
  95 H :    0.025936
  96 H :    0.027426
  97 H :    0.025910
  98 H :    0.028136
  99 H :    0.028214
 100 H :    0.027811
 101 H :    0.018211
 102 H :    0.035363
 103 H :    0.025859
 104 H :    0.027939
 105 H :    0.025968
 106 H :    0.028229
 107 H :    0.016092
 108 H :    0.016239
 109 H :    0.031611
 110 H :    0.021190
 111 H :    0.022074

  Mayer bond orders larger than 0.100000
B(  0-C ,  1-S ) :   1.2021 B(  0-C ,  2-C ) :   0.1031 B(  0-C ,  4-C ) :   1.4746
B(  0-C , 73-H ) :   0.9531 B(  1-S ,  2-C ) :   1.2198 B(  2-C ,  3-C ) :   1.4379
B(  2-C , 74-H ) :   0.9700 B(  3-C ,  4-C ) :   1.2248 B(  3-C ,  8-C ) :   1.1658
B(  4-C ,  5-C ) :   1.1069 B(  5-C ,  6-C ) :   1.5064 B(  5-C , 11-C ) :   1.0996
B(  6-C ,  7-C ) :   1.1922 B(  6-C , 75-H ) :   0.9838 B(  7-C ,  8-C ) :   1.4428
B(  7-C , 76-H ) :   0.9934 B(  8-C ,  9-O ) :   1.2110 B(  9-O , 10-C ) :   0.9627
B( 10-C , 77-H ) :   0.9798 B( 10-C , 78-H ) :   0.9688 B( 10-C , 79-H ) :   0.9686
B( 11-C , 12-C ) :   1.7167 B( 11-C , 80-H ) :   0.9761 B( 12-C , 13-C ) :   1.1053
B( 12-C , 81-H ) :   0.9544 B( 13-C , 14-S ) :   1.1192 B( 13-C , 15-C ) :   0.1062
B( 13-C , 17-C ) :   1.5015 B( 14-S , 15-C ) :   1.1183 B( 15-C , 16-C ) :   1.5132
B( 15-C , 18-C ) :   1.1138 B( 16-C , 17-C ) :   1.2771 B( 16-C , 82-H ) :   0.9954
B( 17-C , 83-H ) :   0.9915 B( 18-C , 19-C ) :   1.5206 B( 18-C , 21-C ) :   0.1138
B( 18-C , 22-S ) :   1.1187 B( 19-C , 20-C ) :   1.2663 B( 19-C , 84-H ) :   0.9953
B( 20-C , 21-C ) :   1.5188 B( 20-C , 85-H ) :   0.9957 B( 21-C , 22-S ) :   1.1125
B( 21-C , 23-C ) :   1.1161 B( 23-C , 24-S ) :   1.1333 B( 23-C , 25-C ) :   0.1049
B( 23-C , 27-C ) :   1.4980 B( 24-S , 25-C ) :   1.1080 B( 25-C , 26-C ) :   1.4835
B( 25-C , 28-C ) :   1.1161 B( 26-C , 27-C ) :   1.2914 B( 26-C , 86-H ) :   0.9904
B( 27-C , 87-H ) :   0.9960 B( 28-C , 29-C ) :   1.7080 B( 28-C , 88-H ) :   0.9624
B( 29-C , 30-C ) :   1.1265 B( 29-C , 89-H ) :   0.9480 B( 30-C , 31-S ) :   1.0632
B( 30-C , 34-N ) :   1.6519 B( 31-S , 32-C ) :   1.0808 B( 32-C , 33-C ) :   1.4838
B( 32-C , 37-C ) :   1.1941 B( 33-C , 34-N ) :   1.4430 B( 33-C , 35-C ) :   1.0448
B( 35-C , 36-C ) :   0.9830 B( 35-C , 90-H ) :   0.8592 B( 35-C , 91-H ) :   0.8644
B( 36-C , 37-C ) :   1.5218 B( 36-C , 40-C ) :   1.3160 B( 37-C , 38-S ) :   1.0835
B( 38-S , 39-C ) :   1.0997 B( 39-C , 40-C ) :   1.4643 B( 39-C , 41-C ) :   1.1319
B( 40-C , 92-H ) :   0.9962 B( 41-C , 42-C ) :   1.7061 B( 41-C , 93-H ) :   0.9589
B( 42-C , 43-C ) :   1.1244 B( 42-C , 94-H ) :   0.9587 B( 43-C , 44-S ) :   1.1087
B( 43-C , 47-C ) :   1.4990 B( 44-S , 45-C ) :   1.1242 B( 45-C , 46-C ) :   1.4904
B( 45-C , 48-C ) :   1.1541 B( 46-C , 47-C ) :   1.2794 B( 46-C , 95-H ) :   0.9925
B( 47-C , 96-H ) :   0.9918 B( 48-C , 49-C ) :   1.5022 B( 48-C , 51-C ) :   0.1056
B( 48-C , 52-S ) :   1.1171 B( 49-C , 50-C ) :   1.2633 B( 49-C , 97-H ) :   0.9931
B( 50-C , 51-C ) :   1.5263 B( 50-C , 98-H ) :   0.9954 B( 51-C , 52-S ) :   1.1128
B( 51-C , 53-C ) :   1.1144 B( 53-C , 54-S ) :   1.1190 B( 53-C , 55-C ) :   0.1054
B( 53-C , 57-C ) :   1.5085 B( 54-S , 55-C ) :   1.1136 B( 55-C , 56-C ) :   1.4919
B( 55-C , 58-C ) :   1.1252 B( 56-C , 57-C ) :   1.2805 B( 56-C , 99-H ) :   0.9921
B( 57-C ,100-H ) :   0.9950 B( 58-C , 59-C ) :   1.6704 B( 58-C ,101-H ) :   0.9597
B( 59-C , 60-C ) :   1.1634 B( 59-C ,102-H ) :   0.9628 B( 60-C , 61-S ) :   1.1454
B( 60-C , 62-C ) :   0.1021 B( 60-C , 64-C ) :   1.3702 B( 61-S , 62-C ) :   1.1989
B( 62-C , 63-C ) :   1.4391 B( 62-C ,103-H ) :   0.9698 B( 63-C , 64-C ) :   1.2137
B( 63-C , 68-C ) :   1.1543 B( 64-C , 65-C ) :   1.1737 B( 65-C , 66-C ) :   1.5581
B( 65-C , 71-C ) :   1.0147 B( 66-C , 67-C ) :   1.1609 B( 66-C ,104-H ) :   0.9867
B( 67-C , 68-C ) :   1.4615 B( 67-C ,105-H ) :   0.9979 B( 68-C , 69-O ) :   1.2041
B( 69-O , 70-C ) :   0.9635 B( 70-C ,106-H ) :   0.9797 B( 70-C ,107-H ) :   0.9691
B( 70-C ,108-H ) :   0.9689 B( 71-C , 72-C ) :   1.9756 B( 71-C ,109-H ) :   0.9497
B( 72-C ,110-H ) :   0.9587 B( 72-C ,111-H ) :   0.9530

-----------------------------------------------------------------------------
         ABSORPTION SPECTRUM VIA TRANSITION ELECTRIC DIPOLE MOMENTS
-----------------------------------------------------------------------------
State   Energy  Wavelength   fosc         T2         TX        TY        TZ
        (cm-1)    (nm)                  (au**2)     (au)      (au)      (au)
-----------------------------------------------------------------------------
   0   17308.6    577.7   4.279353669  81.39384   6.13244  -4.50245   4.84922
   1   20130.9    496.7   0.518187739   8.47421   1.48775   1.86449  -1.66867
   2   22645.2    441.6   0.821624693  11.94464   2.34969   2.19487   1.26735
   3   24327.8    411.1   0.042566774   0.57603   0.26803   0.70366   0.09515
   4   25354.3    394.4   0.039955073   0.51880  -0.24029  -0.32602   0.59562
   5   25752.0    388.3   0.122773337   1.56953  -0.70633  -0.97788   0.33819
   6   27377.4    365.3   0.057492922   0.69135  -0.67841   0.19010  -0.44155
   7   28367.0    352.5   0.058143807   0.67478  -0.36248  -0.63368  -0.37662
   8   29096.4    343.7   0.069858256   0.79041   0.17047  -0.85598   0.16926
   9   29210.9    342.3   0.104478254   1.17749   0.68631  -0.67302   0.50350
  10   30574.0    327.1   0.005962524   0.06420  -0.03490   0.15697   0.19582
  11   31028.4    322.3   0.039018906   0.41399  -0.52796  -0.36633  -0.03245
  12   31463.3    317.8   0.004358567   0.04561  -0.06384  -0.18868   0.07699
  13   31606.1    316.4   0.011327264   0.11799  -0.10775   0.29426  -0.14067
  14   33152.7    301.6   0.063544214   0.63100   0.68975  -0.06220   0.38907
  15   33442.2    299.0   0.029145530   0.28691  -0.42503   0.06032  -0.32036
  16   33903.2    295.0   0.006279344   0.06097  -0.00356   0.23410  -0.07848
  17   34339.6    291.2   0.006595550   0.06323   0.22736   0.00309   0.10736
  18   34956.3    286.1   0.048910979   0.46064  -0.28459   0.54005  -0.29662
  19   35467.6    281.9   0.010099897   0.09375  -0.30549  -0.01584  -0.01306
  20   36141.6    276.7   0.016602343   0.15123  -0.14195  -0.28717   0.22049
  21   36543.8    273.6   0.007838605   0.07062   0.06308  -0.07443   0.24718
  22   37217.3    268.7   0.003652203   0.03231   0.01284   0.16322   0.07417
  23   37714.1    265.2   0.002847260   0.02485  -0.13815   0.00200  -0.07592
  24   38038.1    262.9   0.011997554   0.10384   0.09204   0.25134   0.17942
  25   38289.1    261.2   0.002361086   0.02030   0.09952   0.08073  -0.06229
  26   38735.9    258.2   0.034129841   0.29007  -0.15401  -0.51054  -0.07549
  27   39153.3    255.4   0.090235566   0.75873   0.54280   0.50488   0.45738
  28   40031.7    249.8   0.028477534   0.23419  -0.03142   0.48242   0.02188
  29   40173.7    248.9   0.065037890   0.53297  -0.12480  -0.71493  -0.07914

FINAL SINGLE POINT ENERGY     -6492.436096296994

DIPOLE MOMENT
-------------
                                X             Y             Z
Electronic contribution:     -4.86111      52.37618     -27.02546
Nuclear contribution   :      4.49122     -53.21945      27.73483
                        -----------------------------------------
Total Dipole Moment    :     -0.36989      -0.84327       0.70937
                        -----------------------------------------
Magnitude (a.u.)       :      1.16239
Magnitude (Debye)      :      2.95455

Rotational constants in cm-1:     0.001187     0.000073     0.000069
Rotational constants in MHz :    35.581958     2.180411     2.080925

                             ****ORCA TERMINATED NORMALLY****
TOTAL RUN TIME: 0 days 0 hours 9 minutes 3 seconds 779 msec
