                         Program Version 4.2.0 -  RELEASE  -
|  1> # ORCA input file
|  2> # SCF done       -184.131055086980          0.000428107045
|  3> ! CAM-B3LYP def2-SVP def2/J RIJCOSX Grid4 TightSCF
|  4> %maxcore 5000
|  5> %tddft
|  6>     Mode sTDDFT
|  7>     Ethresh 5.0
|  8>     maxcore 5000
|  9> end
| 10>
| 11> %pal
| 12>   nprocs 6
| 13>   end
| 14> * xyz 0 1
| 15>    C      -10.48644        -3.20128         2.04309
| 16>    S       -9.62593        -4.58920         2.55602
| 17>    C       -9.27661        -5.08791         0.92514
| 18>    C       -9.87841        -4.20180         0.01120
| 19>    C      -10.54295        -3.10336         0.67694
| 20>    C      -11.15183        -2.08338        -0.09452
| 21>    C      -11.15561        -2.17421        -1.45430
| 22>    N      -11.58682        -1.01518        -2.20888
| 23>    O      -12.58115        -0.44512        -1.83016
| 24>    O      -10.85813        -0.65990        -3.10677
| 25>    C      -10.61480        -3.32011        -2.10701
| 26>    N      -10.80915        -3.53574        -3.49210
| 27>    O      -11.72989        -2.97610        -4.05116
| 28>    O      -10.04395        -4.32416        -4.04384
| 29>    C       -9.98881        -4.30973        -1.37378
| 30>    C       -8.46901        -6.22854         0.69515
| 31>    C       -7.77016        -6.46545        -0.47368
| 32>    C       -6.96959        -7.57369        -0.71887
| 33>    C       -6.69812        -8.55088         0.34763
| 34>    C       -7.24211        -8.51027         1.58103
| 35>    S       -8.37139        -7.32028         2.08519
| 36>    C       -5.74325        -9.45430        -0.19377
| 37>    C       -5.44472        -9.08830        -1.50486
| 38>    C       -4.49704        -9.95465        -2.09519
| 39>    C       -4.10849       -10.92981        -1.23374
| 40>    S       -4.87375       -10.84323         0.31893
| 41>    C       -6.21773        -7.92826        -1.86840
| 42>    C       -6.16406        -7.39215        -3.17141
| 43>    C       -6.99202        -6.47858        -3.75614
| 44>    C       -6.85397        -6.00944        -5.07981
| 45>    N       -7.73024        -5.07551        -5.58699
| 46>    C       -7.36262        -4.78375        -6.85540
| 47>    C       -7.66552        -3.99219        -7.95456
| 48>    C       -6.71361        -4.30630        -8.93628
| 49>    N       -5.85205        -5.27135        -8.44652
| 50>    C       -6.21338        -5.56705        -7.17030
| 51>    C       -5.89133        -6.32893        -6.06065
| 52>    C       -6.55833        -3.79099       -10.24329
| 53>    C       -7.20887        -2.69983       -10.72608
| 54>    C       -7.05944        -2.16349       -12.03230
| 55>    C       -7.56134        -0.92112       -12.36197
| 56>    C       -7.42992        -0.30602       -13.60152
| 57>    C       -6.76552        -0.98103       -14.71803
| 58>    C       -6.20381        -2.20657       -14.63390
| 59>    S       -6.18960        -3.14984       -13.20174
| 60>    C       -6.83370        -0.06722       -15.80538
| 61>    C       -7.46290         1.11279       -15.40333
| 62>    C       -7.55859         2.03651       -16.46900
| 63>    C       -7.00777         1.54905       -17.61173
| 64>    S       -6.35247        -0.04277       -17.45389
| 65>    C       -7.83324         0.98658       -14.01312
| 66>    C       -8.41759         1.94388       -13.16623
| 67>    C       -8.62026         3.26268       -13.45376
| 68>    C       -9.15465         4.19209       -12.54457
| 69>    S       -9.72990         3.74314       -10.96630
| 70>    C      -10.11897         5.35618       -10.54728
| 71>    C       -9.83143         6.23803       -11.55986
| 72>    C       -9.28199         5.58213       -12.72100
| 73>    C       -8.96055         6.33922       -13.84929
| 74>    C       -9.13934         7.70363       -13.83707
| 75>    N       -8.96521         8.42247       -15.06330
| 76>    O       -8.23697         7.92920       -15.90152
| 77>    O       -9.60639         9.44342       -15.20598
| 78>    C       -9.62215         8.35844       -12.66773
| 79>    N       -9.59899         9.80411       -12.55390
| 80>    O       -8.58437        10.35429       -12.91296
| 81>    O      -10.54749        10.33169       -12.02459
| 82>    C       -9.97998         7.64550       -11.56146
| 83>    H      -10.90840        -2.53585         2.76856
| 84>    H      -11.58039        -1.22051         0.39146
| 85>    H       -9.65751        -5.19199        -1.89675
| 86>    H       -7.79605        -5.68567        -1.21716
| 87>    H       -7.01003        -9.23744         2.34279
| 88>    H       -4.11786        -9.86680        -3.09707
| 89>    H       -3.40378       -11.71905        -1.40874
| 90>    H       -5.37743        -7.80674        -3.78788
| 91>    H       -7.83985        -6.08216        -3.21909
| 92>    H       -8.54709        -4.73247        -5.09974
| 93>    H       -8.47042        -3.29432        -8.05874
| 94>    H       -5.07060        -5.64682        -8.95540
| 95>    H       -5.08284        -7.02212        -5.94767
| 96>    H       -5.84110        -4.29696       -10.87839
| 97>    H       -7.87174        -2.15387       -10.07040
| 98>    H       -8.07786        -0.39093       -11.57331
| 99>    H       -5.70783        -2.67859       -15.46705
|100>    H       -8.01654         3.00704       -16.42332
|101>    H       -6.94272         2.03570       -18.56516
|102>    H       -8.69041         1.60627       -12.17371
|103>    H       -8.32045         3.65324       -14.41278
|104>    H      -10.53656         5.56937        -9.58430
|105>    H       -8.59724         5.87763       -14.75453
|106>    H      -10.33905         8.15501       -10.68052
|107> *
|108>
|109>                          ****END OF INPUT****

CARTESIAN COORDINATES (ANGSTROEM)
---------------------------------
  C    -10.486440   -3.201280    2.043090
  S     -9.625930   -4.589200    2.556020
  C     -9.276610   -5.087910    0.925140
  C     -9.878410   -4.201800    0.011200
  C    -10.542950   -3.103360    0.676940
  C    -11.151830   -2.083380   -0.094520
  C    -11.155610   -2.174210   -1.454300
  N    -11.586820   -1.015180   -2.208880
  O    -12.581150   -0.445120   -1.830160
  O    -10.858130   -0.659900   -3.106770
  C    -10.614800   -3.320110   -2.107010
  N    -10.809150   -3.535740   -3.492100
  O    -11.729890   -2.976100   -4.051160
  O    -10.043950   -4.324160   -4.043840
  C     -9.988810   -4.309730   -1.373780
  C     -8.469010   -6.228540    0.695150
  C     -7.770160   -6.465450   -0.473680
  C     -6.969590   -7.573690   -0.718870
  C     -6.698120   -8.550880    0.347630
  C     -7.242110   -8.510270    1.581030
  S     -8.371390   -7.320280    2.085190
  C     -5.743250   -9.454300   -0.193770
  C     -5.444720   -9.088300   -1.504860
  C     -4.497040   -9.954650   -2.095190
  C     -4.108490  -10.929810   -1.233740
  S     -4.873750  -10.843230    0.318930
  C     -6.217730   -7.928260   -1.868400
  C     -6.164060   -7.392150   -3.171410
  C     -6.992020   -6.478580   -3.756140
  C     -6.853970   -6.009440   -5.079810
  N     -7.730240   -5.075510   -5.586990
  C     -7.362620   -4.783750   -6.855400
  C     -7.665520   -3.992190   -7.954560
  C     -6.713610   -4.306300   -8.936280
  N     -5.852050   -5.271350   -8.446520
  C     -6.213380   -5.567050   -7.170300
  C     -5.891330   -6.328930   -6.060650
  C     -6.558330   -3.790990  -10.243290
  C     -7.208870   -2.699830  -10.726080
  C     -7.059440   -2.163490  -12.032300
  C     -7.561340   -0.921120  -12.361970
  C     -7.429920   -0.306020  -13.601520
  C     -6.765520   -0.981030  -14.718030
  C     -6.203810   -2.206570  -14.633900
  S     -6.189600   -3.149840  -13.201740
  C     -6.833700   -0.067220  -15.805380
  C     -7.462900    1.112790  -15.403330
  C     -7.558590    2.036510  -16.469000
  C     -7.007770    1.549050  -17.611730
  S     -6.352470   -0.042770  -17.453890
  C     -7.833240    0.986580  -14.013120
  C     -8.417590    1.943880  -13.166230
  C     -8.620260    3.262680  -13.453760
  C     -9.154650    4.192090  -12.544570
  S     -9.729900    3.743140  -10.966300
  C    -10.118970    5.356180  -10.547280
  C     -9.831430    6.238030  -11.559860
  C     -9.281990    5.582130  -12.721000
  C     -8.960550    6.339220  -13.849290
  C     -9.139340    7.703630  -13.837070
  N     -8.965210    8.422470  -15.063300
  O     -8.236970    7.929200  -15.901520
  O     -9.606390    9.443420  -15.205980
  C     -9.622150    8.358440  -12.667730
  N     -9.598990    9.804110  -12.553900
  O     -8.584370   10.354290  -12.912960
  O    -10.547490   10.331690  -12.024590
  C     -9.979980    7.645500  -11.561460
  H    -10.908400   -2.535850    2.768560
  H    -11.580390   -1.220510    0.391460
  H     -9.657510   -5.191990   -1.896750
  H     -7.796050   -5.685670   -1.217160
  H     -7.010030   -9.237440    2.342790
  H     -4.117860   -9.866800   -3.097070
  H     -3.403780  -11.719050   -1.408740
  H     -5.377430   -7.806740   -3.787880
  H     -7.839850   -6.082160   -3.219090
  H     -8.547090   -4.732470   -5.099740
  H     -8.470420   -3.294320   -8.058740
  H     -5.070600   -5.646820   -8.955400
  H     -5.082840   -7.022120   -5.947670
  H     -5.841100   -4.296960  -10.878390
  H     -7.871740   -2.153870  -10.070400
  H     -8.077860   -0.390930  -11.573310
  H     -5.707830   -2.678590  -15.467050
  H     -8.016540    3.007040  -16.423320
  H     -6.942720    2.035700  -18.565160
  H     -8.690410    1.606270  -12.173710
  H     -8.320450    3.653240  -14.412780
  H    -10.536560    5.569370   -9.584300
  H     -8.597240    5.877630  -14.754530
  H    -10.339050    8.155010  -10.680520

 Total Charge           Charge          ....    0
 Multiplicity           Mult            ....    1
 Number of Electrons    NEL             ....  514
 Basis Dimension        Dim             .... 1096

ORBITAL ENERGIES
----------------

  NO   OCC          E(Eh)            E(eV)
   0   2.0000     -88.995751     -2421.6975
   1   2.0000     -88.977767     -2421.2081
   2   2.0000     -88.973203     -2421.0839
   3   2.0000     -88.973006     -2421.0786
   4   2.0000     -88.964208     -2420.8392
   5   2.0000     -88.954650     -2420.5791
   6   2.0000     -19.265018      -524.2278
   7   2.0000     -19.259478      -524.0770
   8   2.0000     -19.251413      -523.8576
   9   2.0000     -19.250398      -523.8300
  10   2.0000     -19.230968      -523.3012
  11   2.0000     -19.230156      -523.2792
  12   2.0000     -19.229809      -523.2697
  13   2.0000     -19.227705      -523.2124
  14   2.0000     -14.668463      -399.1492
  15   2.0000     -14.657345      -398.8466
  16   2.0000     -14.636738      -398.2859
  17   2.0000     -14.636029      -398.2666
  18   2.0000     -14.457269      -393.4023
  19   2.0000     -14.444924      -393.0664
  20   2.0000     -10.354835      -281.7694
  21   2.0000     -10.353686      -281.7381
  22   2.0000     -10.344119      -281.4778
  23   2.0000     -10.332620      -281.1649
  24   2.0000     -10.332603      -281.1644
  25   2.0000     -10.331203      -281.1263
  26   2.0000     -10.329772      -281.0874
  27   2.0000     -10.328692      -281.0580
  28   2.0000     -10.326169      -280.9893
  29   2.0000     -10.323191      -280.9083
  30   2.0000     -10.321493      -280.8621
  31   2.0000     -10.321450      -280.8609
  32   2.0000     -10.317272      -280.7473
  33   2.0000     -10.317055      -280.7413
  34   2.0000     -10.316215      -280.7185
  35   2.0000     -10.310020      -280.5499
  36   2.0000     -10.306628      -280.4576
  37   2.0000     -10.304915      -280.4110
  38   2.0000     -10.303598      -280.3752
  39   2.0000     -10.303542      -280.3736
  40   2.0000     -10.302666      -280.3498
  41   2.0000     -10.300937      -280.3028
  42   2.0000     -10.300574      -280.2929
  43   2.0000     -10.296358      -280.1782
  44   2.0000     -10.295840      -280.1641
  45   2.0000     -10.294507      -280.1278
  46   2.0000     -10.293400      -280.0977
  47   2.0000     -10.292767      -280.0804
  48   2.0000     -10.291406      -280.0434
  49   2.0000     -10.291290      -280.0402
  50   2.0000     -10.290162      -280.0095
  51   2.0000     -10.289381      -279.9883
  52   2.0000     -10.289232      -279.9842
  53   2.0000     -10.288047      -279.9520
  54   2.0000     -10.286933      -279.9217
  55   2.0000     -10.285044      -279.8703
  56   2.0000     -10.284704      -279.8610
  57   2.0000     -10.284382      -279.8523
  58   2.0000     -10.283442      -279.8267
  59   2.0000     -10.282372      -279.7976
  60   2.0000     -10.279364      -279.7157
  61   2.0000     -10.277403      -279.6623
  62   2.0000     -10.276177      -279.6290
  63   2.0000     -10.273281      -279.5502
  64   2.0000     -10.273140      -279.5463
  65   2.0000     -10.272686      -279.5340
  66   2.0000     -10.262632      -279.2604
  67   2.0000     -10.262544      -279.2580
  68   2.0000      -8.090952      -220.1660
  69   2.0000      -8.073552      -219.6925
  70   2.0000      -8.068380      -219.5518
  71   2.0000      -8.068254      -219.5483
  72   2.0000      -8.059701      -219.3156
  73   2.0000      -8.050163      -219.0561
  74   2.0000      -6.060021      -164.9015
  75   2.0000      -6.055514      -164.7789
  76   2.0000      -6.053914      -164.7354
  77   2.0000      -6.043313      -164.4469
  78   2.0000      -6.038758      -164.3230
  79   2.0000      -6.037822      -164.2975
  80   2.0000      -6.037199      -164.2805
  81   2.0000      -6.034956      -164.2195
  82   2.0000      -6.033443      -164.1783
  83   2.0000      -6.032971      -164.1655
  84   2.0000      -6.031327      -164.1207
  85   2.0000      -6.030376      -164.0949
  86   2.0000      -6.029140      -164.0612
  87   2.0000      -6.024886      -163.9455
  88   2.0000      -6.021705      -163.8589
  89   2.0000      -6.019578      -163.8011
  90   2.0000      -6.015328      -163.6854
  91   2.0000      -6.012230      -163.6011
  92   2.0000      -1.339832       -36.4587
  93   2.0000      -1.331179       -36.2232
  94   2.0000      -1.314876       -35.7796
  95   2.0000      -1.306965       -35.5643
  96   2.0000      -1.158174       -31.5155
  97   2.0000      -1.152036       -31.3485
  98   2.0000      -1.134495       -30.8712
  99   2.0000      -1.127505       -30.6810
 100   2.0000      -1.086330       -29.5605
 101   2.0000      -1.049413       -28.5560
 102   2.0000      -1.033627       -28.1264
 103   2.0000      -1.011888       -27.5349
 104   2.0000      -1.008418       -27.4405
 105   2.0000      -1.003938       -27.3185
 106   2.0000      -0.996668       -27.1207
 107   2.0000      -0.973146       -26.4807
 108   2.0000      -0.971194       -26.4275
 109   2.0000      -0.969182       -26.3728
 110   2.0000      -0.934845       -25.4384
 111   2.0000      -0.930032       -25.3075
 112   2.0000      -0.925507       -25.1843
 113   2.0000      -0.910944       -24.7881
 114   2.0000      -0.905792       -24.6479
 115   2.0000      -0.902750       -24.5651
 116   2.0000      -0.901887       -24.5416
 117   2.0000      -0.890344       -24.2275
 118   2.0000      -0.887431       -24.1482
 119   2.0000      -0.877374       -23.8746
 120   2.0000      -0.874016       -23.7832
 121   2.0000      -0.862385       -23.4667
 122   2.0000      -0.859004       -23.3747
 123   2.0000      -0.855292       -23.2737
 124   2.0000      -0.846404       -23.0318
 125   2.0000      -0.844362       -22.9763
 126   2.0000      -0.826053       -22.4781
 127   2.0000      -0.820258       -22.3203
 128   2.0000      -0.811753       -22.0889
 129   2.0000      -0.801271       -21.8037
 130   2.0000      -0.796085       -21.6626
 131   2.0000      -0.791937       -21.5497
 132   2.0000      -0.782958       -21.3054
 133   2.0000      -0.773808       -21.0564
 134   2.0000      -0.768162       -20.9027
 135   2.0000      -0.757565       -20.6144
 136   2.0000      -0.744694       -20.2642
 137   2.0000      -0.729766       -19.8579
 138   2.0000      -0.726457       -19.7679
 139   2.0000      -0.725347       -19.7377
 140   2.0000      -0.710980       -19.3468
 141   2.0000      -0.704195       -19.1621
 142   2.0000      -0.697547       -18.9812
 143   2.0000      -0.691912       -18.8279
 144   2.0000      -0.683850       -18.6085
 145   2.0000      -0.679913       -18.5014
 146   2.0000      -0.672082       -18.2883
 147   2.0000      -0.669518       -18.2185
 148   2.0000      -0.658198       -17.9105
 149   2.0000      -0.656529       -17.8651
 150   2.0000      -0.654027       -17.7970
 151   2.0000      -0.650165       -17.6919
 152   2.0000      -0.646981       -17.6053
 153   2.0000      -0.642209       -17.4754
 154   2.0000      -0.641059       -17.4441
 155   2.0000      -0.639050       -17.3894
 156   2.0000      -0.634505       -17.2658
 157   2.0000      -0.629495       -17.1294
 158   2.0000      -0.628926       -17.1140
 159   2.0000      -0.626283       -17.0420
 160   2.0000      -0.622055       -16.9270
 161   2.0000      -0.618899       -16.8411
 162   2.0000      -0.613664       -16.6986
 163   2.0000      -0.611401       -16.6371
 164   2.0000      -0.610001       -16.5990
 165   2.0000      -0.604927       -16.4609
 166   2.0000      -0.604536       -16.4503
 167   2.0000      -0.598916       -16.2973
 168   2.0000      -0.594140       -16.1674
 169   2.0000      -0.589756       -16.0481
 170   2.0000      -0.579694       -15.7743
 171   2.0000      -0.578472       -15.7410
 172   2.0000      -0.575761       -15.6673
 173   2.0000      -0.571565       -15.5531
 174   2.0000      -0.569970       -15.5097
 175   2.0000      -0.565371       -15.3845
 176   2.0000      -0.564420       -15.3587
 177   2.0000      -0.558589       -15.2000
 178   2.0000      -0.555684       -15.1209
 179   2.0000      -0.552076       -15.0227
 180   2.0000      -0.548568       -14.9273
 181   2.0000      -0.542900       -14.7731
 182   2.0000      -0.541606       -14.7379
 183   2.0000      -0.537023       -14.6131
 184   2.0000      -0.532131       -14.4800
 185   2.0000      -0.530826       -14.4445
 186   2.0000      -0.528264       -14.3748
 187   2.0000      -0.524213       -14.2645
 188   2.0000      -0.520640       -14.1673
 189   2.0000      -0.520142       -14.1538
 190   2.0000      -0.516117       -14.0443
 191   2.0000      -0.514230       -13.9929
 192   2.0000      -0.513227       -13.9656
 193   2.0000      -0.510366       -13.8878
 194   2.0000      -0.507917       -13.8211
 195   2.0000      -0.505403       -13.7527
 196   2.0000      -0.504726       -13.7343
 197   2.0000      -0.499101       -13.5812
 198   2.0000      -0.495619       -13.4865
 199   2.0000      -0.489567       -13.3218
 200   2.0000      -0.477548       -12.9947
 201   2.0000      -0.474679       -12.9167
 202   2.0000      -0.473661       -12.8890
 203   2.0000      -0.472632       -12.8610
 204   2.0000      -0.466860       -12.7039
 205   2.0000      -0.466721       -12.7001
 206   2.0000      -0.462534       -12.5862
 207   2.0000      -0.459641       -12.5075
 208   2.0000      -0.457202       -12.4411
 209   2.0000      -0.453697       -12.3457
 210   2.0000      -0.452060       -12.3012
 211   2.0000      -0.447740       -12.1836
 212   2.0000      -0.446794       -12.1579
 213   2.0000      -0.444341       -12.0911
 214   2.0000      -0.442097       -12.0301
 215   2.0000      -0.438445       -11.9307
 216   2.0000      -0.432116       -11.7585
 217   2.0000      -0.431072       -11.7301
 218   2.0000      -0.428252       -11.6533
 219   2.0000      -0.424024       -11.5383
 220   2.0000      -0.421941       -11.4816
 221   2.0000      -0.419408       -11.4127
 222   2.0000      -0.415146       -11.2967
 223   2.0000      -0.415034       -11.2937
 224   2.0000      -0.414306       -11.2738
 225   2.0000      -0.410861       -11.1801
 226   2.0000      -0.410424       -11.1682
 227   2.0000      -0.408494       -11.1157
 228   2.0000      -0.406971       -11.0743
 229   2.0000      -0.393537       -10.7087
 230   2.0000      -0.392061       -10.6685
 231   2.0000      -0.391238       -10.6461
 232   2.0000      -0.389987       -10.6121
 233   2.0000      -0.380253       -10.3472
 234   2.0000      -0.378588       -10.3019
 235   2.0000      -0.377433       -10.2705
 236   2.0000      -0.374226       -10.1832
 237   2.0000      -0.373348       -10.1593
 238   2.0000      -0.370893       -10.0925
 239   2.0000      -0.368428       -10.0254
 240   2.0000      -0.364882        -9.9289
 241   2.0000      -0.361461        -9.8359
 242   2.0000      -0.352962        -9.6046
 243   2.0000      -0.351143        -9.5551
 244   2.0000      -0.347378        -9.4526
 245   2.0000      -0.343100        -9.3362
 246   2.0000      -0.328549        -8.9403
 247   2.0000      -0.323736        -8.8093
 248   2.0000      -0.320278        -8.7152
 249   2.0000      -0.309999        -8.4355
 250   2.0000      -0.289303        -7.8723
 251   2.0000      -0.286885        -7.8065
 252   2.0000      -0.283662        -7.7188
 253   2.0000      -0.274953        -7.4818
 254   2.0000      -0.254483        -6.9248
 255   2.0000      -0.226604        -6.1662
 256   2.0000      -0.202040        -5.4978
 257   0.0000      -0.098879        -2.6906
 258   0.0000      -0.077634        -2.1125
 259   0.0000      -0.061834        -1.6826
 260   0.0000      -0.054897        -1.4938
 261   0.0000      -0.040961        -1.1146

MULLIKEN ATOMIC CHARGES
-----------------------
   0 C :   -0.123483
   1 S :    0.183766
   2 C :   -0.105686
   3 C :    0.145251
   4 C :    0.101882
   5 C :   -0.023100
   6 C :    0.084293
   7 N :    0.250958
   8 O :   -0.225486
   9 O :   -0.226550
  10 C :    0.120843
  11 N :    0.285410
  12 O :   -0.209971
  13 O :   -0.290513
  14 C :   -0.078067
  15 C :   -0.076023
  16 C :   -0.066517
  17 C :    0.028812
  18 C :    0.066571
  19 C :   -0.131065
  20 S :    0.105138
  21 C :   -0.101602
  22 C :    0.038882
  23 C :    0.013553
  24 C :   -0.068886
  25 S :    0.133238
  26 C :    0.126107
  27 C :   -0.047935
  28 C :    0.022530
  29 C :    0.098599
  30 N :   -0.027352
  31 C :    0.119737
  32 C :   -0.169724
  33 C :    0.102895
  34 N :   -0.041162
  35 C :    0.128798
  36 C :   -0.192026
  37 C :    0.011413
  38 C :   -0.033475
  39 C :   -0.020041
  40 C :   -0.058947
  41 C :    0.071322
  42 C :    0.063003
  43 C :   -0.123173
  44 S :    0.110059
  45 C :   -0.115331
  46 C :    0.056001
  47 C :   -0.005555
  48 C :   -0.065898
  49 S :    0.127398
  50 C :    0.089461
  51 C :   -0.026126
  52 C :   -0.016398
  53 C :   -0.090096
  54 S :    0.150188
  55 C :   -0.123523
  56 C :    0.112480
  57 C :    0.136165
  58 C :   -0.072536
  59 C :    0.137531
  60 N :    0.256123
  61 O :   -0.244828
  62 O :   -0.235152
  63 C :    0.075705
  64 N :    0.249623
  65 O :   -0.224357
  66 O :   -0.231915
  67 C :   -0.026480
  68 H :    0.030598
  69 H :    0.002015
  70 H :    0.008821
  71 H :   -0.009343
  72 H :    0.035464
  73 H :   -0.014801
  74 H :    0.028705
  75 H :   -0.034747
  76 H :   -0.059158
  77 H :    0.119245
  78 H :   -0.026865
  79 H :    0.118614
  80 H :   -0.037555
  81 H :   -0.016238
  82 H :   -0.004693
  83 H :   -0.024436
  84 H :    0.034536
  85 H :   -0.011148
  86 H :    0.027407
  87 H :   -0.029303
  88 H :   -0.039640
  89 H :    0.023388
  90 H :   -0.000588
  91 H :   -0.005030
Sum of atomic charges:   -0.0000000

LOEWDIN ATOMIC CHARGES
----------------------
   0 C :   -0.192612
   1 S :    0.496087
   2 C :   -0.168720
   3 C :   -0.060025
   4 C :   -0.045873
   5 C :    0.023498
   6 C :   -0.024223
   7 N :    0.281049
   8 O :   -0.189780
   9 O :   -0.194780
  10 C :   -0.054415
  11 N :    0.301759
  12 O :   -0.176208
  13 O :   -0.237349
  14 C :    0.036075
  15 C :   -0.203473
  16 C :   -0.005502
  17 C :   -0.047376
  18 C :   -0.046551
  19 C :   -0.144303
  20 S :    0.415685
  21 C :   -0.193426
  22 C :   -0.042443
  23 C :   -0.060547
  24 C :   -0.163647
  25 S :    0.426108
  26 C :   -0.018939
  27 C :   -0.039118
  28 C :   -0.019896
  29 C :    0.000119
  30 N :    0.078213
  31 C :   -0.011461
  32 C :   -0.084504
  33 C :   -0.003432
  34 N :    0.064943
  35 C :   -0.015575
  36 C :   -0.096132
  37 C :   -0.035086
  38 C :   -0.054570
  39 C :   -0.152639
  40 C :   -0.031583
  41 C :   -0.008195
  42 C :   -0.050376
  43 C :   -0.142311
  44 S :    0.448221
  45 C :   -0.202855
  46 C :   -0.037097
  47 C :   -0.067069
  48 C :   -0.164234
  49 S :    0.423902
  50 C :   -0.060302
  51 C :   -0.000914
  52 C :   -0.072094
  53 C :   -0.146227
  54 S :    0.487468
  55 C :   -0.197208
  56 C :   -0.048378
  57 C :   -0.063088
  58 C :    0.035810
  59 C :   -0.048076
  60 N :    0.285699
  61 O :   -0.212660
  62 O :   -0.200716
  63 C :   -0.023256
  64 N :    0.281628
  65 O :   -0.193238
  66 O :   -0.195658
  67 C :    0.017322
  68 H :    0.030309
  69 H :    0.047972
  70 H :    0.041472
  71 H :    0.037188
  72 H :    0.036228
  73 H :    0.030793
  74 H :    0.024256
  75 H :    0.027726
  76 H :    0.022590
  77 H :    0.069505
  78 H :    0.026534
  79 H :    0.087641
  80 H :    0.020890
  81 H :    0.019220
  82 H :    0.034976
  83 H :    0.035257
  84 H :    0.035589
  85 H :    0.029023
  86 H :    0.024623
  87 H :    0.018922
  88 H :    0.029867
  89 H :    0.027089
  90 H :    0.042218
  91 H :    0.044663

  Mayer bond orders larger than 0.100000
B(  0-C ,  1-S ) :   1.1633 B(  0-C ,  4-C ) :   1.4655 B(  0-C , 68-H ) :   0.9708
B(  1-S ,  2-C ) :   1.1918 B(  2-C ,  3-C ) :   1.3416 B(  2-C , 15-C ) :   1.1735
B(  3-C ,  4-C ) :   1.1747 B(  3-C , 14-C ) :   1.1885 B(  4-C ,  5-C ) :   1.1110
B(  5-C ,  6-C ) :   1.5994 B(  5-C , 69-H ) :   1.0035 B(  6-C ,  7-N ) :   0.8622
B(  6-C , 10-C ) :   1.1853 B(  7-N ,  8-O ) :   1.5515 B(  7-N ,  9-O ) :   1.5567
B(  8-O ,  9-O ) :   0.2766 B( 10-C , 11-N ) :   0.9295 B( 10-C , 14-C ) :   1.4965
B( 11-N , 12-O ) :   1.5791 B( 11-N , 13-O ) :   1.4389 B( 12-O , 13-O ) :   0.2457
B( 13-O , 77-H ) :   0.1010 B( 14-C , 70-H ) :   0.9915 B( 15-C , 16-C ) :   1.5034
B( 15-C , 20-S ) :   1.0203 B( 16-C , 17-C ) :   1.2746 B( 16-C , 71-H ) :   0.9639
B( 17-C , 18-C ) :   1.0418 B( 17-C , 26-C ) :   1.3338 B( 18-C , 19-C ) :   1.6329
B( 18-C , 21-C ) :   1.1734 B( 19-C , 20-S ) :   1.1127 B( 19-C , 72-H ) :   0.9417
B( 21-C , 22-C ) :   1.4380 B( 21-C , 25-S ) :   1.0843 B( 22-C , 23-C ) :   1.2159
B( 22-C , 26-C ) :   1.1056 B( 23-C , 24-C ) :   1.5938 B( 23-C , 73-H ) :   0.9963
B( 24-C , 25-S ) :   1.1487 B( 24-C , 74-H ) :   0.9660 B( 26-C , 27-C ) :   1.1894
B( 27-C , 28-C ) :   1.5742 B( 27-C , 75-H ) :   0.9617 B( 28-C , 29-C ) :   1.1529
B( 28-C , 76-H ) :   0.9616 B( 29-C , 30-N ) :   1.1928 B( 29-C , 36-C ) :   1.3525
B( 30-N , 31-C ) :   1.1932 B( 30-N , 77-H ) :   0.8976 B( 31-C , 32-C ) :   1.2733
B( 31-C , 35-C ) :   1.2776 B( 32-C , 33-C ) :   1.3866 B( 32-C , 78-H ) :   1.0336
B( 33-C , 34-N ) :   1.1607 B( 33-C , 37-C ) :   1.1434 B( 34-N , 35-C ) :   1.1615
B( 34-N , 79-H ) :   0.9382 B( 35-C , 36-C ) :   1.2868 B( 36-C , 80-H ) :   1.0314
B( 37-C , 38-C ) :   1.6195 B( 37-C , 81-H ) :   0.9502 B( 38-C , 39-C ) :   1.1610
B( 38-C , 82-H ) :   0.9883 B( 39-C , 40-C ) :   1.4954 B( 39-C , 44-S ) :   1.0486
B( 40-C , 41-C ) :   1.2330 B( 40-C , 83-H ) :   0.9774 B( 41-C , 42-C ) :   1.0569
B( 41-C , 50-C ) :   1.3465 B( 42-C , 43-C ) :   1.6076 B( 42-C , 45-C ) :   1.1723
B( 43-C , 44-S ) :   1.1361 B( 43-C , 84-H ) :   0.9410 B( 45-C , 46-C ) :   1.4579
B( 45-C , 49-S ) :   1.0789 B( 46-C , 47-C ) :   1.2149 B( 46-C , 50-C ) :   1.0705
B( 47-C , 48-C ) :   1.5843 B( 47-C , 85-H ) :   0.9974 B( 48-C , 49-S ) :   1.1586
B( 48-C , 86-H ) :   0.9646 B( 50-C , 51-C ) :   1.2180 B( 51-C , 52-C ) :   1.5671
B( 51-C , 87-H ) :   0.9571 B( 52-C , 53-C ) :   1.2080 B( 52-C , 88-H ) :   0.9686
B( 53-C , 54-S ) :   1.1742 B( 53-C , 57-C ) :   1.3093 B( 54-S , 55-C ) :   1.1645
B( 55-C , 56-C ) :   1.4617 B( 55-C , 89-H ) :   0.9695 B( 56-C , 57-C ) :   1.1737
B( 56-C , 67-C ) :   1.1109 B( 57-C , 58-C ) :   1.1716 B( 58-C , 59-C ) :   1.5292
B( 58-C , 90-H ) :   0.9903 B( 59-C , 60-N ) :   0.8976 B( 59-C , 63-C ) :   1.1908
B( 60-N , 61-O ) :   1.5312 B( 60-N , 62-O ) :   1.5523 B( 61-O , 62-O ) :   0.2651
B( 63-C , 64-N ) :   0.8600 B( 63-C , 67-C ) :   1.5951 B( 64-N , 65-O ) :   1.5617
B( 64-N , 66-O ) :   1.5494 B( 65-O , 66-O ) :   0.2757 B( 67-C , 91-H ) :   1.0037

-----------------------------------------------------------------------------
         ABSORPTION SPECTRUM VIA TRANSITION ELECTRIC DIPOLE MOMENTS
-----------------------------------------------------------------------------
State   Energy  Wavelength   fosc         T2         TX        TY        TZ
        (cm-1)    (nm)                  (au**2)     (au)      (au)      (au)
-----------------------------------------------------------------------------
   0    8398.7   1190.7   0.353667376  13.86298   1.23813   0.75769  -3.42869
   1   13695.6    730.2   1.319117551  31.70864  -1.19284   4.66960  -2.91214
   2   16583.0    603.0   0.370046274   7.34630   1.39822  -2.14918  -0.87881
   3   17420.8    574.0   0.252130503   4.76467   0.05016  -0.40116   2.14505
   4   18510.0    540.2   0.184054242   3.27353  -0.47469   0.24837   1.72815
   5   19822.8    504.5   0.302470583   5.02334   0.02332   0.25572   2.22652
   6   20655.4    484.1   0.071472628   1.13915  -0.56949   0.70311   0.56611
   7   21094.0    474.1   0.034704947   0.54164   0.11867   0.02545  -0.72588
   8   21507.0    465.0   0.314493944   4.81401   0.51033  -1.56803   1.44736
   9   23623.5    423.3   0.303833295   4.23416  -0.72285   1.81459  -0.64724
  10   24084.9    415.2   0.006126122   0.08374   0.21611   0.04245  -0.18771
  11   24656.1    405.6   0.065191026   0.87044   0.05209  -0.70297   0.61120
  12   25292.1    395.4   0.015150705   0.19721   0.22688   0.35559  -0.13890
  13   25484.1    392.4   0.056338856   0.72780  -0.02794   0.16276  -0.83698
  14   25880.8    386.4   0.024469105   0.31126  -0.20349   0.30926   0.41738
  15   26821.6    372.8   0.035155927   0.43151   0.37349  -0.50878  -0.18209
  16   27131.6    368.6   0.125942184   1.52817  -0.12614   0.79047  -0.94203
  17   28115.7    355.7   0.143015298   1.67459  -0.01146   0.33772  -1.24916
  18   28470.5    351.2   0.049359521   0.57076  -0.17838   0.73396  -0.01542
  19   28930.9    345.7   0.042861333   0.48773   0.22374  -0.64980   0.12421
  20   29288.5    341.4   0.033089089   0.37193   0.09272   0.01140  -0.60266
  21   29613.4    337.7   0.041516934   0.46154   0.26389  -0.60597   0.15720
  22   29725.9    336.4   0.071830382   0.79552  -0.11257   0.37697  -0.80046
  23   30464.3    328.3   0.016468551   0.17797   0.02582   0.39715   0.13991
  24   30737.2    325.3   0.022034812   0.23601  -0.24778   0.40966   0.08242
  25   31234.5    320.2   0.066988572   0.70606   0.33575  -0.41519   0.64881
  26   31526.3    317.2   0.007925462   0.08276  -0.04998   0.14450  -0.24368
  27   31601.4    316.4   0.133343293   1.38912   0.46322  -0.97868  -0.46555
  28   32176.1    310.8   0.232500399   2.37884   0.55062  -0.49122  -1.35439
  29   32738.8    305.4   0.037058579   0.37265   0.26884  -0.25892   0.48304
  30   33275.2    300.5   0.026588469   0.26306  -0.08175   0.50565   0.02633
  31   33660.4    297.1   0.094039769   0.91974   0.33110  -0.48871   0.75583
  32   33848.6    295.4   0.032276644   0.31392  -0.27494   0.31061  -0.37663
  33   34135.2    293.0   0.036916867   0.35604  -0.31193   0.47410   0.18429
  34   34590.9    289.1   0.073579678   0.70028  -0.45054   0.70108  -0.07606
  35   34820.4    287.2   0.154447568   1.46024  -0.04100  -0.00981  -1.20767
  36   34998.1    285.7   0.009636179   0.09064  -0.03195  -0.07320  -0.29028
  37   35482.6    281.8   0.137746397   1.27803  -0.57640   0.95745   0.17053
  38   35705.0    280.1   0.016380806   0.15104   0.24947  -0.26862  -0.12902
  39   35920.2    278.4   0.120046080   1.10023   0.68709  -0.68928  -0.39119
  40   36137.8    276.7   0.135794433   1.23707   0.70357  -0.85973  -0.05404
  41   36598.7    273.2   0.085488803   0.76899   0.28526  -0.82922   0.00220
  42   36742.9    272.2   0.004437983   0.03976   0.01264   0.19799  -0.02006
  43   36843.4    271.4   0.029647113   0.26491  -0.02912  -0.50901   0.07050
  44   37025.1    270.1   0.008800680   0.07825   0.04938  -0.15360  -0.22852
  45   37384.6    267.5   0.207406428   1.82644  -0.47072   0.90242  -0.88910
  46   37431.4    267.2   0.076540581   0.67318   0.22726  -0.09801  -0.78226
  47   37643.9    265.6   0.072052190   0.63013   0.44259  -0.48266  -0.44864
  48   37834.6    264.3   0.004620356   0.04020   0.14446  -0.05922  -0.12581
  49   37972.8    263.3   0.007527135   0.06526   0.19523   0.09370   0.13551
  50   38533.3    259.5   0.061172554   0.52263   0.30556  -0.61476  -0.22656
  51   38609.8    259.0   0.055287760   0.47142   0.27464  -0.56520   0.27666
  52   38856.2    257.4   0.119251490   1.01037  -0.03722   0.07283  -1.00184
  53   38997.1    256.4   0.465931098   3.93338  -0.24531  -1.40836   1.37467
  54   39155.5    255.4   0.214054185   1.79973   0.82951  -0.25639  -1.02269
  55   39264.4    254.7   0.071775430   0.60180  -0.26325   0.72894  -0.03386
  56   39660.5    252.1   0.102866576   0.85387  -0.53770   0.74693   0.08275
  57   39852.5    250.9   0.056335058   0.46537   0.31278  -0.55036   0.25424
  58   40093.0    249.4   0.104641634   0.85923   0.53388  -0.43477  -0.62063
  59   40267.2    248.3   0.032913817   0.26909   0.04242   0.32698  -0.40047

FINAL SINGLE POINT ENERGY     -5158.384378304221

DIPOLE MOMENT
-------------
                                X             Y             Z
Electronic contribution:    -10.32012      13.31693      11.20135
Nuclear contribution   :     12.21167     -20.26435      -6.86618
                        -----------------------------------------
Total Dipole Moment    :      1.89155      -6.94743       4.33517
                        -----------------------------------------
Magnitude (a.u.)       :      8.40466
Magnitude (Debye)      :     21.36296

Rotational constants in cm-1:     0.001201     0.000260     0.000219
Rotational constants in MHz :    35.991004     7.787420     6.560176

                             ****ORCA TERMINATED NORMALLY****
TOTAL RUN TIME: 0 days 0 hours 9 minutes 4 seconds 87 msec
