                         Program Version 4.2.0 -  RELEASE  -
|  1> # ORCA input file
|  2> # SCF done       -171.599346062006          0.000833909517
|  3> ! CAM-B3LYP def2-SVP def2/J RIJCOSX Grid4 TightSCF
|  4> %maxcore 5000
|  5> %tddft
|  6>     Mode sTDDFT
|  7>     Ethresh 5.0
|  8>     maxcore 5000
|  9> end
| 10>
| 11> %pal
| 12>   nprocs 6
| 13>   end
| 14> * xyz 0 1
| 15>    C       -5.34905        -1.92128         1.11664
| 16>    C       -4.85995        -3.02348         0.48042
| 17>    C       -3.43784        -2.86057         0.34673
| 18>    C       -3.07235        -1.59391         0.93586
| 19>    O       -2.01020        -1.02164         1.06529
| 20>    N       -4.30382        -1.08370         1.38325
| 21>    C       -2.95819        -3.98060        -0.29200
| 22>    O       -3.98857        -4.83366        -0.56856
| 23>    C       -5.19981        -4.29987        -0.11524
| 24>    O       -6.23440        -4.88626        -0.25447
| 25>    C       -1.64383        -4.32117        -0.65591
| 26>    S       -1.26844        -5.82084        -1.45210
| 27>    C        0.41788        -5.41459        -1.48645
| 28>    C        0.64799        -4.17235        -0.90650
| 29>    C       -0.50335        -3.55916        -0.44119
| 30>    C        1.38259        -6.29271        -2.04188
| 31>    C        2.75187        -6.11447        -2.11524
| 32>    C        3.41938        -7.17944        -2.71093
| 33>    C        2.58006        -8.20116        -3.11189
| 34>    S        0.92360        -7.82330        -2.73839
| 35>    C        2.93142        -9.42221        -3.73834
| 36>    S        4.59543        -9.82302        -4.05845
| 37>    C        4.14674       -11.35280        -4.76434
| 38>    C        2.77257       -11.50940        -4.73907
| 39>    C        2.09732       -10.43576        -4.16689
| 40>    C        5.16426       -12.21606        -5.24666
| 41>    C        4.95289       -13.41957        -5.83435
| 42>    C        5.97626       -14.28457        -6.29910
| 43>    N        5.66324       -15.48903        -6.90019
| 44>    C        6.81748       -16.12123        -7.23727
| 45>    C        7.34344       -17.27178        -7.81611
| 46>    C        8.73547       -17.13233        -7.76151
| 47>    N        9.04785       -15.92418        -7.16677
| 48>    C        7.89345       -15.28961        -6.83625
| 49>    C        7.36805       -14.14195        -6.25160
| 50>    C        9.76208       -18.01159        -8.18909
| 51>    C        9.56171       -19.22169        -8.76760
| 52>    C       10.59261       -20.11085        -9.16717
| 53>    S       10.17178       -21.65021        -9.86614
| 54>    C       11.84488       -22.09924       -10.02785
| 55>    C       12.66428       -21.08691        -9.56285
| 56>    C       11.96799       -19.98181        -9.08548
| 57>    C       12.23161       -23.35565       -10.56068
| 58>    C       13.51165       -23.86428       -10.68743
| 59>    C       13.54856       -25.14046       -11.23949
| 60>    C       12.30097       -25.64236       -11.55363
| 61>    S       11.05436       -24.49285       -11.14849
| 62>    C       11.98176       -26.89793       -12.12369
| 63>    S       13.21673       -28.06479       -12.47734
| 64>    C       12.03904       -29.19802       -13.09754
| 65>    C       10.76405       -28.66034       -13.01675
| 66>    C       10.73254       -27.38360       -12.47343
| 67>    C       12.46907       -30.45502       -13.57855
| 68>    C       11.65387       -31.40045       -14.11987
| 69>    C       12.07318       -32.66217       -14.59601
| 70>    C       11.29477       -33.64126       -15.18808
| 71>    C       12.13233       -34.76308       -15.51602
| 72>    C       13.49380       -34.43804       -15.09099
| 73>    O       14.53133       -35.05028       -15.14684
| 74>    N       13.36422       -33.15543       -14.55310
| 75>    C       11.33339       -35.69038       -16.09477
| 76>    O       10.05824       -35.25863       -16.16431
| 77>    C        9.96049       -33.96631       -15.60948
| 78>    O        8.91327       -33.37626       -15.56216
| 79>    H       -6.35411        -1.67123         1.39815
| 80>    H       -4.38286        -0.19308         1.84908
| 81>    H        1.62753        -3.73794        -0.83015
| 82>    H       -0.54133        -2.59772         0.04025
| 83>    H        3.24721        -5.23641        -1.74352
| 84>    H        4.48460        -7.22194        -2.85419
| 85>    H        2.27491       -12.38140        -5.12233
| 86>    H        1.02810       -10.38065        -4.05872
| 87>    H        6.17760       -11.86304        -5.12180
| 88>    H        3.93845       -13.77111        -5.96916
| 89>    H        4.72758       -15.82328        -7.05328
| 90>    H        6.81245       -18.10671        -8.22552
| 91>    H        9.98331       -15.59175        -7.00891
| 92>    H        7.89993       -13.30944        -5.83869
| 93>    H       10.77498       -17.66981        -8.02043
| 94>    H        8.55130       -19.56344        -8.93845
| 95>    H       13.73710       -21.15448        -9.57362
| 96>    H       12.45288       -19.10868        -8.68835
| 97>    H       14.38805       -23.32282       -10.38222
| 98>    H       14.45244       -25.69781       -11.41284
| 99>    H        9.88694       -29.18913       -13.34206
|100>    H        9.83575       -26.80690       -12.32991
|101>    H       13.53231       -30.64217       -13.49895
|102>    H       10.59506       -31.21497       -14.22047
|103>    H       14.15128       -32.65933       -14.16610
|104>    H       11.53309       -36.66901       -16.48954
|105> *
|106>
|107>                          ****END OF INPUT****

CARTESIAN COORDINATES (ANGSTROEM)
---------------------------------
  C     -5.349050   -1.921280    1.116640
  C     -4.859950   -3.023480    0.480420
  C     -3.437840   -2.860570    0.346730
  C     -3.072350   -1.593910    0.935860
  O     -2.010200   -1.021640    1.065290
  N     -4.303820   -1.083700    1.383250
  C     -2.958190   -3.980600   -0.292000
  O     -3.988570   -4.833660   -0.568560
  C     -5.199810   -4.299870   -0.115240
  O     -6.234400   -4.886260   -0.254470
  C     -1.643830   -4.321170   -0.655910
  S     -1.268440   -5.820840   -1.452100
  C      0.417880   -5.414590   -1.486450
  C      0.647990   -4.172350   -0.906500
  C     -0.503350   -3.559160   -0.441190
  C      1.382590   -6.292710   -2.041880
  C      2.751870   -6.114470   -2.115240
  C      3.419380   -7.179440   -2.710930
  C      2.580060   -8.201160   -3.111890
  S      0.923600   -7.823300   -2.738390
  C      2.931420   -9.422210   -3.738340
  S      4.595430   -9.823020   -4.058450
  C      4.146740  -11.352800   -4.764340
  C      2.772570  -11.509400   -4.739070
  C      2.097320  -10.435760   -4.166890
  C      5.164260  -12.216060   -5.246660
  C      4.952890  -13.419570   -5.834350
  C      5.976260  -14.284570   -6.299100
  N      5.663240  -15.489030   -6.900190
  C      6.817480  -16.121230   -7.237270
  C      7.343440  -17.271780   -7.816110
  C      8.735470  -17.132330   -7.761510
  N      9.047850  -15.924180   -7.166770
  C      7.893450  -15.289610   -6.836250
  C      7.368050  -14.141950   -6.251600
  C      9.762080  -18.011590   -8.189090
  C      9.561710  -19.221690   -8.767600
  C     10.592610  -20.110850   -9.167170
  S     10.171780  -21.650210   -9.866140
  C     11.844880  -22.099240  -10.027850
  C     12.664280  -21.086910   -9.562850
  C     11.967990  -19.981810   -9.085480
  C     12.231610  -23.355650  -10.560680
  C     13.511650  -23.864280  -10.687430
  C     13.548560  -25.140460  -11.239490
  C     12.300970  -25.642360  -11.553630
  S     11.054360  -24.492850  -11.148490
  C     11.981760  -26.897930  -12.123690
  S     13.216730  -28.064790  -12.477340
  C     12.039040  -29.198020  -13.097540
  C     10.764050  -28.660340  -13.016750
  C     10.732540  -27.383600  -12.473430
  C     12.469070  -30.455020  -13.578550
  C     11.653870  -31.400450  -14.119870
  C     12.073180  -32.662170  -14.596010
  C     11.294770  -33.641260  -15.188080
  C     12.132330  -34.763080  -15.516020
  C     13.493800  -34.438040  -15.090990
  O     14.531330  -35.050280  -15.146840
  N     13.364220  -33.155430  -14.553100
  C     11.333390  -35.690380  -16.094770
  O     10.058240  -35.258630  -16.164310
  C      9.960490  -33.966310  -15.609480
  O      8.913270  -33.376260  -15.562160
  H     -6.354110   -1.671230    1.398150
  H     -4.382860   -0.193080    1.849080
  H      1.627530   -3.737940   -0.830150
  H     -0.541330   -2.597720    0.040250
  H      3.247210   -5.236410   -1.743520
  H      4.484600   -7.221940   -2.854190
  H      2.274910  -12.381400   -5.122330
  H      1.028100  -10.380650   -4.058720
  H      6.177600  -11.863040   -5.121800
  H      3.938450  -13.771110   -5.969160
  H      4.727580  -15.823280   -7.053280
  H      6.812450  -18.106710   -8.225520
  H      9.983310  -15.591750   -7.008910
  H      7.899930  -13.309440   -5.838690
  H     10.774980  -17.669810   -8.020430
  H      8.551300  -19.563440   -8.938450
  H     13.737100  -21.154480   -9.573620
  H     12.452880  -19.108680   -8.688350
  H     14.388050  -23.322820  -10.382220
  H     14.452440  -25.697810  -11.412840
  H      9.886940  -29.189130  -13.342060
  H      9.835750  -26.806900  -12.329910
  H     13.532310  -30.642170  -13.498950
  H     10.595060  -31.214970  -14.220470
  H     14.151280  -32.659330  -14.166100
  H     11.533090  -36.669010  -16.489540

 Total Charge           Charge          ....    0
 Multiplicity           Mult            ....    1
 Number of Electrons    NEL             ....  486
 Basis Dimension        Dim             .... 1050

ORBITAL ENERGIES
----------------

  NO   OCC          E(Eh)            E(eV)
   0   2.0000     -88.966751     -2420.9084
   1   2.0000     -88.965509     -2420.8746
   2   2.0000     -88.962894     -2420.8034
   3   2.0000     -88.961334     -2420.7610
   4   2.0000     -88.956939     -2420.6414
   5   2.0000     -88.955488     -2420.6019
   6   2.0000     -19.275695      -524.5183
   7   2.0000     -19.268765      -524.3297
   8   2.0000     -19.201357      -522.4955
   9   2.0000     -19.195205      -522.3281
  10   2.0000     -19.190545      -522.2013
  11   2.0000     -19.187833      -522.1275
  12   2.0000     -14.458268      -393.4295
  13   2.0000     -14.456370      -393.3778
  14   2.0000     -14.456240      -393.3743
  15   2.0000     -14.455554      -393.3556
  16   2.0000     -10.402028      -283.0536
  17   2.0000     -10.393404      -282.8189
  18   2.0000     -10.382903      -282.5332
  19   2.0000     -10.377118      -282.3757
  20   2.0000     -10.368092      -282.1301
  21   2.0000     -10.349747      -281.6309
  22   2.0000     -10.346675      -281.5473
  23   2.0000     -10.335442      -281.2417
  24   2.0000     -10.320673      -280.8398
  25   2.0000     -10.320280      -280.8291
  26   2.0000     -10.314229      -280.6644
  27   2.0000     -10.312813      -280.6259
  28   2.0000     -10.311282      -280.5842
  29   2.0000     -10.310782      -280.5706
  30   2.0000     -10.310715      -280.5688
  31   2.0000     -10.309685      -280.5408
  32   2.0000     -10.307381      -280.4781
  33   2.0000     -10.306326      -280.4494
  34   2.0000     -10.304790      -280.4076
  35   2.0000     -10.303764      -280.3797
  36   2.0000     -10.303698      -280.3779
  37   2.0000     -10.303687      -280.3776
  38   2.0000     -10.302826      -280.3541
  39   2.0000     -10.291356      -280.0420
  40   2.0000     -10.290808      -280.0271
  41   2.0000     -10.290341      -280.0144
  42   2.0000     -10.288396      -279.9615
  43   2.0000     -10.284137      -279.8456
  44   2.0000     -10.284022      -279.8425
  45   2.0000     -10.283721      -279.8343
  46   2.0000     -10.283561      -279.8299
  47   2.0000     -10.283533      -279.8292
  48   2.0000     -10.282692      -279.8063
  49   2.0000     -10.279757      -279.7264
  50   2.0000     -10.279365      -279.7158
  51   2.0000     -10.279085      -279.7081
  52   2.0000     -10.278822      -279.7010
  53   2.0000     -10.278354      -279.6882
  54   2.0000     -10.277513      -279.6653
  55   2.0000     -10.277052      -279.6528
  56   2.0000     -10.273247      -279.5493
  57   2.0000     -10.272233      -279.5217
  58   2.0000     -10.270245      -279.4676
  59   2.0000     -10.269824      -279.4561
  60   2.0000     -10.266972      -279.3785
  61   2.0000     -10.266139      -279.3559
  62   2.0000     -10.261940      -279.2416
  63   2.0000     -10.261644      -279.2335
  64   2.0000      -8.062537      -219.3928
  65   2.0000      -8.060861      -219.3472
  66   2.0000      -8.058619      -219.2862
  67   2.0000      -8.056916      -219.2398
  68   2.0000      -8.052789      -219.1275
  69   2.0000      -8.051110      -219.0818
  70   2.0000      -6.031790      -164.1334
  71   2.0000      -6.030167      -164.0892
  72   2.0000      -6.027991      -164.0300
  73   2.0000      -6.027812      -164.0251
  74   2.0000      -6.026286      -163.9836
  75   2.0000      -6.025965      -163.9748
  76   2.0000      -6.024541      -163.9361
  77   2.0000      -6.023898      -163.9186
  78   2.0000      -6.022967      -163.8933
  79   2.0000      -6.022179      -163.8718
  80   2.0000      -6.022035      -163.8679
  81   2.0000      -6.020492      -163.8259
  82   2.0000      -6.020403      -163.8235
  83   2.0000      -6.018851      -163.7813
  84   2.0000      -6.018005      -163.7582
  85   2.0000      -6.016385      -163.7142
  86   2.0000      -6.014881      -163.6732
  87   2.0000      -6.013146      -163.6260
  88   2.0000      -1.204803       -32.7843
  89   2.0000      -1.197079       -32.5742
  90   2.0000      -1.130636       -30.7662
  91   2.0000      -1.125923       -30.6379
  92   2.0000      -1.111287       -30.2397
  93   2.0000      -1.102782       -30.0082
  94   2.0000      -1.087554       -29.5938
  95   2.0000      -1.057081       -28.7646
  96   2.0000      -1.053859       -28.6770
  97   2.0000      -1.051388       -28.6097
  98   2.0000      -1.005135       -27.3511
  99   2.0000      -1.003110       -27.2960
 100   2.0000      -0.991130       -26.9700
 101   2.0000      -0.988614       -26.9015
 102   2.0000      -0.973004       -26.4768
 103   2.0000      -0.971014       -26.4226
 104   2.0000      -0.915956       -24.9244
 105   2.0000      -0.907720       -24.7003
 106   2.0000      -0.903545       -24.5867
 107   2.0000      -0.903227       -24.5781
 108   2.0000      -0.902016       -24.5451
 109   2.0000      -0.884240       -24.0614
 110   2.0000      -0.874768       -23.8036
 111   2.0000      -0.864357       -23.5203
 112   2.0000      -0.861675       -23.4474
 113   2.0000      -0.852187       -23.1892
 114   2.0000      -0.849905       -23.1271
 115   2.0000      -0.846879       -23.0448
 116   2.0000      -0.839883       -22.8544
 117   2.0000      -0.836344       -22.7581
 118   2.0000      -0.834176       -22.6991
 119   2.0000      -0.828164       -22.5355
 120   2.0000      -0.823425       -22.4065
 121   2.0000      -0.817094       -22.2343
 122   2.0000      -0.811298       -22.0765
 123   2.0000      -0.799031       -21.7427
 124   2.0000      -0.792158       -21.5557
 125   2.0000      -0.776307       -21.1244
 126   2.0000      -0.765407       -20.8278
 127   2.0000      -0.754219       -20.5233
 128   2.0000      -0.752416       -20.4743
 129   2.0000      -0.749305       -20.3896
 130   2.0000      -0.736106       -20.0305
 131   2.0000      -0.712078       -19.3766
 132   2.0000      -0.701578       -19.0909
 133   2.0000      -0.698656       -19.0114
 134   2.0000      -0.694279       -18.8923
 135   2.0000      -0.691311       -18.8115
 136   2.0000      -0.685552       -18.6548
 137   2.0000      -0.682252       -18.5650
 138   2.0000      -0.681628       -18.5480
 139   2.0000      -0.671195       -18.2641
 140   2.0000      -0.666009       -18.1230
 141   2.0000      -0.654868       -17.8199
 142   2.0000      -0.649678       -17.6786
 143   2.0000      -0.634660       -17.2700
 144   2.0000      -0.629790       -17.1375
 145   2.0000      -0.625223       -17.0132
 146   2.0000      -0.622464       -16.9381
 147   2.0000      -0.618833       -16.8393
 148   2.0000      -0.618295       -16.8247
 149   2.0000      -0.616914       -16.7871
 150   2.0000      -0.613099       -16.6833
 151   2.0000      -0.604018       -16.4362
 152   2.0000      -0.602577       -16.3970
 153   2.0000      -0.601152       -16.3582
 154   2.0000      -0.594450       -16.1758
 155   2.0000      -0.589258       -16.0345
 156   2.0000      -0.584202       -15.8970
 157   2.0000      -0.581317       -15.8184
 158   2.0000      -0.578518       -15.7423
 159   2.0000      -0.576300       -15.6819
 160   2.0000      -0.572019       -15.5654
 161   2.0000      -0.569139       -15.4870
 162   2.0000      -0.565400       -15.3853
 163   2.0000      -0.561972       -15.2920
 164   2.0000      -0.558218       -15.1899
 165   2.0000      -0.552876       -15.0445
 166   2.0000      -0.546104       -14.8603
 167   2.0000      -0.532738       -14.4965
 168   2.0000      -0.532501       -14.4901
 169   2.0000      -0.525245       -14.2926
 170   2.0000      -0.523712       -14.2509
 171   2.0000      -0.521789       -14.1986
 172   2.0000      -0.520748       -14.1703
 173   2.0000      -0.520357       -14.1596
 174   2.0000      -0.516745       -14.0613
 175   2.0000      -0.511571       -13.9206
 176   2.0000      -0.508254       -13.8303
 177   2.0000      -0.506464       -13.7816
 178   2.0000      -0.505804       -13.7636
 179   2.0000      -0.505510       -13.7556
 180   2.0000      -0.503613       -13.7040
 181   2.0000      -0.499842       -13.6014
 182   2.0000      -0.497609       -13.5406
 183   2.0000      -0.497269       -13.5314
 184   2.0000      -0.495590       -13.4857
 185   2.0000      -0.491959       -13.3869
 186   2.0000      -0.489412       -13.3176
 187   2.0000      -0.487812       -13.2740
 188   2.0000      -0.486321       -13.2335
 189   2.0000      -0.483948       -13.1689
 190   2.0000      -0.477234       -12.9862
 191   2.0000      -0.474063       -12.8999
 192   2.0000      -0.472341       -12.8530
 193   2.0000      -0.471338       -12.8258
 194   2.0000      -0.469111       -12.7652
 195   2.0000      -0.466488       -12.6938
 196   2.0000      -0.466101       -12.6832
 197   2.0000      -0.463791       -12.6204
 198   2.0000      -0.461016       -12.5449
 199   2.0000      -0.459139       -12.4938
 200   2.0000      -0.457436       -12.4475
 201   2.0000      -0.454535       -12.3685
 202   2.0000      -0.449780       -12.2391
 203   2.0000      -0.445778       -12.1302
 204   2.0000      -0.445210       -12.1148
 205   2.0000      -0.441446       -12.0124
 206   2.0000      -0.439930       -11.9711
 207   2.0000      -0.437466       -11.9041
 208   2.0000      -0.437409       -11.9025
 209   2.0000      -0.433596       -11.7988
 210   2.0000      -0.431881       -11.7521
 211   2.0000      -0.425847       -11.5879
 212   2.0000      -0.424205       -11.5432
 213   2.0000      -0.417889       -11.3713
 214   2.0000      -0.415317       -11.3014
 215   2.0000      -0.409018       -11.1299
 216   2.0000      -0.407778       -11.0962
 217   2.0000      -0.406495       -11.0613
 218   2.0000      -0.399241       -10.8639
 219   2.0000      -0.386108       -10.5065
 220   2.0000      -0.371335       -10.1045
 221   2.0000      -0.357750        -9.7349
 222   2.0000      -0.357330        -9.7234
 223   2.0000      -0.353403        -9.6166
 224   2.0000      -0.352463        -9.5910
 225   2.0000      -0.349916        -9.5217
 226   2.0000      -0.338846        -9.2205
 227   2.0000      -0.336269        -9.1503
 228   2.0000      -0.334341        -9.0979
 229   2.0000      -0.334051        -9.0900
 230   2.0000      -0.333139        -9.0652
 231   2.0000      -0.332360        -9.0440
 232   2.0000      -0.327961        -8.9243
 233   2.0000      -0.323512        -8.8032
 234   2.0000      -0.322651        -8.7798
 235   2.0000      -0.313403        -8.5281
 236   2.0000      -0.296905        -8.0792
 237   2.0000      -0.288299        -7.8450
 238   2.0000      -0.275414        -7.4944
 239   2.0000      -0.262878        -7.1533
 240   2.0000      -0.245016        -6.6672
 241   2.0000      -0.233877        -6.3641
 242   2.0000      -0.205990        -5.6053
 243   0.0000      -0.082138        -2.2351
 244   0.0000      -0.074807        -2.0356
 245   0.0000      -0.052749        -1.4354
 246   0.0000      -0.034110        -0.9282
 247   0.0000      -0.014083        -0.3832

MULLIKEN ATOMIC CHARGES
-----------------------
   0 C :    0.044074
   1 C :   -0.060813
   2 C :   -0.112161
   3 C :    0.151232
   4 O :   -0.189778
   5 N :   -0.125679
   6 C :    0.208336
   7 O :   -0.257270
   8 C :    0.228608
   9 O :   -0.132455
  10 C :   -0.151310
  11 S :    0.180291
  12 C :   -0.013926
  13 C :   -0.015550
  14 C :    0.033056
  15 C :   -0.049917
  16 C :    0.009535
  17 C :   -0.016217
  18 C :   -0.021942
  19 S :    0.129381
  20 C :   -0.055413
  21 S :    0.116830
  22 C :   -0.060777
  23 C :    0.004564
  24 C :   -0.006933
  25 C :    0.043708
  26 C :    0.007146
  27 C :    0.102911
  28 N :   -0.038029
  29 C :    0.114709
  30 C :   -0.177561
  31 C :    0.104047
  32 N :   -0.038391
  33 C :    0.115025
  34 C :   -0.178478
  35 C :    0.006014
  36 C :    0.043772
  37 C :   -0.062369
  38 S :    0.121238
  39 C :   -0.053689
  40 C :   -0.001137
  41 C :    0.004284
  42 C :   -0.023256
  43 C :   -0.003932
  44 C :   -0.003834
  45 C :   -0.040028
  46 S :    0.125657
  47 C :   -0.035586
  48 S :    0.127672
  49 C :   -0.100237
  50 C :    0.036399
  51 C :   -0.012999
  52 C :    0.077765
  53 C :   -0.002137
  54 C :    0.079487
  55 C :   -0.115801
  56 C :   -0.021243
  57 C :    0.163788
  58 O :   -0.160070
  59 N :   -0.136242
  60 C :    0.091512
  61 O :   -0.246509
  62 C :    0.211946
  63 O :   -0.152165
  64 H :    0.021764
  65 H :    0.133177
  66 H :   -0.015064
  67 H :    0.009083
  68 H :   -0.016055
  69 H :   -0.009655
  70 H :   -0.023570
  71 H :   -0.009350
  72 H :   -0.022720
  73 H :   -0.034567
  74 H :    0.118917
  75 H :   -0.037403
  76 H :    0.118277
  77 H :   -0.038099
  78 H :   -0.035824
  79 H :   -0.022324
  80 H :   -0.020678
  81 H :   -0.025373
  82 H :   -0.020058
  83 H :   -0.011458
  84 H :   -0.000413
  85 H :   -0.006032
  86 H :   -0.023561
  87 H :    0.004503
  88 H :    0.128372
  89 H :    0.028958
Sum of atomic charges:   -0.0000000

LOEWDIN ATOMIC CHARGES
----------------------
   0 C :    0.079264
   1 C :   -0.135980
   2 C :   -0.137866
   3 C :    0.070325
   4 O :   -0.201347
   5 N :    0.031293
   6 C :    0.099903
   7 O :   -0.064463
   8 C :    0.106713
   9 O :   -0.136907
  10 C :   -0.210027
  11 S :    0.460208
  12 C :   -0.160131
  13 C :   -0.060294
  14 C :   -0.001753
  15 C :   -0.195757
  16 C :   -0.038449
  17 C :   -0.067318
  18 C :   -0.169458
  19 S :    0.432844
  20 C :   -0.194528
  21 S :    0.429959
  22 C :   -0.159706
  23 C :   -0.063041
  24 C :   -0.053184
  25 C :   -0.052647
  26 C :   -0.026138
  27 C :   -0.004041
  28 N :    0.068488
  29 C :   -0.021226
  30 C :   -0.094344
  31 C :   -0.004853
  32 N :    0.068224
  33 C :   -0.021068
  34 C :   -0.095325
  35 C :   -0.026308
  36 C :   -0.053305
  37 C :   -0.160639
  38 S :    0.424304
  39 C :   -0.197713
  40 C :   -0.046703
  41 C :   -0.064322
  42 C :   -0.172183
  43 C :   -0.058886
  44 C :   -0.050330
  45 C :   -0.194237
  46 S :    0.431040
  47 C :   -0.166162
  48 S :    0.437379
  49 C :   -0.184219
  50 C :   -0.026610
  51 C :   -0.063745
  52 C :   -0.007418
  53 C :   -0.045284
  54 C :    0.081439
  55 C :   -0.140166
  56 C :   -0.124928
  57 C :    0.080551
  58 O :   -0.177116
  59 N :    0.018887
  60 C :    0.120576
  61 O :   -0.054925
  62 C :    0.098577
  63 O :   -0.155832
  64 H :    0.034627
  65 H :    0.091087
  66 H :    0.031753
  67 H :    0.040303
  68 H :    0.031513
  69 H :    0.027721
  70 H :    0.026606
  71 H :    0.027663
  72 H :    0.026032
  73 H :    0.025386
  74 H :    0.087794
  75 H :    0.022259
  76 H :    0.087375
  77 H :    0.021928
  78 H :    0.024885
  79 H :    0.026400
  80 H :    0.029080
  81 H :    0.026127
  82 H :    0.029706
  83 H :    0.027716
  84 H :    0.036361
  85 H :    0.029379
  86 H :    0.025460
  87 H :    0.044256
  88 H :    0.085413
  89 H :    0.034075

  Mayer bond orders larger than 0.100000
B(  0-C ,  1-C ) :   1.5104 B(  0-C ,  5-N ) :   1.1938 B(  0-C , 64-H ) :   0.9830
B(  1-C ,  2-C ) :   1.1556 B(  1-C ,  8-C ) :   0.9587 B(  2-C ,  3-C ) :   0.9684
B(  2-C ,  6-C ) :   1.4400 B(  3-C ,  4-O ) :   2.1287 B(  3-C ,  5-N ) :   1.0795
B(  5-N , 65-H ) :   0.9285 B(  6-C ,  7-O ) :   1.1773 B(  6-C , 10-C ) :   1.1969
B(  7-O ,  8-C ) :   0.9809 B(  8-C ,  9-O ) :   2.2720 B( 10-C , 11-S ) :   1.0799
B( 10-C , 12-C ) :   0.1110 B( 10-C , 14-C ) :   1.4629 B( 11-S , 12-C ) :   1.1438
B( 12-C , 13-C ) :   1.4625 B( 12-C , 15-C ) :   1.1260 B( 13-C , 14-C ) :   1.3033
B( 13-C , 66-H ) :   0.9994 B( 14-C , 67-H ) :   0.9760 B( 15-C , 16-C ) :   1.5085
B( 15-C , 18-C ) :   0.1058 B( 15-C , 19-S ) :   1.1040 B( 16-C , 17-C ) :   1.2807
B( 16-C , 68-H ) :   0.9949 B( 17-C , 18-C ) :   1.4810 B( 17-C , 69-H ) :   0.9930
B( 18-C , 19-S ) :   1.1332 B( 18-C , 20-C ) :   1.1643 B( 20-C , 21-S ) :   1.1179
B( 20-C , 24-C ) :   1.4815 B( 21-S , 22-C ) :   1.1179 B( 22-C , 23-C ) :   1.4854
B( 22-C , 25-C ) :   1.1212 B( 23-C , 24-C ) :   1.2888 B( 23-C , 70-H ) :   0.9916
B( 24-C , 71-H ) :   0.9925 B( 25-C , 26-C ) :   1.6859 B( 25-C , 72-H ) :   0.9627
B( 26-C , 27-C ) :   1.1204 B( 26-C , 73-H ) :   0.9625 B( 27-C , 28-N ) :   1.1677
B( 27-C , 34-C ) :   1.4023 B( 28-N , 29-C ) :   1.1660 B( 28-N , 74-H ) :   0.9374
B( 29-C , 30-C ) :   1.2620 B( 29-C , 33-C ) :   1.3098 B( 30-C , 31-C ) :   1.4019
B( 30-C , 75-H ) :   1.0304 B( 31-C , 32-N ) :   1.1663 B( 31-C , 35-C ) :   1.1211
B( 32-N , 33-C ) :   1.1666 B( 32-N , 76-H ) :   0.9375 B( 33-C , 34-C ) :   1.2611
B( 34-C , 77-H ) :   1.0303 B( 35-C , 36-C ) :   1.6845 B( 35-C , 78-H ) :   0.9616
B( 36-C , 37-C ) :   1.1230 B( 36-C , 79-H ) :   0.9633 B( 37-C , 38-S ) :   1.1201
B( 37-C , 39-C ) :   0.1048 B( 37-C , 41-C ) :   1.4795 B( 38-S , 39-C ) :   1.1134
B( 39-C , 40-C ) :   1.5002 B( 39-C , 42-C ) :   1.1237 B( 40-C , 41-C ) :   1.2903
B( 40-C , 80-H ) :   0.9960 B( 41-C , 81-H ) :   0.9909 B( 42-C , 43-C ) :   1.5093
B( 42-C , 45-C ) :   0.1053 B( 42-C , 46-S ) :   1.1241 B( 43-C , 44-C ) :   1.2797
B( 43-C , 82-H ) :   0.9956 B( 44-C , 45-C ) :   1.4863 B( 44-C , 83-H ) :   0.9922
B( 45-C , 46-S ) :   1.1116 B( 45-C , 47-C ) :   1.1685 B( 47-C , 48-S ) :   1.1471
B( 47-C , 51-C ) :   1.4586 B( 48-S , 49-C ) :   1.0939 B( 49-C , 50-C ) :   1.4711
B( 49-C , 52-C ) :   1.1526 B( 50-C , 51-C ) :   1.3065 B( 50-C , 84-H ) :   0.9915
B( 51-C , 85-H ) :   0.9925 B( 52-C , 53-C ) :   1.5882 B( 52-C , 86-H ) :   0.9636
B( 53-C , 54-C ) :   1.2120 B( 53-C , 87-H ) :   0.9549 B( 54-C , 55-C ) :   1.3694
B( 54-C , 59-N ) :   1.1819 B( 55-C , 56-C ) :   1.1549 B( 55-C , 62-C ) :   1.0106
B( 56-C , 57-C ) :   0.9043 B( 56-C , 60-C ) :   1.5559 B( 57-C , 58-O ) :   2.2500
B( 57-C , 59-N ) :   1.0554 B( 59-N , 88-H ) :   0.9197 B( 60-C , 61-O ) :   1.1470
B( 60-C , 89-H ) :   1.0010 B( 61-O , 62-C ) :   0.9917 B( 62-C , 63-O ) :   2.2216

-----------------------------------------------------------------------------
         ABSORPTION SPECTRUM VIA TRANSITION ELECTRIC DIPOLE MOMENTS
-----------------------------------------------------------------------------
State   Energy  Wavelength   fosc         T2         TX        TY        TZ
        (cm-1)    (nm)                  (au**2)     (au)      (au)      (au)
-----------------------------------------------------------------------------
   0   15525.7    644.1   3.994463779  84.69984  -3.53212   7.60424   3.79466
   1   17982.3    556.1   0.336562644   6.16165  -2.45611  -0.02989   0.35819
   2   21704.0    460.7   0.184095460   2.79240  -1.23157  -0.94973  -0.61126
   3   22324.0    447.9   0.267484980   3.94460   0.74641   1.70583   0.69110
   4   23376.9    427.8   0.602812096   8.48927   1.27344  -2.28210  -1.28828
   5   26050.9    383.9   0.014904167   0.18835   0.07276   0.36225   0.22766
   6   26480.8    377.6   0.086005527   1.06923  -1.00047   0.25520  -0.05619
   7   27579.7    362.6   0.006743669   0.08050   0.28194  -0.02953  -0.01176
   8   28885.8    346.2   0.035677238   0.40661  -0.61817   0.13061   0.08612
   9   29193.1    342.5   0.025183487   0.28400   0.30057  -0.42928  -0.09678
  10   30287.4    330.2   0.038369202   0.41706   0.64147   0.04329  -0.06087
  11   31013.2    322.4   0.020896564   0.22182  -0.36822  -0.29207  -0.03055
  12   32001.3    312.5   0.001454001   0.01496   0.02879  -0.11797   0.01455
  13   32326.9    309.3   0.000467948   0.00477   0.01246   0.02074  -0.06465
  14   32537.7    307.3   0.000567402   0.00574  -0.00837   0.03154  -0.06838
  15   32664.4    306.1   0.000155011   0.00156  -0.01429   0.03678   0.00229
  16   33105.9    302.1   0.051199886   0.50914   0.41036   0.50589   0.29124
  17   33608.8    297.5   0.073264949   0.71766  -0.21424  -0.77864  -0.25588
  18   34340.3    291.2   0.013923069   0.13348   0.06843  -0.30751  -0.18502
  19   35367.7    282.7   0.067409077   0.62746   0.35306  -0.64848  -0.28685
  20   35557.0    281.2   0.052705157   0.48798  -0.59175   0.31794   0.19165
  21   36011.9    277.7   0.010581774   0.09674   0.00230   0.28666   0.12065
  22   36143.0    276.7   0.003232487   0.02944   0.07984   0.14086   0.05681
  23   36513.9    273.9   0.111687691   1.00698  -0.93038  -0.31557  -0.20443
  24   37102.1    269.5   0.026647681   0.23645   0.24651   0.39331   0.14488
  25   37857.9    264.1   0.030001870   0.26090  -0.15376  -0.45230  -0.18078
  26   38046.9    262.8   0.007167196   0.06202  -0.01555  -0.19584  -0.15303
  27   38144.9    262.2   0.013529534   0.11677   0.03504   0.31367   0.13095
  28   38742.3    258.1   0.015461699   0.13139  -0.01433  -0.35512  -0.07120
  29   39138.7    255.5   0.011479144   0.09656  -0.26495  -0.15678  -0.04215
  30   39319.3    254.3   0.005105154   0.04274  -0.18809   0.03182   0.07970
  31   39498.1    253.2   0.007160861   0.05968  -0.24389   0.00287   0.01400
  32   39680.9    252.0   0.045226960   0.37523   0.25905  -0.51524  -0.20651
  33   40213.9    248.7   0.001931823   0.01581   0.09055   0.04171   0.07665

FINAL SINGLE POINT ENERGY     -4900.377353974879

DIPOLE MOMENT
-------------
                                X             Y             Z
Electronic contribution:    -21.59592       3.42091       4.03604
Nuclear contribution   :     23.64778      -0.64278      -2.77692
                        -----------------------------------------
Total Dipole Moment    :      2.05186       2.77813       1.25912
                        -----------------------------------------
Magnitude (a.u.)       :      3.67608
Magnitude (Debye)      :      9.34385

Rotational constants in cm-1:     0.003308     0.000098     0.000096
Rotational constants in MHz :    99.159512     2.947113     2.864391

                             ****ORCA TERMINATED NORMALLY****
TOTAL RUN TIME: 0 days 0 hours 6 minutes 58 seconds 705 msec
