                         Program Version 4.2.0 -  RELEASE  -
|  1> # ORCA input file
|  2> # SCF done       -163.015603492730          0.000286668156
|  3> ! CAM-B3LYP def2-SVP def2/J RIJCOSX Grid4 TightSCF
|  4> %maxcore 5000
|  5> %tddft
|  6>     Mode sTDDFT
|  7>     Ethresh 5.0
|  8>     maxcore 5000
|  9> end
| 10>
| 11> %pal
| 12>   nprocs 6
| 13>   end
| 14> * xyz 0 1
| 15>    C       -4.07102        -2.07090         8.49852
| 16>    C       -4.01248        -2.90487         9.60641
| 17>    C       -3.76994        -4.26252         9.46738
| 18>    C       -3.56767        -4.82503         8.21505
| 19>    C       -3.62245        -4.00213         7.10377
| 20>    C       -3.88211        -2.62101         7.24181
| 21>    C       -3.92190        -2.01836         5.91284
| 22>    C       -4.12451        -0.68303         5.65413
| 23>    C       -4.26056         0.30440         6.65050
| 24>    N       -4.37666         1.16530         7.40218
| 25>    C       -4.21451        -0.08804         4.38081
| 26>    N       -4.31408         0.47706         3.38430
| 27>    C       -3.76653        -3.09300         4.95385
| 28>    C       -3.42515        -4.28987         5.68887
| 29>    C       -2.77567        -5.39920         5.19778
| 30>    C       -2.31569        -5.53020         3.87480
| 31>    N       -1.88124        -5.68476         2.82228
| 32>    C       -2.41780        -6.51549         5.97651
| 33>    N       -2.12635        -7.47132         6.54382
| 34>    C       -3.96493        -2.94429         3.58881
| 35>    C       -4.34976        -3.88984         2.64232
| 36>    C       -4.89302        -5.16440         2.82221
| 37>    C       -5.22469        -5.69382         1.58118
| 38>    C       -4.90409        -4.79162         0.56667
| 39>    C       -4.32697        -3.56677         1.16402
| 40>    C       -5.22348        -5.33564        -0.68139
| 41>    C       -5.75557        -6.60100        -0.49553
| 42>    C       -5.79419        -6.93060         0.98148
| 43>    C       -6.20728        -7.48145        -1.49670
| 44>    N       -6.70585        -8.73933        -1.20851
| 45>    C       -7.06366        -9.34118        -2.37188
| 46>    C       -7.60026       -10.49831        -2.91598
| 47>    C       -7.65223       -10.28890        -4.30502
| 48>    N       -7.15357        -9.03166        -4.59189
| 49>    C       -6.78718        -8.43169        -3.43100
| 50>    C       -6.25197        -7.27492        -2.88744
| 51>    C       -8.12287       -11.12836        -5.33605
| 52>    C       -8.62504       -12.38645        -5.16487
| 53>    C       -9.11938       -13.19645        -6.20221
| 54>    C       -9.64060       -14.47405        -6.05073
| 55>    C      -10.05646       -14.94853        -7.29752
| 56>    C       -9.81304       -13.98579        -8.27905
| 57>    C       -9.18462       -12.79078        -7.65787
| 58>    C      -10.26559       -14.43098        -9.51459
| 59>    C      -10.81138       -15.70810        -9.36666
| 60>    C      -10.69447       -16.13158        -7.91891
| 61>    C      -11.31314       -16.57011       -10.33947
| 62>    C      -11.68072       -16.28283       -11.64545
| 63>    C      -11.66182       -17.24438       -12.72848
| 64>    C      -11.45036       -18.60042       -12.64430
| 65>    C      -11.21712       -19.32955       -11.46222
| 66>    N      -11.00940       -19.99736       -10.54957
| 67>    C      -11.45388       -19.47194       -13.75179
| 68>    N      -11.44624       -20.24367       -14.60268
| 69>    C      -11.85944       -16.49782       -13.96744
| 70>    C      -12.08506       -15.14121       -13.64665
| 71>    C      -12.26938       -14.20006       -14.64441
| 72>    C      -12.23111       -14.61949       -15.96652
| 73>    C      -12.02237       -15.95269       -16.28378
| 74>    C      -11.83485       -16.90437       -15.29104
| 75>    C      -12.10254       -15.01303       -12.19554
| 76>    C      -12.68207       -13.97227       -11.50747
| 77>    C      -13.12983       -12.78029       -12.10685
| 78>    N      -13.48344       -11.77001       -12.52476
| 79>    C      -12.97594       -13.99390       -10.13133
| 80>    N      -13.28738       -13.96414        -9.02573
| 81>    H       -4.26264        -1.01869         8.62799
| 82>    H       -4.16214        -2.48611        10.58995
| 83>    H       -3.73742        -4.89355        10.34252
| 84>    H       -3.38419        -5.88299         8.11982
| 85>    H       -3.88616        -1.93473         3.20662
| 86>    H       -5.07215        -5.63847         3.77106
| 87>    H       -4.90243        -2.66794         0.93615
| 88>    H       -3.30315        -3.39317         0.82568
| 89>    H       -5.07975        -4.85625        -1.63132
| 90>    H       -5.18112        -7.80423         1.21356
| 91>    H       -6.81144        -7.12681         1.32700
| 92>    H       -6.77001        -9.13289        -0.28634
| 93>    H       -7.92142       -11.38215        -2.40423
| 94>    H       -7.08687        -8.64249        -5.51651
| 95>    H       -5.93250        -6.38833        -3.39511
| 96>    H       -8.07795       -10.71626        -6.33605
| 97>    H       -8.66154       -12.80306        -4.16836
| 98>    H       -9.71373       -15.00142        -5.11677
| 99>    H       -9.79590       -11.89732        -7.79633
|100>    H       -8.19275       -12.58650        -8.06502
|101>    H      -10.17125       -13.89756       -10.44414
|102>    H      -10.10206       -17.04180        -7.81024
|103>    H      -11.68139       -16.33136        -7.49615
|104>    H      -11.35282       -17.61150       -10.04743
|105>    H      -12.42816       -13.15988       -14.41017
|106>    H      -12.36595       -13.89544       -16.75562
|107>    H      -12.00136       -16.25915       -17.31854
|108>    H      -11.67217       -17.93509       -15.55902
|109> *
|110>
|111>                          ****END OF INPUT****

CARTESIAN COORDINATES (ANGSTROEM)
---------------------------------
  C     -4.071020   -2.070900    8.498520
  C     -4.012480   -2.904870    9.606410
  C     -3.769940   -4.262520    9.467380
  C     -3.567670   -4.825030    8.215050
  C     -3.622450   -4.002130    7.103770
  C     -3.882110   -2.621010    7.241810
  C     -3.921900   -2.018360    5.912840
  C     -4.124510   -0.683030    5.654130
  C     -4.260560    0.304400    6.650500
  N     -4.376660    1.165300    7.402180
  C     -4.214510   -0.088040    4.380810
  N     -4.314080    0.477060    3.384300
  C     -3.766530   -3.093000    4.953850
  C     -3.425150   -4.289870    5.688870
  C     -2.775670   -5.399200    5.197780
  C     -2.315690   -5.530200    3.874800
  N     -1.881240   -5.684760    2.822280
  C     -2.417800   -6.515490    5.976510
  N     -2.126350   -7.471320    6.543820
  C     -3.964930   -2.944290    3.588810
  C     -4.349760   -3.889840    2.642320
  C     -4.893020   -5.164400    2.822210
  C     -5.224690   -5.693820    1.581180
  C     -4.904090   -4.791620    0.566670
  C     -4.326970   -3.566770    1.164020
  C     -5.223480   -5.335640   -0.681390
  C     -5.755570   -6.601000   -0.495530
  C     -5.794190   -6.930600    0.981480
  C     -6.207280   -7.481450   -1.496700
  N     -6.705850   -8.739330   -1.208510
  C     -7.063660   -9.341180   -2.371880
  C     -7.600260  -10.498310   -2.915980
  C     -7.652230  -10.288900   -4.305020
  N     -7.153570   -9.031660   -4.591890
  C     -6.787180   -8.431690   -3.431000
  C     -6.251970   -7.274920   -2.887440
  C     -8.122870  -11.128360   -5.336050
  C     -8.625040  -12.386450   -5.164870
  C     -9.119380  -13.196450   -6.202210
  C     -9.640600  -14.474050   -6.050730
  C    -10.056460  -14.948530   -7.297520
  C     -9.813040  -13.985790   -8.279050
  C     -9.184620  -12.790780   -7.657870
  C    -10.265590  -14.430980   -9.514590
  C    -10.811380  -15.708100   -9.366660
  C    -10.694470  -16.131580   -7.918910
  C    -11.313140  -16.570110  -10.339470
  C    -11.680720  -16.282830  -11.645450
  C    -11.661820  -17.244380  -12.728480
  C    -11.450360  -18.600420  -12.644300
  C    -11.217120  -19.329550  -11.462220
  N    -11.009400  -19.997360  -10.549570
  C    -11.453880  -19.471940  -13.751790
  N    -11.446240  -20.243670  -14.602680
  C    -11.859440  -16.497820  -13.967440
  C    -12.085060  -15.141210  -13.646650
  C    -12.269380  -14.200060  -14.644410
  C    -12.231110  -14.619490  -15.966520
  C    -12.022370  -15.952690  -16.283780
  C    -11.834850  -16.904370  -15.291040
  C    -12.102540  -15.013030  -12.195540
  C    -12.682070  -13.972270  -11.507470
  C    -13.129830  -12.780290  -12.106850
  N    -13.483440  -11.770010  -12.524760
  C    -12.975940  -13.993900  -10.131330
  N    -13.287380  -13.964140   -9.025730
  H     -4.262640   -1.018690    8.627990
  H     -4.162140   -2.486110   10.589950
  H     -3.737420   -4.893550   10.342520
  H     -3.384190   -5.882990    8.119820
  H     -3.886160   -1.934730    3.206620
  H     -5.072150   -5.638470    3.771060
  H     -4.902430   -2.667940    0.936150
  H     -3.303150   -3.393170    0.825680
  H     -5.079750   -4.856250   -1.631320
  H     -5.181120   -7.804230    1.213560
  H     -6.811440   -7.126810    1.327000
  H     -6.770010   -9.132890   -0.286340
  H     -7.921420  -11.382150   -2.404230
  H     -7.086870   -8.642490   -5.516510
  H     -5.932500   -6.388330   -3.395110
  H     -8.077950  -10.716260   -6.336050
  H     -8.661540  -12.803060   -4.168360
  H     -9.713730  -15.001420   -5.116770
  H     -9.795900  -11.897320   -7.796330
  H     -8.192750  -12.586500   -8.065020
  H    -10.171250  -13.897560  -10.444140
  H    -10.102060  -17.041800   -7.810240
  H    -11.681390  -16.331360   -7.496150
  H    -11.352820  -17.611500  -10.047430
  H    -12.428160  -13.159880  -14.410170
  H    -12.365950  -13.895440  -16.755620
  H    -12.001360  -16.259150  -17.318540
  H    -11.672170  -17.935090  -15.559020

 Total Charge           Charge          ....    0
 Multiplicity           Mult            ....    1
 Number of Electrons    NEL             ....  434
 Basis Dimension        Dim             .... 1064

ORBITAL ENERGIES
----------------

  NO   OCC          E(Eh)            E(eV)
   0   2.0000     -14.485507      -394.1707
   1   2.0000     -14.484438      -394.1416
   2   2.0000     -14.414427      -392.2365
   3   2.0000     -14.412333      -392.1795
   4   2.0000     -14.411842      -392.1662
   5   2.0000     -14.411421      -392.1547
   6   2.0000     -14.409715      -392.1083
   7   2.0000     -14.409049      -392.0902
   8   2.0000     -14.407251      -392.0412
   9   2.0000     -14.404941      -391.9784
  10   2.0000     -10.336437      -281.2688
  11   2.0000     -10.335874      -281.2534
  12   2.0000     -10.335082      -281.2319
  13   2.0000     -10.334931      -281.2278
  14   2.0000     -10.334386      -281.2129
  15   2.0000     -10.333996      -281.2023
  16   2.0000     -10.333600      -281.1916
  17   2.0000     -10.333042      -281.1764
  18   2.0000     -10.332421      -281.1595
  19   2.0000     -10.331694      -281.1397
  20   2.0000     -10.323937      -280.9286
  21   2.0000     -10.322299      -280.8840
  22   2.0000     -10.321559      -280.8639
  23   2.0000     -10.317432      -280.7516
  24   2.0000     -10.315582      -280.7013
  25   2.0000     -10.315512      -280.6994
  26   2.0000     -10.315223      -280.6915
  27   2.0000     -10.314008      -280.6584
  28   2.0000     -10.313711      -280.6503
  29   2.0000     -10.313630      -280.6481
  30   2.0000     -10.313293      -280.6390
  31   2.0000     -10.312161      -280.6082
  32   2.0000     -10.312139      -280.6076
  33   2.0000     -10.311558      -280.5918
  34   2.0000     -10.311379      -280.5869
  35   2.0000     -10.311228      -280.5828
  36   2.0000     -10.309093      -280.5247
  37   2.0000     -10.309013      -280.5225
  38   2.0000     -10.307478      -280.4807
  39   2.0000     -10.306307      -280.4489
  40   2.0000     -10.306001      -280.4406
  41   2.0000     -10.301722      -280.3241
  42   2.0000     -10.301409      -280.3156
  43   2.0000     -10.299851      -280.2732
  44   2.0000     -10.299136      -280.2537
  45   2.0000     -10.299124      -280.2534
  46   2.0000     -10.298797      -280.2445
  47   2.0000     -10.298188      -280.2280
  48   2.0000     -10.297883      -280.2196
  49   2.0000     -10.297769      -280.2165
  50   2.0000     -10.296854      -280.1916
  51   2.0000     -10.296547      -280.1833
  52   2.0000     -10.295536      -280.1558
  53   2.0000     -10.294419      -280.1254
  54   2.0000     -10.293759      -280.1074
  55   2.0000     -10.293150      -280.0909
  56   2.0000     -10.292742      -280.0797
  57   2.0000     -10.291779      -280.0536
  58   2.0000     -10.291610      -280.0489
  59   2.0000     -10.290790      -280.0266
  60   2.0000     -10.290656      -280.0230
  61   2.0000     -10.289748      -279.9983
  62   2.0000     -10.289336      -279.9871
  63   2.0000     -10.288420      -279.9622
  64   2.0000     -10.288296      -279.9588
  65   2.0000     -10.287380      -279.9338
  66   2.0000      -1.117520       -30.4093
  67   2.0000      -1.081049       -29.4168
  68   2.0000      -1.025455       -27.9040
  69   2.0000      -1.022920       -27.8351
  70   2.0000      -1.013460       -27.5776
  71   2.0000      -1.013221       -27.5711
  72   2.0000      -1.008515       -27.4431
  73   2.0000      -1.006525       -27.3889
  74   2.0000      -0.998159       -27.1613
  75   2.0000      -0.995900       -27.0998
  76   2.0000      -0.991450       -26.9787
  77   2.0000      -0.989291       -26.9200
  78   2.0000      -0.987986       -26.8845
  79   2.0000      -0.985851       -26.8264
  80   2.0000      -0.957376       -26.0515
  81   2.0000      -0.953874       -25.9562
  82   2.0000      -0.945270       -25.7221
  83   2.0000      -0.941524       -25.6202
  84   2.0000      -0.928328       -25.2611
  85   2.0000      -0.925792       -25.1921
  86   2.0000      -0.919007       -25.0075
  87   2.0000      -0.897115       -24.4117
  88   2.0000      -0.892486       -24.2858
  89   2.0000      -0.884410       -24.0660
  90   2.0000      -0.882242       -24.0070
  91   2.0000      -0.876828       -23.8597
  92   2.0000      -0.870800       -23.6957
  93   2.0000      -0.856581       -23.3088
  94   2.0000      -0.854713       -23.2579
  95   2.0000      -0.853801       -23.2331
  96   2.0000      -0.853625       -23.2283
  97   2.0000      -0.840286       -22.8654
  98   2.0000      -0.817949       -22.2575
  99   2.0000      -0.802961       -21.8497
 100   2.0000      -0.797484       -21.7006
 101   2.0000      -0.795247       -21.6398
 102   2.0000      -0.785873       -21.3847
 103   2.0000      -0.780963       -21.2511
 104   2.0000      -0.778499       -21.1840
 105   2.0000      -0.750295       -20.4166
 106   2.0000      -0.735295       -20.0084
 107   2.0000      -0.720443       -19.6042
 108   2.0000      -0.713206       -19.4073
 109   2.0000      -0.708165       -19.2701
 110   2.0000      -0.706035       -19.2122
 111   2.0000      -0.703508       -19.1434
 112   2.0000      -0.701152       -19.0793
 113   2.0000      -0.698156       -18.9978
 114   2.0000      -0.691911       -18.8279
 115   2.0000      -0.682311       -18.5666
 116   2.0000      -0.670582       -18.2475
 117   2.0000      -0.661466       -17.9994
 118   2.0000      -0.659605       -17.9488
 119   2.0000      -0.655035       -17.8244
 120   2.0000      -0.653966       -17.7953
 121   2.0000      -0.652401       -17.7527
 122   2.0000      -0.650773       -17.7084
 123   2.0000      -0.641486       -17.4557
 124   2.0000      -0.635040       -17.2803
 125   2.0000      -0.629534       -17.1305
 126   2.0000      -0.625391       -17.0178
 127   2.0000      -0.612726       -16.6731
 128   2.0000      -0.611490       -16.6395
 129   2.0000      -0.604629       -16.4528
 130   2.0000      -0.597530       -16.2596
 131   2.0000      -0.587560       -15.9883
 132   2.0000      -0.576853       -15.6970
 133   2.0000      -0.575786       -15.6679
 134   2.0000      -0.574530       -15.6337
 135   2.0000      -0.571829       -15.5603
 136   2.0000      -0.570120       -15.5138
 137   2.0000      -0.565705       -15.3936
 138   2.0000      -0.563027       -15.3207
 139   2.0000      -0.558948       -15.2098
 140   2.0000      -0.557030       -15.1575
 141   2.0000      -0.545053       -14.8317
 142   2.0000      -0.544080       -14.8052
 143   2.0000      -0.539537       -14.6816
 144   2.0000      -0.538695       -14.6586
 145   2.0000      -0.537317       -14.6211
 146   2.0000      -0.532429       -14.4881
 147   2.0000      -0.531216       -14.4551
 148   2.0000      -0.528819       -14.3899
 149   2.0000      -0.527842       -14.3633
 150   2.0000      -0.527154       -14.3446
 151   2.0000      -0.525330       -14.2950
 152   2.0000      -0.512068       -13.9341
 153   2.0000      -0.510756       -13.8984
 154   2.0000      -0.503988       -13.7142
 155   2.0000      -0.501876       -13.6567
 156   2.0000      -0.500815       -13.6279
 157   2.0000      -0.499961       -13.6046
 158   2.0000      -0.496598       -13.5131
 159   2.0000      -0.493792       -13.4368
 160   2.0000      -0.490168       -13.3381
 161   2.0000      -0.488878       -13.3030
 162   2.0000      -0.484371       -13.1804
 163   2.0000      -0.480652       -13.0792
 164   2.0000      -0.475201       -12.9309
 165   2.0000      -0.473118       -12.8742
 166   2.0000      -0.471754       -12.8371
 167   2.0000      -0.467522       -12.7219
 168   2.0000      -0.458678       -12.4813
 169   2.0000      -0.456758       -12.4290
 170   2.0000      -0.456556       -12.4235
 171   2.0000      -0.454780       -12.3752
 172   2.0000      -0.454203       -12.3595
 173   2.0000      -0.450555       -12.2602
 174   2.0000      -0.449381       -12.2283
 175   2.0000      -0.448701       -12.2098
 176   2.0000      -0.448200       -12.1961
 177   2.0000      -0.447754       -12.1840
 178   2.0000      -0.446597       -12.1525
 179   2.0000      -0.444997       -12.1090
 180   2.0000      -0.443242       -12.0612
 181   2.0000      -0.441551       -12.0152
 182   2.0000      -0.439642       -11.9633
 183   2.0000      -0.439455       -11.9582
 184   2.0000      -0.437363       -11.9013
 185   2.0000      -0.437108       -11.8943
 186   2.0000      -0.435045       -11.8382
 187   2.0000      -0.429809       -11.6957
 188   2.0000      -0.428411       -11.6577
 189   2.0000      -0.426815       -11.6142
 190   2.0000      -0.423767       -11.5313
 191   2.0000      -0.421548       -11.4709
 192   2.0000      -0.421281       -11.4636
 193   2.0000      -0.419229       -11.4078
 194   2.0000      -0.415217       -11.2986
 195   2.0000      -0.414334       -11.2746
 196   2.0000      -0.412571       -11.2266
 197   2.0000      -0.406080       -11.0500
 198   2.0000      -0.403792       -10.9877
 199   2.0000      -0.401140       -10.9156
 200   2.0000      -0.400697       -10.9035
 201   2.0000      -0.398319       -10.8388
 202   2.0000      -0.391928       -10.6649
 203   2.0000      -0.384217       -10.4551
 204   2.0000      -0.375332       -10.2133
 205   2.0000      -0.373153       -10.1540
 206   2.0000      -0.369973       -10.0675
 207   2.0000      -0.350910        -9.5488
 208   2.0000      -0.332789        -9.0556
 209   2.0000      -0.324544        -8.8313
 210   2.0000      -0.322284        -8.7698
 211   2.0000      -0.317981        -8.6527
 212   2.0000      -0.309417        -8.4197
 213   2.0000      -0.301769        -8.2116
 214   2.0000      -0.281293        -7.6544
 215   2.0000      -0.252026        -6.8580
 216   2.0000      -0.224810        -6.1174
 217   0.0000      -0.116375        -3.1667
 218   0.0000      -0.094848        -2.5810
 219   0.0000      -0.079798        -2.1714
 220   0.0000      -0.077581        -2.1111
 221   0.0000      -0.051504        -1.4015

MULLIKEN ATOMIC CHARGES
-----------------------
   0 C :   -0.037468
   1 C :    0.044334
   2 C :    0.044471
   3 C :   -0.038927
   4 C :   -0.003889
   5 C :    0.009711
   6 C :    0.314389
   7 C :   -0.365915
   8 C :   -0.191889
   9 N :    0.148928
  10 C :   -0.183143
  11 N :    0.133872
  12 C :   -0.078217
  13 C :    0.247458
  14 C :   -0.367798
  15 C :   -0.207768
  16 N :    0.159548
  17 C :   -0.181274
  18 N :    0.143656
  19 C :    0.031624
  20 C :   -0.161675
  21 C :    0.016987
  22 C :   -0.159820
  23 C :   -0.050684
  24 C :    0.291432
  25 C :   -0.075586
  26 C :   -0.094423
  27 C :    0.305533
  28 C :    0.081358
  29 N :   -0.042355
  30 C :    0.123913
  31 C :   -0.165838
  32 C :    0.118664
  33 N :   -0.032234
  34 C :    0.130132
  35 C :   -0.164990
  36 C :   -0.005454
  37 C :   -0.001091
  38 C :   -0.085563
  39 C :   -0.061129
  40 C :   -0.054100
  41 C :   -0.138578
  42 C :    0.308018
  43 C :    0.017585
  44 C :   -0.168098
  45 C :    0.288701
  46 C :    0.035620
  47 C :   -0.078866
  48 C :    0.314829
  49 C :   -0.364366
  50 C :   -0.182212
  51 N :    0.136199
  52 C :   -0.191939
  53 N :    0.150216
  54 C :    0.010038
  55 C :   -0.005711
  56 C :   -0.036817
  57 C :    0.043252
  58 C :    0.044010
  59 C :   -0.034237
  60 C :    0.246684
  61 C :   -0.368603
  62 C :   -0.181100
  63 N :    0.147778
  64 C :   -0.205093
  65 N :    0.160794
  66 H :    0.002291
  67 H :   -0.002154
  68 H :   -0.001327
  69 H :    0.001064
  70 H :    0.005879
  71 H :    0.000097
  72 H :    0.054281
  73 H :    0.052423
  74 H :   -0.022943
  75 H :    0.045990
  76 H :    0.037937
  77 H :    0.128902
  78 H :   -0.026581
  79 H :    0.125916
  80 H :   -0.028200
  81 H :   -0.021883
  82 H :   -0.021205
  83 H :   -0.020649
  84 H :    0.047158
  85 H :    0.039855
  86 H :    0.000665
  87 H :    0.055403
  88 H :    0.053218
  89 H :    0.008710
  90 H :    0.000721
  91 H :    0.000082
  92 H :   -0.000456
  93 H :    0.001921
Sum of atomic charges:   -0.0000000

LOEWDIN ATOMIC CHARGES
----------------------
   0 C :    0.001384
   1 C :   -0.003859
   2 C :   -0.002677
   3 C :   -0.003806
   4 C :   -0.012451
   5 C :   -0.012910
   6 C :    0.077388
   7 C :   -0.151499
   8 C :   -0.019890
   9 N :   -0.061852
  10 C :   -0.020692
  11 N :   -0.065475
  12 C :   -0.088863
  13 C :    0.066857
  14 C :   -0.159914
  15 C :   -0.015067
  16 N :   -0.062885
  17 C :   -0.023299
  18 N :   -0.065784
  19 C :    0.046828
  20 C :   -0.051406
  21 C :    0.052764
  22 C :   -0.040224
  23 C :    0.034793
  24 C :   -0.006926
  25 C :   -0.031872
  26 C :    0.008516
  27 C :   -0.016292
  28 C :   -0.004566
  29 N :    0.070601
  30 C :   -0.005781
  31 C :   -0.084040
  32 C :    0.006012
  33 N :    0.072184
  34 C :   -0.013577
  35 C :   -0.070947
  36 C :   -0.019774
  37 C :   -0.032094
  38 C :    0.013340
  39 C :   -0.027455
  40 C :    0.031068
  41 C :   -0.031902
  42 C :   -0.014776
  43 C :    0.049720
  44 C :   -0.048228
  45 C :   -0.006863
  46 C :    0.048813
  47 C :   -0.085597
  48 C :    0.076832
  49 C :   -0.149613
  50 C :   -0.020569
  51 N :   -0.063051
  52 C :   -0.019869
  53 N :   -0.060152
  54 C :   -0.012596
  55 C :   -0.012510
  56 C :   -0.003072
  57 C :   -0.002163
  58 C :   -0.002966
  59 C :    0.001982
  60 C :    0.067231
  61 C :   -0.157058
  62 C :   -0.023220
  63 N :   -0.063913
  64 C :   -0.014843
  65 N :   -0.061332
  66 H :    0.040302
  67 H :    0.035081
  68 H :    0.034932
  69 H :    0.038944
  70 H :    0.044639
  71 H :    0.034283
  72 H :    0.063397
  73 H :    0.067099
  74 H :    0.028422
  75 H :    0.058544
  76 H :    0.054063
  77 H :    0.090564
  78 H :    0.027010
  79 H :    0.091986
  80 H :    0.028272
  81 H :    0.027955
  82 H :    0.032037
  83 H :    0.029543
  84 H :    0.059661
  85 H :    0.056346
  86 H :    0.034126
  87 H :    0.064153
  88 H :    0.067016
  89 H :    0.045054
  90 H :    0.039002
  91 H :    0.035420
  92 H :    0.035613
  93 H :    0.040393

  Mayer bond orders larger than 0.100000
B(  0-C ,  1-C ) :   1.3586 B(  0-C ,  5-C ) :   1.3925 B(  0-C , 66-H ) :   0.9829
B(  1-C ,  2-C ) :   1.3870 B(  1-C , 67-H ) :   0.9868 B(  2-C ,  3-C ) :   1.3549
B(  2-C , 68-H ) :   0.9871 B(  3-C ,  4-C ) :   1.3906 B(  3-C , 69-H ) :   0.9860
B(  4-C ,  5-C ) :   1.3180 B(  4-C , 13-C ) :   0.9959 B(  5-C ,  6-C ) :   0.9808
B(  6-C ,  7-C ) :   1.5812 B(  6-C , 12-C ) :   1.1228 B(  7-C ,  8-C ) :   1.1550
B(  7-C , 10-C ) :   1.1465 B(  8-C ,  9-N ) :   2.9697 B( 10-C , 11-N ) :   2.9539
B( 12-C , 13-C ) :   1.0956 B( 12-C , 19-C ) :   1.3871 B( 13-C , 14-C ) :   1.5786
B( 14-C , 15-C ) :   1.1744 B( 14-C , 17-C ) :   1.1415 B( 15-C , 16-N ) :   2.9941
B( 17-C , 18-N ) :   2.9825 B( 19-C , 20-C ) :   1.3423 B( 19-C , 70-H ) :   0.9243
B( 20-C , 21-C ) :   1.3779 B( 20-C , 24-C ) :   1.0304 B( 21-C , 22-C ) :   1.2825
B( 21-C , 71-H ) :   1.0018 B( 22-C , 23-C ) :   1.5337 B( 22-C , 27-C ) :   0.9975
B( 23-C , 24-C ) :   1.0184 B( 23-C , 25-C ) :   1.1856 B( 24-C , 72-H ) :   0.8734
B( 24-C , 73-H ) :   0.8518 B( 25-C , 26-C ) :   1.5237 B( 25-C , 74-H ) :   1.0104
B( 26-C , 27-C ) :   1.0231 B( 26-C , 28-C ) :   1.1320 B( 27-C , 75-H ) :   0.8571
B( 27-C , 76-H ) :   0.8613 B( 28-C , 29-N ) :   1.1924 B( 28-C , 35-C ) :   1.3649
B( 29-N , 30-C ) :   1.1703 B( 29-N , 77-H ) :   0.9299 B( 30-C , 31-C ) :   1.2827
B( 30-C , 34-C ) :   1.2766 B( 31-C , 32-C ) :   1.3716 B( 31-C , 78-H ) :   1.0318
B( 32-C , 33-N ) :   1.1689 B( 32-C , 36-C ) :   1.1311 B( 33-N , 34-C ) :   1.1709
B( 33-N , 79-H ) :   0.9346 B( 34-C , 35-C ) :   1.2793 B( 35-C , 80-H ) :   1.0317
B( 36-C , 37-C ) :   1.5754 B( 36-C , 81-H ) :   0.9638 B( 37-C , 38-C ) :   1.1895
B( 37-C , 82-H ) :   0.9822 B( 38-C , 39-C ) :   1.4790 B( 38-C , 42-C ) :   1.0349
B( 39-C , 40-C ) :   1.1717 B( 39-C , 83-H ) :   1.0238 B( 40-C , 41-C ) :   1.5391
B( 40-C , 45-C ) :   1.0181 B( 41-C , 42-C ) :   0.9952 B( 41-C , 43-C ) :   1.2770
B( 42-C , 84-H ) :   0.8609 B( 42-C , 85-H ) :   0.8594 B( 43-C , 44-C ) :   1.3940
B( 43-C , 86-H ) :   1.0034 B( 44-C , 45-C ) :   1.0327 B( 44-C , 46-C ) :   1.3212
B( 45-C , 87-H ) :   0.8728 B( 45-C , 88-H ) :   0.8542 B( 46-C , 47-C ) :   1.4056
B( 46-C , 89-H ) :   0.9263 B( 47-C , 48-C ) :   1.1177 B( 47-C , 60-C ) :   1.0879
B( 48-C , 49-C ) :   1.5853 B( 48-C , 54-C ) :   0.9801 B( 49-C , 50-C ) :   1.1465
B( 49-C , 52-C ) :   1.1557 B( 50-C , 51-N ) :   2.9537 B( 52-C , 53-N ) :   2.9702
B( 54-C , 55-C ) :   1.3185 B( 54-C , 59-C ) :   1.3930 B( 55-C , 56-C ) :   1.3880
B( 55-C , 60-C ) :   0.9979 B( 56-C , 57-C ) :   1.3571 B( 56-C , 90-H ) :   0.9866
B( 57-C , 58-C ) :   1.3866 B( 57-C , 91-H ) :   0.9864 B( 58-C , 59-C ) :   1.3593
B( 58-C , 92-H ) :   0.9866 B( 59-C , 93-H ) :   0.9832 B( 60-C , 61-C ) :   1.5857
B( 61-C , 62-C ) :   1.1437 B( 61-C , 64-C ) :   1.1712 B( 62-C , 63-N ) :   2.9840
B( 64-C , 65-N ) :   2.9948

-----------------------------------------------------------------------------
         ABSORPTION SPECTRUM VIA TRANSITION ELECTRIC DIPOLE MOMENTS
-----------------------------------------------------------------------------
State   Energy  Wavelength   fosc         T2         TX        TY        TZ
        (cm-1)    (nm)                  (au**2)     (au)      (au)      (au)
-----------------------------------------------------------------------------
   0    9963.7   1003.6   2.535011363  83.75963   3.34671   4.94704   6.93440
   1   14508.6    689.2   0.010200910   0.23147   0.20483  -0.23086  -0.36907
   2   18118.4    551.9   0.376185075   6.83531   0.38469  -2.51075  -0.61923
   3   18388.2    543.8   0.022171650   0.39695  -0.00871  -0.57701  -0.25286
   4   18606.9    537.4   0.019214586   0.33996  -0.08217  -0.43350  -0.38117
   5   22134.8    451.8   0.111856026   1.66364   0.09643   1.23945   0.34365
   6   24013.1    416.4   0.024317709   0.33339  -0.14001  -0.34474   0.44152
   7   25778.4    387.9   0.018582446   0.23731  -0.24873  -0.23627  -0.34586
   8   26000.3    384.6   0.036606437   0.46350   0.24353   0.39780   0.49594
   9   26844.7    372.5   0.074887783   0.91839   0.16051  -0.93094  -0.16120
  10   27450.7    364.3   0.103971320   1.24691   0.27042  -0.90091   0.60179
  11   27667.7    361.4   0.155425656   1.84937   0.19004  -0.91128  -0.99137
  12   28576.6    349.9   0.000084699   0.00098   0.01033   0.01092   0.02738
  13   29434.7    339.7   0.095042378   1.06300  -0.27011  -0.79860   0.59352
  14   30143.7    331.7   0.015457895   0.16882   0.12621  -0.35970  -0.15333
  15   30381.1    329.2   0.021041369   0.22801  -0.05215   0.46844   0.07651
  16   30615.8    326.6   0.010424989   0.11210   0.12873  -0.30181  -0.06664
  17   31922.9    313.3   0.013397868   0.13817  -0.10690   0.35516   0.02454
  18   32141.7    311.1   0.676732352   6.93143   0.75475  -2.42473  -0.69458
  19   32224.6    310.3   0.564681482   5.76888   0.76146  -2.26618  -0.23125
  20   33036.9    302.7   0.001573152   0.01568  -0.12082   0.03256   0.00439
  21   33589.2    297.7   0.293862788   2.88018   0.11666   0.22247  -1.67842
  22   34008.8    294.0   0.000358471   0.00347   0.02121   0.00732  -0.05447
  23   34588.4    289.1   0.015165521   0.14435   0.17487  -0.08692  -0.32590
  24   34643.6    288.7   0.007069442   0.06718  -0.10083   0.06805   0.22887
  25   34950.2    286.1   0.198403620   1.86885  -0.24524  -0.59008   1.20852
  26   35068.2    285.2   0.092791595   0.87110   0.02591   0.59465  -0.71891
  27   36007.1    277.7   0.041590121   0.38026  -0.03167  -0.07741   0.61095
  28   36395.1    274.8   0.121146397   1.09583   0.09940  -0.03890   1.04136
  29   37459.2    267.0   0.002566112   0.02255   0.07454  -0.05973   0.11588
  30   37826.1    264.4   0.012128691   0.10556  -0.07161  -0.16199   0.27238
  31   38653.5    258.7   0.078200165   0.66603   0.02610   0.41635  -0.70143
  32   39542.7    252.9   0.039014834   0.32482  -0.19163   0.06494  -0.53280
  33   39930.6    250.4   0.041634575   0.34326   0.06534  -0.18440   0.55226

FINAL SINGLE POINT ENERGY     -2694.583696941868

DIPOLE MOMENT
-------------
                                X             Y             Z
Electronic contribution:     -0.01339       1.79699       1.54620
Nuclear contribution   :      0.15288      -1.92053      -2.00790
                        -----------------------------------------
Total Dipole Moment    :      0.13949      -0.12354      -0.46171
                        -----------------------------------------
Magnitude (a.u.)       :      0.49789
Magnitude (Debye)      :      1.26553

Rotational constants in cm-1:     0.004030     0.000190     0.000185
Rotational constants in MHz :   120.811410     5.701166     5.547100

                             ****ORCA TERMINATED NORMALLY****
TOTAL RUN TIME: 0 days 0 hours 9 minutes 9 seconds 420 msec
