                         Program Version 4.2.0 -  RELEASE  -
|  1> # ORCA input file
|  2> # SCF done       -191.864395019937          0.000576896969
|  3> ! CAM-B3LYP def2-SVP def2/J RIJCOSX Grid4 TightSCF
|  4> %maxcore 5000
|  5> %tddft
|  6>     Mode sTDDFT
|  7>     Ethresh 5.0
|  8>     maxcore 5000
|  9> end
| 10>
| 11> %pal
| 12>   nprocs 6
| 13>   end
| 14> * xyz 0 1
| 15>    C        0.62351         2.06041         0.10364
| 16>    C        1.82583         1.85701         0.76408
| 17>    C        2.15226         0.61492         1.28992
| 18>    C        1.28227        -0.45920         1.17702
| 19>    C        0.07793        -0.26939         0.51920
| 20>    C       -0.25205         0.99355        -0.02514
| 21>    C       -1.55286         0.90404        -0.67308
| 22>    C       -2.26277         1.93977        -1.21736
| 23>    C       -1.81679         3.27847        -1.24631
| 24>    N       -1.51317         4.38353        -1.30637
| 25>    C       -3.54869         1.82412        -1.78735
| 26>    N       -4.59611         1.79624        -2.25654
| 27>    C       -1.94941        -0.49757        -0.61984
| 28>    C       -1.03358        -1.17905         0.28471
| 29>    C       -1.25228        -2.36666         0.92863
| 30>    C       -2.48587        -3.04896         0.96761
| 31>    N       -3.47476        -3.60884         1.13066
| 32>    C       -0.30249        -2.99543         1.76267
| 33>    N        0.43365        -3.56699         2.43195
| 34>    C       -2.86620        -1.08217        -1.44982
| 35>    C       -3.02372        -2.43877        -1.61997
| 36>    C       -3.17356        -3.62319        -1.87064
| 37>    C       -3.26909        -4.98281        -2.05887
| 38>    S       -2.14530        -6.06345        -1.27454
| 39>    C       -2.93859        -7.43659        -1.99404
| 40>    C       -4.01489        -7.05133        -2.77987
| 41>    C       -4.19579        -5.67672        -2.82156
| 42>    C       -2.47180        -8.71728        -1.77735
| 43>    C       -2.02095        -9.83148        -1.58132
| 44>    C       -1.51426       -11.10492        -1.40047
| 45>    C       -0.33790       -11.32853        -0.75698
| 46>    C        0.27197       -12.59995        -0.58045
| 47>    C        1.54630       -12.67886         0.04207
| 48>    C        2.25252       -13.92212         0.19765
| 49>    N        3.45963       -13.95264         0.78581
| 50>    C        3.98502       -12.83214         1.21001
| 51>    C        3.28977       -11.58603         1.04735
| 52>    N        2.11067       -11.54117         0.48068
| 53>    C        3.88567       -10.38249         1.50186
| 54>    N        4.40087        -9.43043         1.87600
| 55>    C        5.25517       -12.85912         1.83935
| 56>    N        6.27886       -12.84595         2.35274
| 57>    C        1.71084       -15.14211        -0.26775
| 58>    C        0.43015       -15.08168        -0.85112
| 59>    C       -0.27874       -13.83159        -1.00751
| 60>    N       -1.46314       -14.02258        -1.59488
| 61>    S       -1.65776       -15.58541        -1.90794
| 62>    N       -0.26291       -16.11613        -1.32852
| 63>    C        2.44285       -16.31572        -0.18082
| 64>    C        3.12235       -17.32376        -0.14064
| 65>    C        3.95552       -18.42195        -0.11672
| 66>    S        5.59329       -18.26618         0.45708
| 67>    C        5.90035       -19.94104         0.08176
| 68>    C        4.77582       -20.56189        -0.43975
| 69>    C        3.68493       -19.71076        -0.54957
| 70>    C        7.15267       -20.48680         0.27459
| 71>    C        8.28203       -20.91736         0.41870
| 72>    C        9.57623       -21.39061         0.52853
| 73>    C        9.95154       -22.63571         0.13444
| 74>    C       11.25904       -23.17658         0.24593
| 75>    C       12.45880       -22.52455         0.28345
| 76>    C       13.69269       -23.11153         0.80317
| 77>    C       13.98071       -24.44004         0.95728
| 78>    C       13.13755       -25.51108         0.59067
| 79>    N       12.51349       -26.43348         0.31158
| 80>    C       15.20648       -24.92752         1.46046
| 81>    N       16.17792       -25.39057         1.85895
| 82>    C       14.58380       -22.00245         1.11694
| 83>    C       14.01143       -20.80562         0.62977
| 84>    C       14.64706       -19.58942         0.81766
| 85>    C       15.85920       -19.57472         1.49095
| 86>    C       16.42856       -20.74990         1.96122
| 87>    C       15.80033       -21.97304         1.78075
| 88>    C       12.76487       -21.13410        -0.04480
| 89>    C       12.16444       -20.37195        -1.00953
| 90>    C       12.58877       -19.07231        -1.35805
| 91>    N       12.88366       -18.00878        -1.67200
| 92>    C       11.10823       -20.81891        -1.83095
| 93>    N       10.27981       -21.14314        -2.55556
| 94>    H        0.38729         3.03048        -0.30188
| 95>    H        2.51754         2.67908         0.86632
| 96>    H        3.09642         0.47939         1.79474
| 97>    H        1.54995        -1.41960         1.58635
| 98>    H       -3.47220        -0.45762        -2.09363
| 99>    H       -4.62979        -7.76313        -3.30087
|100>    H       -4.97229        -5.17937        -3.37463
|101>    H       -2.07890       -11.93063        -1.81254
|102>    H        0.21822       -10.49111        -0.35779
|103>    H        4.77311       -21.59732        -0.72956
|104>    H        2.72294       -19.99676        -0.93541
|105>    H       10.29130       -20.71031         0.97698
|106>    H        9.18323       -23.31513        -0.20980
|107>    H       11.28504       -24.25086         0.37718
|108>    H       14.20965       -18.66955         0.46457
|109>    H       16.36348       -18.63435         1.65222
|110>    H       17.37370       -20.71425         2.48096
|111>    H       16.25375       -22.87395         2.15992
|112> *
|113>
|114>                          ****END OF INPUT****

CARTESIAN COORDINATES (ANGSTROEM)
---------------------------------
  C      0.623510    2.060410    0.103640
  C      1.825830    1.857010    0.764080
  C      2.152260    0.614920    1.289920
  C      1.282270   -0.459200    1.177020
  C      0.077930   -0.269390    0.519200
  C     -0.252050    0.993550   -0.025140
  C     -1.552860    0.904040   -0.673080
  C     -2.262770    1.939770   -1.217360
  C     -1.816790    3.278470   -1.246310
  N     -1.513170    4.383530   -1.306370
  C     -3.548690    1.824120   -1.787350
  N     -4.596110    1.796240   -2.256540
  C     -1.949410   -0.497570   -0.619840
  C     -1.033580   -1.179050    0.284710
  C     -1.252280   -2.366660    0.928630
  C     -2.485870   -3.048960    0.967610
  N     -3.474760   -3.608840    1.130660
  C     -0.302490   -2.995430    1.762670
  N      0.433650   -3.566990    2.431950
  C     -2.866200   -1.082170   -1.449820
  C     -3.023720   -2.438770   -1.619970
  C     -3.173560   -3.623190   -1.870640
  C     -3.269090   -4.982810   -2.058870
  S     -2.145300   -6.063450   -1.274540
  C     -2.938590   -7.436590   -1.994040
  C     -4.014890   -7.051330   -2.779870
  C     -4.195790   -5.676720   -2.821560
  C     -2.471800   -8.717280   -1.777350
  C     -2.020950   -9.831480   -1.581320
  C     -1.514260  -11.104920   -1.400470
  C     -0.337900  -11.328530   -0.756980
  C      0.271970  -12.599950   -0.580450
  C      1.546300  -12.678860    0.042070
  C      2.252520  -13.922120    0.197650
  N      3.459630  -13.952640    0.785810
  C      3.985020  -12.832140    1.210010
  C      3.289770  -11.586030    1.047350
  N      2.110670  -11.541170    0.480680
  C      3.885670  -10.382490    1.501860
  N      4.400870   -9.430430    1.876000
  C      5.255170  -12.859120    1.839350
  N      6.278860  -12.845950    2.352740
  C      1.710840  -15.142110   -0.267750
  C      0.430150  -15.081680   -0.851120
  C     -0.278740  -13.831590   -1.007510
  N     -1.463140  -14.022580   -1.594880
  S     -1.657760  -15.585410   -1.907940
  N     -0.262910  -16.116130   -1.328520
  C      2.442850  -16.315720   -0.180820
  C      3.122350  -17.323760   -0.140640
  C      3.955520  -18.421950   -0.116720
  S      5.593290  -18.266180    0.457080
  C      5.900350  -19.941040    0.081760
  C      4.775820  -20.561890   -0.439750
  C      3.684930  -19.710760   -0.549570
  C      7.152670  -20.486800    0.274590
  C      8.282030  -20.917360    0.418700
  C      9.576230  -21.390610    0.528530
  C      9.951540  -22.635710    0.134440
  C     11.259040  -23.176580    0.245930
  C     12.458800  -22.524550    0.283450
  C     13.692690  -23.111530    0.803170
  C     13.980710  -24.440040    0.957280
  C     13.137550  -25.511080    0.590670
  N     12.513490  -26.433480    0.311580
  C     15.206480  -24.927520    1.460460
  N     16.177920  -25.390570    1.858950
  C     14.583800  -22.002450    1.116940
  C     14.011430  -20.805620    0.629770
  C     14.647060  -19.589420    0.817660
  C     15.859200  -19.574720    1.490950
  C     16.428560  -20.749900    1.961220
  C     15.800330  -21.973040    1.780750
  C     12.764870  -21.134100   -0.044800
  C     12.164440  -20.371950   -1.009530
  C     12.588770  -19.072310   -1.358050
  N     12.883660  -18.008780   -1.672000
  C     11.108230  -20.818910   -1.830950
  N     10.279810  -21.143140   -2.555560
  H      0.387290    3.030480   -0.301880
  H      2.517540    2.679080    0.866320
  H      3.096420    0.479390    1.794740
  H      1.549950   -1.419600    1.586350
  H     -3.472200   -0.457620   -2.093630
  H     -4.629790   -7.763130   -3.300870
  H     -4.972290   -5.179370   -3.374630
  H     -2.078900  -11.930630   -1.812540
  H      0.218220  -10.491110   -0.357790
  H      4.773110  -21.597320   -0.729560
  H      2.722940  -19.996760   -0.935410
  H     10.291300  -20.710310    0.976980
  H      9.183230  -23.315130   -0.209800
  H     11.285040  -24.250860    0.377180
  H     14.209650  -18.669550    0.464570
  H     16.363480  -18.634350    1.652220
  H     17.373700  -20.714250    2.480960
  H     16.253750  -22.873950    2.159920

 Total Charge           Charge          ....    0
 Multiplicity           Mult            ....    1
 Number of Electrons    NEL             ....  536
 Basis Dimension        Dim             .... 1208

ORBITAL ENERGIES
----------------

  NO   OCC          E(Eh)            E(eV)
   0   2.0000     -89.058237     -2423.3978
   1   2.0000     -88.982326     -2421.3322
   2   2.0000     -88.981857     -2421.3194
   3   2.0000     -14.470529      -393.7631
   4   2.0000     -14.469099      -393.7242
   5   2.0000     -14.466070      -393.6418
   6   2.0000     -14.465956      -393.6387
   7   2.0000     -14.434659      -392.7870
   8   2.0000     -14.434144      -392.7730
   9   2.0000     -14.427467      -392.5913
  10   2.0000     -14.427375      -392.5888
  11   2.0000     -14.426484      -392.5646
  12   2.0000     -14.425747      -392.5445
  13   2.0000     -14.425047      -392.5255
  14   2.0000     -14.424854      -392.5202
  15   2.0000     -14.424323      -392.5058
  16   2.0000     -14.419976      -392.3875
  17   2.0000     -10.389305      -282.7074
  18   2.0000     -10.388790      -282.6934
  19   2.0000     -10.359414      -281.8940
  20   2.0000     -10.358588      -281.8715
  21   2.0000     -10.358142      -281.8594
  22   2.0000     -10.357037      -281.8293
  23   2.0000     -10.356743      -281.8213
  24   2.0000     -10.356621      -281.8180
  25   2.0000     -10.356422      -281.8126
  26   2.0000     -10.355639      -281.7913
  27   2.0000     -10.354568      -281.7621
  28   2.0000     -10.354337      -281.7558
  29   2.0000     -10.353174      -281.7242
  30   2.0000     -10.349787      -281.6320
  31   2.0000     -10.341393      -281.4036
  32   2.0000     -10.340967      -281.3920
  33   2.0000     -10.338670      -281.3295
  34   2.0000     -10.338438      -281.3232
  35   2.0000     -10.337837      -281.3068
  36   2.0000     -10.336396      -281.2676
  37   2.0000     -10.330199      -281.0990
  38   2.0000     -10.329272      -281.0738
  39   2.0000     -10.328938      -281.0647
  40   2.0000     -10.328460      -281.0517
  41   2.0000     -10.328364      -281.0491
  42   2.0000     -10.328328      -281.0481
  43   2.0000     -10.328265      -281.0464
  44   2.0000     -10.327735      -281.0320
  45   2.0000     -10.327518      -281.0260
  46   2.0000     -10.327134      -281.0156
  47   2.0000     -10.327133      -281.0156
  48   2.0000     -10.327021      -281.0125
  49   2.0000     -10.326251      -280.9916
  50   2.0000     -10.325853      -280.9807
  51   2.0000     -10.322362      -280.8857
  52   2.0000     -10.319169      -280.7989
  53   2.0000     -10.318854      -280.7903
  54   2.0000     -10.316509      -280.7265
  55   2.0000     -10.316181      -280.7176
  56   2.0000     -10.315211      -280.6912
  57   2.0000     -10.309532      -280.5366
  58   2.0000     -10.309337      -280.5313
  59   2.0000     -10.306779      -280.4617
  60   2.0000     -10.306386      -280.4510
  61   2.0000     -10.305651      -280.4310
  62   2.0000     -10.305449      -280.4255
  63   2.0000     -10.305312      -280.4218
  64   2.0000     -10.304712      -280.4055
  65   2.0000     -10.304453      -280.3984
  66   2.0000     -10.304203      -280.3916
  67   2.0000     -10.303590      -280.3749
  68   2.0000     -10.303378      -280.3692
  69   2.0000     -10.302643      -280.3492
  70   2.0000     -10.302587      -280.3477
  71   2.0000     -10.302099      -280.3344
  72   2.0000     -10.301846      -280.3275
  73   2.0000     -10.301680      -280.3230
  74   2.0000     -10.300912      -280.3021
  75   2.0000     -10.300813      -280.2994
  76   2.0000     -10.299272      -280.2574
  77   2.0000     -10.298158      -280.2271
  78   2.0000     -10.296022      -280.1690
  79   2.0000      -8.149453      -221.7579
  80   2.0000      -8.077575      -219.8020
  81   2.0000      -8.077232      -219.7926
  82   2.0000      -6.120463      -166.5463
  83   2.0000      -6.112617      -166.3328
  84   2.0000      -6.112456      -166.3284
  85   2.0000      -6.046871      -164.5437
  86   2.0000      -6.046560      -164.5353
  87   2.0000      -6.042641      -164.4286
  88   2.0000      -6.042289      -164.4190
  89   2.0000      -6.039661      -164.3475
  90   2.0000      -6.039284      -164.3373
  91   2.0000      -1.154517       -31.4160
  92   2.0000      -1.128829       -30.7170
  93   2.0000      -1.055333       -28.7171
  94   2.0000      -1.042473       -28.3671
  95   2.0000      -1.040597       -28.3161
  96   2.0000      -1.023340       -27.8465
  97   2.0000      -1.021870       -27.8065
  98   2.0000      -1.019414       -27.7397
  99   2.0000      -1.012923       -27.5630
 100   2.0000      -1.011197       -27.5161
 101   2.0000      -1.010243       -27.4901
 102   2.0000      -1.009295       -27.4643
 103   2.0000      -1.008715       -27.4485
 104   2.0000      -1.006827       -27.3971
 105   2.0000      -1.004320       -27.3289
 106   2.0000      -1.004166       -27.3248
 107   2.0000      -1.004023       -27.3208
 108   2.0000      -1.000141       -27.2152
 109   2.0000      -0.989686       -26.9307
 110   2.0000      -0.967424       -26.3250
 111   2.0000      -0.964731       -26.2517
 112   2.0000      -0.946692       -25.7608
 113   2.0000      -0.944547       -25.7024
 114   2.0000      -0.939627       -25.5686
 115   2.0000      -0.932599       -25.3773
 116   2.0000      -0.923042       -25.1172
 117   2.0000      -0.917456       -24.9652
 118   2.0000      -0.910183       -24.7673
 119   2.0000      -0.903725       -24.5916
 120   2.0000      -0.900326       -24.4991
 121   2.0000      -0.897838       -24.4314
 122   2.0000      -0.890076       -24.2202
 123   2.0000      -0.881005       -23.9734
 124   2.0000      -0.872015       -23.7287
 125   2.0000      -0.869516       -23.6607
 126   2.0000      -0.864405       -23.5217
 127   2.0000      -0.859783       -23.3959
 128   2.0000      -0.852166       -23.1886
 129   2.0000      -0.845134       -22.9973
 130   2.0000      -0.842217       -22.9179
 131   2.0000      -0.826819       -22.4989
 132   2.0000      -0.822533       -22.3823
 133   2.0000      -0.806156       -21.9366
 134   2.0000      -0.799615       -21.7586
 135   2.0000      -0.797237       -21.6939
 136   2.0000      -0.795939       -21.6586
 137   2.0000      -0.790697       -21.5160
 138   2.0000      -0.770466       -20.9655
 139   2.0000      -0.745947       -20.2983
 140   2.0000      -0.743883       -20.2421
 141   2.0000      -0.732718       -19.9383
 142   2.0000      -0.725118       -19.7315
 143   2.0000      -0.721107       -19.6223
 144   2.0000      -0.720307       -19.6006
 145   2.0000      -0.719651       -19.5827
 146   2.0000      -0.717177       -19.5154
 147   2.0000      -0.711267       -19.3546
 148   2.0000      -0.707490       -19.2518
 149   2.0000      -0.694619       -18.9015
 150   2.0000      -0.691170       -18.8077
 151   2.0000      -0.683176       -18.5902
 152   2.0000      -0.679720       -18.4961
 153   2.0000      -0.676627       -18.4120
 154   2.0000      -0.672250       -18.2929
 155   2.0000      -0.671220       -18.2648
 156   2.0000      -0.669425       -18.2160
 157   2.0000      -0.667537       -18.1646
 158   2.0000      -0.662308       -18.0223
 159   2.0000      -0.645118       -17.5545
 160   2.0000      -0.638997       -17.3880
 161   2.0000      -0.636712       -17.3258
 162   2.0000      -0.634186       -17.2571
 163   2.0000      -0.632628       -17.2147
 164   2.0000      -0.622839       -16.9483
 165   2.0000      -0.621544       -16.9131
 166   2.0000      -0.606608       -16.5066
 167   2.0000      -0.599674       -16.3180
 168   2.0000      -0.592495       -16.1226
 169   2.0000      -0.591929       -16.1072
 170   2.0000      -0.591720       -16.1015
 171   2.0000      -0.590582       -16.0705
 172   2.0000      -0.589640       -16.0449
 173   2.0000      -0.587277       -15.9806
 174   2.0000      -0.567087       -15.4312
 175   2.0000      -0.566774       -15.4227
 176   2.0000      -0.556304       -15.1378
 177   2.0000      -0.555162       -15.1067
 178   2.0000      -0.554395       -15.0859
 179   2.0000      -0.552371       -15.0308
 180   2.0000      -0.548678       -14.9303
 181   2.0000      -0.547227       -14.8908
 182   2.0000      -0.545397       -14.8410
 183   2.0000      -0.542029       -14.7494
 184   2.0000      -0.541795       -14.7430
 185   2.0000      -0.532580       -14.4922
 186   2.0000      -0.527943       -14.3661
 187   2.0000      -0.526158       -14.3175
 188   2.0000      -0.524121       -14.2621
 189   2.0000      -0.522215       -14.2102
 190   2.0000      -0.514675       -14.0050
 191   2.0000      -0.514313       -13.9952
 192   2.0000      -0.513812       -13.9815
 193   2.0000      -0.510949       -13.9036
 194   2.0000      -0.509718       -13.8701
 195   2.0000      -0.508939       -13.8489
 196   2.0000      -0.504596       -13.7308
 197   2.0000      -0.503209       -13.6930
 198   2.0000      -0.501649       -13.6506
 199   2.0000      -0.494673       -13.4607
 200   2.0000      -0.492526       -13.4023
 201   2.0000      -0.491110       -13.3638
 202   2.0000      -0.489484       -13.3195
 203   2.0000      -0.487190       -13.2571
 204   2.0000      -0.484144       -13.1742
 205   2.0000      -0.475468       -12.9381
 206   2.0000      -0.475054       -12.9269
 207   2.0000      -0.467624       -12.7247
 208   2.0000      -0.465775       -12.6744
 209   2.0000      -0.464147       -12.6301
 210   2.0000      -0.463022       -12.5995
 211   2.0000      -0.461729       -12.5643
 212   2.0000      -0.460036       -12.5182
 213   2.0000      -0.458046       -12.4641
 214   2.0000      -0.457826       -12.4581
 215   2.0000      -0.457771       -12.4566
 216   2.0000      -0.457537       -12.4502
 217   2.0000      -0.455262       -12.3883
 218   2.0000      -0.452879       -12.3235
 219   2.0000      -0.452470       -12.3123
 220   2.0000      -0.451383       -12.2827
 221   2.0000      -0.450552       -12.2602
 222   2.0000      -0.449867       -12.2415
 223   2.0000      -0.448707       -12.2099
 224   2.0000      -0.448674       -12.2090
 225   2.0000      -0.446266       -12.1435
 226   2.0000      -0.444300       -12.0900
 227   2.0000      -0.443381       -12.0650
 228   2.0000      -0.438986       -11.9454
 229   2.0000      -0.437349       -11.9009
 230   2.0000      -0.436614       -11.8809
 231   2.0000      -0.435365       -11.8469
 232   2.0000      -0.434421       -11.8212
 233   2.0000      -0.433124       -11.7859
 234   2.0000      -0.431980       -11.7548
 235   2.0000      -0.431252       -11.7350
 236   2.0000      -0.429505       -11.6874
 237   2.0000      -0.426680       -11.6105
 238   2.0000      -0.422536       -11.4978
 239   2.0000      -0.420508       -11.4426
 240   2.0000      -0.419799       -11.4233
 241   2.0000      -0.417253       -11.3540
 242   2.0000      -0.417143       -11.3510
 243   2.0000      -0.416150       -11.3240
 244   2.0000      -0.409103       -11.1323
 245   2.0000      -0.404738       -11.0135
 246   2.0000      -0.397711       -10.8223
 247   2.0000      -0.390893       -10.6367
 248   2.0000      -0.389304       -10.5935
 249   2.0000      -0.383573       -10.4375
 250   2.0000      -0.377322       -10.2675
 251   2.0000      -0.373166       -10.1544
 252   2.0000      -0.369120       -10.0443
 253   2.0000      -0.366397        -9.9702
 254   2.0000      -0.361811        -9.8454
 255   2.0000      -0.358276        -9.7492
 256   2.0000      -0.356676        -9.7057
 257   2.0000      -0.351456        -9.5636
 258   2.0000      -0.347557        -9.4575
 259   2.0000      -0.347134        -9.4460
 260   2.0000      -0.340183        -9.2568
 261   2.0000      -0.338310        -9.2059
 262   2.0000      -0.335932        -9.1412
 263   2.0000      -0.320910        -8.7324
 264   2.0000      -0.313449        -8.5294
 265   2.0000      -0.297422        -8.0933
 266   2.0000      -0.277835        -7.5603
 267   2.0000      -0.252757        -6.8779
 268   0.0000      -0.138385        -3.7656
 269   0.0000      -0.110063        -2.9950
 270   0.0000      -0.106076        -2.8865
 271   0.0000      -0.092393        -2.5142
 272   0.0000      -0.091334        -2.4853

MULLIKEN ATOMIC CHARGES
-----------------------
   0 C :   -0.032594
   1 C :    0.046339
   2 C :    0.052385
   3 C :   -0.035091
   4 C :    0.014541
   5 C :    0.009076
   6 C :    0.291619
   7 C :   -0.339763
   8 C :   -0.186026
   9 N :    0.160993
  10 C :   -0.188035
  11 N :    0.171016
  12 C :   -0.076525
  13 C :    0.258012
  14 C :   -0.314796
  15 C :   -0.225041
  16 N :    0.191077
  17 C :   -0.186555
  18 N :    0.163686
  19 C :   -0.025757
  20 C :   -0.021666
  21 C :    0.110314
  22 C :   -0.170921
  23 S :    0.226270
  24 C :   -0.139799
  25 C :    0.055145
  26 C :    0.072934
  27 C :    0.056275
  28 C :    0.020045
  29 C :   -0.053532
  30 C :   -0.077083
  31 C :    0.086465
  32 C :   -0.054725
  33 C :   -0.050045
  34 N :    0.083647
  35 C :   -0.147842
  36 C :   -0.133086
  37 N :    0.055555
  38 C :   -0.207033
  39 N :    0.244791
  40 C :   -0.198936
  41 N :    0.241402
  42 C :    0.038108
  43 C :    0.020634
  44 C :    0.010890
  45 N :   -0.288927
  46 S :    0.556662
  47 N :   -0.253360
  48 C :    0.016530
  49 C :    0.017206
  50 C :   -0.203077
  51 S :    0.226336
  52 C :   -0.157953
  53 C :    0.061618
  54 C :    0.060873
  55 C :    0.087447
  56 C :   -0.002499
  57 C :   -0.053694
  58 C :    0.004880
  59 C :    0.032122
  60 C :   -0.057850
  61 C :    0.287509
  62 C :   -0.338906
  63 C :   -0.185103
  64 N :    0.162795
  65 C :   -0.188232
  66 N :    0.164335
  67 C :    0.019739
  68 C :    0.001764
  69 C :   -0.029244
  70 C :    0.047018
  71 C :    0.048957
  72 C :   -0.034222
  73 C :    0.214764
  74 C :   -0.323583
  75 C :   -0.182166
  76 N :    0.173679
  77 C :   -0.193906
  78 N :    0.183850
  79 H :    0.005188
  80 H :    0.006496
  81 H :    0.006716
  82 H :    0.008453
  83 H :    0.054626
  84 H :    0.002571
  85 H :    0.007227
  86 H :    0.050810
  87 H :    0.017146
  88 H :    0.004174
  89 H :    0.003396
  90 H :    0.054366
  91 H :    0.025958
  92 H :    0.030568
  93 H :    0.008460
  94 H :    0.007612
  95 H :    0.006775
  96 H :    0.007726
Sum of atomic charges:   -0.0000000

LOEWDIN ATOMIC CHARGES
----------------------
   0 C :    0.006019
   1 C :    0.002291
   2 C :    0.006999
   3 C :    0.002461
   4 C :   -0.009027
   5 C :   -0.014876
   6 C :    0.076073
   7 C :   -0.126865
   8 C :   -0.018759
   9 N :   -0.041359
  10 C :   -0.023185
  11 N :   -0.038500
  12 C :   -0.039073
  13 C :    0.067671
  14 C :   -0.120132
  15 C :   -0.023292
  16 N :   -0.036715
  17 C :   -0.019637
  18 N :   -0.039068
  19 C :    0.041006
  20 C :   -0.034032
  21 C :    0.009094
  22 C :   -0.189434
  23 S :    0.495662
  24 C :   -0.167074
  25 C :   -0.031127
  26 C :   -0.009098
  27 C :   -0.050266
  28 C :   -0.005158
  29 C :   -0.013689
  30 C :    0.004047
  31 C :   -0.018091
  32 C :   -0.005239
  33 C :   -0.002120
  34 N :    0.008522
  35 C :   -0.025430
  36 C :   -0.024849
  37 N :    0.004164
  38 C :   -0.037349
  39 N :    0.001095
  40 C :   -0.035377
  41 N :   -0.001218
  42 C :   -0.037367
  43 C :   -0.037803
  44 C :   -0.037644
  45 N :   -0.280955
  46 S :    0.688179
  47 N :   -0.269990
  48 C :   -0.002228
  49 C :   -0.020106
  50 C :   -0.179796
  51 S :    0.493175
  52 C :   -0.182525
  53 C :   -0.021262
  54 C :   -0.023861
  55 C :   -0.024087
  56 C :   -0.020053
  57 C :    0.011714
  58 C :   -0.012828
  59 C :    0.054188
  60 C :   -0.047924
  61 C :    0.077880
  62 C :   -0.129092
  63 C :   -0.022879
  64 N :   -0.039852
  65 C :   -0.019132
  66 N :   -0.042561
  67 C :   -0.013028
  68 C :   -0.011218
  69 C :    0.002795
  70 C :    0.006549
  71 C :    0.003944
  72 C :    0.006160
  73 C :    0.063203
  74 C :   -0.126599
  75 C :   -0.021502
  76 N :   -0.039511
  77 C :   -0.020187
  78 N :   -0.030245
  79 H :    0.041589
  80 H :    0.038424
  81 H :    0.038817
  82 H :    0.041975
  83 H :    0.063429
  84 H :    0.040090
  85 H :    0.042231
  86 H :    0.044464
  87 H :    0.040596
  88 H :    0.040914
  89 H :    0.040967
  90 H :    0.049154
  91 H :    0.046465
  92 H :    0.050770
  93 H :    0.041662
  94 H :    0.038958
  95 H :    0.038809
  96 H :    0.042068

  Mayer bond orders larger than 0.100000
B(  0-C ,  1-C ) :   1.3721 B(  0-C ,  5-C ) :   1.3809 B(  0-C , 79-H ) :   0.9844
B(  1-C ,  2-C ) :   1.3756 B(  1-C , 80-H ) :   0.9859 B(  2-C ,  3-C ) :   1.3672
B(  2-C , 81-H ) :   0.9857 B(  3-C ,  4-C ) :   1.3851 B(  3-C , 82-H ) :   0.9841
B(  4-C ,  5-C ) :   1.3078 B(  4-C , 13-C ) :   1.0148 B(  5-C ,  6-C ) :   1.0063
B(  6-C ,  7-C ) :   1.6495 B(  6-C , 12-C ) :   1.0358 B(  7-C ,  8-C ) :   1.1462
B(  7-C , 10-C ) :   1.1356 B(  8-C ,  9-N ) :   2.9771 B( 10-C , 11-N ) :   2.9874
B( 12-C , 13-C ) :   1.0253 B( 12-C , 19-C ) :   1.6226 B( 13-C , 14-C ) :   1.6426
B( 14-C , 15-C ) :   1.1573 B( 14-C , 17-C ) :   1.1340 B( 15-C , 16-N ) :   3.0006
B( 17-C , 18-N ) :   2.9873 B( 19-C , 20-C ) :   1.0241 B( 19-C , 83-H ) :   0.9336
B( 20-C , 21-C ) :   2.1329 B( 21-C , 22-C ) :   1.0427 B( 22-C , 23-S ) :   1.1038
B( 22-C , 24-C ) :   0.1038 B( 22-C , 26-C ) :   1.4383 B( 23-S , 24-C ) :   1.1355
B( 24-C , 25-C ) :   1.4507 B( 24-C , 27-C ) :   0.9936 B( 25-C , 26-C ) :   1.3078
B( 25-C , 84-H ) :   1.0007 B( 26-C , 85-H ) :   1.0001 B( 27-C , 28-C ) :   2.2436
B( 28-C , 29-C ) :   1.0009 B( 29-C , 30-C ) :   1.6085 B( 29-C , 86-H ) :   0.9333
B( 30-C , 31-C ) :   1.2235 B( 30-C , 87-H ) :   0.9640 B( 31-C , 32-C ) :   1.2278
B( 31-C , 42-C ) :   0.1328 B( 31-C , 44-C ) :   1.1724 B( 32-C , 33-C ) :   1.1087
B( 32-C , 37-N ) :   1.4465 B( 33-C , 34-N ) :   1.4911 B( 33-C , 42-C ) :   1.2935
B( 34-N , 35-C ) :   1.7451 B( 35-C , 36-C ) :   1.1984 B( 35-C , 40-C ) :   1.1521
B( 36-C , 37-N ) :   1.7514 B( 36-C , 38-C ) :   1.1502 B( 38-C , 39-N ) :   3.0496
B( 40-C , 41-N ) :   3.0494 B( 42-C , 43-C ) :   1.2239 B( 42-C , 48-C ) :   0.9544
B( 43-C , 44-C ) :   1.1074 B( 43-C , 47-N ) :   1.5480 B( 44-C , 45-N ) :   1.5000
B( 45-N , 46-S ) :   1.2805 B( 45-N , 47-N ) :   0.1521 B( 46-S , 47-N ) :   1.2976
B( 48-C , 49-C ) :   2.2779 B( 49-C , 50-C ) :   1.0145 B( 50-C , 51-S ) :   1.1227
B( 50-C , 52-C ) :   0.1058 B( 50-C , 54-C ) :   1.4567 B( 51-S , 52-C ) :   1.1143
B( 52-C , 53-C ) :   1.4591 B( 52-C , 55-C ) :   0.9952 B( 53-C , 54-C ) :   1.2973
B( 53-C , 88-H ) :   1.0002 B( 54-C , 89-H ) :   1.0026 B( 55-C , 56-C ) :   2.2273
B( 56-C , 57-C ) :   1.0762 B( 57-C , 58-C ) :   1.6645 B( 57-C , 90-H ) :   0.9383
B( 58-C , 59-C ) :   1.1694 B( 58-C , 91-H ) :   0.9557 B( 59-C , 60-C ) :   1.6416
B( 59-C , 92-H ) :   0.9226 B( 60-C , 61-C ) :   1.0466 B( 60-C , 73-C ) :   1.0032
B( 61-C , 62-C ) :   1.6481 B( 61-C , 67-C ) :   1.0000 B( 62-C , 63-C ) :   1.1362
B( 62-C , 65-C ) :   1.1449 B( 63-C , 64-N ) :   2.9801 B( 65-C , 66-N ) :   2.9810
B( 67-C , 68-C ) :   1.3113 B( 67-C , 72-C ) :   1.3774 B( 68-C , 69-C ) :   1.3802
B( 68-C , 73-C ) :   1.0070 B( 69-C , 70-C ) :   1.3679 B( 69-C , 93-H ) :   0.9886
B( 70-C , 71-C ) :   1.3737 B( 70-C , 94-H ) :   0.9870 B( 71-C , 72-C ) :   1.3737
B( 71-C , 95-H ) :   0.9861 B( 72-C , 96-H ) :   0.9851 B( 73-C , 74-C ) :   1.6732
B( 74-C , 75-C ) :   1.1356 B( 74-C , 77-C ) :   1.1479 B( 75-C , 76-N ) :   2.9991
B( 77-C , 78-N ) :   3.0064

-----------------------------------------------------------------------------
         ABSORPTION SPECTRUM VIA TRANSITION ELECTRIC DIPOLE MOMENTS
-----------------------------------------------------------------------------
State   Energy  Wavelength   fosc         T2         TX        TY        TZ
        (cm-1)    (nm)                  (au**2)     (au)      (au)      (au)
-----------------------------------------------------------------------------
   0   10666.2    937.5   1.192535606  36.80759  -3.31272   5.06342  -0.44188
   1   17454.2    572.9   0.320697537   6.04881   2.42337   0.41378  -0.06979
   2   18505.3    540.4   0.730820842  13.00143  -2.13034   2.87979   0.41216
   3   19357.3    516.6   0.350131921   5.95473   0.85577   2.22425   0.52451
   4   22850.3    437.6   0.394978027   5.69058   0.99103  -2.03863   0.74326
   5   22896.9    436.7   0.037390005   0.53759   0.59984  -0.41472   0.07612
   6   23093.9    433.0   0.014713307   0.20974   0.23074  -0.22669  -0.32421
   7   24818.1    402.9   0.059006001   0.78271  -0.07530  -0.84363   0.25560
   8   25448.6    392.9   0.136852126   1.77037   0.97287  -0.37445   0.82685
   9   26023.7    384.3   0.029342545   0.37120   0.44903   0.27351   0.30783
  10   26522.0    377.0   0.006091818   0.07562   0.21976   0.12689  -0.10592
  11   26978.4    370.7   0.030182811   0.36831   0.35978  -0.47888   0.09773
  12   27215.6    367.4   0.122463078   1.48137   1.16255  -0.16532   0.32017
  13   27456.1    364.2   0.093855212   1.12537  -0.70994  -0.63128  -0.47207
  14   28589.2    349.8   0.156595461   1.80324  -1.00980  -0.67995  -0.56674
  15   28662.0    348.9   0.006322383   0.07262   0.03267   0.22637   0.14251
  16   29411.1    340.0   0.009971406   0.11161  -0.16254  -0.05895   0.28587
  17   29577.3    338.1   0.132781991   1.47794  -0.10630  -1.15436   0.36619
  18   29652.3    337.2   0.763990201   8.48213   1.62013  -2.32831   0.66050
  19   29983.5    333.5   0.013192400   0.14485   0.30453  -0.15537   0.16725
  20   30788.0    324.8   0.037665865   0.40276   0.10801  -0.60553   0.15626
  21   31175.2    320.8   0.029815542   0.31485   0.42305  -0.06508   0.36283
  22   31193.6    320.6   0.003027799   0.03195  -0.09157  -0.11885   0.09719
  23   31265.1    319.8   0.007507523   0.07905  -0.20547  -0.19140  -0.01409
  24   31521.2    317.2   0.415098125   4.33535  -1.48374  -1.02609  -1.03971
  25   31885.2    313.6   0.021314543   0.22007  -0.17881  -0.35191  -0.25349
  26   32132.9    311.2   0.005901868   0.06047  -0.07545   0.00149   0.23403
  27   32349.5    309.1   0.028322635   0.28823   0.28042   0.32001   0.32739
  28   32649.2    306.3   0.349456305   3.52367   0.33742   1.76325  -0.54841
  29   32936.8    303.6   0.746821190   7.46467  -1.02199   2.23612  -1.19162
  30   33093.1    302.2   0.031007107   0.30846  -0.42685  -0.34385   0.08956
  31   33098.0    302.1   0.138556504   1.37816  -0.61533   0.66373  -0.74766
  32   33392.1    299.5   0.359534299   3.54464   1.59154   0.25957   0.97173
  33   33590.7    297.7   0.076023493   0.74508  -0.82324  -0.15098  -0.21109
  34   33664.1    297.1   0.136034213   1.33032  -0.53860  -1.01364  -0.11296
  35   34394.8    290.7   0.065823938   0.63004   0.39499  -0.68071   0.10324
  36   34876.3    286.7   0.089363372   0.84354   0.61948   0.31841   0.59866
  37   34987.8    285.8   0.376533008   3.54292  -1.58555  -0.73754  -0.69641
  38   35096.9    284.9   0.366427410   3.43712   1.47736   1.07062   0.32909
  39   35567.1    281.2   0.037414988   0.34632   0.51333   0.19251   0.21388
  40   35942.3    278.2   0.003597058   0.03295   0.03868  -0.14957   0.09529
  41   36202.0    276.2   0.006576574   0.05981  -0.23158  -0.07129  -0.03308
  42   36344.3    275.1   0.004482746   0.04061  -0.02873   0.18498  -0.07457
  43   36623.8    273.0   0.020344889   0.18288  -0.07310   0.32412  -0.26923
  44   37024.1    270.1   0.058809475   0.52292  -0.33112  -0.56298  -0.31038
  45   37347.8    267.8   0.004468013   0.03938  -0.17140  -0.01081  -0.09945
  46   37429.1    267.2   0.028650671   0.25200   0.23424   0.42571   0.12610
  47   37663.4    265.5   0.106653567   0.93225  -0.78439  -0.50490  -0.24913
  48   37942.4    263.6   0.061533598   0.53390  -0.66203  -0.19197  -0.24242
  49   38211.5    261.7   0.043482327   0.37462  -0.50610   0.05451  -0.33987
  50   38542.9    259.5   0.023853200   0.20374   0.41865  -0.01933   0.16762
  51   39205.5    255.1   0.003605141   0.03027  -0.16810  -0.03792  -0.02402
  52   39524.2    253.0   0.008703122   0.07249   0.20021  -0.07394   0.16414
  53   39685.9    252.0   0.002279418   0.01891   0.01364  -0.09509   0.09839
  54   39784.9    251.4   0.001296786   0.01073  -0.03253   0.06362  -0.07500
  55   40065.8    249.6   0.003939770   0.03237   0.09345  -0.02473   0.15175
  56   40204.9    248.7   0.064200865   0.52570   0.52525   0.31813   0.38550

FINAL SINGLE POINT ENERGY     -4329.618691104495

DIPOLE MOMENT
-------------
                                X             Y             Z
Electronic contribution:    -25.24211       0.54962      -2.60252
Nuclear contribution   :     24.12324      -1.86447       1.98148
                        -----------------------------------------
Total Dipole Moment    :     -1.11887      -1.31485      -0.62105
                        -----------------------------------------
Magnitude (a.u.)       :      1.83477
Magnitude (Debye)      :      4.66363

Rotational constants in cm-1:     0.001336     0.000149     0.000137
Rotational constants in MHz :    40.058045     4.460234     4.092880

                             ****ORCA TERMINATED NORMALLY****
TOTAL RUN TIME: 0 days 0 hours 10 minutes 18 seconds 742 msec
