                         Program Version 4.2.0 -  RELEASE  -
|  1> # ORCA input file
|  2> # SCF done       -209.161944738760          0.000590038118
|  3> ! CAM-B3LYP def2-SVP def2/J RIJCOSX Grid4 TightSCF
|  4> %maxcore 5000
|  5> %tddft
|  6>     Mode sTDDFT
|  7>     Ethresh 5.0
|  8>     maxcore 5000
|  9> end
| 10>
| 11> %pal
| 12>   nprocs 6
| 13>   end
| 14> * xyz 0 1
| 15>    C        2.55218        -8.86392        -2.47610
| 16>    C        1.76148        -9.81265        -3.07431
| 17>    C        2.14372       -11.15687        -3.25323
| 18>    N        2.39484       -12.26664        -3.40326
| 19>    C        0.51676        -9.51466        -3.66585
| 20>    N       -0.47274        -9.28729        -4.20266
| 21>    C        3.96742        -9.02658        -2.15155
| 22>    C        4.55671        -7.75259        -2.04681
| 23>    C        5.90417        -7.59746        -1.79456
| 24>    C        6.68023        -8.73908        -1.63090
| 25>    C        6.09833       -10.00873        -1.72261
| 26>    C        4.74115       -10.16187        -1.98813
| 27>   Cl        7.06761       -11.40839        -1.50697
| 28>   Cl        8.36067        -8.58689        -1.31402
| 29>    C        3.52172        -6.71477        -2.23873
| 30>    O        3.66717        -5.51465        -2.27059
| 31>    C        2.23976        -7.46072        -2.33407
| 32>    C        1.05904        -6.78374        -2.22384
| 33>    C       -0.23224        -7.26417        -1.88931
| 34>    C       -1.36393        -6.54144        -2.22056
| 35>    C       -2.66203        -6.95559        -1.97566
| 36>    C       -2.94991        -8.20732        -1.27942
| 37>    C       -2.00007        -9.03813        -0.79274
| 38>    S       -0.32081        -8.75477        -0.95773
| 39>    C       -4.36851        -8.30148        -1.24320
| 40>    C       -4.94398        -7.19100        -1.87283
| 41>    C       -6.35649        -7.25652        -1.84782
| 42>    C       -6.79692        -8.37933        -1.22256
| 43>    S       -5.53155        -9.40330        -0.63605
| 44>    C       -3.88782        -6.32914        -2.33872
| 45>    C       -3.96787        -5.10402        -3.01541
| 46>    C       -5.11876        -4.49715        -3.43903
| 47>    C       -5.17530        -3.25728        -4.10925
| 48>    C       -6.43484        -2.76062        -4.54839
| 49>    C       -6.55962        -1.51287        -5.25581
| 50>    N       -7.76885        -1.11059        -5.66127
| 51>    C       -8.83103        -1.84098        -5.41139
| 52>    C       -8.70230        -3.07046        -4.69893
| 53>    N       -7.52417        -3.49147        -4.29381
| 54>    C       -9.84393        -3.85777        -4.41012
| 55>    N      -10.77813        -4.47947        -4.17941
| 56>    C      -10.09823        -1.38849        -5.85281
| 57>    N      -11.13634        -1.05018        -6.19941
| 58>    C       -5.45863        -0.66687        -5.53461
| 59>    C       -4.20168        -1.16240        -5.09628
| 60>    C       -4.06488        -2.43104        -4.41080
| 61>    N       -2.79025        -2.68726        -4.12955
| 62>    S       -1.85180        -1.48951        -4.65956
| 63>    N       -3.01943        -0.57845        -5.26910
| 64>    C       -5.63432         0.58490        -6.20851
| 65>    C       -4.61110         1.52393        -6.26925
| 66>    C       -4.67705         2.75594        -6.89547
| 67>    C       -5.88857         3.18148        -7.58613
| 68>    C       -7.00703         2.42136        -7.66206
| 69>    S       -7.20098         0.88496        -6.93260
| 70>    C       -5.62853         4.49046        -8.07989
| 71>    C       -4.34517         4.88273        -7.70248
| 72>    C       -4.03138         6.18337        -8.15637
| 73>    C       -5.06416         6.72978        -8.84910
| 74>    S       -6.45053         5.69815        -8.97921
| 75>    C       -3.71388         3.81696        -6.96597
| 76>    C       -2.42671         3.95469        -6.44291
| 77>    C       -1.61215         3.01479        -5.84648
| 78>    C       -0.38673         3.38577        -5.29552
| 79>    C        0.50662         2.52298        -4.68139
| 80>    C        1.73470         2.87373        -4.00592
| 81>    C        2.28724         4.12306        -3.87104
| 82>    C        3.49748         4.38327        -3.19536
| 83>    N        4.47496         4.66742        -2.66434
| 84>    C        1.74380         5.31973        -4.38125
| 85>    N        1.36693         6.33632        -4.76133
| 86>    C        2.30796         1.63818        -3.46620
| 87>    C        1.47281         0.56371        -3.82088
| 88>    C        0.33637         1.07594        -4.60693
| 89>    O       -0.55363         0.40148        -5.11447
| 90>    C        1.75689        -0.73416        -3.45171
| 91>    C        2.90262        -0.97662        -2.70094
| 92>    C        3.73513         0.08890        -2.34217
| 93>    C        3.44820         1.39807        -2.72014
| 94>   Cl        5.14710        -0.21342        -1.41540
| 95>   Cl        3.28937        -2.58774        -2.22969
| 96>    H        6.34361        -6.61479        -1.72764
| 97>    H        4.32293       -11.15336        -2.05166
| 98>    H        1.14032        -5.70799        -2.34951
| 99>    H       -1.20413        -5.61777        -2.76022
|100>    H       -2.23561        -9.94721        -0.26246
|101>    H       -7.02912        -6.52795        -2.26050
|102>    H       -7.81346        -8.68144        -1.06296
|103>    H       -3.03793        -4.59681        -3.22833
|104>    H       -6.07471        -4.97201        -3.28443
|105>    H       -3.69851         1.23914        -5.77023
|106>    H       -7.89537         2.76567        -8.16912
|107>    H       -3.09986         6.69147        -7.98591
|108>    H       -5.10767         7.69860        -9.30687
|109>    H       -2.01328         4.95427        -6.53479
|110>    H       -1.89595         1.97723        -5.80406
|111>    H       -0.13479         4.43792        -5.32431
|112>    H        1.10794        -1.54603        -3.73953
|113>    H        4.11887         2.18776        -2.42371
|114> *
|115>
|116>                          ****END OF INPUT****

CARTESIAN COORDINATES (ANGSTROEM)
---------------------------------
  C      2.552180   -8.863920   -2.476100
  C      1.761480   -9.812650   -3.074310
  C      2.143720  -11.156870   -3.253230
  N      2.394840  -12.266640   -3.403260
  C      0.516760   -9.514660   -3.665850
  N     -0.472740   -9.287290   -4.202660
  C      3.967420   -9.026580   -2.151550
  C      4.556710   -7.752590   -2.046810
  C      5.904170   -7.597460   -1.794560
  C      6.680230   -8.739080   -1.630900
  C      6.098330  -10.008730   -1.722610
  C      4.741150  -10.161870   -1.988130
  Cl     7.067610  -11.408390   -1.506970
  Cl     8.360670   -8.586890   -1.314020
  C      3.521720   -6.714770   -2.238730
  O      3.667170   -5.514650   -2.270590
  C      2.239760   -7.460720   -2.334070
  C      1.059040   -6.783740   -2.223840
  C     -0.232240   -7.264170   -1.889310
  C     -1.363930   -6.541440   -2.220560
  C     -2.662030   -6.955590   -1.975660
  C     -2.949910   -8.207320   -1.279420
  C     -2.000070   -9.038130   -0.792740
  S     -0.320810   -8.754770   -0.957730
  C     -4.368510   -8.301480   -1.243200
  C     -4.943980   -7.191000   -1.872830
  C     -6.356490   -7.256520   -1.847820
  C     -6.796920   -8.379330   -1.222560
  S     -5.531550   -9.403300   -0.636050
  C     -3.887820   -6.329140   -2.338720
  C     -3.967870   -5.104020   -3.015410
  C     -5.118760   -4.497150   -3.439030
  C     -5.175300   -3.257280   -4.109250
  C     -6.434840   -2.760620   -4.548390
  C     -6.559620   -1.512870   -5.255810
  N     -7.768850   -1.110590   -5.661270
  C     -8.831030   -1.840980   -5.411390
  C     -8.702300   -3.070460   -4.698930
  N     -7.524170   -3.491470   -4.293810
  C     -9.843930   -3.857770   -4.410120
  N    -10.778130   -4.479470   -4.179410
  C    -10.098230   -1.388490   -5.852810
  N    -11.136340   -1.050180   -6.199410
  C     -5.458630   -0.666870   -5.534610
  C     -4.201680   -1.162400   -5.096280
  C     -4.064880   -2.431040   -4.410800
  N     -2.790250   -2.687260   -4.129550
  S     -1.851800   -1.489510   -4.659560
  N     -3.019430   -0.578450   -5.269100
  C     -5.634320    0.584900   -6.208510
  C     -4.611100    1.523930   -6.269250
  C     -4.677050    2.755940   -6.895470
  C     -5.888570    3.181480   -7.586130
  C     -7.007030    2.421360   -7.662060
  S     -7.200980    0.884960   -6.932600
  C     -5.628530    4.490460   -8.079890
  C     -4.345170    4.882730   -7.702480
  C     -4.031380    6.183370   -8.156370
  C     -5.064160    6.729780   -8.849100
  S     -6.450530    5.698150   -8.979210
  C     -3.713880    3.816960   -6.965970
  C     -2.426710    3.954690   -6.442910
  C     -1.612150    3.014790   -5.846480
  C     -0.386730    3.385770   -5.295520
  C      0.506620    2.522980   -4.681390
  C      1.734700    2.873730   -4.005920
  C      2.287240    4.123060   -3.871040
  C      3.497480    4.383270   -3.195360
  N      4.474960    4.667420   -2.664340
  C      1.743800    5.319730   -4.381250
  N      1.366930    6.336320   -4.761330
  C      2.307960    1.638180   -3.466200
  C      1.472810    0.563710   -3.820880
  C      0.336370    1.075940   -4.606930
  O     -0.553630    0.401480   -5.114470
  C      1.756890   -0.734160   -3.451710
  C      2.902620   -0.976620   -2.700940
  C      3.735130    0.088900   -2.342170
  C      3.448200    1.398070   -2.720140
  Cl     5.147100   -0.213420   -1.415400
  Cl     3.289370   -2.587740   -2.229690
  H      6.343610   -6.614790   -1.727640
  H      4.322930  -11.153360   -2.051660
  H      1.140320   -5.707990   -2.349510
  H     -1.204130   -5.617770   -2.760220
  H     -2.235610   -9.947210   -0.262460
  H     -7.029120   -6.527950   -2.260500
  H     -7.813460   -8.681440   -1.062960
  H     -3.037930   -4.596810   -3.228330
  H     -6.074710   -4.972010   -3.284430
  H     -3.698510    1.239140   -5.770230
  H     -7.895370    2.765670   -8.169120
  H     -3.099860    6.691470   -7.985910
  H     -5.107670    7.698600   -9.306870
  H     -2.013280    4.954270   -6.534790
  H     -1.895950    1.977230   -5.804060
  H     -0.134790    4.437920   -5.324310
  H      1.107940   -1.546030   -3.739530
  H      4.118870    2.187760   -2.423710

 Total Charge           Charge          ....    0
 Multiplicity           Mult            ....    1
 Number of Electrons    NEL             ....  612
 Basis Dimension        Dim             .... 1260

ORBITAL ENERGIES
----------------

  NO   OCC          E(Eh)            E(eV)
   0   2.0000    -101.607235     -2764.8734
   1   2.0000    -101.607024     -2764.8677
   2   2.0000    -101.595596     -2764.5567
   3   2.0000    -101.595282     -2764.5482
   4   2.0000     -89.043630     -2423.0004
   5   2.0000     -88.998346     -2421.7681
   6   2.0000     -88.988746     -2421.5069
   7   2.0000     -88.975067     -2421.1347
   8   2.0000     -88.963959     -2420.8324
   9   2.0000     -19.233005      -523.3567
  10   2.0000     -19.222292      -523.0652
  11   2.0000     -14.471934      -393.8013
  12   2.0000     -14.470861      -393.7721
  13   2.0000     -14.449862      -393.2007
  14   2.0000     -14.449122      -393.1806
  15   2.0000     -14.440268      -392.9397
  16   2.0000     -14.434794      -392.7907
  17   2.0000     -14.428548      -392.6207
  18   2.0000     -14.427116      -392.5818
  19   2.0000     -14.411788      -392.1647
  20   2.0000     -14.409087      -392.0912
  21   2.0000     -10.393633      -282.8251
  22   2.0000     -10.386527      -282.6318
  23   2.0000     -10.384351      -282.5726
  24   2.0000     -10.371884      -282.2333
  25   2.0000     -10.365445      -282.0581
  26   2.0000     -10.364259      -282.0258
  27   2.0000     -10.359031      -281.8836
  28   2.0000     -10.358742      -281.8757
  29   2.0000     -10.356463      -281.8137
  30   2.0000     -10.356001      -281.8011
  31   2.0000     -10.351783      -281.6863
  32   2.0000     -10.351084      -281.6673
  33   2.0000     -10.351048      -281.6663
  34   2.0000     -10.348955      -281.6094
  35   2.0000     -10.346939      -281.5545
  36   2.0000     -10.344749      -281.4949
  37   2.0000     -10.344532      -281.4890
  38   2.0000     -10.337488      -281.2973
  39   2.0000     -10.336995      -281.2839
  40   2.0000     -10.336171      -281.2615
  41   2.0000     -10.333434      -281.1870
  42   2.0000     -10.330245      -281.1003
  43   2.0000     -10.329440      -281.0783
  44   2.0000     -10.329279      -281.0740
  45   2.0000     -10.328883      -281.0632
  46   2.0000     -10.328726      -281.0589
  47   2.0000     -10.326683      -281.0033
  48   2.0000     -10.325778      -280.9787
  49   2.0000     -10.324608      -280.9469
  50   2.0000     -10.320334      -280.8306
  51   2.0000     -10.318799      -280.7888
  52   2.0000     -10.318276      -280.7746
  53   2.0000     -10.315089      -280.6878
  54   2.0000     -10.314956      -280.6842
  55   2.0000     -10.312783      -280.6251
  56   2.0000     -10.312674      -280.6221
  57   2.0000     -10.312492      -280.6172
  58   2.0000     -10.312183      -280.6088
  59   2.0000     -10.311420      -280.5880
  60   2.0000     -10.311099      -280.5793
  61   2.0000     -10.308604      -280.5114
  62   2.0000     -10.307991      -280.4947
  63   2.0000     -10.307812      -280.4898
  64   2.0000     -10.306465      -280.4532
  65   2.0000     -10.306047      -280.4418
  66   2.0000     -10.304693      -280.4049
  67   2.0000     -10.304193      -280.3913
  68   2.0000     -10.303880      -280.3828
  69   2.0000     -10.300654      -280.2950
  70   2.0000     -10.299338      -280.2592
  71   2.0000     -10.298734      -280.2428
  72   2.0000     -10.296139      -280.1722
  73   2.0000     -10.295515      -280.1552
  74   2.0000     -10.293734      -280.1067
  75   2.0000     -10.291455      -280.0447
  76   2.0000     -10.288316      -279.9593
  77   2.0000     -10.285224      -279.8752
  78   2.0000     -10.282251      -279.7943
  79   2.0000     -10.281568      -279.7757
  80   2.0000     -10.273579      -279.5583
  81   2.0000      -9.562232      -260.2016
  82   2.0000      -9.562038      -260.1963
  83   2.0000      -9.550403      -259.8797
  84   2.0000      -9.549983      -259.8682
  85   2.0000      -8.132119      -221.2862
  86   2.0000      -8.093107      -220.2246
  87   2.0000      -8.082014      -219.9228
  88   2.0000      -8.070737      -219.6159
  89   2.0000      -8.059312      -219.3050
  90   2.0000      -7.332649      -199.5315
  91   2.0000      -7.332459      -199.5264
  92   2.0000      -7.322474      -199.2546
  93   2.0000      -7.322297      -199.2498
  94   2.0000      -7.321736      -199.2346
  95   2.0000      -7.321537      -199.2292
  96   2.0000      -7.320761      -199.2080
  97   2.0000      -7.320368      -199.1973
  98   2.0000      -7.310651      -198.9329
  99   2.0000      -7.310251      -198.9220
 100   2.0000      -7.309950      -198.9139
 101   2.0000      -7.309566      -198.9034
 102   2.0000      -6.103379      -166.0814
 103   2.0000      -6.095275      -165.8609
 104   2.0000      -6.095006      -165.8535
 105   2.0000      -6.062628      -164.9725
 106   2.0000      -6.058029      -164.8473
 107   2.0000      -6.055141      -164.7688
 108   2.0000      -6.051493      -164.6695
 109   2.0000      -6.046466      -164.5327
 110   2.0000      -6.044520      -164.4798
 111   2.0000      -6.040131      -164.3603
 112   2.0000      -6.035832      -164.2433
 113   2.0000      -6.032803      -164.1609
 114   2.0000      -6.028777      -164.0514
 115   2.0000      -6.024503      -163.9351
 116   2.0000      -6.021330      -163.8487
 117   2.0000      -1.147968       -31.2378
 118   2.0000      -1.143419       -31.1140
 119   2.0000      -1.134628       -30.8748
 120   2.0000      -1.130840       -30.7717
 121   2.0000      -1.058762       -28.8104
 122   2.0000      -1.041470       -28.3398
 123   2.0000      -1.030500       -28.0413
 124   2.0000      -1.026389       -27.9295
 125   2.0000      -1.025707       -27.9109
 126   2.0000      -1.023330       -27.8462
 127   2.0000      -1.016268       -27.6541
 128   2.0000      -1.011634       -27.5280
 129   2.0000      -1.010092       -27.4860
 130   2.0000      -1.007323       -27.4107
 131   2.0000      -1.003014       -27.2934
 132   2.0000      -0.998478       -27.1700
 133   2.0000      -0.993187       -27.0260
 134   2.0000      -0.991199       -26.9719
 135   2.0000      -0.989354       -26.9217
 136   2.0000      -0.985690       -26.8220
 137   2.0000      -0.971899       -26.4467
 138   2.0000      -0.969613       -26.3845
 139   2.0000      -0.957148       -26.0453
 140   2.0000      -0.953874       -25.9562
 141   2.0000      -0.942745       -25.6534
 142   2.0000      -0.939887       -25.5756
 143   2.0000      -0.930189       -25.3117
 144   2.0000      -0.928168       -25.2567
 145   2.0000      -0.918618       -24.9969
 146   2.0000      -0.916792       -24.9472
 147   2.0000      -0.907718       -24.7003
 148   2.0000      -0.904347       -24.6085
 149   2.0000      -0.893956       -24.3258
 150   2.0000      -0.884214       -24.0607
 151   2.0000      -0.873265       -23.7627
 152   2.0000      -0.870760       -23.6946
 153   2.0000      -0.869271       -23.6541
 154   2.0000      -0.860782       -23.4231
 155   2.0000      -0.857419       -23.3315
 156   2.0000      -0.851885       -23.1810
 157   2.0000      -0.840383       -22.8680
 158   2.0000      -0.833036       -22.6681
 159   2.0000      -0.824549       -22.4371
 160   2.0000      -0.818533       -22.2734
 161   2.0000      -0.814398       -22.1609
 162   2.0000      -0.802492       -21.8369
 163   2.0000      -0.792709       -21.5707
 164   2.0000      -0.783939       -21.3321
 165   2.0000      -0.775822       -21.1112
 166   2.0000      -0.767364       -20.8810
 167   2.0000      -0.762534       -20.7496
 168   2.0000      -0.755591       -20.5607
 169   2.0000      -0.742126       -20.1943
 170   2.0000      -0.737837       -20.0776
 171   2.0000      -0.737019       -20.0553
 172   2.0000      -0.728160       -19.8142
 173   2.0000      -0.718401       -19.5487
 174   2.0000      -0.710386       -19.3306
 175   2.0000      -0.702751       -19.1228
 176   2.0000      -0.702354       -19.1120
 177   2.0000      -0.698058       -18.9951
 178   2.0000      -0.691493       -18.8165
 179   2.0000      -0.687695       -18.7131
 180   2.0000      -0.680728       -18.5235
 181   2.0000      -0.679233       -18.4829
 182   2.0000      -0.671699       -18.2779
 183   2.0000      -0.668402       -18.1881
 184   2.0000      -0.661247       -17.9934
 185   2.0000      -0.656016       -17.8511
 186   2.0000      -0.644268       -17.5314
 187   2.0000      -0.642674       -17.4880
 188   2.0000      -0.638647       -17.3785
 189   2.0000      -0.636662       -17.3245
 190   2.0000      -0.634454       -17.2644
 191   2.0000      -0.632278       -17.2052
 192   2.0000      -0.625155       -17.0113
 193   2.0000      -0.618911       -16.8414
 194   2.0000      -0.614029       -16.7086
 195   2.0000      -0.609285       -16.5795
 196   2.0000      -0.603575       -16.4241
 197   2.0000      -0.600079       -16.3290
 198   2.0000      -0.595277       -16.1983
 199   2.0000      -0.588407       -16.0114
 200   2.0000      -0.587539       -15.9878
 201   2.0000      -0.584270       -15.8988
 202   2.0000      -0.578405       -15.7392
 203   2.0000      -0.577407       -15.7120
 204   2.0000      -0.572065       -15.5667
 205   2.0000      -0.567511       -15.4428
 206   2.0000      -0.563714       -15.3394
 207   2.0000      -0.560811       -15.2604
 208   2.0000      -0.559499       -15.2247
 209   2.0000      -0.555979       -15.1290
 210   2.0000      -0.552720       -15.0403
 211   2.0000      -0.552438       -15.0326
 212   2.0000      -0.548648       -14.9295
 213   2.0000      -0.546873       -14.8812
 214   2.0000      -0.544721       -14.8226
 215   2.0000      -0.541611       -14.7380
 216   2.0000      -0.541192       -14.7266
 217   2.0000      -0.538094       -14.6423
 218   2.0000      -0.534672       -14.5492
 219   2.0000      -0.529903       -14.4194
 220   2.0000      -0.527337       -14.3496
 221   2.0000      -0.525567       -14.3014
 222   2.0000      -0.524301       -14.2670
 223   2.0000      -0.521803       -14.1990
 224   2.0000      -0.519546       -14.1376
 225   2.0000      -0.517418       -14.0797
 226   2.0000      -0.511734       -13.9250
 227   2.0000      -0.510676       -13.8962
 228   2.0000      -0.508451       -13.8357
 229   2.0000      -0.504633       -13.7318
 230   2.0000      -0.503589       -13.7034
 231   2.0000      -0.498452       -13.5636
 232   2.0000      -0.497636       -13.5414
 233   2.0000      -0.494536       -13.4570
 234   2.0000      -0.492965       -13.4143
 235   2.0000      -0.490081       -13.3358
 236   2.0000      -0.483803       -13.1649
 237   2.0000      -0.483465       -13.1558
 238   2.0000      -0.482422       -13.1274
 239   2.0000      -0.479897       -13.0587
 240   2.0000      -0.477246       -12.9865
 241   2.0000      -0.471168       -12.8211
 242   2.0000      -0.470440       -12.8013
 243   2.0000      -0.466440       -12.6925
 244   2.0000      -0.464799       -12.6478
 245   2.0000      -0.464269       -12.6334
 246   2.0000      -0.462982       -12.5984
 247   2.0000      -0.461060       -12.5461
 248   2.0000      -0.460155       -12.5215
 249   2.0000      -0.457350       -12.4451
 250   2.0000      -0.456941       -12.4340
 251   2.0000      -0.454973       -12.3804
 252   2.0000      -0.454569       -12.3695
 253   2.0000      -0.452930       -12.3249
 254   2.0000      -0.451895       -12.2967
 255   2.0000      -0.447119       -12.1667
 256   2.0000      -0.445797       -12.1307
 257   2.0000      -0.444974       -12.1083
 258   2.0000      -0.442967       -12.0537
 259   2.0000      -0.441455       -12.0126
 260   2.0000      -0.439919       -11.9708
 261   2.0000      -0.438322       -11.9273
 262   2.0000      -0.437180       -11.8963
 263   2.0000      -0.436904       -11.8888
 264   2.0000      -0.435788       -11.8584
 265   2.0000      -0.435354       -11.8466
 266   2.0000      -0.434017       -11.8102
 267   2.0000      -0.432835       -11.7781
 268   2.0000      -0.430071       -11.7028
 269   2.0000      -0.426151       -11.5961
 270   2.0000      -0.424628       -11.5547
 271   2.0000      -0.422548       -11.4981
 272   2.0000      -0.422305       -11.4915
 273   2.0000      -0.421038       -11.4570
 274   2.0000      -0.418642       -11.3918
 275   2.0000      -0.418437       -11.3863
 276   2.0000      -0.415876       -11.3166
 277   2.0000      -0.410149       -11.1607
 278   2.0000      -0.406641       -11.0653
 279   2.0000      -0.405127       -11.0241
 280   2.0000      -0.401955       -10.9378
 281   2.0000      -0.394233       -10.7276
 282   2.0000      -0.393443       -10.7061
 283   2.0000      -0.389864       -10.6087
 284   2.0000      -0.388834       -10.5807
 285   2.0000      -0.379405       -10.3241
 286   2.0000      -0.378163       -10.2903
 287   2.0000      -0.375923       -10.2294
 288   2.0000      -0.372003       -10.1227
 289   2.0000      -0.358235        -9.7481
 290   2.0000      -0.356409        -9.6984
 291   2.0000      -0.354446        -9.6450
 292   2.0000      -0.353457        -9.6180
 293   2.0000      -0.349885        -9.5209
 294   2.0000      -0.345277        -9.3955
 295   2.0000      -0.339773        -9.2457
 296   2.0000      -0.338870        -9.2211
 297   2.0000      -0.338353        -9.2071
 298   2.0000      -0.320076        -8.7097
 299   2.0000      -0.315313        -8.5801
 300   2.0000      -0.314229        -8.5506
 301   2.0000      -0.304155        -8.2765
 302   2.0000      -0.296223        -8.0606
 303   2.0000      -0.284685        -7.7467
 304   2.0000      -0.257929        -7.0186
 305   2.0000      -0.232248        -6.3198
 306   0.0000      -0.141962        -3.8630
 307   0.0000      -0.107463        -2.9242
 308   0.0000      -0.090462        -2.4616
 309   0.0000      -0.078030        -2.1233
 310   0.0000      -0.071571        -1.9476

MULLIKEN ATOMIC CHARGES
-----------------------
   0 C :    0.252688
   1 C :   -0.316541
   2 C :   -0.178292
   3 N :    0.162510
   4 C :   -0.209490
   5 N :    0.175779
   6 C :    0.025148
   7 C :   -0.000734
   8 C :   -0.027831
   9 C :    0.057855
  10 C :    0.051759
  11 C :   -0.019250
  12 Cl:   -0.031862
  13 Cl:   -0.037613
  14 C :    0.147873
  15 O :   -0.144015
  16 C :   -0.121362
  17 C :    0.027608
  18 C :   -0.098243
  19 C :    0.008132
  20 C :    0.063475
  21 C :    0.079139
  22 C :   -0.110581
  23 S :    0.161056
  24 C :   -0.103195
  25 C :    0.050895
  26 C :   -0.004567
  27 C :   -0.060560
  28 S :    0.147941
  29 C :    0.128812
  30 C :    0.000235
  31 C :   -0.096030
  32 C :    0.110847
  33 C :   -0.045464
  34 C :   -0.039710
  35 N :   -0.026027
  36 C :   -0.081952
  37 C :   -0.147557
  38 N :    0.054002
  39 C :   -0.225138
  40 N :    0.239651
  41 C :   -0.239886
  42 N :    0.251341
  43 C :    0.121648
  44 C :    0.020687
  45 C :    0.007965
  46 N :   -0.283381
  47 S :    0.560614
  48 N :   -0.293173
  49 C :   -0.115572
  50 C :   -0.071833
  51 C :    0.099837
  52 C :    0.054553
  53 C :   -0.111012
  54 S :    0.196821
  55 C :   -0.102869
  56 C :    0.053224
  57 C :    0.010421
  58 C :   -0.064844
  59 S :    0.136146
  60 C :    0.109086
  61 C :   -0.015778
  62 C :   -0.045450
  63 C :   -0.018709
  64 C :   -0.083690
  65 C :    0.330985
  66 C :   -0.357901
  67 C :   -0.193280
  68 N :    0.151105
  69 C :   -0.190667
  70 N :    0.144049
  71 C :    0.025772
  72 C :    0.002052
  73 C :    0.182009
  74 O :   -0.239160
  75 C :   -0.042485
  76 C :    0.051260
  77 C :    0.041946
  78 C :   -0.013347
  79 Cl:   -0.040635
  80 Cl:   -0.026444
  81 H :    0.003984
  82 H :    0.005500
  83 H :    0.031427
  84 H :    0.000664
  85 H :    0.046257
  86 H :    0.008910
  87 H :    0.036560
  88 H :   -0.002129
  89 H :   -0.027806
  90 H :    0.006009
  91 H :    0.040499
  92 H :   -0.007081
  93 H :    0.030943
  94 H :   -0.004761
  95 H :    0.039216
  96 H :    0.002497
  97 H :   -0.030058
  98 H :   -0.001426
Sum of atomic charges:   -0.0000000

LOEWDIN ATOMIC CHARGES
----------------------
   0 C :    0.055268
   1 C :   -0.137478
   2 C :   -0.022432
   3 N :   -0.041296
   4 C :   -0.037613
   5 N :   -0.047068
   6 C :   -0.009560
   7 C :   -0.046977
   8 C :    0.003899
   9 C :   -0.134731
  10 C :   -0.127993
  11 C :   -0.015409
  12 Cl:    0.166150
  13 Cl:    0.162370
  14 C :    0.087895
  15 O :   -0.143921
  16 C :   -0.097841
  17 C :    0.044539
  18 C :   -0.177515
  19 C :    0.028850
  20 C :   -0.007267
  21 C :   -0.047681
  22 C :   -0.123005
  23 S :    0.499251
  24 C :   -0.186151
  25 C :   -0.038053
  26 C :   -0.058720
  27 C :   -0.154313
  28 S :    0.440814
  29 C :   -0.020780
  30 C :    0.021070
  31 C :   -0.023792
  32 C :   -0.005294
  33 C :   -0.008509
  34 C :   -0.005782
  35 N :   -0.033928
  36 C :   -0.017283
  37 C :   -0.038536
  38 N :    0.005482
  39 C :   -0.038891
  40 N :   -0.009787
  41 C :   -0.037698
  42 N :   -0.000794
  43 C :   -0.066245
  44 C :   -0.031577
  45 C :   -0.044799
  46 N :   -0.287698
  47 S :    0.717072
  48 N :   -0.273134
  49 C :   -0.143041
  50 C :   -0.007694
  51 C :    0.017052
  52 C :   -0.050255
  53 C :   -0.147215
  54 S :    0.536318
  55 C :   -0.203864
  56 C :   -0.036172
  57 C :   -0.061498
  58 C :   -0.157756
  59 S :    0.427541
  60 C :   -0.061779
  61 C :    0.051555
  62 C :   -0.057525
  63 C :    0.068457
  64 C :   -0.125106
  65 C :    0.074115
  66 C :   -0.146217
  67 C :   -0.021189
  68 N :   -0.056695
  69 C :   -0.019167
  70 N :   -0.058469
  71 C :   -0.009709
  72 C :   -0.045121
  73 C :    0.097758
  74 O :   -0.202441
  75 C :   -0.013236
  76 C :   -0.139564
  77 C :   -0.133056
  78 C :   -0.013286
  79 Cl:    0.158975
  80 Cl:    0.171018
  81 H :    0.047680
  82 H :    0.044941
  83 H :    0.050657
  84 H :    0.046534
  85 H :    0.041560
  86 H :    0.036095
  87 H :    0.028853
  88 H :    0.027488
  89 H :    0.029565
  90 H :    0.038656
  91 H :    0.038279
  92 H :    0.033506
  93 H :    0.025773
  94 H :    0.038342
  95 H :    0.030538
  96 H :    0.040176
  97 H :    0.031281
  98 H :    0.044231

  Mayer bond orders larger than 0.100000
B(  0-C ,  1-C ) :   1.6506 B(  0-C ,  6-C ) :   1.0074 B(  0-C , 16-C ) :   1.0439
B(  1-C ,  2-C ) :   1.1369 B(  1-C ,  4-C ) :   1.1543 B(  2-C ,  3-N ) :   2.9893
B(  4-C ,  5-N ) :   3.0189 B(  6-C ,  7-C ) :   1.3278 B(  6-C , 11-C ) :   1.3477
B(  7-C ,  8-C ) :   1.3452 B(  7-C , 14-C ) :   0.9267 B(  8-C ,  9-C ) :   1.3438
B(  8-C , 81-H ) :   1.0179 B(  9-C , 10-C ) :   1.4081 B(  9-C , 13-Cl) :   1.0517
B( 10-C , 11-C ) :   1.3535 B( 10-C , 12-Cl) :   1.0727 B( 11-C , 82-H ) :   0.9915
B( 14-C , 15-O ) :   2.2497 B( 14-C , 16-C ) :   0.9494 B( 16-C , 17-C ) :   1.6112
B( 17-C , 18-C ) :   1.1445 B( 17-C , 83-H ) :   0.9456 B( 18-C , 19-C ) :   1.4418
B( 18-C , 23-S ) :   1.0611 B( 19-C , 20-C ) :   1.2776 B( 19-C , 84-H ) :   0.9749
B( 20-C , 21-C ) :   1.0602 B( 20-C , 29-C ) :   1.2907 B( 21-C , 22-C ) :   1.5757
B( 21-C , 24-C ) :   1.1851 B( 22-C , 23-S ) :   1.1667 B( 22-C , 85-H ) :   0.9411
B( 24-C , 25-C ) :   1.4307 B( 24-C , 28-S ) :   1.0959 B( 25-C , 26-C ) :   1.2123
B( 25-C , 29-C ) :   1.0835 B( 26-C , 27-C ) :   1.5969 B( 26-C , 86-H ) :   1.0002
B( 27-C , 28-S ) :   1.1505 B( 27-C , 87-H ) :   0.9633 B( 29-C , 30-C ) :   1.2209
B( 30-C , 31-C ) :   1.4527 B( 30-C , 88-H ) :   0.9452 B( 31-C , 32-C ) :   1.2809
B( 31-C , 89-H ) :   0.9677 B( 32-C , 33-C ) :   1.1839 B( 32-C , 43-C ) :   0.1124
B( 32-C , 45-C ) :   1.1513 B( 33-C , 34-C ) :   1.1229 B( 33-C , 38-N ) :   1.4868
B( 34-C , 35-N ) :   1.3844 B( 34-C , 43-C ) :   1.2402 B( 35-N , 36-C ) :   1.6768
B( 36-C , 37-C ) :   1.2403 B( 36-C , 41-C ) :   1.1596 B( 37-C , 38-N ) :   1.6975
B( 37-C , 39-C ) :   1.1643 B( 39-C , 40-N ) :   3.0480 B( 41-C , 42-N ) :   3.0414
B( 43-C , 44-C ) :   1.1820 B( 43-C , 49-C ) :   1.1947 B( 44-C , 45-C ) :   1.1113
B( 44-C , 48-N ) :   1.5077 B( 45-C , 46-N ) :   1.5153 B( 46-N , 47-S ) :   1.2557
B( 46-N , 48-N ) :   0.1322 B( 47-S , 48-N ) :   1.2617 B( 47-S , 74-O ) :   0.1070
B( 49-C , 50-C ) :   1.4339 B( 49-C , 54-S ) :   1.1000 B( 50-C , 51-C ) :   1.3080
B( 50-C , 90-H ) :   0.9586 B( 51-C , 52-C ) :   1.1040 B( 51-C , 60-C ) :   1.2250
B( 52-C , 53-C ) :   1.5433 B( 52-C , 55-C ) :   1.1650 B( 53-C , 54-S ) :   1.1581
B( 53-C , 91-H ) :   0.9413 B( 55-C , 56-C ) :   1.4407 B( 55-C , 59-S ) :   1.0792
B( 56-C , 57-C ) :   1.2233 B( 56-C , 60-C ) :   1.0951 B( 57-C , 58-C ) :   1.5898
B( 57-C , 92-H ) :   0.9968 B( 58-C , 59-S ) :   1.1536 B( 58-C , 93-H ) :   0.9657
B( 60-C , 61-C ) :   1.2541 B( 61-C , 62-C ) :   1.3751 B( 61-C , 94-H ) :   0.9757
B( 62-C , 63-C ) :   1.3050 B( 62-C , 95-H ) :   0.9806 B( 63-C , 64-C ) :   1.3579
B( 63-C , 96-H ) :   0.9648 B( 64-C , 65-C ) :   1.1013 B( 64-C , 73-C ) :   1.0538
B( 65-C , 66-C ) :   1.6093 B( 65-C , 71-C ) :   0.9735 B( 66-C , 67-C ) :   1.1455
B( 66-C , 69-C ) :   1.1529 B( 67-C , 68-N ) :   2.9687 B( 69-C , 70-N ) :   2.9599
B( 71-C , 72-C ) :   1.3297 B( 71-C , 78-C ) :   1.3604 B( 72-C , 73-C ) :   0.9561
B( 72-C , 75-C ) :   1.3410 B( 73-C , 74-O ) :   1.9621 B( 75-C , 76-C ) :   1.3402
B( 75-C , 97-H ) :   1.0145 B( 76-C , 77-C ) :   1.4210 B( 76-C , 80-Cl) :   1.0512
B( 77-C , 78-C ) :   1.3424 B( 77-C , 79-Cl) :   1.0702 B( 78-C , 98-H ) :   0.9863

-----------------------------------------------------------------------------
         ABSORPTION SPECTRUM VIA TRANSITION ELECTRIC DIPOLE MOMENTS
-----------------------------------------------------------------------------
State   Energy  Wavelength   fosc         T2         TX        TY        TZ
        (cm-1)    (nm)                  (au**2)     (au)      (au)      (au)
-----------------------------------------------------------------------------
   0    6077.7   1645.4   0.405996293  21.99174  -0.38775   4.45609  -1.40878
   1   11471.1    871.8   0.281716449   8.08507   2.53019  -0.99946   0.82721
   2   14455.5    691.8   0.465316991  10.59722  -3.16108   0.77021  -0.10751
   3   15452.8    647.1   0.539543110  11.49461  -3.20317  -0.46201  -1.01038
   4   17155.2    582.9   0.044932611   0.86226  -0.16915   0.22567  -0.88472
   5   19215.8    520.4   0.058071447   0.99490  -0.76635  -0.46529   0.43717
   6   19853.5    503.7   0.019149630   0.31754   0.23663   0.33802   0.38378
   7   20421.6    489.7   0.052769830   0.85069   0.30966   0.49644  -0.71298
   8   21650.2    461.9   0.039418070   0.59939   0.76990   0.05937   0.05583
   9   22129.8    451.9   0.228831627   3.40420   0.81283  -1.31082   1.01255
  10   22234.9    449.7   0.021234776   0.31440   0.39099  -0.28017   0.28816
  11   22967.8    435.4   0.224505273   3.21797  -1.60131   0.28876  -0.75524
  12   23064.9    433.6   0.008546658   0.12199  -0.17056  -0.15655  -0.26152
  13   24068.9    415.5   0.014231420   0.19466  -0.42589  -0.08021   0.08273
  14   24183.6    413.5   0.054925000   0.74770  -0.48527   0.09359  -0.70954
  15   24433.7    409.3   0.089251777   1.20255   1.05227   0.19305  -0.24086
  16   24627.9    406.0   0.050177639   0.67075   0.57228  -0.57013   0.13488
  17   25150.4    397.6   0.273600226   3.58136   0.92274  -1.25806   1.07107
  18   25290.1    395.4   0.046367086   0.60358   0.66552  -0.07725   0.39332
  19   25465.6    392.7   0.066938792   0.86537  -0.85555  -0.28760  -0.22511
  20   25616.7    390.4   0.033137030   0.42586   0.59672   0.10025   0.24440
  21   26935.6    371.3   0.042152479   0.51520  -0.24722  -0.64799   0.18490
  22   27376.5    365.3   0.053716278   0.64596  -0.12927   0.73502  -0.29831
  23   27611.6    362.2   0.106677677   1.27191  -0.37596   0.88248  -0.59312
  24   28022.9    356.9   0.032087619   0.37696   0.01900  -0.57384   0.21751
  25   28508.4    350.8   0.005904287   0.06818  -0.19408  -0.15583   0.07894
  26   28549.7    350.3   0.053988683   0.62255   0.77430  -0.14347   0.04926
  27   28856.2    346.5   0.065472527   0.74696  -0.02478   0.66027  -0.55712
  28   29252.9    341.8   0.086535977   0.97387  -0.70912   0.38494  -0.56819
  29   29459.6    339.4   0.004341255   0.04851   0.00011   0.11174  -0.18981
  30   29633.0    337.5   0.368296265   4.09163   1.34004  -1.29336   0.78940
  31   30136.3    331.8   0.035567049   0.38854  -0.16687  -0.54044   0.26196
  32   30320.6    329.8   0.063637954   0.69096   0.68671   0.26361  -0.38716
  33   30679.8    325.9   0.267270428   2.86797  -1.66790  -0.16943  -0.23952
  34   30833.9    324.3   0.118557143   1.26583  -1.07105  -0.33870  -0.06298
  35   31097.5    321.6   0.046394912   0.49116  -0.21463  -0.65663   0.11802
  36   31270.6    319.8   0.114638517   1.20690   1.04136   0.34993  -0.00297
  37   31510.6    317.4   0.066014755   0.68970   0.77408  -0.23905   0.18262
  38   31922.1    313.3   0.041643655   0.42947   0.53924   0.35999  -0.09537
  39   32052.4    312.0   0.028668681   0.29446  -0.08924   0.49485   0.20401
  40   32315.0    309.5   0.090489535   0.92187   0.77944   0.54958   0.11093
  41   32494.2    307.7   0.025352278   0.25685   0.44370   0.16246   0.18329
  42   32666.7    306.1   0.074476639   0.75057  -0.80919   0.23357   0.20304
  43   32810.7    304.8   0.104058476   1.04409   0.45756   0.88382  -0.23150
  44   32903.6    303.9   0.199342127   1.99449  -1.35564  -0.39473   0.03014
  45   32930.0    303.7   0.168239488   1.68194  -0.90010  -0.89223  -0.27511
  46   32977.1    303.2   0.034092526   0.34035   0.35959  -0.45937  -0.00490
  47   33690.3    296.8   0.011922646   0.11650   0.08172   0.32729   0.05202
  48   33771.2    296.1   0.013601190   0.13259   0.21258  -0.26555   0.12992
  49   33942.0    294.6   0.056789751   0.55082   0.69589   0.15162   0.20872
  50   34178.4    292.6   0.106461744   1.02546  -0.84912   0.54607   0.07910
  51   34262.9    291.9   0.627340866   6.02775   2.38728   0.09809   0.56481
  52   34509.0    289.8   0.953913732   9.10023   0.15500  -2.94893   0.61647
  53   34898.7    286.5   0.139650916   1.31738  -0.76543  -0.84076  -0.15692
  54   34990.3    285.8   0.020900083   0.19664   0.11740   0.40803   0.12796
  55   35099.0    284.9   0.067857022   0.63647   0.47912  -0.48758   0.41131
  56   35365.3    282.8   0.142326689   1.32491  -1.12771  -0.14770   0.17709
  57   35681.0    280.3   0.005930421   0.05472   0.22986   0.03217   0.02907
  58   35852.0    278.9   0.016278677   0.14948   0.01360  -0.34273   0.17840
  59   36083.2    277.1   0.100195822   0.91416  -0.02769  -0.94085   0.16789
  60   36183.4    276.4   0.116493401   1.05991  -0.61964  -0.82121  -0.03964
  61   36397.8    274.7   0.132791019   1.20107  -0.49237   0.76004  -0.61724
  62   36494.8    274.0   0.033040791   0.29805   0.53529  -0.04140   0.09902
  63   36782.0    271.9   0.049170441   0.44009  -0.48706  -0.14554  -0.42624
  64   37058.6    269.8   0.051410820   0.45671  -0.50387  -0.12059  -0.43391
  65   37174.9    269.0   0.077459958   0.68597   0.63032   0.01871   0.53694
  66   37396.6    267.4   0.045120944   0.39721  -0.62841  -0.04750   0.00742
  67   37569.0    266.2   0.064301120   0.56346   0.08058   0.68371  -0.29918
  68   37848.7    264.2   0.008406122   0.07312   0.26676   0.04416  -0.00269
  69   37922.4    263.7   0.028066797   0.24365  -0.40495   0.08682  -0.26858
  70   37992.0    263.2   0.002649529   0.02296  -0.03649  -0.00660  -0.14691
  71   38052.4    262.8   0.005529601   0.04784   0.01520   0.13886  -0.16830
  72   38125.7    262.3   0.011009892   0.09507   0.17908   0.22861  -0.10361
  73   38215.8    261.7   0.012860476   0.11079  -0.23406   0.20385  -0.12020
  74   38411.4    260.3   0.102565880   0.87906   0.92364   0.14546   0.06918
  75   38694.3    258.4   0.040803569   0.34716   0.40668   0.22371  -0.36294
  76   38839.2    257.5   0.063435791   0.53770  -0.70834   0.15617  -0.10752
  77   39001.2    256.4   0.049510317   0.41792  -0.21567   0.58046   0.18566
  78   39061.3    256.0   0.045221172   0.38113   0.59097   0.11852   0.13355
  79   39269.1    254.7   0.009368601   0.07854  -0.09616  -0.25457   0.06701
  80   39342.7    254.2   0.035459795   0.29672  -0.51971  -0.04688  -0.15629
  81   39394.3    253.8   0.016416137   0.13719   0.00867  -0.36728   0.04706
  82   39582.6    252.6   0.043259272   0.35979  -0.57145  -0.15953   0.08824
  83   39966.9    250.2   0.084723964   0.69788   0.32999  -0.70473   0.30388
  84   40275.5    248.3   0.051405755   0.42019  -0.61215  -0.13291  -0.16673
  85   40311.6    248.1   0.136684889   1.11626   0.66281   0.77516  -0.27582

FINAL SINGLE POINT ENERGY     -6821.791461026240

DIPOLE MOMENT
-------------
                                X             Y             Z
Electronic contribution:     48.76196     -34.00175      17.66315
Nuclear contribution   :    -49.58768      32.44971     -16.84722
                        -----------------------------------------
Total Dipole Moment    :     -0.82572      -1.55204       0.81593
                        -----------------------------------------
Magnitude (a.u.)       :      1.93814
Magnitude (Debye)      :      4.92637

Rotational constants in cm-1:     0.000713     0.000359     0.000250
Rotational constants in MHz :    21.386298    10.755324     7.486411

                             ****ORCA TERMINATED NORMALLY****
TOTAL RUN TIME: 0 days 0 hours 13 minutes 49 seconds 798 msec
