                         Program Version 4.2.0 -  RELEASE  -
|  1> # ORCA input file
|  2> # SCF done       -203.878544554692          0.000735948888
|  3> ! CAM-B3LYP def2-SVP def2/J RIJCOSX Grid4 TightSCF
|  4> %maxcore 5000
|  5> %tddft
|  6>     Mode sTDDFT
|  7>     Ethresh 5.0
|  8>     maxcore 5000
|  9> end
| 10>
| 11> %pal
| 12>   nprocs 6
| 13>   end
| 14> * xyz 0 1
| 15>    C        2.87599        -2.76556         2.12940
| 16>    C        2.94677        -4.05619         2.58332
| 17>    C        4.11808        -4.84050         2.53486
| 18>    N        5.03978        -5.52264         2.49153
| 19>    C        1.88813        -4.70774         3.25369
| 20>    N        1.09576        -5.25519         3.87755
| 21>    C        4.00888        -1.93511         1.72813
| 22>    C        3.62307        -0.58250         1.78943
| 23>    C        4.50896         0.43514         1.49917
| 24>    C        5.80572         0.09691         1.13056
| 25>    C        6.19308        -1.24690         1.05890
| 26>    C        5.30075        -2.27039         1.36059
| 27>   Cl        7.79507        -1.64851         0.59266
| 28>   Cl        6.93562         1.33490         0.76061
| 29>    C        2.19885        -0.48905         2.18222
| 30>    O        1.54585         0.50563         2.38695
| 31>    C        1.72067        -1.89861         2.21551
| 32>    C        0.38801        -2.18017         2.23306
| 33>    C       -0.24777        -3.39315         1.87310
| 34>    C       -1.49591        -3.80108         2.28914
| 35>    C       -1.77666        -5.08174         1.72772
| 36>    C       -0.63110        -5.38364         0.87094
| 37>    C        0.28682        -4.40765         0.95795
| 38>    F       -0.54868        -6.48272         0.11392
| 39>    C       -2.85855        -5.89802         1.97545
| 40>    C       -3.11255        -7.20084         1.47664
| 41>    C       -4.27521        -7.68696         2.05423
| 42>    C       -4.80646        -6.65245         2.94929
| 43>    C       -3.97546        -5.60386         2.88602
| 44>    F       -4.10784        -4.44699         3.53621
| 45>    C       -4.89337        -8.94009         1.89932
| 46>    C       -4.53235        -9.88998         0.97929
| 47>    C       -5.12393       -11.15445         0.86235
| 48>    S       -4.79912       -12.17034        -0.52914
| 49>    C       -5.84263       -13.46743        -0.00387
| 50>    C       -6.40579       -13.12946         1.24318
| 51>    C       -6.00468       -11.84123         1.70550
| 52>    N       -6.58796       -11.62182         2.90786
| 53>    C       -7.34359       -12.72411         3.21801
| 54>    N       -8.05928       -12.74910         4.43179
| 55>    O       -7.95231       -11.75838         5.13639
| 56>    O       -8.71900       -13.73290         4.68690
| 57>    C       -7.26545       -13.67260         2.21972
| 58>    C       -6.03780       -14.60191        -0.79802
| 59>    C       -5.53253       -14.81423        -2.07601
| 60>    C       -6.00395       -16.05544        -2.55908
| 61>    C       -6.81657       -16.61015        -1.46992
| 62>    C       -6.85011       -15.76293        -0.43039
| 63>    F       -7.42809       -17.79393        -1.53760
| 64>    C       -5.80916       -16.62820        -3.80222
| 65>    C       -6.34091       -17.84501        -4.30008
| 66>    C       -5.95405       -18.00307        -5.62115
| 67>    C       -5.12045       -16.85430        -5.99362
| 68>    C       -5.04100       -16.06054        -4.91514
| 69>    F       -4.37387       -14.90474        -4.82405
| 70>    C       -6.33351       -19.07232        -6.45430
| 71>    C       -6.02508       -19.18327        -7.78248
| 72>    C       -6.47982       -20.26950        -8.55339
| 73>    C       -6.26148       -20.42427        -9.89808
| 74>    C       -6.72432       -21.51430       -10.73417
| 75>    C       -7.41181       -22.63138       -10.33535
| 76>    C       -7.82836       -23.65917       -11.20890
| 77>    N       -8.20016       -24.52724       -11.86097
| 78>    C       -7.79716       -22.93345        -9.01181
| 79>    N       -8.14894       -23.25482        -7.96707
| 80>    C       -6.31432       -21.22156       -12.10658
| 81>    C       -5.60159       -20.01001       -12.12222
| 82>    C       -5.52468       -19.45961       -10.75262
| 83>    O       -4.97445       -18.43265       -10.41898
| 84>    C       -5.08968       -19.48015       -13.28898
| 85>    C       -5.29498       -20.17483       -14.47441
| 86>    C       -6.00523       -21.38137       -14.46939
| 87>    C       -6.51749       -21.91213       -13.29042
| 88>   Cl       -6.25551       -22.22917       -15.94086
| 89>   Cl       -4.67705       -19.54919       -15.94816
| 90>    H        4.20058         1.46692         1.55844
| 91>    H        5.62905        -3.29506         1.29384
| 92>    H       -0.26215        -1.35169         2.49587
| 93>    H       -2.12516        -3.27777         2.98179
| 94>    H        1.21084        -4.33759         0.41795
| 95>    H       -2.47721        -7.72291         0.78954
| 96>    H       -5.70502        -6.74119         3.52822
| 97>    H       -5.73879        -9.13070         2.54593
| 98>    H       -3.75994        -9.65433         0.26158
| 99>    H       -6.48835       -10.84044         3.53848
|100>    H       -7.77036       -14.61561         2.23200
|101>    H       -4.90510       -14.13282        -2.61703
|102>    H       -7.35990       -15.90421         0.49937
|103>    H       -6.95981       -18.52386        -3.74659
|104>    H       -4.66385       -16.69597        -6.95002
|105>    H       -6.93528       -19.84763        -5.99375
|106>    H       -5.43651       -18.42341        -8.27242
|107>    H       -7.05607       -21.02297        -8.03167
|108>    H       -4.54546       -18.54903       -13.27732
|109>    H       -7.05930       -22.84273       -13.32790
|110> *
|111>
|112>                          ****END OF INPUT****

CARTESIAN COORDINATES (ANGSTROEM)
---------------------------------
  C      2.875990   -2.765560    2.129400
  C      2.946770   -4.056190    2.583320
  C      4.118080   -4.840500    2.534860
  N      5.039780   -5.522640    2.491530
  C      1.888130   -4.707740    3.253690
  N      1.095760   -5.255190    3.877550
  C      4.008880   -1.935110    1.728130
  C      3.623070   -0.582500    1.789430
  C      4.508960    0.435140    1.499170
  C      5.805720    0.096910    1.130560
  C      6.193080   -1.246900    1.058900
  C      5.300750   -2.270390    1.360590
  Cl     7.795070   -1.648510    0.592660
  Cl     6.935620    1.334900    0.760610
  C      2.198850   -0.489050    2.182220
  O      1.545850    0.505630    2.386950
  C      1.720670   -1.898610    2.215510
  C      0.388010   -2.180170    2.233060
  C     -0.247770   -3.393150    1.873100
  C     -1.495910   -3.801080    2.289140
  C     -1.776660   -5.081740    1.727720
  C     -0.631100   -5.383640    0.870940
  C      0.286820   -4.407650    0.957950
  F     -0.548680   -6.482720    0.113920
  C     -2.858550   -5.898020    1.975450
  C     -3.112550   -7.200840    1.476640
  C     -4.275210   -7.686960    2.054230
  C     -4.806460   -6.652450    2.949290
  C     -3.975460   -5.603860    2.886020
  F     -4.107840   -4.446990    3.536210
  C     -4.893370   -8.940090    1.899320
  C     -4.532350   -9.889980    0.979290
  C     -5.123930  -11.154450    0.862350
  S     -4.799120  -12.170340   -0.529140
  C     -5.842630  -13.467430   -0.003870
  C     -6.405790  -13.129460    1.243180
  C     -6.004680  -11.841230    1.705500
  N     -6.587960  -11.621820    2.907860
  C     -7.343590  -12.724110    3.218010
  N     -8.059280  -12.749100    4.431790
  O     -7.952310  -11.758380    5.136390
  O     -8.719000  -13.732900    4.686900
  C     -7.265450  -13.672600    2.219720
  C     -6.037800  -14.601910   -0.798020
  C     -5.532530  -14.814230   -2.076010
  C     -6.003950  -16.055440   -2.559080
  C     -6.816570  -16.610150   -1.469920
  C     -6.850110  -15.762930   -0.430390
  F     -7.428090  -17.793930   -1.537600
  C     -5.809160  -16.628200   -3.802220
  C     -6.340910  -17.845010   -4.300080
  C     -5.954050  -18.003070   -5.621150
  C     -5.120450  -16.854300   -5.993620
  C     -5.041000  -16.060540   -4.915140
  F     -4.373870  -14.904740   -4.824050
  C     -6.333510  -19.072320   -6.454300
  C     -6.025080  -19.183270   -7.782480
  C     -6.479820  -20.269500   -8.553390
  C     -6.261480  -20.424270   -9.898080
  C     -6.724320  -21.514300  -10.734170
  C     -7.411810  -22.631380  -10.335350
  C     -7.828360  -23.659170  -11.208900
  N     -8.200160  -24.527240  -11.860970
  C     -7.797160  -22.933450   -9.011810
  N     -8.148940  -23.254820   -7.967070
  C     -6.314320  -21.221560  -12.106580
  C     -5.601590  -20.010010  -12.122220
  C     -5.524680  -19.459610  -10.752620
  O     -4.974450  -18.432650  -10.418980
  C     -5.089680  -19.480150  -13.288980
  C     -5.294980  -20.174830  -14.474410
  C     -6.005230  -21.381370  -14.469390
  C     -6.517490  -21.912130  -13.290420
  Cl    -6.255510  -22.229170  -15.940860
  Cl    -4.677050  -19.549190  -15.948160
  H      4.200580    1.466920    1.558440
  H      5.629050   -3.295060    1.293840
  H     -0.262150   -1.351690    2.495870
  H     -2.125160   -3.277770    2.981790
  H      1.210840   -4.337590    0.417950
  H     -2.477210   -7.722910    0.789540
  H     -5.705020   -6.741190    3.528220
  H     -5.738790   -9.130700    2.545930
  H     -3.759940   -9.654330    0.261580
  H     -6.488350  -10.840440    3.538480
  H     -7.770360  -14.615610    2.232000
  H     -4.905100  -14.132820   -2.617030
  H     -7.359900  -15.904210    0.499370
  H     -6.959810  -18.523860   -3.746590
  H     -4.663850  -16.695970   -6.950020
  H     -6.935280  -19.847630   -5.993750
  H     -5.436510  -18.423410   -8.272420
  H     -7.056070  -21.022970   -8.031670
  H     -4.545460  -18.549030  -13.277320
  H     -7.059300  -22.842730  -13.327900

 Total Charge           Charge          ....    0
 Multiplicity           Mult            ....    1
 Number of Electrons    NEL             ....  550
 Basis Dimension        Dim             .... 1170

ORBITAL ENERGIES
----------------

  NO   OCC          E(Eh)            E(eV)
   0   2.0000    -101.603647     -2764.7758
   1   2.0000    -101.603313     -2764.7667
   2   2.0000    -101.603046     -2764.7595
   3   2.0000    -101.601550     -2764.7187
   4   2.0000     -88.995251     -2421.6839
   5   2.0000     -24.810625      -675.1314
   6   2.0000     -24.805137      -674.9821
   7   2.0000     -24.801955      -674.8955
   8   2.0000     -24.798740      -674.8080
   9   2.0000     -19.266089      -524.2569
  10   2.0000     -19.265895      -524.2517
  11   2.0000     -19.226654      -523.1838
  12   2.0000     -19.225129      -523.1424
  13   2.0000     -14.676274      -399.3617
  14   2.0000     -14.506803      -394.7502
  15   2.0000     -14.423608      -392.4863
  16   2.0000     -14.423348      -392.4792
  17   2.0000     -14.420440      -392.4001
  18   2.0000     -14.417997      -392.3336
  19   2.0000     -10.384978      -282.5896
  20   2.0000     -10.378682      -282.4183
  21   2.0000     -10.377324      -282.3813
  22   2.0000     -10.376371      -282.3554
  23   2.0000     -10.372249      -282.2432
  24   2.0000     -10.368407      -282.1387
  25   2.0000     -10.364029      -282.0196
  26   2.0000     -10.360964      -281.9362
  27   2.0000     -10.359959      -281.9088
  28   2.0000     -10.359586      -281.8987
  29   2.0000     -10.359098      -281.8854
  30   2.0000     -10.355663      -281.7919
  31   2.0000     -10.353843      -281.7424
  32   2.0000     -10.350579      -281.6536
  33   2.0000     -10.349878      -281.6345
  34   2.0000     -10.348779      -281.6046
  35   2.0000     -10.347193      -281.5614
  36   2.0000     -10.343547      -281.4622
  37   2.0000     -10.326345      -280.9941
  38   2.0000     -10.325694      -280.9764
  39   2.0000     -10.325263      -280.9647
  40   2.0000     -10.323279      -280.9107
  41   2.0000     -10.323240      -280.9096
  42   2.0000     -10.322878      -280.8998
  43   2.0000     -10.322591      -280.8920
  44   2.0000     -10.322508      -280.8897
  45   2.0000     -10.322163      -280.8803
  46   2.0000     -10.321444      -280.8608
  47   2.0000     -10.321368      -280.8587
  48   2.0000     -10.321241      -280.8553
  49   2.0000     -10.320602      -280.8379
  50   2.0000     -10.320388      -280.8320
  51   2.0000     -10.319429      -280.8059
  52   2.0000     -10.315692      -280.7042
  53   2.0000     -10.314028      -280.6590
  54   2.0000     -10.313803      -280.6529
  55   2.0000     -10.312703      -280.6229
  56   2.0000     -10.312187      -280.6089
  57   2.0000     -10.311929      -280.6018
  58   2.0000     -10.311106      -280.5795
  59   2.0000     -10.310123      -280.5527
  60   2.0000     -10.306915      -280.4654
  61   2.0000     -10.305580      -280.4291
  62   2.0000     -10.304993      -280.4131
  63   2.0000     -10.304964      -280.4123
  64   2.0000     -10.304933      -280.4115
  65   2.0000     -10.303640      -280.3763
  66   2.0000     -10.296555      -280.1835
  67   2.0000     -10.293955      -280.1128
  68   2.0000     -10.290795      -280.0268
  69   2.0000     -10.289444      -279.9900
  70   2.0000     -10.288607      -279.9672
  71   2.0000     -10.286577      -279.9120
  72   2.0000     -10.286394      -279.9070
  73   2.0000     -10.284018      -279.8424
  74   2.0000     -10.278048      -279.6799
  75   2.0000      -9.558698      -260.1054
  76   2.0000      -9.558364      -260.0963
  77   2.0000      -9.558068      -260.0883
  78   2.0000      -9.556588      -260.0480
  79   2.0000      -8.089888      -220.1371
  80   2.0000      -7.329090      -199.4347
  81   2.0000      -7.328726      -199.4248
  82   2.0000      -7.328454      -199.4174
  83   2.0000      -7.327002      -199.3779
  84   2.0000      -7.318942      -199.1585
  85   2.0000      -7.318645      -199.1504
  86   2.0000      -7.318341      -199.1422
  87   2.0000      -7.318233      -199.1392
  88   2.0000      -7.317898      -199.1301
  89   2.0000      -7.317589      -199.1217
  90   2.0000      -7.316824      -199.1009
  91   2.0000      -7.316105      -199.0813
  92   2.0000      -6.059216      -164.8797
  93   2.0000      -6.055029      -164.7657
  94   2.0000      -6.052072      -164.6853
  95   2.0000      -1.347198       -36.6591
  96   2.0000      -1.324414       -36.0391
  97   2.0000      -1.319076       -35.8939
  98   2.0000      -1.314679       -35.7742
  99   2.0000      -1.311512       -35.6881
 100   2.0000      -1.167873       -31.7794
 101   2.0000      -1.141423       -31.0597
 102   2.0000      -1.140593       -31.0371
 103   2.0000      -1.131057       -30.7776
 104   2.0000      -1.036019       -28.1915
 105   2.0000      -1.034623       -28.1535
 106   2.0000      -1.021234       -27.7892
 107   2.0000      -1.020922       -27.7807
 108   2.0000      -1.019298       -27.7365
 109   2.0000      -1.004999       -27.3474
 110   2.0000      -1.003244       -27.2997
 111   2.0000      -1.000349       -27.2209
 112   2.0000      -0.998997       -27.1841
 113   2.0000      -0.995403       -27.0863
 114   2.0000      -0.995215       -27.0812
 115   2.0000      -0.987309       -26.8660
 116   2.0000      -0.983778       -26.7700
 117   2.0000      -0.965783       -26.2803
 118   2.0000      -0.964796       -26.2534
 119   2.0000      -0.944903       -25.7121
 120   2.0000      -0.941898       -25.6304
 121   2.0000      -0.938940       -25.5498
 122   2.0000      -0.925680       -25.1890
 123   2.0000      -0.924060       -25.1449
 124   2.0000      -0.909949       -24.7610
 125   2.0000      -0.903736       -24.5919
 126   2.0000      -0.898818       -24.4581
 127   2.0000      -0.887036       -24.1375
 128   2.0000      -0.879712       -23.9382
 129   2.0000      -0.866399       -23.5759
 130   2.0000      -0.865461       -23.5504
 131   2.0000      -0.864133       -23.5143
 132   2.0000      -0.854592       -23.2546
 133   2.0000      -0.847472       -23.0609
 134   2.0000      -0.821934       -22.3660
 135   2.0000      -0.818941       -22.2845
 136   2.0000      -0.816471       -22.2173
 137   2.0000      -0.809584       -22.0299
 138   2.0000      -0.805955       -21.9311
 139   2.0000      -0.798778       -21.7359
 140   2.0000      -0.781003       -21.2522
 141   2.0000      -0.775811       -21.1109
 142   2.0000      -0.771147       -20.9840
 143   2.0000      -0.764551       -20.8045
 144   2.0000      -0.756383       -20.5822
 145   2.0000      -0.737802       -20.0766
 146   2.0000      -0.725798       -19.7500
 147   2.0000      -0.723796       -19.6955
 148   2.0000      -0.720278       -19.5998
 149   2.0000      -0.713173       -19.4064
 150   2.0000      -0.702117       -19.1056
 151   2.0000      -0.700327       -19.0569
 152   2.0000      -0.695899       -18.9364
 153   2.0000      -0.691684       -18.8217
 154   2.0000      -0.687208       -18.6999
 155   2.0000      -0.686309       -18.6754
 156   2.0000      -0.680640       -18.5211
 157   2.0000      -0.678194       -18.4546
 158   2.0000      -0.674054       -18.3420
 159   2.0000      -0.673203       -18.3188
 160   2.0000      -0.664636       -18.0857
 161   2.0000      -0.659066       -17.9341
 162   2.0000      -0.657526       -17.8922
 163   2.0000      -0.647947       -17.6315
 164   2.0000      -0.646689       -17.5973
 165   2.0000      -0.642640       -17.4871
 166   2.0000      -0.636950       -17.3323
 167   2.0000      -0.631608       -17.1869
 168   2.0000      -0.627683       -17.0801
 169   2.0000      -0.622830       -16.9481
 170   2.0000      -0.620639       -16.8885
 171   2.0000      -0.614218       -16.7137
 172   2.0000      -0.610242       -16.6055
 173   2.0000      -0.608481       -16.5576
 174   2.0000      -0.601407       -16.3651
 175   2.0000      -0.599409       -16.3108
 176   2.0000      -0.591456       -16.0943
 177   2.0000      -0.585132       -15.9223
 178   2.0000      -0.582424       -15.8486
 179   2.0000      -0.580028       -15.7834
 180   2.0000      -0.574846       -15.6424
 181   2.0000      -0.573001       -15.5922
 182   2.0000      -0.568892       -15.4804
 183   2.0000      -0.568532       -15.4705
 184   2.0000      -0.566925       -15.4268
 185   2.0000      -0.566344       -15.4110
 186   2.0000      -0.565292       -15.3824
 187   2.0000      -0.564522       -15.3614
 188   2.0000      -0.563280       -15.3276
 189   2.0000      -0.559970       -15.2376
 190   2.0000      -0.556681       -15.1480
 191   2.0000      -0.555440       -15.1143
 192   2.0000      -0.554125       -15.0785
 193   2.0000      -0.550360       -14.9761
 194   2.0000      -0.549491       -14.9524
 195   2.0000      -0.548709       -14.9311
 196   2.0000      -0.547179       -14.8895
 197   2.0000      -0.543005       -14.7759
 198   2.0000      -0.538299       -14.6479
 199   2.0000      -0.536181       -14.5902
 200   2.0000      -0.532273       -14.4839
 201   2.0000      -0.527772       -14.3614
 202   2.0000      -0.521116       -14.1803
 203   2.0000      -0.520141       -14.1537
 204   2.0000      -0.514892       -14.0109
 205   2.0000      -0.511882       -13.9290
 206   2.0000      -0.511311       -13.9135
 207   2.0000      -0.510158       -13.8821
 208   2.0000      -0.509559       -13.8658
 209   2.0000      -0.504051       -13.7159
 210   2.0000      -0.500898       -13.6301
 211   2.0000      -0.499666       -13.5966
 212   2.0000      -0.498488       -13.5645
 213   2.0000      -0.493744       -13.4355
 214   2.0000      -0.492774       -13.4091
 215   2.0000      -0.491171       -13.3654
 216   2.0000      -0.488493       -13.2926
 217   2.0000      -0.488064       -13.2809
 218   2.0000      -0.484111       -13.1733
 219   2.0000      -0.482613       -13.1326
 220   2.0000      -0.480460       -13.0740
 221   2.0000      -0.478351       -13.0166
 222   2.0000      -0.476419       -12.9640
 223   2.0000      -0.473721       -12.8906
 224   2.0000      -0.470104       -12.7922
 225   2.0000      -0.469413       -12.7734
 226   2.0000      -0.463251       -12.6057
 227   2.0000      -0.459412       -12.5012
 228   2.0000      -0.458596       -12.4790
 229   2.0000      -0.457759       -12.4563
 230   2.0000      -0.454847       -12.3770
 231   2.0000      -0.453708       -12.3460
 232   2.0000      -0.450717       -12.2646
 233   2.0000      -0.448469       -12.2035
 234   2.0000      -0.447417       -12.1748
 235   2.0000      -0.442033       -12.0283
 236   2.0000      -0.440166       -11.9775
 237   2.0000      -0.437199       -11.8968
 238   2.0000      -0.434085       -11.8120
 239   2.0000      -0.433032       -11.7834
 240   2.0000      -0.432668       -11.7735
 241   2.0000      -0.432364       -11.7652
 242   2.0000      -0.432060       -11.7570
 243   2.0000      -0.431470       -11.7409
 244   2.0000      -0.429668       -11.6918
 245   2.0000      -0.427322       -11.6280
 246   2.0000      -0.422179       -11.4881
 247   2.0000      -0.415964       -11.3190
 248   2.0000      -0.414082       -11.2677
 249   2.0000      -0.412576       -11.2268
 250   2.0000      -0.411714       -11.2033
 251   2.0000      -0.410555       -11.1718
 252   2.0000      -0.404140       -10.9972
 253   2.0000      -0.401835       -10.9345
 254   2.0000      -0.396023       -10.7763
 255   2.0000      -0.389166       -10.5898
 256   2.0000      -0.385325       -10.4852
 257   2.0000      -0.384299       -10.4573
 258   2.0000      -0.380620       -10.3572
 259   2.0000      -0.362987        -9.8774
 260   2.0000      -0.355665        -9.6781
 261   2.0000      -0.347675        -9.4607
 262   2.0000      -0.345122        -9.3912
 263   2.0000      -0.344424        -9.3722
 264   2.0000      -0.341702        -9.2982
 265   2.0000      -0.339272        -9.2321
 266   2.0000      -0.330166        -8.9843
 267   2.0000      -0.322902        -8.7866
 268   2.0000      -0.320564        -8.7230
 269   2.0000      -0.314476        -8.5573
 270   2.0000      -0.314006        -8.5445
 271   2.0000      -0.300567        -8.1788
 272   2.0000      -0.290463        -7.9039
 273   2.0000      -0.279466        -7.6047
 274   2.0000      -0.245775        -6.6879
 275   0.0000      -0.145931        -3.9710
 276   0.0000      -0.118235        -3.2173
 277   0.0000      -0.090838        -2.4718
 278   0.0000      -0.083428        -2.2702
 279   0.0000      -0.076645        -2.0856

MULLIKEN ATOMIC CHARGES
-----------------------
   0 C :    0.256078
   1 C :   -0.334746
   2 C :   -0.183612
   3 N :    0.163915
   4 C :   -0.190291
   5 N :    0.179385
   6 C :    0.024873
   7 C :   -0.001050
   8 C :   -0.035359
   9 C :    0.061934
  10 C :    0.051638
  11 C :   -0.021945
  12 Cl:   -0.034045
  13 Cl:   -0.041699
  14 C :    0.142838
  15 O :   -0.130937
  16 C :   -0.120846
  17 C :    0.041143
  18 C :    0.047182
  19 C :   -0.029254
  20 C :    0.010654
  21 C :    0.258234
  22 C :   -0.068394
  23 F :   -0.173939
  24 C :    0.017694
  25 C :   -0.092139
  26 C :    0.115223
  27 C :   -0.080864
  28 C :    0.265887
  29 F :   -0.167072
  30 C :   -0.026174
  31 C :    0.078551
  32 C :   -0.160376
  33 S :    0.185033
  34 C :   -0.103025
  35 C :    0.102823
  36 C :    0.126385
  37 N :   -0.031341
  38 C :    0.141127
  39 N :    0.287432
  40 O :   -0.259034
  41 O :   -0.226249
  42 C :   -0.101671
  43 C :    0.110065
  44 C :   -0.116098
  45 C :    0.031910
  46 C :    0.259784
  47 C :   -0.079699
  48 F :   -0.165078
  49 C :    0.004076
  50 C :   -0.068559
  51 C :    0.105527
  52 C :   -0.071941
  53 C :    0.256308
  54 F :   -0.174047
  55 C :    0.023823
  56 C :   -0.004037
  57 C :   -0.030831
  58 C :   -0.071449
  59 C :    0.326983
  60 C :   -0.345519
  61 C :   -0.189736
  62 N :    0.158458
  63 C :   -0.188358
  64 N :    0.151252
  65 C :    0.028276
  66 C :   -0.013651
  67 C :    0.147732
  68 O :   -0.146428
  69 C :   -0.027146
  70 C :    0.058258
  71 C :    0.049997
  72 C :   -0.011053
  73 Cl:   -0.033878
  74 Cl:   -0.040605
  75 H :    0.002370
  76 H :    0.004446
  77 H :    0.025959
  78 H :    0.000876
  79 H :   -0.002226
  80 H :   -0.009747
  81 H :   -0.012721
  82 H :   -0.046549
  83 H :   -0.003906
  84 H :    0.149953
  85 H :    0.002679
  86 H :   -0.001601
  87 H :   -0.028182
  88 H :   -0.002615
  89 H :   -0.001254
  90 H :    0.006267
  91 H :    0.028467
  92 H :    0.011865
  93 H :   -0.001707
  94 H :   -0.000676
Sum of atomic charges:   -0.0000000

LOEWDIN ATOMIC CHARGES
----------------------
   0 C :    0.062545
   1 C :   -0.126018
   2 C :   -0.021208
   3 N :   -0.042108
   4 C :   -0.019421
   5 N :   -0.039879
   6 C :   -0.011308
   7 C :   -0.046295
   8 C :    0.002239
   9 C :   -0.135124
  10 C :   -0.129259
  11 C :   -0.015426
  12 Cl:    0.164171
  13 Cl:    0.159991
  14 C :    0.083379
  15 O :   -0.131965
  16 C :   -0.087462
  17 C :    0.076249
  18 C :   -0.027471
  19 C :    0.004091
  20 C :   -0.007454
  21 C :    0.082613
  22 C :   -0.056018
  23 F :   -0.050182
  24 C :    0.021224
  25 C :   -0.063783
  26 C :    0.010819
  27 C :   -0.056633
  28 C :    0.086423
  29 F :   -0.042777
  30 C :   -0.034911
  31 C :   -0.002374
  32 C :   -0.188998
  33 S :    0.487066
  34 C :   -0.149750
  35 C :   -0.057403
  36 C :    0.004716
  37 N :    0.080915
  38 C :    0.001729
  39 N :    0.279537
  40 O :   -0.218957
  41 O :   -0.188016
  42 C :   -0.024051
  43 C :   -0.011632
  44 C :   -0.063412
  45 C :    0.007671
  46 C :    0.090387
  47 C :   -0.058102
  48 F :   -0.041907
  49 C :   -0.005061
  50 C :   -0.023771
  51 C :   -0.011518
  52 C :   -0.050236
  53 C :    0.078433
  54 F :   -0.050700
  55 C :    0.037928
  56 C :   -0.025142
  57 C :    0.067874
  58 C :   -0.093708
  59 C :    0.072474
  60 C :   -0.133432
  61 C :   -0.020312
  62 N :   -0.045449
  63 C :   -0.019819
  64 N :   -0.047674
  65 C :   -0.013007
  66 C :   -0.043802
  67 C :    0.085111
  68 O :   -0.140356
  69 C :    0.000903
  70 C :   -0.134213
  71 C :   -0.130064
  72 C :   -0.012353
  73 Cl:    0.163540
  74 Cl:    0.160499
  75 H :    0.046831
  76 H :    0.044691
  77 H :    0.051832
  78 H :    0.030216
  79 H :    0.031051
  80 H :    0.022436
  81 H :    0.031766
  82 H :    0.021790
  83 H :    0.038777
  84 H :    0.092953
  85 H :    0.041331
  86 H :    0.021869
  87 H :    0.030304
  88 H :    0.028148
  89 H :    0.036516
  90 H :    0.040624
  91 H :    0.033327
  92 H :    0.042809
  93 H :    0.045685
  94 H :    0.044436

  Mayer bond orders larger than 0.100000
B(  0-C ,  1-C ) :   1.6593 B(  0-C ,  6-C ) :   1.0046 B(  0-C , 16-C ) :   1.0455
B(  1-C ,  2-C ) :   1.1326 B(  1-C ,  4-C ) :   1.1568 B(  2-C ,  3-N ) :   2.9912
B(  4-C ,  5-N ) :   3.0064 B(  6-C ,  7-C ) :   1.3313 B(  6-C , 11-C ) :   1.3455
B(  7-C ,  8-C ) :   1.3453 B(  7-C , 14-C ) :   0.9170 B(  8-C ,  9-C ) :   1.3441
B(  8-C , 75-H ) :   1.0179 B(  9-C , 10-C ) :   1.4070 B(  9-C , 13-Cl) :   1.0481
B( 10-C , 11-C ) :   1.3550 B( 10-C , 12-Cl) :   1.0717 B( 11-C , 76-H ) :   0.9914
B( 14-C , 15-O ) :   2.2834 B( 14-C , 16-C ) :   0.9369 B( 16-C , 17-C ) :   1.6326
B( 17-C , 18-C ) :   1.0967 B( 17-C , 77-H ) :   0.9570 B( 18-C , 19-C ) :   1.5078
B( 18-C , 22-C ) :   1.0246 B( 19-C , 20-C ) :   1.1186 B( 19-C , 78-H ) :   1.0188
B( 20-C , 21-C ) :   1.0411 B( 20-C , 24-C ) :   1.4360 B( 21-C , 22-C ) :   1.6511
B( 21-C , 23-F ) :   1.1298 B( 22-C , 79-H ) :   1.0111 B( 24-C , 25-C ) :   1.1716
B( 24-C , 28-C ) :   1.0014 B( 25-C , 26-C ) :   1.4934 B( 25-C , 80-H ) :   1.0081
B( 26-C , 27-C ) :   0.9962 B( 26-C , 30-C ) :   1.1879 B( 27-C , 28-C ) :   1.6740
B( 27-C , 81-H ) :   1.0202 B( 28-C , 29-F ) :   1.1324 B( 30-C , 31-C ) :   1.5557
B( 30-C , 82-H ) :   0.9649 B( 31-C , 32-C ) :   1.2076 B( 31-C , 83-H ) :   0.9538
B( 32-C , 33-S ) :   1.1037 B( 32-C , 36-C ) :   1.3203 B( 33-S , 34-C ) :   1.1511
B( 34-C , 35-C ) :   1.2813 B( 34-C , 43-C ) :   1.2212 B( 35-C , 36-C ) :   1.2544
B( 35-C , 42-C ) :   1.1532 B( 36-C , 37-N ) :   1.2048 B( 37-N , 38-C ) :   1.1774
B( 37-N , 84-H ) :   0.8989 B( 38-C , 39-N ) :   0.9193 B( 38-C , 42-C ) :   1.5190
B( 39-N , 40-O ) :   1.4817 B( 39-N , 41-O ) :   1.5437 B( 40-O , 41-O ) :   0.2738
B( 42-C , 85-H ) :   1.0197 B( 43-C , 44-C ) :   1.4546 B( 43-C , 47-C ) :   1.0206
B( 44-C , 45-C ) :   1.1885 B( 44-C , 86-H ) :   1.0095 B( 45-C , 46-C ) :   1.0149
B( 45-C , 49-C ) :   1.4088 B( 46-C , 47-C ) :   1.6704 B( 46-C , 48-F ) :   1.1384
B( 47-C , 87-H ) :   1.0186 B( 49-C , 50-C ) :   1.1350 B( 49-C , 53-C ) :   1.0308
B( 50-C , 51-C ) :   1.4729 B( 50-C , 88-H ) :   1.0227 B( 51-C , 52-C ) :   1.0238
B( 51-C , 55-C ) :   1.1362 B( 52-C , 53-C ) :   1.6583 B( 52-C , 89-H ) :   1.0158
B( 53-C , 54-F ) :   1.1273 B( 55-C , 56-C ) :   1.5130 B( 55-C , 90-H ) :   0.9914
B( 56-C , 57-C ) :   1.1776 B( 56-C , 91-H ) :   0.9795 B( 57-C , 58-C ) :   1.5173
B( 57-C , 92-H ) :   0.9632 B( 58-C , 59-C ) :   1.0708 B( 58-C , 67-C ) :   0.9493
B( 59-C , 60-C ) :   1.6335 B( 59-C , 65-C ) :   0.9896 B( 60-C , 61-C ) :   1.1401
B( 60-C , 63-C ) :   1.1473 B( 61-C , 62-N ) :   2.9710 B( 63-C , 64-N ) :   2.9621
B( 65-C , 66-C ) :   1.3310 B( 65-C , 72-C ) :   1.3439 B( 66-C , 67-C ) :   0.9443
B( 66-C , 69-C ) :   1.3445 B( 67-C , 68-O ) :   2.2021 B( 69-C , 70-C ) :   1.3421
B( 69-C , 93-H ) :   1.0163 B( 70-C , 71-C ) :   1.4061 B( 70-C , 74-Cl) :   1.0494
B( 71-C , 72-C ) :   1.3593 B( 71-C , 73-Cl) :   1.0776 B( 72-C , 94-H ) :   0.9847

-----------------------------------------------------------------------------
         ABSORPTION SPECTRUM VIA TRANSITION ELECTRIC DIPOLE MOMENTS
-----------------------------------------------------------------------------
State   Energy  Wavelength   fosc         T2         TX        TY        TZ
        (cm-1)    (nm)                  (au**2)     (au)      (au)      (au)
-----------------------------------------------------------------------------
   0    8723.4   1146.3   1.443858468  54.48979  -2.26691  -5.75763  -4.02500
   1   13770.6    726.2   0.366074874   8.75170   1.97721   0.51704  -2.13893
   2   14813.3    675.1   0.060585051   1.34645  -0.12395   0.39664   1.08340
   3   16300.8    613.5   0.035507585   0.71712   0.81338   0.22329   0.07524
   4   17920.0    558.0   0.004314593   0.07926   0.22268  -0.04863  -0.16526
   5   20105.0    497.4   0.452456249   7.40880   0.77238   2.28633   1.25893
   6   20842.0    479.8   0.396386509   6.26118   0.96225   1.76753   1.48697
   7   22423.3    446.0   0.238307291   3.49875   1.29124  -0.55448  -1.23451
   8   22795.9    438.7   0.349748671   5.05097   0.49743  -0.07228  -2.19050
   9   23668.1    422.5   0.030166474   0.41960   0.47338   0.43670  -0.06935
  10   24445.4    409.1   0.046529143   0.62662  -0.64764  -0.17795  -0.41895
  11   24943.3    400.9   0.027488326   0.36280   0.19681  -0.33720   0.45865
  12   25699.9    389.1   0.011290997   0.14464  -0.35088   0.11170   0.09510
  13   25962.6    385.2   0.466099141   5.91024  -1.75449  -1.17974   1.20008
  14   26405.7    378.7   0.128029388   1.59620  -1.02629  -0.71534  -0.17669
  15   26714.9    374.3   0.000991875   0.01222  -0.06058  -0.04610   0.08017
  16   26718.7    374.3   0.079028028   0.97374  -0.51308  -0.46813   0.70095
  17   27183.7    367.9   0.240791904   2.91615   0.08065  -0.51169  -1.62721
  18   27268.9    366.7   0.096006182   1.15906  -0.99432  -0.34721  -0.22324
  19   27877.3    358.7   0.067893879   0.80178  -0.32653  -0.42425  -0.71775
  20   28503.2    350.8   0.004124899   0.04764  -0.06482  -0.08122  -0.19195
  21   28645.2    349.1   0.030767408   0.35360  -0.05694  -0.43545  -0.40093
  22   28941.2    345.5   0.052674981   0.59919  -0.50268  -0.20846  -0.55049
  23   30548.9    327.3   0.046728080   0.50357   0.47864  -0.12202  -0.50949
  24   30691.1    325.8   0.067608865   0.72522   0.29702   0.63364   0.48528
  25   31502.3    317.4   0.022148090   0.23146  -0.19595   0.34919  -0.26669
  26   31555.4    316.9   0.011786514   0.12297   0.19539   0.22503  -0.18480
  27   31753.0    314.9   0.013835502   0.14345   0.35536  -0.08280  -0.10152
  28   31761.6    314.8   0.002437804   0.02527  -0.12891   0.09088  -0.01979
  29   32070.6    311.8   0.071535975   0.73433  -0.23267  -0.76249   0.31433
  30   32426.9    308.4   0.041423658   0.42055  -0.23776  -0.56737   0.20522
  31   32553.7    307.2   0.167600614   1.69493  -0.54910  -0.87045   0.79733
  32   32642.8    306.3   0.045613887   0.46003   0.02817  -0.62224  -0.26843
  33   33043.6    302.6   0.043235028   0.43075  -0.50401  -0.41848   0.03998
  34   33161.3    301.6   0.043670528   0.43354  -0.17224  -0.36660   0.51912
  35   33417.0    299.2   0.014838527   0.14618  -0.02015  -0.25271   0.28621
  36   33653.8    297.1   0.042414440   0.41491  -0.49548  -0.32309   0.25499
  37   33835.4    295.5   0.059768816   0.58154   0.52202   0.53785  -0.14050
  38   34110.5    293.2   0.216264268   2.08724   0.36640   0.84057  -1.11644
  39   34226.7    292.2   0.113707755   1.09371   0.35532  -0.90600  -0.38290
  40   34396.3    290.7   0.229425506   2.19587   0.81950   1.22458  -0.15717
  41   34935.7    286.2   0.199035639   1.87559  -0.47018  -1.18687   0.49583
  42   35448.3    282.1   0.508678248   4.72415  -1.01670  -1.41932   1.29461
  43   35714.4    280.0   0.034448256   0.31754  -0.16592  -0.51799   0.14729
  44   35910.8    278.5   0.117540056   1.07755   0.62775   0.79962  -0.20995
  45   36085.2    277.1   0.025522680   0.23285   0.32244   0.33495  -0.12918
  46   36485.3    274.1   0.000860419   0.00776   0.04640  -0.00095  -0.07490
  47   36739.5    272.2   0.012258086   0.10984  -0.25200  -0.17312   0.12793
  48   36783.4    271.9   0.011000122   0.09845   0.14307  -0.05307  -0.27416
  49   36903.6    271.0   0.028918828   0.25798  -0.06342  -0.47733  -0.16160
  50   37368.7    267.6   0.056729628   0.49978   0.07710  -0.28743  -0.64126
  51   37563.8    266.2   0.004408031   0.03863  -0.16521  -0.02315   0.10393
  52   37897.9    263.9   0.001484873   0.01290  -0.02528  -0.10870  -0.02109
  53   38015.5    263.1   0.007949918   0.06885   0.19035   0.05102  -0.17323
  54   38410.1    260.3   0.279784891   2.39803   0.85125   0.02208  -1.29341
  55   39109.2    255.7   0.063919812   0.53806  -0.69706   0.19610   0.11710
  56   39278.6    254.6   0.013606102   0.11404   0.04345  -0.27366  -0.19303
  57   39355.9    254.1   0.098215261   0.82157   0.29083   0.78370   0.35043
  58   39663.7    252.1   0.073001301   0.60592  -0.07928  -0.38459   0.67210
  59   39881.1    250.7   0.099124023   0.81825   0.75315  -0.13750  -0.48177
  60   39955.7    250.3   0.021939421   0.18077  -0.27388  -0.23610   0.22364
  61   40091.5    249.4   0.102884640   0.84484  -0.60139  -0.67258  -0.17549

FINAL SINGLE POINT ENERGY     -5408.843579928267

DIPOLE MOMENT
-------------
                                X             Y             Z
Electronic contribution:     34.25612      13.64924     -32.39599
Nuclear contribution   :    -34.58485     -11.63421      32.06067
                        -----------------------------------------
Total Dipole Moment    :     -0.32873       2.01503      -0.33532
                        -----------------------------------------
Magnitude (a.u.)       :      2.06903
Magnitude (Debye)      :      5.25904

Rotational constants in cm-1:     0.000806     0.000147     0.000127
Rotational constants in MHz :    24.174753     4.412097     3.821862

                             ****ORCA TERMINATED NORMALLY****
TOTAL RUN TIME: 0 days 0 hours 10 minutes 44 seconds 968 msec
