                         Program Version 4.2.0 -  RELEASE  -
|  1> # ORCA input file
|  2> # SCF done       -198.908600868500          0.000523512956
|  3> ! CAM-B3LYP def2-SVP def2/J RIJCOSX Grid4 TightSCF
|  4> %maxcore 5000
|  5> %tddft
|  6>     Mode sTDDFT
|  7>     Ethresh 5.0
|  8>     maxcore 5000
|  9> end
| 10>
| 11> %pal
| 12>   nprocs 6
| 13>   end
| 14> * xyz 0 1
| 15>    C        2.41356        -2.45914         6.19167
| 16>    C        1.23074        -2.78252         6.80375
| 17>    C        1.06380        -2.84544         8.20193
| 18>    N        0.88925        -2.93296         9.33296
| 19>    C        0.02256        -2.98588         6.10137
| 20>    N       -1.00030        -3.07906         5.58966
| 21>    C        3.60463        -1.93441         6.85612
| 22>    C        4.40621        -1.28554         5.89846
| 23>    C        5.58655        -0.66229         6.24778
| 24>    C        5.98125        -0.69566         7.57997
| 25>    C        5.19328        -1.34739         8.53543
| 26>    C        3.99880        -1.96652         8.18241
| 27>   Cl        5.70128        -1.39041        10.17472
| 28>   Cl        7.44600         0.06610         8.05240
| 29>    C        3.78382        -1.41591         4.56024
| 30>    O        4.16211        -0.93980         3.51616
| 31>    C        2.62006        -2.31648         4.76840
| 32>    C        2.00972        -2.91754         3.70548
| 33>    C        1.22148        -4.09011         3.70200
| 34>    C        0.38061        -4.49042         2.68241
| 35>    C       -0.20884        -5.73995         3.02824
| 36>    C        0.37652        -6.09422         4.31768
| 37>    C        1.21803        -5.13252         4.73110
| 38>    F        0.11631        -7.24073         4.95825
| 39>    C       -1.11929        -6.48698         2.30994
| 40>    C       -1.70385        -7.72731         2.65855
| 41>    C       -2.52635        -8.15321         1.62902
| 42>    C       -2.48803        -7.13982         0.56773
| 43>    C       -1.66560        -6.16648         0.98263
| 44>    F       -1.35170        -5.05704         0.30798
| 45>    C       -3.23999        -9.36488         1.61680
| 46>    C       -3.97466        -9.84430         0.56811
| 47>    C       -4.64422       -11.08277         0.54577
| 48>    N       -4.70911       -11.94535         1.62110
| 49>    C       -5.38759       -13.05794         1.24413
| 50>    C       -5.83217       -14.29250         1.67899
| 51>    C       -6.47350       -14.88937         0.57374
| 52>    N       -6.42375       -14.02184        -0.50025
| 53>    C       -5.76663       -12.89566        -0.12293
| 54>    C       -5.31065       -11.66254        -0.55372
| 55>    C       -7.05898       -16.16376         0.45734
| 56>    C       -7.16297       -17.06799         1.47757
| 57>    C       -7.68301       -18.36991         1.35256
| 58>    C       -8.12846       -19.03503         0.22074
| 59>    C       -8.50769       -20.35120         0.57368
| 60>    C       -8.28091       -20.44604         2.02299
| 61>    C       -7.79404       -19.28891         2.49029
| 62>    F       -8.53401       -21.54703         2.73767
| 63>    C       -8.95997       -21.36478        -0.24904
| 64>    C       -9.29539       -22.69917         0.10319
| 65>    C       -9.66445       -23.39237        -1.03784
| 66>    C       -9.57564       -22.47465        -2.17613
| 67>    C       -9.16365       -21.29070        -1.69605
| 68>    F       -8.95479       -20.17505        -2.40988
| 69>    C      -10.04340       -24.74762        -1.07859
| 70>    C      -10.37331       -25.44015        -2.21138
| 71>    C      -10.73037       -26.79877        -2.16404
| 72>    C      -11.05481       -27.56679        -3.25452
| 73>    C      -11.42467       -28.96667        -3.24955
| 74>    C      -11.55872       -29.78813        -2.15925
| 75>    C      -11.92735       -31.14823        -2.23251
| 76>    N      -12.22163       -32.25766        -2.21620
| 77>    C      -11.35922       -29.41302        -0.81401
| 78>    N      -11.22041       -29.19480         0.30511
| 79>    C      -11.64736       -29.36902        -4.63802
| 80>    C      -11.43860       -28.25855        -5.47338
| 81>    C      -11.06530       -27.08391        -4.65496
| 82>    O      -10.82156       -25.97015        -5.06826
| 83>    C      -11.57872       -28.34013        -6.84338
| 84>    C      -11.93557       -29.56295        -7.39772
| 85>    C      -12.14418       -30.67475        -6.57458
| 86>    C      -12.00281       -30.58705        -5.19381
| 87>   Cl      -12.58277       -32.18179        -7.27156
| 88>   Cl      -12.11940       -29.70737        -9.09888
| 89>    H        6.18661        -0.16233         5.50406
| 90>    H        3.41538        -2.46265         8.94118
| 91>    H        2.23023        -2.48261         2.73579
| 92>    H        0.16066        -3.92775         1.79630
| 93>    H        1.82740        -5.14728         5.61333
| 94>    H       -1.52474        -8.25666         3.57357
| 95>    H       -3.02813        -7.17674        -0.35722
| 96>    H       -3.15125        -9.95469         2.52048
| 97>    H       -4.04072        -9.26435        -0.34007
| 98>    H       -4.32091       -11.76154         2.52937
| 99>    H       -5.71444       -14.73303         2.64729
|100>    H       -6.81186       -14.21793        -1.40708
|101>    H       -5.41159       -11.21216        -1.52033
|102>    H       -7.43785       -16.43442        -0.51877
|103>    H       -6.81417       -16.78347         2.46041
|104>    H       -8.16759       -18.64033        -0.77454
|105>    H       -7.52843       -19.04994         3.50151
|106>    H       -9.25856       -23.10512         1.09515
|107>    H       -9.80219       -22.71676        -3.19516
|108>    H      -10.06121       -25.26829        -0.12789
|109>    H      -10.35963       -24.95166        -3.17279
|110>    H      -10.74057       -27.26105        -1.18537
|111>    H      -11.41408       -27.47463        -7.46541
|112>    H      -12.17155       -31.46585        -4.59378
|113> *
|114>
|115>                          ****END OF INPUT****

CARTESIAN COORDINATES (ANGSTROEM)
---------------------------------
  C      2.413560   -2.459140    6.191670
  C      1.230740   -2.782520    6.803750
  C      1.063800   -2.845440    8.201930
  N      0.889250   -2.932960    9.332960
  C      0.022560   -2.985880    6.101370
  N     -1.000300   -3.079060    5.589660
  C      3.604630   -1.934410    6.856120
  C      4.406210   -1.285540    5.898460
  C      5.586550   -0.662290    6.247780
  C      5.981250   -0.695660    7.579970
  C      5.193280   -1.347390    8.535430
  C      3.998800   -1.966520    8.182410
  Cl     5.701280   -1.390410   10.174720
  Cl     7.446000    0.066100    8.052400
  C      3.783820   -1.415910    4.560240
  O      4.162110   -0.939800    3.516160
  C      2.620060   -2.316480    4.768400
  C      2.009720   -2.917540    3.705480
  C      1.221480   -4.090110    3.702000
  C      0.380610   -4.490420    2.682410
  C     -0.208840   -5.739950    3.028240
  C      0.376520   -6.094220    4.317680
  C      1.218030   -5.132520    4.731100
  F      0.116310   -7.240730    4.958250
  C     -1.119290   -6.486980    2.309940
  C     -1.703850   -7.727310    2.658550
  C     -2.526350   -8.153210    1.629020
  C     -2.488030   -7.139820    0.567730
  C     -1.665600   -6.166480    0.982630
  F     -1.351700   -5.057040    0.307980
  C     -3.239990   -9.364880    1.616800
  C     -3.974660   -9.844300    0.568110
  C     -4.644220  -11.082770    0.545770
  N     -4.709110  -11.945350    1.621100
  C     -5.387590  -13.057940    1.244130
  C     -5.832170  -14.292500    1.678990
  C     -6.473500  -14.889370    0.573740
  N     -6.423750  -14.021840   -0.500250
  C     -5.766630  -12.895660   -0.122930
  C     -5.310650  -11.662540   -0.553720
  C     -7.058980  -16.163760    0.457340
  C     -7.162970  -17.067990    1.477570
  C     -7.683010  -18.369910    1.352560
  C     -8.128460  -19.035030    0.220740
  C     -8.507690  -20.351200    0.573680
  C     -8.280910  -20.446040    2.022990
  C     -7.794040  -19.288910    2.490290
  F     -8.534010  -21.547030    2.737670
  C     -8.959970  -21.364780   -0.249040
  C     -9.295390  -22.699170    0.103190
  C     -9.664450  -23.392370   -1.037840
  C     -9.575640  -22.474650   -2.176130
  C     -9.163650  -21.290700   -1.696050
  F     -8.954790  -20.175050   -2.409880
  C    -10.043400  -24.747620   -1.078590
  C    -10.373310  -25.440150   -2.211380
  C    -10.730370  -26.798770   -2.164040
  C    -11.054810  -27.566790   -3.254520
  C    -11.424670  -28.966670   -3.249550
  C    -11.558720  -29.788130   -2.159250
  C    -11.927350  -31.148230   -2.232510
  N    -12.221630  -32.257660   -2.216200
  C    -11.359220  -29.413020   -0.814010
  N    -11.220410  -29.194800    0.305110
  C    -11.647360  -29.369020   -4.638020
  C    -11.438600  -28.258550   -5.473380
  C    -11.065300  -27.083910   -4.654960
  O    -10.821560  -25.970150   -5.068260
  C    -11.578720  -28.340130   -6.843380
  C    -11.935570  -29.562950   -7.397720
  C    -12.144180  -30.674750   -6.574580
  C    -12.002810  -30.587050   -5.193810
  Cl   -12.582770  -32.181790   -7.271560
  Cl   -12.119400  -29.707370   -9.098880
  H      6.186610   -0.162330    5.504060
  H      3.415380   -2.462650    8.941180
  H      2.230230   -2.482610    2.735790
  H      0.160660   -3.927750    1.796300
  H      1.827400   -5.147280    5.613330
  H     -1.524740   -8.256660    3.573570
  H     -3.028130   -7.176740   -0.357220
  H     -3.151250   -9.954690    2.520480
  H     -4.040720   -9.264350   -0.340070
  H     -4.320910  -11.761540    2.529370
  H     -5.714440  -14.733030    2.647290
  H     -6.811860  -14.217930   -1.407080
  H     -5.411590  -11.212160   -1.520330
  H     -7.437850  -16.434420   -0.518770
  H     -6.814170  -16.783470    2.460410
  H     -8.167590  -18.640330   -0.774540
  H     -7.528430  -19.049940    3.501510
  H     -9.258560  -23.105120    1.095150
  H     -9.802190  -22.716760   -3.195160
  H    -10.061210  -25.268290   -0.127890
  H    -10.359630  -24.951660   -3.172790
  H    -10.740570  -27.261050   -1.185370
  H    -11.414080  -27.474630   -7.465410
  H    -12.171550  -31.465850   -4.593780

 Total Charge           Charge          ....    0
 Multiplicity           Mult            ....    1
 Number of Electrons    NEL             ....  534
 Basis Dimension        Dim             .... 1172

ORBITAL ENERGIES
----------------

  NO   OCC          E(Eh)            E(eV)
   0   2.0000    -101.600182     -2764.6815
   1   2.0000    -101.599571     -2764.6649
   2   2.0000    -101.598621     -2764.6390
   3   2.0000    -101.596707     -2764.5869
   4   2.0000     -24.802683      -674.9153
   5   2.0000     -24.799966      -674.8414
   6   2.0000     -24.792541      -674.6393
   7   2.0000     -24.792286      -674.6324
   8   2.0000     -19.219680      -522.9941
   9   2.0000     -19.218873      -522.9721
  10   2.0000     -14.485339      -394.1661
  11   2.0000     -14.482309      -394.0837
  12   2.0000     -14.418960      -392.3599
  13   2.0000     -14.416563      -392.2946
  14   2.0000     -14.413863      -392.2211
  15   2.0000     -14.412930      -392.1958
  16   2.0000     -10.371185      -282.2143
  17   2.0000     -10.370855      -282.2053
  18   2.0000     -10.369577      -282.1705
  19   2.0000     -10.366687      -282.0919
  20   2.0000     -10.357202      -281.8338
  21   2.0000     -10.357049      -281.8296
  22   2.0000     -10.356848      -281.8241
  23   2.0000     -10.356093      -281.8036
  24   2.0000     -10.353966      -281.7457
  25   2.0000     -10.353466      -281.7321
  26   2.0000     -10.347952      -281.5821
  27   2.0000     -10.344555      -281.4897
  28   2.0000     -10.342675      -281.4385
  29   2.0000     -10.341676      -281.4113
  30   2.0000     -10.335390      -281.2403
  31   2.0000     -10.334428      -281.2141
  32   2.0000     -10.324608      -280.9469
  33   2.0000     -10.323575      -280.9187
  34   2.0000     -10.320886      -280.8456
  35   2.0000     -10.319249      -280.8010
  36   2.0000     -10.319060      -280.7959
  37   2.0000     -10.317353      -280.7495
  38   2.0000     -10.316955      -280.7386
  39   2.0000     -10.316706      -280.7318
  40   2.0000     -10.316337      -280.7218
  41   2.0000     -10.315242      -280.6920
  42   2.0000     -10.313017      -280.6315
  43   2.0000     -10.312847      -280.6268
  44   2.0000     -10.311757      -280.5972
  45   2.0000     -10.311653      -280.5944
  46   2.0000     -10.310080      -280.5515
  47   2.0000     -10.309800      -280.5439
  48   2.0000     -10.308079      -280.4971
  49   2.0000     -10.307249      -280.4745
  50   2.0000     -10.306915      -280.4654
  51   2.0000     -10.306723      -280.4602
  52   2.0000     -10.306173      -280.4452
  53   2.0000     -10.304541      -280.4008
  54   2.0000     -10.304156      -280.3903
  55   2.0000     -10.302410      -280.3428
  56   2.0000     -10.300698      -280.2962
  57   2.0000     -10.299028      -280.2508
  58   2.0000     -10.298546      -280.2377
  59   2.0000     -10.296851      -280.1916
  60   2.0000     -10.296816      -280.1906
  61   2.0000     -10.295277      -280.1487
  62   2.0000     -10.294798      -280.1357
  63   2.0000     -10.292416      -280.0709
  64   2.0000     -10.292192      -280.0648
  65   2.0000     -10.287310      -279.9319
  66   2.0000     -10.286933      -279.9217
  67   2.0000     -10.283029      -279.8154
  68   2.0000     -10.282719      -279.8070
  69   2.0000     -10.281014      -279.7606
  70   2.0000     -10.277067      -279.6532
  71   2.0000     -10.275583      -279.6128
  72   2.0000     -10.271193      -279.4934
  73   2.0000     -10.268072      -279.4084
  74   2.0000      -9.555260      -260.0118
  75   2.0000      -9.554627      -259.9946
  76   2.0000      -9.553664      -259.9684
  77   2.0000      -9.551719      -259.9155
  78   2.0000      -7.325629      -199.3405
  79   2.0000      -7.325044      -199.3246
  80   2.0000      -7.324037      -199.2972
  81   2.0000      -7.322098      -199.2444
  82   2.0000      -7.315513      -199.0652
  83   2.0000      -7.314864      -199.0476
  84   2.0000      -7.314806      -199.0460
  85   2.0000      -7.314142      -199.0279
  86   2.0000      -7.313930      -199.0222
  87   2.0000      -7.313208      -199.0025
  88   2.0000      -7.311983      -198.9692
  89   2.0000      -7.311258      -198.9495
  90   2.0000      -1.315880       -35.8069
  91   2.0000      -1.312835       -35.7241
  92   2.0000      -1.304587       -35.4996
  93   2.0000      -1.304264       -35.4908
  94   2.0000      -1.134944       -30.8834
  95   2.0000      -1.133401       -30.8414
  96   2.0000      -1.117282       -30.4028
  97   2.0000      -1.080516       -29.4023
  98   2.0000      -1.031867       -28.0785
  99   2.0000      -1.028792       -27.9949
 100   2.0000      -1.016426       -27.6584
 101   2.0000      -1.014480       -27.6054
 102   2.0000      -0.999834       -27.2069
 103   2.0000      -0.996347       -27.1120
 104   2.0000      -0.994636       -27.0654
 105   2.0000      -0.993750       -27.0413
 106   2.0000      -0.990552       -26.9543
 107   2.0000      -0.988635       -26.9021
 108   2.0000      -0.979298       -26.6481
 109   2.0000      -0.977862       -26.6090
 110   2.0000      -0.962139       -26.1811
 111   2.0000      -0.959674       -26.1141
 112   2.0000      -0.935107       -25.4456
 113   2.0000      -0.934518       -25.4295
 114   2.0000      -0.924990       -25.1703
 115   2.0000      -0.922594       -25.1051
 116   2.0000      -0.916927       -24.9508
 117   2.0000      -0.904271       -24.6065
 118   2.0000      -0.893472       -24.3126
 119   2.0000      -0.889987       -24.2178
 120   2.0000      -0.888479       -24.1767
 121   2.0000      -0.876523       -23.8514
 122   2.0000      -0.865531       -23.5523
 123   2.0000      -0.861353       -23.4386
 124   2.0000      -0.858384       -23.3578
 125   2.0000      -0.852466       -23.1968
 126   2.0000      -0.844235       -22.9728
 127   2.0000      -0.833877       -22.6909
 128   2.0000      -0.817091       -22.2342
 129   2.0000      -0.812496       -22.1091
 130   2.0000      -0.808448       -21.9990
 131   2.0000      -0.796570       -21.6758
 132   2.0000      -0.791408       -21.5353
 133   2.0000      -0.773990       -21.0613
 134   2.0000      -0.769077       -20.9277
 135   2.0000      -0.764925       -20.8147
 136   2.0000      -0.759501       -20.6671
 137   2.0000      -0.749682       -20.3999
 138   2.0000      -0.736617       -20.0444
 139   2.0000      -0.719613       -19.5817
 140   2.0000      -0.719023       -19.5656
 141   2.0000      -0.717283       -19.5183
 142   2.0000      -0.715952       -19.4821
 143   2.0000      -0.703783       -19.1509
 144   2.0000      -0.697708       -18.9856
 145   2.0000      -0.693522       -18.8717
 146   2.0000      -0.688772       -18.7424
 147   2.0000      -0.682732       -18.5781
 148   2.0000      -0.682590       -18.5742
 149   2.0000      -0.677494       -18.4355
 150   2.0000      -0.674132       -18.3441
 151   2.0000      -0.669579       -18.2202
 152   2.0000      -0.668312       -18.1857
 153   2.0000      -0.665940       -18.1211
 154   2.0000      -0.658083       -17.9074
 155   2.0000      -0.648339       -17.6422
 156   2.0000      -0.640473       -17.4282
 157   2.0000      -0.639579       -17.4038
 158   2.0000      -0.633213       -17.2306
 159   2.0000      -0.630350       -17.1527
 160   2.0000      -0.626709       -17.0536
 161   2.0000      -0.622878       -16.9494
 162   2.0000      -0.618478       -16.8296
 163   2.0000      -0.612622       -16.6703
 164   2.0000      -0.604942       -16.4613
 165   2.0000      -0.600024       -16.3275
 166   2.0000      -0.593031       -16.1372
 167   2.0000      -0.591680       -16.1004
 168   2.0000      -0.585667       -15.9368
 169   2.0000      -0.580378       -15.7929
 170   2.0000      -0.574507       -15.6331
 171   2.0000      -0.571176       -15.5425
 172   2.0000      -0.568599       -15.4724
 173   2.0000      -0.567802       -15.4507
 174   2.0000      -0.565899       -15.3989
 175   2.0000      -0.562348       -15.3023
 176   2.0000      -0.561210       -15.2713
 177   2.0000      -0.559182       -15.2161
 178   2.0000      -0.558875       -15.2078
 179   2.0000      -0.558415       -15.1952
 180   2.0000      -0.555101       -15.1051
 181   2.0000      -0.554408       -15.0862
 182   2.0000      -0.551042       -14.9946
 183   2.0000      -0.550223       -14.9723
 184   2.0000      -0.549284       -14.9468
 185   2.0000      -0.546054       -14.8589
 186   2.0000      -0.542885       -14.7726
 187   2.0000      -0.542850       -14.7717
 188   2.0000      -0.542417       -14.7599
 189   2.0000      -0.538364       -14.6496
 190   2.0000      -0.535331       -14.5671
 191   2.0000      -0.529765       -14.4156
 192   2.0000      -0.528125       -14.3710
 193   2.0000      -0.524554       -14.2738
 194   2.0000      -0.521353       -14.1867
 195   2.0000      -0.519609       -14.1393
 196   2.0000      -0.512237       -13.9387
 197   2.0000      -0.507402       -13.8071
 198   2.0000      -0.506067       -13.7708
 199   2.0000      -0.505271       -13.7491
 200   2.0000      -0.505064       -13.7435
 201   2.0000      -0.502682       -13.6787
 202   2.0000      -0.502252       -13.6670
 203   2.0000      -0.499113       -13.5816
 204   2.0000      -0.497963       -13.5503
 205   2.0000      -0.493809       -13.4372
 206   2.0000      -0.490248       -13.3403
 207   2.0000      -0.486869       -13.2484
 208   2.0000      -0.484739       -13.1904
 209   2.0000      -0.483503       -13.1568
 210   2.0000      -0.482222       -13.1219
 211   2.0000      -0.480738       -13.0815
 212   2.0000      -0.477933       -13.0052
 213   2.0000      -0.474438       -12.9101
 214   2.0000      -0.472653       -12.8615
 215   2.0000      -0.471167       -12.8211
 216   2.0000      -0.470088       -12.7917
 217   2.0000      -0.467044       -12.7089
 218   2.0000      -0.463869       -12.6225
 219   2.0000      -0.463314       -12.6074
 220   2.0000      -0.461064       -12.5462
 221   2.0000      -0.455834       -12.4039
 222   2.0000      -0.454473       -12.3668
 223   2.0000      -0.450707       -12.2644
 224   2.0000      -0.449322       -12.2267
 225   2.0000      -0.448715       -12.2101
 226   2.0000      -0.447797       -12.1852
 227   2.0000      -0.442718       -12.0470
 228   2.0000      -0.442060       -12.0291
 229   2.0000      -0.435982       -11.8637
 230   2.0000      -0.435895       -11.8613
 231   2.0000      -0.429306       -11.6820
 232   2.0000      -0.428517       -11.6605
 233   2.0000      -0.428465       -11.6591
 234   2.0000      -0.426222       -11.5981
 235   2.0000      -0.426121       -11.5953
 236   2.0000      -0.426098       -11.5947
 237   2.0000      -0.423703       -11.5295
 238   2.0000      -0.423280       -11.5180
 239   2.0000      -0.422634       -11.5005
 240   2.0000      -0.417395       -11.3579
 241   2.0000      -0.410069       -11.1586
 242   2.0000      -0.409704       -11.1486
 243   2.0000      -0.407022       -11.0756
 244   2.0000      -0.405160       -11.0250
 245   2.0000      -0.404506       -11.0072
 246   2.0000      -0.393390       -10.7047
 247   2.0000      -0.382615       -10.4115
 248   2.0000      -0.381892       -10.3918
 249   2.0000      -0.379638       -10.3305
 250   2.0000      -0.366839        -9.9822
 251   2.0000      -0.355424        -9.6716
 252   2.0000      -0.343297        -9.3416
 253   2.0000      -0.343048        -9.3348
 254   2.0000      -0.337654        -9.1880
 255   2.0000      -0.336850        -9.1661
 256   2.0000      -0.332569        -9.0497
 257   2.0000      -0.319485        -8.6936
 258   2.0000      -0.316734        -8.6188
 259   2.0000      -0.314110        -8.5474
 260   2.0000      -0.310373        -8.4457
 261   2.0000      -0.307420        -8.3653
 262   2.0000      -0.306260        -8.3338
 263   2.0000      -0.288527        -7.8512
 264   2.0000      -0.280010        -7.6195
 265   2.0000      -0.265743        -7.2312
 266   2.0000      -0.231411        -6.2970
 267   0.0000      -0.132432        -3.6037
 268   0.0000      -0.114840        -3.1250
 269   0.0000      -0.080780        -2.1981
 270   0.0000      -0.077589        -2.1113
 271   0.0000      -0.060832        -1.6553

MULLIKEN ATOMIC CHARGES
-----------------------
   0 C :    0.254922
   1 C :   -0.330610
   2 C :   -0.181576
   3 N :    0.160354
   4 C :   -0.198446
   5 N :    0.176481
   6 C :    0.018456
   7 C :   -0.002335
   8 C :   -0.031949
   9 C :    0.057934
  10 C :    0.053164
  11 C :   -0.015827
  12 Cl:   -0.037289
  13 Cl:   -0.043738
  14 C :    0.140353
  15 O :   -0.132925
  16 C :   -0.123947
  17 C :    0.040368
  18 C :    0.052307
  19 C :   -0.027287
  20 C :    0.003933
  21 C :    0.254956
  22 C :   -0.070884
  23 F :   -0.177217
  24 C :    0.024681
  25 C :   -0.094546
  26 C :    0.113178
  27 C :   -0.077988
  28 C :    0.264448
  29 F :   -0.169051
  30 C :   -0.017088
  31 C :    0.041927
  32 C :    0.084946
  33 N :   -0.034160
  34 C :    0.127569
  35 C :   -0.158182
  36 C :    0.105056
  37 N :   -0.030219
  38 C :    0.132195
  39 C :   -0.157221
  40 C :    0.034168
  41 C :   -0.027723
  42 C :    0.130401
  43 C :   -0.108131
  44 C :    0.025811
  45 C :    0.263092
  46 C :   -0.082178
  47 F :   -0.171362
  48 C :   -0.001825
  49 C :   -0.064642
  50 C :    0.100820
  51 C :   -0.077090
  52 C :    0.254750
  53 F :   -0.180677
  54 C :    0.029459
  55 C :   -0.012989
  56 C :   -0.028478
  57 C :   -0.074847
  58 C :    0.328714
  59 C :   -0.347589
  60 C :   -0.191685
  61 N :    0.156800
  62 C :   -0.188885
  63 N :    0.145201
  64 C :    0.028675
  65 C :   -0.012698
  66 C :    0.146338
  67 O :   -0.148173
  68 C :   -0.031347
  69 C :    0.059857
  70 C :    0.047135
  71 C :   -0.014009
  72 Cl:   -0.036737
  73 Cl:   -0.045190
  74 H :    0.000699
  75 H :    0.001864
  76 H :    0.021911
  77 H :   -0.003426
  78 H :   -0.003309
  79 H :   -0.015751
  80 H :   -0.013982
  81 H :   -0.039290
  82 H :   -0.009725
  83 H :    0.132305
  84 H :   -0.023035
  85 H :    0.129334
  86 H :   -0.024243
  87 H :   -0.017331
  88 H :   -0.020758
  89 H :   -0.021761
  90 H :   -0.015531
  91 H :   -0.005952
  92 H :   -0.005385
  93 H :    0.003163
  94 H :    0.025766
  95 H :    0.008769
  96 H :   -0.003482
  97 H :   -0.000559
Sum of atomic charges:   -0.0000000

LOEWDIN ATOMIC CHARGES
----------------------
   0 C :    0.062752
   1 C :   -0.129522
   2 C :   -0.021333
   3 N :   -0.045492
   4 C :   -0.020100
   5 N :   -0.040317
   6 C :   -0.011216
   7 C :   -0.045729
   8 C :    0.001394
   9 C :   -0.135880
  10 C :   -0.130033
  11 C :   -0.015592
  12 Cl:    0.161794
  13 Cl:    0.157669
  14 C :    0.082699
  15 O :   -0.135615
  16 C :   -0.092957
  17 C :    0.077460
  18 C :   -0.031789
  19 C :    0.006933
  20 C :   -0.018292
  21 C :    0.081384
  22 C :   -0.057744
  23 F :   -0.053025
  24 C :    0.022132
  25 C :   -0.070970
  26 C :    0.018114
  27 C :   -0.058363
  28 C :    0.090126
  29 F :   -0.045597
  30 C :   -0.036928
  31 C :   -0.003433
  32 C :    0.006120
  33 N :    0.071395
  34 C :   -0.001628
  35 C :   -0.077598
  36 C :    0.006594
  37 N :    0.075257
  38 C :   -0.011083
  39 C :   -0.073575
  40 C :    0.005357
  41 C :   -0.028261
  42 C :    0.014078
  43 C :   -0.079747
  44 C :    0.018214
  45 C :    0.085464
  46 C :   -0.057428
  47 F :   -0.047227
  48 C :   -0.021652
  49 C :   -0.016401
  50 C :   -0.024444
  51 C :   -0.055278
  52 C :    0.076686
  53 F :   -0.057486
  54 C :    0.044038
  55 C :   -0.035326
  56 C :    0.070552
  57 C :   -0.102079
  58 C :    0.073519
  59 C :   -0.138355
  60 C :   -0.020444
  61 N :   -0.050152
  62 C :   -0.019628
  63 N :   -0.051624
  64 C :   -0.013090
  65 C :   -0.042956
  66 C :    0.084370
  67 O :   -0.143871
  68 C :   -0.000536
  69 C :   -0.135180
  70 C :   -0.131348
  71 C :   -0.013075
  72 Cl:    0.160513
  73 Cl:    0.156959
  74 H :    0.046208
  75 H :    0.044142
  76 H :    0.050288
  77 H :    0.029227
  78 H :    0.030156
  79 H :    0.023480
  80 H :    0.029797
  81 H :    0.024825
  82 H :    0.038690
  83 H :    0.091702
  84 H :    0.028348
  85 H :    0.094077
  86 H :    0.029777
  87 H :    0.033722
  88 H :    0.029636
  89 H :    0.018242
  90 H :    0.030914
  91 H :    0.026933
  92 H :    0.034593
  93 H :    0.039543
  94 H :    0.032394
  95 H :    0.042073
  96 H :    0.044854
  97 H :    0.044204

  Mayer bond orders larger than 0.100000
B(  0-C ,  1-C ) :   1.6551 B(  0-C ,  6-C ) :   1.0019 B(  0-C , 16-C ) :   1.0517
B(  1-C ,  2-C ) :   1.1330 B(  1-C ,  4-C ) :   1.1540 B(  2-C ,  3-N ) :   2.9897
B(  4-C ,  5-N ) :   3.0124 B(  6-C ,  7-C ) :   1.3299 B(  6-C , 11-C ) :   1.3514
B(  7-C ,  8-C ) :   1.3478 B(  7-C , 14-C ) :   0.9187 B(  8-C ,  9-C ) :   1.3443
B(  8-C , 74-H ) :   1.0168 B(  9-C , 10-C ) :   1.4090 B(  9-C , 13-Cl) :   1.0464
B( 10-C , 11-C ) :   1.3538 B( 10-C , 12-Cl) :   1.0688 B( 11-C , 75-H ) :   0.9913
B( 14-C , 15-O ) :   2.2806 B( 14-C , 16-C ) :   0.9432 B( 16-C , 17-C ) :   1.6048
B( 17-C , 18-C ) :   1.1174 B( 17-C , 76-H ) :   0.9580 B( 18-C , 19-C ) :   1.4878
B( 18-C , 22-C ) :   1.0301 B( 19-C , 20-C ) :   1.1269 B( 19-C , 77-H ) :   1.0193
B( 20-C , 21-C ) :   1.0488 B( 20-C , 24-C ) :   1.4183 B( 21-C , 22-C ) :   1.6510
B( 21-C , 23-F ) :   1.1282 B( 22-C , 78-H ) :   1.0071 B( 24-C , 25-C ) :   1.1695
B( 24-C , 28-C ) :   1.0058 B( 25-C , 26-C ) :   1.4534 B( 25-C , 79-H ) :   1.0229
B( 26-C , 27-C ) :   1.0049 B( 26-C , 30-C ) :   1.2125 B( 27-C , 28-C ) :   1.6827
B( 27-C , 80-H ) :   1.0111 B( 28-C , 29-F ) :   1.1335 B( 30-C , 31-C ) :   1.5163
B( 30-C , 81-H ) :   0.9717 B( 31-C , 32-C ) :   1.1946 B( 31-C , 82-H ) :   0.9622
B( 32-C , 33-N ) :   1.1914 B( 32-C , 39-C ) :   1.3159 B( 33-N , 34-C ) :   1.1728
B( 33-N , 83-H ) :   0.9303 B( 34-C , 35-C ) :   1.3008 B( 34-C , 38-C ) :   1.2670
B( 35-C , 36-C ) :   1.3450 B( 35-C , 84-H ) :   1.0323 B( 36-C , 37-N ) :   1.1707
B( 36-C , 40-C ) :   1.1557 B( 37-N , 38-C ) :   1.1730 B( 37-N , 85-H ) :   0.9342
B( 38-C , 39-C ) :   1.2758 B( 39-C , 86-H ) :   1.0419 B( 40-C , 41-C ) :   1.5734
B( 40-C , 87-H ) :   0.9688 B( 41-C , 42-C ) :   1.1727 B( 41-C , 88-H ) :   0.9790
B( 42-C , 43-C ) :   1.4691 B( 42-C , 46-C ) :   0.9992 B( 43-C , 44-C ) :   1.1917
B( 43-C , 89-H ) :   1.0103 B( 44-C , 45-C ) :   0.9993 B( 44-C , 48-C ) :   1.4095
B( 45-C , 46-C ) :   1.6715 B( 45-C , 47-F ) :   1.1284 B( 46-C , 90-H ) :   1.0224
B( 48-C , 49-C ) :   1.1351 B( 48-C , 52-C ) :   1.0389 B( 49-C , 50-C ) :   1.4634
B( 49-C , 91-H ) :   1.0229 B( 50-C , 51-C ) :   1.0334 B( 50-C , 54-C ) :   1.1387
B( 51-C , 52-C ) :   1.6508 B( 51-C , 92-H ) :   1.0165 B( 52-C , 53-F ) :   1.1178
B( 54-C , 55-C ) :   1.5016 B( 54-C , 93-H ) :   0.9921 B( 55-C , 56-C ) :   1.1888
B( 55-C , 94-H ) :   0.9815 B( 56-C , 57-C ) :   1.4958 B( 56-C , 95-H ) :   0.9642
B( 57-C , 58-C ) :   1.0787 B( 57-C , 66-C ) :   0.9563 B( 58-C , 59-C ) :   1.6259
B( 58-C , 64-C ) :   0.9872 B( 59-C , 60-C ) :   1.1407 B( 59-C , 62-C ) :   1.1482
B( 60-C , 61-N ) :   2.9706 B( 62-C , 63-N ) :   2.9598 B( 64-C , 65-C ) :   1.3327
B( 64-C , 71-C ) :   1.3434 B( 65-C , 66-C ) :   0.9425 B( 65-C , 68-C ) :   1.3449
B( 66-C , 67-O ) :   2.2005 B( 68-C , 69-C ) :   1.3400 B( 68-C , 96-H ) :   1.0174
B( 69-C , 70-C ) :   1.4096 B( 69-C , 73-Cl) :   1.0450 B( 70-C , 71-C ) :   1.3572
B( 70-C , 72-Cl) :   1.0751 B( 71-C , 97-H ) :   0.9855

-----------------------------------------------------------------------------
         ABSORPTION SPECTRUM VIA TRANSITION ELECTRIC DIPOLE MOMENTS
-----------------------------------------------------------------------------
State   Energy  Wavelength   fosc         T2         TX        TY        TZ
        (cm-1)    (nm)                  (au**2)     (au)      (au)      (au)
-----------------------------------------------------------------------------
   0    8857.5   1129.0   2.448968957  91.02247   4.33491   8.05658   2.70601
   1   13019.4    768.1   0.062006154   1.56791  -1.12509  -0.00252  -0.54961
   2   15868.0    630.2   0.059612144   1.23677  -0.20644  -0.86199  -0.67166
   3   16988.1    588.6   0.051174005   0.99170  -0.37156  -0.45447  -0.80443
   4   18259.6    547.7   0.070488702   1.27088  -0.45814  -1.02097  -0.13640
   5   19797.8    505.1   0.594383536   9.88384   1.35345   2.81733   0.33860
   6   21984.6    454.9   0.102296588   1.53185   0.00150   0.66842   1.04167
   7   22168.4    451.1   0.152882789   2.27039  -0.22534  -1.47662  -0.19797
   8   23733.0    421.4   0.069655092   0.96622   0.11254  -0.91311  -0.34609
   9   24556.3    407.2   0.372734176   4.99704  -1.00507  -1.47286  -1.34816
  10   24974.6    400.4   0.011098148   0.14629  -0.07560  -0.35841  -0.11010
  11   25651.1    389.8   0.038311119   0.49169  -0.40068  -0.54904   0.17235
  12   26095.1    383.2   0.131392106   1.65762   0.35727   0.74319   0.98876
  13   26382.7    379.0   0.143910336   1.79576   1.01925   0.86999   0.00254
  14   26832.7    372.7   0.025986557   0.31883   0.44738  -0.26268   0.22290
  15   27092.2    369.1   0.085668140   1.04100   0.20302   0.93834   0.34540
  16   27527.0    363.3   0.016107710   0.19264   0.19766   0.22168   0.32316
  17   27622.9    362.0   0.574873790   6.85140   1.13746   1.23168   2.01011
  18   28002.1    357.1   0.031510488   0.37046  -0.38498  -0.47140  -0.00546
  19   28254.4    353.9   0.093119239   1.08500  -0.20915  -0.35064  -0.95828
  20   28921.5    345.8   0.024682492   0.28096  -0.45027  -0.25087  -0.12362
  21   29029.8    344.5   0.067395035   0.76429  -0.43986  -0.67626  -0.33688
  22   29611.3    337.7   0.016082148   0.17880   0.11425   0.36532  -0.17968
  23   29994.3    333.4   0.090138109   0.98934   0.36314   0.88790  -0.26289
  24   30698.4    325.8   0.026566802   0.28490  -0.16913  -0.43836   0.25326
  25   31575.1    316.7   0.002761824   0.02880   0.00179   0.01386   0.16912
  26   31613.6    316.3   0.077989546   0.81215   0.11938   0.10051   0.88758
  27   32189.2    310.7   0.061608966   0.63010   0.68038   0.36121   0.19158
  28   32325.0    309.4   0.057251919   0.58308   0.40259   0.29189   0.57948
  29   32524.0    307.5   0.046188903   0.46753   0.57598   0.24475  -0.27545
  30   32695.9    305.8   0.031244671   0.31460   0.17456   0.04791   0.53088
  31   33056.8    302.5   0.004658821   0.04640   0.17202   0.10786  -0.07192
  32   33409.9    299.3   0.010239765   0.10090   0.08254   0.23592  -0.19603
  33   33649.4    297.2   0.034764404   0.34012  -0.14438  -0.02745  -0.56438
  34   34035.1    293.8   0.004395626   0.04252   0.06380  -0.03435   0.19305
  35   34408.5    290.6   0.147364345   1.40994  -0.56984  -0.29325   0.99962
  36   34840.0    287.0   0.253195845   2.39251   1.17911   0.29166   0.95768
  37   35150.2    284.5   0.144070378   1.34934   0.67082   0.63538  -0.70401
  38   35230.6    283.8   0.257363202   2.40493  -0.72714  -0.23998  -1.34856
  39   35704.3    280.1   0.477883666   4.40633  -1.22899  -1.03658   1.34960
  40   35847.9    279.0   0.146945627   1.34949   1.06850   0.27278   0.36521
  41   36364.7    275.0   0.096454014   0.87320   0.92192   0.12029   0.09377
  42   36612.0    273.1   0.028877696   0.25967  -0.42868   0.00115  -0.27550
  43   36640.1    272.9   0.115795026   1.04042   0.66250   0.63184  -0.44977
  44   37122.2    269.4   0.002598055   0.02304  -0.00936  -0.13133   0.07553
  45   37367.7    267.6   0.012968789   0.11426  -0.06254  -0.20462  -0.26168
  46   37552.9    266.3   0.007242044   0.06349  -0.22331  -0.09959  -0.06086
  47   37667.7    265.5   0.024280469   0.21221   0.02395   0.42286  -0.18118
  48   37790.0    264.6   0.000087809   0.00076  -0.00990   0.01757  -0.01893
  49   38572.5    259.3   0.016620612   0.14185   0.09164   0.03300   0.36382
  50   38605.3    259.0   0.004392038   0.03745  -0.08722  -0.16982   0.03175
  51   38920.0    256.9   0.018594186   0.15728   0.08189  -0.21696   0.32172
  52   39360.6    254.1   0.063642666   0.53231   0.11802   0.58061  -0.42576
  53   39477.4    253.3   0.031339273   0.26135  -0.11651   0.48610  -0.10712
  54   39692.1    251.9   0.096974116   0.80432   0.32942   0.62688   0.55029
  55   39908.2    250.6   0.071300586   0.58818   0.27989   0.32477   0.63589
  56   39945.5    250.3   0.111961972   0.92274   0.41960   0.86348  -0.03270
  57   40321.4    248.0   0.025912521   0.21157   0.02702   0.39937   0.22658

FINAL SINGLE POINT ENERGY     -4939.093036976692

DIPOLE MOMENT
-------------
                                X             Y             Z
Electronic contribution:     22.93243       0.07347       2.79515
Nuclear contribution   :    -22.15780       1.89973      -4.58634
                        -----------------------------------------
Total Dipole Moment    :      0.77463       1.97321      -1.79119
                        -----------------------------------------
Magnitude (a.u.)       :      2.77524
Magnitude (Debye)      :      7.05410

Rotational constants in cm-1:     0.002547     0.000088     0.000086
Rotational constants in MHz :    76.350500     2.628374     2.588361

                             ****ORCA TERMINATED NORMALLY****
TOTAL RUN TIME: 0 days 0 hours 10 minutes 53 seconds 189 msec
