                         Program Version 4.2.0 -  RELEASE  -
|  1> # ORCA input file
|  2> # SCF done       -175.691021072783          0.000539683614
|  3> ! CAM-B3LYP def2-SVP def2/J RIJCOSX Grid4 TightSCF
|  4> %maxcore 5000
|  5> %tddft
|  6>     Mode sTDDFT
|  7>     Ethresh 5.0
|  8>     maxcore 5000
|  9> end
| 10>
| 11> %pal
| 12>   nprocs 6
| 13>   end
| 14> * xyz 0 1
| 15>    C        0.40602         5.29127        -5.04444
| 16>    S       -0.54099         6.29460        -4.04577
| 17>    C       -1.16339         4.92323        -3.15906
| 18>    C       -0.64145         3.73608        -3.65734
| 19>    C        0.26422         3.96805        -4.73667
| 20>    C        0.97592         2.90548        -5.45844
| 21>    O        1.76239         3.13784        -6.35611
| 22>    C        0.65593         1.53653        -5.00503
| 23>    C        1.29372         0.46481        -5.62481
| 24>    C        1.02096        -0.83531        -5.24285
| 25>    C        0.10046        -1.07903        -4.23399
| 26>    C       -0.53806        -0.02284        -3.61139
| 27>    C       -0.27099         1.29339        -3.98296
| 28>    C       -0.98995         2.37023        -3.25726
| 29>    O       -1.81622         2.10077        -2.40304
| 30>    C       -2.05920         5.20448        -2.08162
| 31>    S       -2.87542         6.74734        -2.04640
| 32>    C       -3.63277         6.38968        -0.52876
| 33>    C       -3.24954         5.11737        -0.08861
| 34>    C       -2.36932         4.46211        -0.96525
| 35>    C       -3.66486         4.52044         1.11302
| 36>    N       -3.97780         4.00991         2.09255
| 37>    C       -4.48270         7.35942         0.05387
| 38>    C       -5.13076         7.22382         1.24248
| 39>    C       -5.94576         8.24937         1.77627
| 40>    N       -6.58594         8.15940         2.99014
| 41>    C       -6.50767         7.06184         3.92494
| 42>    C       -5.20200         7.07704         4.71535
| 43>    C       -7.32112         9.32316         3.28783
| 44>    O       -7.96409         9.47717         4.30456
| 45>    C       -7.10678        10.17557         2.13777
| 46>    C       -6.26428         9.49530         1.23095
| 47>    C       -6.06153        10.36294         0.09441
| 48>    O       -5.41111        10.22838        -0.92484
| 49>    N       -6.80292        11.52257         0.39058
| 50>    C       -6.85635        12.59724        -0.57111
| 51>    C       -8.14191        12.56111        -1.39426
| 52>    C       -7.43606        11.42341         1.61102
| 53>    C       -8.24705        12.35382         2.30378
| 54>    C       -8.68811        13.58322         1.93013
| 55>    C       -9.47237        14.39498         2.78759
| 56>    O       -9.80225        14.00680         4.03682
| 57>    C      -10.52761        14.98877         4.61747
| 58>    C      -10.68128        16.04850         3.72300
| 59>    C       -9.99879        15.66425         2.53695
| 60>    C       -9.86282        16.38507         1.34481
| 61>    N       -9.73398        16.95064         0.35551
| 62>    C      -11.36691        17.25090         3.94331
| 63>    N      -11.92298        18.24010         4.10341
| 64>    C      -11.00671        14.87377         5.94855
| 65>    C      -10.79701        13.76366         6.69446
| 66>    C      -11.19532        13.50313         8.03715
| 67>    S      -10.82073        11.88086         8.57936
| 68>    C      -11.47117        12.17616        10.12043
| 69>    C      -11.95013        13.45152        10.24621
| 70>    C      -11.80459        14.23149         9.05948
| 71>    C      -12.26458        15.62347         9.03920
| 72>    O      -12.23662        16.34494         8.05685
| 73>    C      -12.79329        16.14386        10.32534
| 74>    C      -13.17651        17.48328        10.36665
| 75>    C      -13.68361        18.03972        11.52599
| 76>    C      -13.82194        17.26200        12.66664
| 77>    C      -13.44917        15.93128        12.64009
| 78>    C      -12.93200        15.36225        11.47895
| 79>    C      -12.53924        13.93998        11.49994
| 80>    O      -12.67750        13.22878        12.47697
| 81>    H        1.02625         5.70514        -5.81527
| 82>    H        2.00342         0.68176        -6.40938
| 83>    H        1.52246        -1.65781        -5.73016
| 84>    H       -0.11866        -2.09259        -3.93343
| 85>    H       -1.25730        -0.19288        -2.82387
| 86>    H       -1.98361         3.47738        -0.77928
| 87>    H       -4.60135         8.27812        -0.50737
| 88>    H       -5.02742         6.31473         1.81391
| 89>    H       -6.62315         6.11506         3.39076
| 90>    H       -7.35199         7.18854         4.60833
| 91>    H       -4.34414         6.97441         4.05478
| 92>    H       -5.19433         6.25220         5.42188
| 93>    H       -5.10982         8.01036         5.26580
| 94>    H       -6.00006        12.44408        -1.23516
| 95>    H       -6.73156        13.55486        -0.06048
| 96>    H       -8.17763        11.64546        -1.97947
| 97>    H       -8.16912        13.40919        -2.07261
| 98>    H       -9.02156        12.59486        -0.75537
| 99>    H       -8.54130        11.99421         3.28275
|100>    H       -8.47793        14.02361         0.96915
|101>    H      -11.54338        15.72519         6.33838
|102>    H      -10.26488        12.93879         6.23318
|103>    H      -11.47877        11.41773        10.87890
|104>    H      -13.06547        18.07267         9.46845
|105>    H      -13.97247        19.07992        11.54097
|106>    H      -14.21961        17.69359        13.57284
|107>    H      -13.54751        15.30312        13.51308
|108> *
|109>
|110>                          ****END OF INPUT****

CARTESIAN COORDINATES (ANGSTROEM)
---------------------------------
  C      0.406020    5.291270   -5.044440
  S     -0.540990    6.294600   -4.045770
  C     -1.163390    4.923230   -3.159060
  C     -0.641450    3.736080   -3.657340
  C      0.264220    3.968050   -4.736670
  C      0.975920    2.905480   -5.458440
  O      1.762390    3.137840   -6.356110
  C      0.655930    1.536530   -5.005030
  C      1.293720    0.464810   -5.624810
  C      1.020960   -0.835310   -5.242850
  C      0.100460   -1.079030   -4.233990
  C     -0.538060   -0.022840   -3.611390
  C     -0.270990    1.293390   -3.982960
  C     -0.989950    2.370230   -3.257260
  O     -1.816220    2.100770   -2.403040
  C     -2.059200    5.204480   -2.081620
  S     -2.875420    6.747340   -2.046400
  C     -3.632770    6.389680   -0.528760
  C     -3.249540    5.117370   -0.088610
  C     -2.369320    4.462110   -0.965250
  C     -3.664860    4.520440    1.113020
  N     -3.977800    4.009910    2.092550
  C     -4.482700    7.359420    0.053870
  C     -5.130760    7.223820    1.242480
  C     -5.945760    8.249370    1.776270
  N     -6.585940    8.159400    2.990140
  C     -6.507670    7.061840    3.924940
  C     -5.202000    7.077040    4.715350
  C     -7.321120    9.323160    3.287830
  O     -7.964090    9.477170    4.304560
  C     -7.106780   10.175570    2.137770
  C     -6.264280    9.495300    1.230950
  C     -6.061530   10.362940    0.094410
  O     -5.411110   10.228380   -0.924840
  N     -6.802920   11.522570    0.390580
  C     -6.856350   12.597240   -0.571110
  C     -8.141910   12.561110   -1.394260
  C     -7.436060   11.423410    1.611020
  C     -8.247050   12.353820    2.303780
  C     -8.688110   13.583220    1.930130
  C     -9.472370   14.394980    2.787590
  O     -9.802250   14.006800    4.036820
  C    -10.527610   14.988770    4.617470
  C    -10.681280   16.048500    3.723000
  C     -9.998790   15.664250    2.536950
  C     -9.862820   16.385070    1.344810
  N     -9.733980   16.950640    0.355510
  C    -11.366910   17.250900    3.943310
  N    -11.922980   18.240100    4.103410
  C    -11.006710   14.873770    5.948550
  C    -10.797010   13.763660    6.694460
  C    -11.195320   13.503130    8.037150
  S    -10.820730   11.880860    8.579360
  C    -11.471170   12.176160   10.120430
  C    -11.950130   13.451520   10.246210
  C    -11.804590   14.231490    9.059480
  C    -12.264580   15.623470    9.039200
  O    -12.236620   16.344940    8.056850
  C    -12.793290   16.143860   10.325340
  C    -13.176510   17.483280   10.366650
  C    -13.683610   18.039720   11.525990
  C    -13.821940   17.262000   12.666640
  C    -13.449170   15.931280   12.640090
  C    -12.932000   15.362250   11.478950
  C    -12.539240   13.939980   11.499940
  O    -12.677500   13.228780   12.476970
  H      1.026250    5.705140   -5.815270
  H      2.003420    0.681760   -6.409380
  H      1.522460   -1.657810   -5.730160
  H     -0.118660   -2.092590   -3.933430
  H     -1.257300   -0.192880   -2.823870
  H     -1.983610    3.477380   -0.779280
  H     -4.601350    8.278120   -0.507370
  H     -5.027420    6.314730    1.813910
  H     -6.623150    6.115060    3.390760
  H     -7.351990    7.188540    4.608330
  H     -4.344140    6.974410    4.054780
  H     -5.194330    6.252200    5.421880
  H     -5.109820    8.010360    5.265800
  H     -6.000060   12.444080   -1.235160
  H     -6.731560   13.554860   -0.060480
  H     -8.177630   11.645460   -1.979470
  H     -8.169120   13.409190   -2.072610
  H     -9.021560   12.594860   -0.755370
  H     -8.541300   11.994210    3.282750
  H     -8.477930   14.023610    0.969150
  H    -11.543380   15.725190    6.338380
  H    -10.264880   12.938790    6.233180
  H    -11.478770   11.417730   10.878900
  H    -13.065470   18.072670    9.468450
  H    -13.972470   19.079920   11.540970
  H    -14.219610   17.693590   13.572840
  H    -13.547510   15.303120   13.513080

 Total Charge           Charge          ....    0
 Multiplicity           Mult            ....    1
 Number of Electrons    NEL             ....  472
 Basis Dimension        Dim             .... 1071

ORBITAL ENERGIES
----------------

  NO   OCC          E(Eh)            E(eV)
   0   2.0000     -88.989681     -2421.5323
   1   2.0000     -88.985863     -2421.4284
   2   2.0000     -88.981791     -2421.3176
   3   2.0000     -19.327846      -525.9374
   4   2.0000     -19.220246      -523.0095
   5   2.0000     -19.217732      -522.9411
   6   2.0000     -19.216049      -522.8953
   7   2.0000     -19.211167      -522.7624
   8   2.0000     -19.199624      -522.4483
   9   2.0000     -19.197302      -522.3852
  10   2.0000     -14.460272      -393.4840
  11   2.0000     -14.459835      -393.4721
  12   2.0000     -14.419283      -392.3686
  13   2.0000     -14.417856      -392.3298
  14   2.0000     -14.412394      -392.1812
  15   2.0000     -10.382551      -282.5236
  16   2.0000     -10.380115      -282.4573
  17   2.0000     -10.377630      -282.3897
  18   2.0000     -10.374611      -282.3075
  19   2.0000     -10.373646      -282.2812
  20   2.0000     -10.371688      -282.2280
  21   2.0000     -10.371069      -282.2111
  22   2.0000     -10.366004      -282.0733
  23   2.0000     -10.350820      -281.6601
  24   2.0000     -10.344909      -281.4993
  25   2.0000     -10.343843      -281.4703
  26   2.0000     -10.339628      -281.3556
  27   2.0000     -10.334663      -281.2205
  28   2.0000     -10.333937      -281.2007
  29   2.0000     -10.332766      -281.1689
  30   2.0000     -10.331841      -281.1437
  31   2.0000     -10.326390      -280.9954
  32   2.0000     -10.323508      -280.9169
  33   2.0000     -10.320240      -280.8280
  34   2.0000     -10.318643      -280.7845
  35   2.0000     -10.317863      -280.7633
  36   2.0000     -10.312859      -280.6272
  37   2.0000     -10.311321      -280.5853
  38   2.0000     -10.310857      -280.5727
  39   2.0000     -10.310198      -280.5548
  40   2.0000     -10.309892      -280.5464
  41   2.0000     -10.308068      -280.4968
  42   2.0000     -10.306364      -280.4504
  43   2.0000     -10.305295      -280.4213
  44   2.0000     -10.302591      -280.3477
  45   2.0000     -10.302028      -280.3324
  46   2.0000     -10.300852      -280.3004
  47   2.0000     -10.298758      -280.2435
  48   2.0000     -10.296510      -280.1823
  49   2.0000     -10.295271      -280.1486
  50   2.0000     -10.295092      -280.1437
  51   2.0000     -10.293622      -280.1037
  52   2.0000     -10.291593      -280.0485
  53   2.0000     -10.291131      -280.0359
  54   2.0000     -10.290673      -280.0235
  55   2.0000     -10.289939      -280.0035
  56   2.0000     -10.288211      -279.9565
  57   2.0000     -10.287900      -279.9480
  58   2.0000     -10.286285      -279.9040
  59   2.0000     -10.285603      -279.8855
  60   2.0000     -10.283573      -279.8302
  61   2.0000     -10.282495      -279.8009
  62   2.0000     -10.272196      -279.5207
  63   2.0000     -10.268426      -279.4181
  64   2.0000     -10.265758      -279.3455
  65   2.0000     -10.263348      -279.2799
  66   2.0000      -8.085681      -220.0226
  67   2.0000      -8.081564      -219.9105
  68   2.0000      -8.077942      -219.8120
  69   2.0000      -6.054820      -164.7600
  70   2.0000      -6.050743      -164.6491
  71   2.0000      -6.050383      -164.6393
  72   2.0000      -6.048273      -164.5819
  73   2.0000      -6.046889      -164.5442
  74   2.0000      -6.046570      -164.5355
  75   2.0000      -6.043798      -164.4601
  76   2.0000      -6.042635      -164.4285
  77   2.0000      -6.040699      -164.3758
  78   2.0000      -1.247538       -33.9472
  79   2.0000      -1.140497       -31.0345
  80   2.0000      -1.138026       -30.9673
  81   2.0000      -1.134840       -30.8806
  82   2.0000      -1.133645       -30.8481
  83   2.0000      -1.131837       -30.7988
  84   2.0000      -1.126920       -30.6650
  85   2.0000      -1.070624       -29.1331
  86   2.0000      -1.061021       -28.8719
  87   2.0000      -1.027961       -27.9722
  88   2.0000      -1.010843       -27.5064
  89   2.0000      -1.007761       -27.4226
  90   2.0000      -1.005776       -27.3685
  91   2.0000      -0.995753       -27.0958
  92   2.0000      -0.995262       -27.0825
  93   2.0000      -0.972553       -26.4645
  94   2.0000      -0.967870       -26.3371
  95   2.0000      -0.948200       -25.8018
  96   2.0000      -0.945525       -25.7290
  97   2.0000      -0.936041       -25.4710
  98   2.0000      -0.926086       -25.2001
  99   2.0000      -0.914553       -24.8863
 100   2.0000      -0.904848       -24.6222
 101   2.0000      -0.897409       -24.4198
 102   2.0000      -0.888422       -24.1752
 103   2.0000      -0.880961       -23.9722
 104   2.0000      -0.872254       -23.7352
 105   2.0000      -0.869872       -23.6704
 106   2.0000      -0.857784       -23.3415
 107   2.0000      -0.852812       -23.2062
 108   2.0000      -0.851084       -23.1592
 109   2.0000      -0.846193       -23.0261
 110   2.0000      -0.839570       -22.8459
 111   2.0000      -0.834088       -22.6967
 112   2.0000      -0.824243       -22.4288
 113   2.0000      -0.808593       -22.0029
 114   2.0000      -0.789789       -21.4913
 115   2.0000      -0.778494       -21.1839
 116   2.0000      -0.764359       -20.7993
 117   2.0000      -0.763973       -20.7888
 118   2.0000      -0.756553       -20.5869
 119   2.0000      -0.747406       -20.3380
 120   2.0000      -0.744490       -20.2586
 121   2.0000      -0.738612       -20.0986
 122   2.0000      -0.733242       -19.9525
 123   2.0000      -0.729667       -19.8552
 124   2.0000      -0.719100       -19.5677
 125   2.0000      -0.715856       -19.4794
 126   2.0000      -0.705282       -19.1917
 127   2.0000      -0.698432       -19.0053
 128   2.0000      -0.690692       -18.7947
 129   2.0000      -0.687103       -18.6970
 130   2.0000      -0.677029       -18.4229
 131   2.0000      -0.675824       -18.3901
 132   2.0000      -0.672668       -18.3042
 133   2.0000      -0.656487       -17.8639
 134   2.0000      -0.643972       -17.5234
 135   2.0000      -0.636652       -17.3242
 136   2.0000      -0.634622       -17.2689
 137   2.0000      -0.630469       -17.1559
 138   2.0000      -0.630290       -17.1511
 139   2.0000      -0.622899       -16.9499
 140   2.0000      -0.612594       -16.6695
 141   2.0000      -0.604730       -16.4555
 142   2.0000      -0.597360       -16.2550
 143   2.0000      -0.595081       -16.1930
 144   2.0000      -0.590872       -16.0784
 145   2.0000      -0.589252       -16.0344
 146   2.0000      -0.580893       -15.8069
 147   2.0000      -0.578181       -15.7331
 148   2.0000      -0.574779       -15.6405
 149   2.0000      -0.573227       -15.5983
 150   2.0000      -0.571368       -15.5477
 151   2.0000      -0.564417       -15.3586
 152   2.0000      -0.557177       -15.1616
 153   2.0000      -0.552914       -15.0455
 154   2.0000      -0.546374       -14.8676
 155   2.0000      -0.545479       -14.8432
 156   2.0000      -0.544522       -14.8172
 157   2.0000      -0.540871       -14.7179
 158   2.0000      -0.539219       -14.6729
 159   2.0000      -0.537012       -14.6129
 160   2.0000      -0.536820       -14.6076
 161   2.0000      -0.536445       -14.5974
 162   2.0000      -0.533413       -14.5149
 163   2.0000      -0.533197       -14.5090
 164   2.0000      -0.528332       -14.3766
 165   2.0000      -0.522923       -14.2294
 166   2.0000      -0.522392       -14.2150
 167   2.0000      -0.521823       -14.1995
 168   2.0000      -0.521110       -14.1801
 169   2.0000      -0.518512       -14.1094
 170   2.0000      -0.516656       -14.0589
 171   2.0000      -0.515695       -14.0328
 172   2.0000      -0.511925       -13.9302
 173   2.0000      -0.506321       -13.7777
 174   2.0000      -0.502704       -13.6793
 175   2.0000      -0.497581       -13.5399
 176   2.0000      -0.491519       -13.3749
 177   2.0000      -0.491187       -13.3659
 178   2.0000      -0.489377       -13.3166
 179   2.0000      -0.488196       -13.2845
 180   2.0000      -0.485152       -13.2017
 181   2.0000      -0.483751       -13.1635
 182   2.0000      -0.482979       -13.1425
 183   2.0000      -0.477646       -12.9974
 184   2.0000      -0.477457       -12.9923
 185   2.0000      -0.476715       -12.9721
 186   2.0000      -0.472989       -12.8707
 187   2.0000      -0.471444       -12.8286
 188   2.0000      -0.466530       -12.6949
 189   2.0000      -0.465724       -12.6730
 190   2.0000      -0.461839       -12.5673
 191   2.0000      -0.459837       -12.5128
 192   2.0000      -0.457252       -12.4424
 193   2.0000      -0.453717       -12.3463
 194   2.0000      -0.452771       -12.3205
 195   2.0000      -0.450242       -12.2517
 196   2.0000      -0.447375       -12.1737
 197   2.0000      -0.447133       -12.1671
 198   2.0000      -0.445971       -12.1355
 199   2.0000      -0.445716       -12.1286
 200   2.0000      -0.443642       -12.0721
 201   2.0000      -0.442782       -12.0487
 202   2.0000      -0.441690       -12.0190
 203   2.0000      -0.439611       -11.9624
 204   2.0000      -0.439469       -11.9586
 205   2.0000      -0.437368       -11.9014
 206   2.0000      -0.435968       -11.8633
 207   2.0000      -0.431597       -11.7444
 208   2.0000      -0.427953       -11.6452
 209   2.0000      -0.427399       -11.6301
 210   2.0000      -0.425676       -11.5832
 211   2.0000      -0.414777       -11.2867
 212   2.0000      -0.413784       -11.2596
 213   2.0000      -0.410303       -11.1649
 214   2.0000      -0.398472       -10.8430
 215   2.0000      -0.386168       -10.5082
 216   2.0000      -0.362569        -9.8660
 217   2.0000      -0.355839        -9.6829
 218   2.0000      -0.354440        -9.6448
 219   2.0000      -0.351930        -9.5765
 220   2.0000      -0.347483        -9.4555
 221   2.0000      -0.346643        -9.4326
 222   2.0000      -0.346306        -9.4235
 223   2.0000      -0.343673        -9.3518
 224   2.0000      -0.340748        -9.2722
 225   2.0000      -0.339330        -9.2336
 226   2.0000      -0.337840        -9.1931
 227   2.0000      -0.337739        -9.1904
 228   2.0000      -0.336949        -9.1689
 229   2.0000      -0.333767        -9.0822
 230   2.0000      -0.332193        -9.0394
 231   2.0000      -0.331108        -9.0099
 232   2.0000      -0.322714        -8.7815
 233   2.0000      -0.293292        -7.9809
 234   2.0000      -0.279574        -7.6076
 235   2.0000      -0.240193        -6.5360
 236   0.0000      -0.109934        -2.9914
 237   0.0000      -0.081148        -2.2081
 238   0.0000      -0.070718        -1.9243
 239   0.0000      -0.057841        -1.5739
 240   0.0000      -0.050811        -1.3826

MULLIKEN ATOMIC CHARGES
-----------------------
   0 C :   -0.096437
   1 S :    0.169770
   2 C :   -0.130648
   3 C :    0.089933
   4 C :   -0.022782
   5 C :    0.140230
   6 O :   -0.149316
   7 C :   -0.026721
   8 C :   -0.021307
   9 C :    0.051114
  10 C :    0.051534
  11 C :   -0.021278
  12 C :   -0.012037
  13 C :    0.122049
  14 O :   -0.168570
  15 C :   -0.080431
  16 S :    0.174968
  17 C :   -0.065159
  18 C :   -0.085382
  19 C :    0.047420
  20 C :   -0.160332
  21 N :    0.119963
  22 C :    0.066838
  23 C :   -0.042233
  24 C :    0.150427
  25 N :   -0.264389
  26 C :    0.091182
  27 C :    0.007592
  28 C :    0.153154
  29 O :   -0.189439
  30 C :   -0.032297
  31 C :   -0.065645
  32 C :    0.166831
  33 O :   -0.217788
  34 N :   -0.265579
  35 C :    0.096774
  36 C :   -0.000159
  37 C :    0.122082
  38 C :   -0.030212
  39 C :   -0.058671
  40 C :    0.137599
  41 O :   -0.185748
  42 C :    0.137778
  43 C :   -0.008861
  44 C :   -0.011400
  45 C :   -0.297441
  46 N :    0.224057
  47 C :   -0.289454
  48 N :    0.231082
  49 C :   -0.061923
  50 C :    0.046264
  51 C :   -0.169160
  52 S :    0.177398
  53 C :   -0.096777
  54 C :   -0.030562
  55 C :    0.093105
  56 C :    0.131995
  57 O :   -0.168188
  58 C :   -0.010510
  59 C :   -0.024113
  60 C :    0.052306
  61 C :    0.051430
  62 C :   -0.019940
  63 C :   -0.022256
  64 C :    0.138857
  65 O :   -0.150429
  66 H :    0.045341
  67 H :    0.002498
  68 H :   -0.000823
  69 H :   -0.001459
  70 H :    0.004549
  71 H :    0.015171
  72 H :    0.006795
  73 H :   -0.012576
  74 H :    0.038368
  75 H :    0.042102
  76 H :    0.018775
  77 H :    0.031433
  78 H :    0.023850
  79 H :    0.045300
  80 H :    0.026885
  81 H :    0.027833
  82 H :    0.032427
  83 H :    0.020464
  84 H :    0.020422
  85 H :    0.015680
  86 H :    0.048023
  87 H :    0.009659
  88 H :    0.044647
  89 H :    0.007721
  90 H :   -0.000818
  91 H :   -0.002934
  92 H :    0.000512
Sum of atomic charges:   -0.0000000

LOEWDIN ATOMIC CHARGES
----------------------
   0 C :   -0.133032
   1 S :    0.480388
   2 C :   -0.144955
   3 C :   -0.090742
   4 C :   -0.094116
   5 C :    0.082292
   6 O :   -0.143978
   7 C :   -0.052707
   8 C :    0.016441
   9 C :   -0.002908
  10 C :   -0.003726
  11 C :    0.016000
  12 C :   -0.051053
  13 C :    0.089029
  14 O :   -0.144312
  15 C :   -0.185512
  16 S :    0.475631
  17 C :   -0.141343
  18 C :   -0.101319
  19 C :    0.003726
  20 C :   -0.022292
  21 N :   -0.058360
  22 C :    0.007221
  23 C :   -0.034380
  24 C :    0.087495
  25 N :   -0.000819
  26 C :    0.036392
  27 C :   -0.059011
  28 C :    0.081583
  29 O :   -0.190956
  30 C :   -0.099676
  31 C :   -0.126231
  32 C :    0.080971
  33 O :   -0.205426
  34 N :   -0.000802
  35 C :    0.034744
  36 C :   -0.062376
  37 C :    0.058837
  38 C :   -0.005319
  39 C :   -0.038206
  40 C :    0.071305
  41 O :    0.034344
  42 C :    0.072638
  43 C :   -0.082312
  44 C :   -0.086721
  45 C :   -0.034747
  46 N :   -0.036206
  47 C :   -0.033925
  48 N :   -0.027773
  49 C :   -0.021452
  50 C :   -0.029792
  51 C :   -0.126841
  52 S :    0.497731
  53 C :   -0.135395
  54 C :   -0.095152
  55 C :   -0.088300
  56 C :    0.093342
  57 O :   -0.137931
  58 C :   -0.049937
  59 C :    0.016713
  60 C :   -0.003852
  61 C :   -0.004031
  62 C :    0.015761
  63 C :   -0.053131
  64 C :    0.081891
  65 O :   -0.146097
  66 H :    0.038294
  67 H :    0.037992
  68 H :    0.034158
  69 H :    0.034061
  70 H :    0.037255
  71 H :    0.042265
  72 H :    0.037933
  73 H :    0.036442
  74 H :    0.028679
  75 H :    0.037559
  76 H :    0.023644
  77 H :    0.034591
  78 H :    0.029609
  79 H :    0.038303
  80 H :    0.023173
  81 H :    0.032633
  82 H :    0.034682
  83 H :    0.021990
  84 H :    0.048962
  85 H :    0.042964
  86 H :    0.043257
  87 H :    0.033193
  88 H :    0.037333
  89 H :    0.038607
  90 H :    0.034283
  91 H :    0.033417
  92 H :    0.037397

  Mayer bond orders larger than 0.100000
B(  0-C ,  1-S ) :   1.1708 B(  0-C ,  4-C ) :   1.5605 B(  0-C , 66-H ) :   0.9665
B(  1-S ,  2-C ) :   1.1720 B(  2-C ,  3-C ) :   1.5004 B(  2-C , 15-C ) :   1.1016
B(  3-C ,  4-C ) :   1.2013 B(  3-C , 13-C ) :   0.9665 B(  4-C ,  5-C ) :   0.9468
B(  5-C ,  6-O ) :   2.2614 B(  5-C ,  7-C ) :   0.9337 B(  7-C ,  8-C ) :   1.4062
B(  7-C , 12-C ) :   1.3371 B(  8-C ,  9-C ) :   1.3592 B(  8-C , 67-H ) :   0.9946
B(  9-C , 10-C ) :   1.3547 B(  9-C , 68-H ) :   0.9932 B( 10-C , 11-C ) :   1.3597
B( 10-C , 69-H ) :   0.9940 B( 11-C , 12-C ) :   1.4062 B( 11-C , 70-H ) :   0.9920
B( 12-C , 13-C ) :   0.9448 B( 13-C , 14-O ) :   2.1673 B( 15-C , 16-S ) :   1.1174
B( 15-C , 19-C ) :   1.5030 B( 16-S , 17-C ) :   1.1523 B( 17-C , 18-C ) :   1.4169
B( 17-C , 22-C ) :   1.1626 B( 18-C , 19-C ) :   1.2921 B( 18-C , 20-C ) :   1.1221
B( 19-C , 71-H ) :   0.9894 B( 20-C , 21-N ) :   2.9649 B( 22-C , 23-C ) :   1.6005
B( 22-C , 72-H ) :   0.9197 B( 23-C , 24-C ) :   1.1771 B( 23-C , 73-H ) :   0.9492
B( 24-C , 25-N ) :   1.1734 B( 24-C , 31-C ) :   1.3079 B( 25-N , 26-C ) :   0.9372
B( 25-N , 28-C ) :   1.0361 B( 26-C , 27-C ) :   1.1236 B( 26-C , 74-H ) :   0.9484
B( 26-C , 75-H ) :   0.9280 B( 27-C , 76-H ) :   0.9677 B( 27-C , 77-H ) :   0.9674
B( 27-C , 78-H ) :   0.9635 B( 28-C , 29-O ) :   2.1353 B( 28-C , 30-C ) :   0.9678
B( 30-C , 31-C ) :   1.2552 B( 30-C , 37-C ) :   1.3516 B( 31-C , 32-C ) :   0.9936
B( 32-C , 33-O ) :   2.0077 B( 32-C , 34-N ) :   1.0680 B( 33-O , 72-H ) :   0.1189
B( 34-N , 35-C ) :   0.9407 B( 34-N , 37-C ) :   1.1582 B( 35-C , 36-C ) :   1.1175
B( 35-C , 79-H ) :   0.9241 B( 35-C , 80-H ) :   0.9505 B( 36-C , 81-H ) :   0.9612
B( 36-C , 82-H ) :   0.9685 B( 36-C , 83-H ) :   0.9682 B( 37-C , 38-C ) :   1.1597
B( 38-C , 39-C ) :   1.5459 B( 38-C , 84-H ) :   0.9587 B( 39-C , 40-C ) :   1.2096
B( 39-C , 85-H ) :   0.9527 B( 40-C , 41-O ) :   1.1562 B( 40-C , 44-C ) :   1.3735
B( 41-O , 42-C ) :   1.1461 B( 42-C , 43-C ) :   1.3712 B( 42-C , 49-C ) :   1.1937
B( 43-C , 44-C ) :   1.3123 B( 43-C , 47-C ) :   1.1518 B( 44-C , 45-C ) :   1.1504
B( 45-C , 46-N ) :   3.0121 B( 47-C , 48-N ) :   3.0157 B( 49-C , 50-C ) :   1.6586
B( 49-C , 86-H ) :   0.9229 B( 50-C , 51-C ) :   1.1269 B( 50-C , 87-H ) :   0.9531
B( 51-C , 52-S ) :   1.1766 B( 51-C , 55-C ) :   1.4328 B( 52-S , 53-C ) :   1.1860
B( 53-C , 54-C ) :   1.5455 B( 53-C , 88-H ) :   0.9649 B( 54-C , 55-C ) :   1.2155
B( 54-C , 64-C ) :   0.9488 B( 55-C , 56-C ) :   0.9721 B( 56-C , 57-O ) :   2.1172
B( 56-C , 58-C ) :   0.9548 B( 57-O , 86-H ) :   0.1047 B( 58-C , 59-C ) :   1.4051
B( 58-C , 63-C ) :   1.3402 B( 59-C , 60-C ) :   1.3631 B( 59-C , 89-H ) :   0.9918
B( 60-C , 61-C ) :   1.3536 B( 60-C , 90-H ) :   0.9929 B( 61-C , 62-C ) :   1.3591
B( 61-C , 91-H ) :   0.9930 B( 62-C , 63-C ) :   1.4066 B( 62-C , 92-H ) :   0.9942
B( 63-C , 64-C ) :   0.9337 B( 64-C , 65-O ) :   2.2599

-----------------------------------------------------------------------------
         ABSORPTION SPECTRUM VIA TRANSITION ELECTRIC DIPOLE MOMENTS
-----------------------------------------------------------------------------
State   Energy  Wavelength   fosc         T2         TX        TY        TZ
        (cm-1)    (nm)                  (au**2)     (au)      (au)      (au)
-----------------------------------------------------------------------------
   0   13460.8    742.9   1.129369814  27.62117   2.88562  -3.92944  -1.96313
   1   20963.1    477.0   0.126717056   1.99001   0.23882   0.36315  -1.34205
   2   22945.1    435.8   0.212207551   3.04471  -0.46878  -0.24938   1.66216
   3   24212.3    413.0   0.732746572   9.96308   1.82859  -1.56701  -2.04054
   4   24384.9    410.1   0.233102307   3.14703  -0.41235  -0.44508   1.66701
   5   25756.3    388.3   0.004253669   0.05437  -0.17415   0.15490   0.00672
   6   27168.6    368.1   0.058062513   0.70357   0.35466   0.23466  -0.72299
   7   27833.6    359.3   0.002218513   0.02624  -0.04221   0.00904  -0.15613
   8   28543.6    350.3   0.008738667   0.10079   0.23490   0.11599  -0.17932
   9   28934.3    345.6   0.002046634   0.02329   0.09426   0.11162  -0.04407
  10   29574.4    338.1   0.012771925   0.14217   0.21635  -0.28214  -0.12555
  11   30057.1    332.7   0.345928231   3.78891  -0.28164  -0.89630   1.70477
  12   30599.6    326.8   0.002599167   0.02796  -0.04588  -0.00568   0.16071
  13   30923.9    323.4   0.039787033   0.42357   0.47199  -0.25790  -0.36644
  14   31432.1    318.1   0.000516852   0.00541  -0.03566   0.06057   0.02174
  15   31788.9    314.6   0.000637538   0.00660   0.05062   0.06179  -0.01491
  16   32151.8    311.0   0.019257066   0.19718   0.09394  -0.41946  -0.11138
  17   33788.8    296.0   0.118581242   1.15536  -0.16049   0.89607  -0.57154
  18   34422.2    290.5   0.040529344   0.38762  -0.11227  -0.38835   0.47349
  19   34961.2    286.0   0.086384106   0.81343  -0.41396   0.19804   0.77644
  20   35312.6    283.2   0.114764205   1.06992   0.40896  -0.93808  -0.15062
  21   35571.3    281.1   0.028376147   0.26262  -0.30973   0.15415   0.37806
  22   35821.9    279.2   0.070162588   0.64481  -0.16410   0.78137   0.08568
  23   35922.6    278.4   0.066498172   0.60942  -0.49876   0.57718  -0.16590
  24   36219.1    276.1   0.098241597   0.89296   0.52069  -0.74120  -0.26920
  25   36264.6    275.8   0.178675399   1.62202  -0.62286   1.02917   0.41818
  26   36496.5    274.0   0.088512432   0.79841  -0.12312   0.73263  -0.49649
  27   36976.8    270.4   0.094808039   0.84409  -0.49344   0.14336   0.76162
  28   37099.8    269.5   0.003561404   0.03160   0.09086   0.14980  -0.03010
  29   37864.1    264.1   0.000435508   0.00379   0.02598   0.02371   0.05049
  30   38057.6    262.8   0.000879070   0.00760   0.05702  -0.03117  -0.05815
  31   38333.1    260.9   0.095663346   0.82157  -0.45627   0.06780   0.78026
  32   38667.3    258.6   0.011079533   0.09433  -0.06183  -0.20326   0.22179
  33   39211.6    255.0   0.001491770   0.01252  -0.00052  -0.10864   0.02688
  34   39647.4    252.2   0.009812120   0.08147   0.08644  -0.26996  -0.03351
  35   39714.3    251.8   0.005060005   0.04194  -0.16833   0.05124   0.10480
  36   39776.4    251.4   0.033187825   0.27468   0.06563  -0.47197   0.21821
  37   39867.1    250.8   0.010479291   0.08654  -0.14190   0.21456  -0.14270
  38   39907.5    250.6   0.047168855   0.38911   0.08866   0.57390  -0.22780
  39   40023.7    249.9   0.017272767   0.14208  -0.14015  -0.26275   0.23107
  40   40092.7    249.4   0.059345599   0.48730   0.18277  -0.65122  -0.17267

FINAL SINGLE POINT ENERGY     -3950.798057712798

DIPOLE MOMENT
-------------
                                X             Y             Z
Electronic contribution:      3.56641       4.77189      -6.23807
Nuclear contribution   :     -2.03613      -7.03472       6.23237
                        -----------------------------------------
Total Dipole Moment    :      1.53028      -2.26282      -0.00571
                        -----------------------------------------
Magnitude (a.u.)       :      2.73169
Magnitude (Debye)      :      6.94340

Rotational constants in cm-1:     0.002682     0.000250     0.000231
Rotational constants in MHz :    80.397244     7.501674     6.919798

                             ****ORCA TERMINATED NORMALLY****
TOTAL RUN TIME: 0 days 0 hours 8 minutes 5 seconds 558 msec
