                         Program Version 4.2.0 -  RELEASE  -
|  1> # ORCA input file
|  2> # SCF done       -166.319298080798          0.000634713788
|  3> ! CAM-B3LYP def2-SVP def2/J RIJCOSX Grid4 TightSCF
|  4> %maxcore 5000
|  5> %tddft
|  6>     Mode sTDDFT
|  7>     Ethresh 5.0
|  8>     maxcore 5000
|  9> end
| 10>
| 11> %pal
| 12>   nprocs 6
| 13>   end
| 14> * xyz 0 1
| 15>    C       -0.03474         0.97234         0.13515
| 16>    C       -1.29062         1.49228         0.19526
| 17>    S       -2.45999         0.26432         0.51563
| 18>    C       -1.23364        -0.98044         0.56985
| 19>   Cl       -1.63126        -2.59957         0.86638
| 20>    C       -0.00008        -0.44343         0.35085
| 21>    C        1.38073        -0.92963         0.27585
| 22>    O        1.77091        -2.06998         0.38198
| 23>    C        2.19541         0.29118        -0.02445
| 24>    C        1.31432         1.45018        -0.08817
| 25>    C        1.65663         2.76166        -0.27847
| 26>    C        0.67842         3.77860        -0.29873
| 27>    N       -0.10614         4.61522        -0.32089
| 28>    C        2.96591         3.25046        -0.45805
| 29>    N        4.00888         3.70800        -0.60201
| 30>    C        3.51609         0.26881        -0.33685
| 31>    C        4.36269        -0.88515        -0.23030
| 32>    C        5.27868        -1.23288        -1.24151
| 33>    N        6.00239        -2.31842        -1.19479
| 34>    C        5.84575        -3.13725        -0.15111
| 35>    N        5.08460        -2.84533         0.90692
| 36>    C        4.38126        -1.74320         0.88264
| 37>    C        6.56597        -4.38229        -0.20781
| 38>    N        6.49918        -5.38784         0.71989
| 39>    C        5.68693        -5.44428         1.91233
| 40>    C        4.23418        -5.78246         1.59162
| 41>    C        7.29600        -6.48836         0.34773
| 42>    O        7.39873        -7.49652         1.01605
| 43>    C        7.89414        -6.08982        -0.90660
| 44>    C        7.43022        -4.78410        -1.21754
| 45>    C        8.03035        -4.38328        -2.47811
| 46>    O        7.96299        -3.38474        -3.15238
| 47>    N        8.81261        -5.50656        -2.84910
| 48>    C        9.62552        -5.48326        -4.04022
| 49>    C       11.09978        -5.25359        -3.71617
| 50>    C        8.73505        -6.51930        -1.92896
| 51>    C        9.38398        -7.77643        -2.09318
| 52>    C        9.32884        -8.77198        -1.18506
| 53>    C        9.95925       -10.05397        -1.42389
| 54>    N        9.82418       -10.97840        -0.47011
| 55>    C       10.37827       -12.15540        -0.68198
| 56>    C       11.06158       -12.46011        -1.85150
| 57>    C       11.14783       -11.43380        -2.80139
| 58>    N       10.61428       -10.23672        -2.56926
| 59>    C       11.83087       -11.59019        -4.07300
| 60>    C       11.98899       -12.76883        -4.70672
| 61>    C       12.68540       -12.87413        -5.94148
| 62>    C       12.99633       -13.98845        -6.65243
| 63>    C       13.46573       -13.80610        -8.06664
| 64>    O       13.81968       -12.76816        -8.57009
| 65>    C       13.34243       -15.13511        -8.67007
| 66>    C       13.49956       -15.69364        -9.90345
| 67>    S       13.13611       -17.40211        -9.85096
| 68>    C       12.78684       -17.34165        -8.16226
| 69>    C       12.93601       -16.08131        -7.67246
| 70>    C       12.83762       -15.40991        -6.38744
| 71>    C       12.77589       -16.07330        -5.19112
| 72>    C       12.65127       -17.47999        -5.14300
| 73>    N       12.53166       -18.61883        -5.07971
| 74>    C       12.90378       -15.51401        -3.90513
| 75>    N       13.03077       -15.14325        -2.82565
| 76>   Cl       13.97339       -14.93460       -11.34136
| 77>    H       -1.61397         2.50666         0.07105
| 78>    H        3.98125         1.16014        -0.73970
| 79>    H        5.39392        -0.62217        -2.12725
| 80>    H        3.84100        -1.50165         1.78764
| 81>    H        5.74491        -4.48713         2.43184
| 82>    H        6.12288        -6.23411         2.53083
| 83>    H        3.77779        -4.98962         1.00500
| 84>    H        3.67484        -5.89438         2.51588
| 85>    H        4.17985        -6.71554         1.03562
| 86>    H        9.24804        -4.65291        -4.64383
| 87>    H        9.49074        -6.41495        -4.59692
| 88>    H       11.22154        -4.30764        -3.19433
| 89>    H       11.67759        -5.21942        -4.63563
| 90>    H       11.48908        -6.05004        -3.08587
| 91>    H        9.93521        -7.95015        -3.00662
| 92>    H        8.80007        -8.67026        -0.24815
| 93>    H       10.26915       -12.88042         0.11438
| 94>    H       11.53614       -13.41607        -2.00029
| 95>    H       12.20322       -10.67547        -4.51425
| 96>    H       11.55193       -13.66121        -4.28667
| 97>    H       12.97011       -11.94085        -6.41786
| 98>    H       12.48820       -18.23893        -7.65776
| 99> *
|100>
|101>                          ****END OF INPUT****

CARTESIAN COORDINATES (ANGSTROEM)
---------------------------------
  C     -0.034740    0.972340    0.135150
  C     -1.290620    1.492280    0.195260
  S     -2.459990    0.264320    0.515630
  C     -1.233640   -0.980440    0.569850
  Cl    -1.631260   -2.599570    0.866380
  C     -0.000080   -0.443430    0.350850
  C      1.380730   -0.929630    0.275850
  O      1.770910   -2.069980    0.381980
  C      2.195410    0.291180   -0.024450
  C      1.314320    1.450180   -0.088170
  C      1.656630    2.761660   -0.278470
  C      0.678420    3.778600   -0.298730
  N     -0.106140    4.615220   -0.320890
  C      2.965910    3.250460   -0.458050
  N      4.008880    3.708000   -0.602010
  C      3.516090    0.268810   -0.336850
  C      4.362690   -0.885150   -0.230300
  C      5.278680   -1.232880   -1.241510
  N      6.002390   -2.318420   -1.194790
  C      5.845750   -3.137250   -0.151110
  N      5.084600   -2.845330    0.906920
  C      4.381260   -1.743200    0.882640
  C      6.565970   -4.382290   -0.207810
  N      6.499180   -5.387840    0.719890
  C      5.686930   -5.444280    1.912330
  C      4.234180   -5.782460    1.591620
  C      7.296000   -6.488360    0.347730
  O      7.398730   -7.496520    1.016050
  C      7.894140   -6.089820   -0.906600
  C      7.430220   -4.784100   -1.217540
  C      8.030350   -4.383280   -2.478110
  O      7.962990   -3.384740   -3.152380
  N      8.812610   -5.506560   -2.849100
  C      9.625520   -5.483260   -4.040220
  C     11.099780   -5.253590   -3.716170
  C      8.735050   -6.519300   -1.928960
  C      9.383980   -7.776430   -2.093180
  C      9.328840   -8.771980   -1.185060
  C      9.959250  -10.053970   -1.423890
  N      9.824180  -10.978400   -0.470110
  C     10.378270  -12.155400   -0.681980
  C     11.061580  -12.460110   -1.851500
  C     11.147830  -11.433800   -2.801390
  N     10.614280  -10.236720   -2.569260
  C     11.830870  -11.590190   -4.073000
  C     11.988990  -12.768830   -4.706720
  C     12.685400  -12.874130   -5.941480
  C     12.996330  -13.988450   -6.652430
  C     13.465730  -13.806100   -8.066640
  O     13.819680  -12.768160   -8.570090
  C     13.342430  -15.135110   -8.670070
  C     13.499560  -15.693640   -9.903450
  S     13.136110  -17.402110   -9.850960
  C     12.786840  -17.341650   -8.162260
  C     12.936010  -16.081310   -7.672460
  C     12.837620  -15.409910   -6.387440
  C     12.775890  -16.073300   -5.191120
  C     12.651270  -17.479990   -5.143000
  N     12.531660  -18.618830   -5.079710
  C     12.903780  -15.514010   -3.905130
  N     13.030770  -15.143250   -2.825650
  Cl    13.973390  -14.934600  -11.341360
  H     -1.613970    2.506660    0.071050
  H      3.981250    1.160140   -0.739700
  H      5.393920   -0.622170   -2.127250
  H      3.841000   -1.501650    1.787640
  H      5.744910   -4.487130    2.431840
  H      6.122880   -6.234110    2.530830
  H      3.777790   -4.989620    1.005000
  H      3.674840   -5.894380    2.515880
  H      4.179850   -6.715540    1.035620
  H      9.248040   -4.652910   -4.643830
  H      9.490740   -6.414950   -4.596920
  H     11.221540   -4.307640   -3.194330
  H     11.677590   -5.219420   -4.635630
  H     11.489080   -6.050040   -3.085870
  H      9.935210   -7.950150   -3.006620
  H      8.800070   -8.670260   -0.248150
  H     10.269150  -12.880420    0.114380
  H     11.536140  -13.416070   -2.000290
  H     12.203220  -10.675470   -4.514250
  H     11.551930  -13.661210   -4.286670
  H     12.970110  -11.940850   -6.417860
  H     12.488200  -18.238930   -7.657760

 Total Charge           Charge          ....    0
 Multiplicity           Mult            ....    1
 Number of Electrons    NEL             ....  454
 Basis Dimension        Dim             ....  994

ORBITAL ENERGIES
----------------

  NO   OCC          E(Eh)            E(eV)
   0   2.0000    -101.623364     -2765.3123
   1   2.0000    -101.622886     -2765.2993
   2   2.0000     -89.000828     -2421.8356
   3   2.0000     -89.000092     -2421.8156
   4   2.0000     -19.230500      -523.2885
   5   2.0000     -19.226488      -523.1793
   6   2.0000     -19.186337      -522.0868
   7   2.0000     -19.180352      -521.9239
   8   2.0000     -14.448733      -393.1700
   9   2.0000     -14.444333      -393.0503
  10   2.0000     -14.433999      -392.7691
  11   2.0000     -14.429489      -392.6464
  12   2.0000     -14.428051      -392.6072
  13   2.0000     -14.426769      -392.5723
  14   2.0000     -14.421177      -392.4202
  15   2.0000     -14.420785      -392.4095
  16   2.0000     -14.415410      -392.2633
  17   2.0000     -14.414505      -392.2386
  18   2.0000     -10.387702      -282.6638
  19   2.0000     -10.383480      -282.5489
  20   2.0000     -10.382582      -282.5244
  21   2.0000     -10.382286      -282.5164
  22   2.0000     -10.370552      -282.1971
  23   2.0000     -10.363848      -282.0146
  24   2.0000     -10.361339      -281.9464
  25   2.0000     -10.360260      -281.9170
  26   2.0000     -10.360013      -281.9103
  27   2.0000     -10.356679      -281.8196
  28   2.0000     -10.356069      -281.8030
  29   2.0000     -10.347701      -281.5753
  30   2.0000     -10.340224      -281.3718
  31   2.0000     -10.339567      -281.3539
  32   2.0000     -10.337310      -281.2925
  33   2.0000     -10.336817      -281.2791
  34   2.0000     -10.336518      -281.2710
  35   2.0000     -10.336403      -281.2678
  36   2.0000     -10.333618      -281.1920
  37   2.0000     -10.332502      -281.1617
  38   2.0000     -10.331245      -281.1275
  39   2.0000     -10.329707      -281.0856
  40   2.0000     -10.328485      -281.0524
  41   2.0000     -10.328238      -281.0456
  42   2.0000     -10.328213      -281.0450
  43   2.0000     -10.325199      -280.9629
  44   2.0000     -10.320747      -280.8418
  45   2.0000     -10.319974      -280.8208
  46   2.0000     -10.317879      -280.7637
  47   2.0000     -10.314205      -280.6638
  48   2.0000     -10.313614      -280.6477
  49   2.0000     -10.307467      -280.4804
  50   2.0000     -10.307165      -280.4722
  51   2.0000     -10.306905      -280.4651
  52   2.0000     -10.305818      -280.4356
  53   2.0000     -10.304422      -280.3976
  54   2.0000     -10.291946      -280.0581
  55   2.0000     -10.287653      -279.9413
  56   2.0000     -10.284273      -279.8493
  57   2.0000     -10.282197      -279.7928
  58   2.0000     -10.263935      -279.2959
  59   2.0000     -10.260807      -279.2107
  60   2.0000     -10.256306      -279.0883
  61   2.0000     -10.242393      -278.7097
  62   2.0000      -9.578148      -260.6347
  63   2.0000      -9.577676      -260.6218
  64   2.0000      -8.096449      -220.3156
  65   2.0000      -8.095784      -220.2975
  66   2.0000      -7.348789      -199.9707
  67   2.0000      -7.348317      -199.9579
  68   2.0000      -7.338189      -199.6823
  69   2.0000      -7.337714      -199.6693
  70   2.0000      -7.337624      -199.6669
  71   2.0000      -7.337162      -199.6543
  72   2.0000      -6.065811      -165.0591
  73   2.0000      -6.065152      -165.0412
  74   2.0000      -6.061198      -164.9336
  75   2.0000      -6.060552      -164.9160
  76   2.0000      -6.058767      -164.8674
  77   2.0000      -6.058048      -164.8479
  78   2.0000      -1.147630       -31.2286
  79   2.0000      -1.143707       -31.1219
  80   2.0000      -1.128388       -30.7050
  81   2.0000      -1.119610       -30.4661
  82   2.0000      -1.097015       -29.8513
  83   2.0000      -1.090348       -29.6699
  84   2.0000      -1.058315       -28.7982
  85   2.0000      -1.046005       -28.4632
  86   2.0000      -1.045434       -28.4477
  87   2.0000      -1.045398       -28.4467
  88   2.0000      -1.028550       -27.9883
  89   2.0000      -1.024549       -27.8794
  90   2.0000      -1.010262       -27.4906
  91   2.0000      -1.005770       -27.3684
  92   2.0000      -0.996061       -27.1042
  93   2.0000      -0.995705       -27.0945
  94   2.0000      -0.989868       -26.9357
  95   2.0000      -0.989771       -26.9330
  96   2.0000      -0.963209       -26.2102
  97   2.0000      -0.962559       -26.1926
  98   2.0000      -0.938947       -25.5500
  99   2.0000      -0.934918       -25.4404
 100   2.0000      -0.922369       -25.0989
 101   2.0000      -0.918121       -24.9833
 102   2.0000      -0.912089       -24.8192
 103   2.0000      -0.909600       -24.7515
 104   2.0000      -0.882742       -24.0206
 105   2.0000      -0.873959       -23.7816
 106   2.0000      -0.861436       -23.4409
 107   2.0000      -0.855450       -23.2780
 108   2.0000      -0.840343       -22.8669
 109   2.0000      -0.839982       -22.8571
 110   2.0000      -0.824588       -22.4382
 111   2.0000      -0.810607       -22.0577
 112   2.0000      -0.801564       -21.8117
 113   2.0000      -0.800619       -21.7859
 114   2.0000      -0.777630       -21.1604
 115   2.0000      -0.768388       -20.9089
 116   2.0000      -0.763258       -20.7693
 117   2.0000      -0.758447       -20.6384
 118   2.0000      -0.750558       -20.4237
 119   2.0000      -0.745706       -20.2917
 120   2.0000      -0.743685       -20.2367
 121   2.0000      -0.730104       -19.8671
 122   2.0000      -0.704451       -19.1691
 123   2.0000      -0.699621       -19.0376
 124   2.0000      -0.696047       -18.9404
 125   2.0000      -0.692826       -18.8528
 126   2.0000      -0.684995       -18.6396
 127   2.0000      -0.684455       -18.6250
 128   2.0000      -0.683398       -18.5962
 129   2.0000      -0.668818       -18.1995
 130   2.0000      -0.658078       -17.9072
 131   2.0000      -0.649473       -17.6730
 132   2.0000      -0.645080       -17.5535
 133   2.0000      -0.633444       -17.2369
 134   2.0000      -0.630196       -17.1485
 135   2.0000      -0.625970       -17.0335
 136   2.0000      -0.624248       -16.9867
 137   2.0000      -0.620645       -16.8886
 138   2.0000      -0.614386       -16.7183
 139   2.0000      -0.611668       -16.6443
 140   2.0000      -0.603027       -16.4092
 141   2.0000      -0.585971       -15.9451
 142   2.0000      -0.581389       -15.8204
 143   2.0000      -0.578519       -15.7423
 144   2.0000      -0.573086       -15.5945
 145   2.0000      -0.564226       -15.3534
 146   2.0000      -0.562499       -15.3064
 147   2.0000      -0.558969       -15.2103
 148   2.0000      -0.558321       -15.1927
 149   2.0000      -0.552422       -15.0322
 150   2.0000      -0.550304       -14.9745
 151   2.0000      -0.544041       -14.8041
 152   2.0000      -0.543503       -14.7895
 153   2.0000      -0.539426       -14.6785
 154   2.0000      -0.536913       -14.6101
 155   2.0000      -0.534675       -14.5492
 156   2.0000      -0.530801       -14.4438
 157   2.0000      -0.529887       -14.4190
 158   2.0000      -0.527750       -14.3608
 159   2.0000      -0.523533       -14.2461
 160   2.0000      -0.523252       -14.2384
 161   2.0000      -0.519529       -14.1371
 162   2.0000      -0.518161       -14.0999
 163   2.0000      -0.515186       -14.0189
 164   2.0000      -0.512534       -13.9468
 165   2.0000      -0.511679       -13.9235
 166   2.0000      -0.509401       -13.8615
 167   2.0000      -0.504369       -13.7246
 168   2.0000      -0.502905       -13.6847
 169   2.0000      -0.502367       -13.6701
 170   2.0000      -0.499715       -13.5979
 171   2.0000      -0.498068       -13.5531
 172   2.0000      -0.494847       -13.4655
 173   2.0000      -0.494509       -13.4563
 174   2.0000      -0.491895       -13.3851
 175   2.0000      -0.489081       -13.3086
 176   2.0000      -0.471568       -12.8320
 177   2.0000      -0.467142       -12.7116
 178   2.0000      -0.466114       -12.6836
 179   2.0000      -0.464650       -12.6438
 180   2.0000      -0.462771       -12.5927
 181   2.0000      -0.459564       -12.5054
 182   2.0000      -0.459459       -12.5025
 183   2.0000      -0.455622       -12.3981
 184   2.0000      -0.455370       -12.3912
 185   2.0000      -0.454038       -12.3550
 186   2.0000      -0.453816       -12.3490
 187   2.0000      -0.451981       -12.2990
 188   2.0000      -0.450938       -12.2706
 189   2.0000      -0.449816       -12.2401
 190   2.0000      -0.443079       -12.0568
 191   2.0000      -0.442194       -12.0327
 192   2.0000      -0.440741       -11.9932
 193   2.0000      -0.439866       -11.9694
 194   2.0000      -0.438916       -11.9435
 195   2.0000      -0.436384       -11.8746
 196   2.0000      -0.431113       -11.7312
 197   2.0000      -0.427778       -11.6404
 198   2.0000      -0.425248       -11.5716
 199   2.0000      -0.424693       -11.5565
 200   2.0000      -0.420934       -11.4542
 201   2.0000      -0.414788       -11.2870
 202   2.0000      -0.413626       -11.2553
 203   2.0000      -0.410281       -11.1643
 204   2.0000      -0.408902       -11.1268
 205   2.0000      -0.407702       -11.0941
 206   2.0000      -0.399868       -10.8810
 207   2.0000      -0.391862       -10.6631
 208   2.0000      -0.386991       -10.5306
 209   2.0000      -0.386228       -10.5098
 210   2.0000      -0.384054       -10.4506
 211   2.0000      -0.377626       -10.2757
 212   2.0000      -0.355982        -9.6868
 213   2.0000      -0.351336        -9.5604
 214   2.0000      -0.344328        -9.3697
 215   2.0000      -0.343634        -9.3508
 216   2.0000      -0.341064        -9.2808
 217   2.0000      -0.331570        -9.0225
 218   2.0000      -0.331052        -9.0084
 219   2.0000      -0.329348        -8.9620
 220   2.0000      -0.326567        -8.8863
 221   2.0000      -0.321826        -8.7573
 222   2.0000      -0.318014        -8.6536
 223   2.0000      -0.310749        -8.4559
 224   2.0000      -0.308928        -8.4063
 225   2.0000      -0.307782        -8.3752
 226   2.0000      -0.240972        -6.5572
 227   0.0000      -0.107486        -2.9248
 228   0.0000      -0.106491        -2.8978
 229   0.0000      -0.077242        -2.1019
 230   0.0000      -0.060215        -1.6385
 231   0.0000      -0.058090        -1.5807

MULLIKEN ATOMIC CHARGES
-----------------------
   0 C :    0.030612
   1 C :   -0.126713
   2 S :    0.193177
   3 C :   -0.170747
   4 Cl:    0.005399
   5 C :    0.075486
   6 C :    0.146918
   7 O :   -0.125872
   8 C :   -0.102457
   9 C :    0.289276
  10 C :   -0.318545
  11 C :   -0.195275
  12 N :    0.164260
  13 C :   -0.194896
  14 N :    0.167494
  15 C :   -0.009770
  16 C :   -0.032200
  17 C :    0.061108
  18 N :    0.003555
  19 C :   -0.186186
  20 N :   -0.066234
  21 C :    0.121707
  22 C :    0.201528
  23 N :   -0.256539
  24 C :    0.138354
  25 C :   -0.000814
  26 C :    0.154835
  27 O :   -0.201041
  28 C :   -0.065212
  29 C :   -0.059104
  30 C :    0.149921
  31 O :   -0.151441
  32 N :   -0.268013
  33 C :    0.100927
  34 C :    0.002374
  35 C :    0.154730
  36 C :   -0.001821
  37 C :    0.056366
  38 C :   -0.084179
  39 N :   -0.040608
  40 C :    0.076282
  41 C :   -0.029222
  42 C :    0.028589
  43 N :   -0.062734
  44 C :    0.052293
  45 C :    0.020695
  46 C :    0.021247
  47 C :   -0.115629
  48 C :    0.134204
  49 O :   -0.125434
  50 C :    0.092789
  51 C :   -0.172482
  52 S :    0.192088
  53 C :   -0.126345
  54 C :    0.011367
  55 C :    0.296297
  56 C :   -0.324802
  57 C :   -0.191261
  58 N :    0.156860
  59 C :   -0.178885
  60 N :    0.164139
  61 Cl:    0.003842
  62 H :    0.055901
  63 H :    0.040852
  64 H :    0.016282
  65 H :    0.007507
  66 H :    0.025234
  67 H :    0.031723
  68 H :    0.023754
  69 H :    0.013287
  70 H :    0.015352
  71 H :    0.043497
  72 H :    0.023079
  73 H :    0.027750
  74 H :    0.021819
  75 H :    0.018817
  76 H :   -0.010392
  77 H :    0.020683
  78 H :    0.017820
  79 H :    0.002751
  80 H :    0.016264
  81 H :    0.023607
  82 H :    0.024267
  83 H :    0.055890
Sum of atomic charges:   -0.0000000

LOEWDIN ATOMIC CHARGES
----------------------
   0 C :   -0.059562
   1 C :   -0.147401
   2 S :    0.481865
   3 C :   -0.270648
   4 Cl:    0.196247
   5 C :   -0.117985
   6 C :    0.082616
   7 O :   -0.124099
   8 C :   -0.080876
   9 C :    0.072960
  10 C :   -0.130321
  11 C :   -0.015472
  12 N :   -0.046010
  13 C :   -0.024417
  14 N :   -0.039196
  15 C :    0.076557
  16 C :   -0.088110
  17 C :    0.070012
  18 N :   -0.047647
  19 C :    0.032053
  20 N :   -0.068738
  21 C :    0.086684
  22 C :    0.046318
  23 N :    0.010551
  24 C :    0.034633
  25 C :   -0.061743
  26 C :    0.076960
  27 O :   -0.195576
  28 C :   -0.124012
  29 C :   -0.089755
  30 C :    0.085240
  31 O :   -0.160375
  32 N :   -0.005734
  33 C :    0.035390
  34 C :   -0.061120
  35 C :    0.089632
  36 C :   -0.023894
  37 C :    0.026178
  38 C :    0.023191
  39 N :   -0.069239
  40 C :    0.055055
  41 C :   -0.043053
  42 C :    0.020378
  43 N :   -0.081402
  44 C :    0.037706
  45 C :   -0.020083
  46 C :    0.073705
  47 C :   -0.084948
  48 C :    0.080580
  49 O :   -0.129948
  50 C :   -0.118219
  51 C :   -0.271554
  52 S :    0.480185
  53 C :   -0.149451
  54 C :   -0.058349
  55 C :    0.074479
  56 C :   -0.135321
  57 C :   -0.015737
  58 N :   -0.044908
  59 C :   -0.014163
  60 N :   -0.046656
  61 Cl:    0.194926
  62 H :    0.038523
  63 H :    0.049517
  64 H :    0.031953
  65 H :    0.027235
  66 H :    0.022532
  67 H :    0.030132
  68 H :    0.021807
  69 H :    0.027924
  70 H :    0.025093
  71 H :    0.036988
  72 H :    0.023019
  73 H :    0.031761
  74 H :    0.030040
  75 H :    0.023197
  76 H :    0.030304
  77 H :    0.042906
  78 H :    0.031390
  79 H :    0.035373
  80 H :    0.041371
  81 H :    0.034628
  82 H :    0.047955
  83 H :    0.037973

  Mayer bond orders larger than 0.100000
B(  0-C ,  1-C ) :   1.5434 B(  0-C ,  5-C ) :   1.2198 B(  0-C ,  9-C ) :   1.0050
B(  1-C ,  2-S ) :   1.1639 B(  1-C , 62-H ) :   0.9539 B(  2-S ,  3-C ) :   1.1544
B(  3-C ,  4-Cl) :   1.1328 B(  3-C ,  5-C ) :   1.4735 B(  5-C ,  6-C ) :   0.9543
B(  6-C ,  7-O ) :   2.2326 B(  6-C ,  8-C ) :   0.9236 B(  8-C ,  9-C ) :   1.0473
B(  8-C , 15-C ) :   1.7126 B(  9-C , 10-C ) :   1.6729 B( 10-C , 11-C ) :   1.1431
B( 10-C , 13-C ) :   1.1371 B( 11-C , 12-N ) :   2.9943 B( 13-C , 14-N ) :   2.9799
B( 15-C , 16-C ) :   1.0458 B( 15-C , 63-H ) :   0.9447 B( 16-C , 17-C ) :   1.2878
B( 16-C , 21-C ) :   1.3007 B( 17-C , 18-N ) :   1.5896 B( 17-C , 64-H ) :   0.9918
B( 18-N , 19-C ) :   1.6428 B( 18-N , 22-C ) :  -0.1322 B( 19-C , 20-N ) :   1.4858
B( 19-C , 22-C ) :   0.9924 B( 20-N , 21-C ) :   1.5690 B( 21-C , 65-H ) :   0.9825
B( 22-C , 23-N ) :   1.2053 B( 22-C , 29-C ) :   1.3865 B( 23-N , 24-C ) :   0.9357
B( 23-N , 26-C ) :   1.0558 B( 24-C , 25-C ) :   1.1261 B( 24-C , 66-H ) :   0.9352
B( 24-C , 67-H ) :   0.9261 B( 25-C , 68-H ) :   0.9664 B( 25-C , 69-H ) :   0.9672
B( 25-C , 70-H ) :   0.9650 B( 26-C , 27-O ) :   2.0522 B( 26-C , 28-C ) :   0.9824
B( 28-C , 29-C ) :   1.2481 B( 28-C , 35-C ) :   1.3372 B( 29-C , 30-C ) :   0.9409
B( 30-C , 31-O ) :   2.1882 B( 30-C , 32-N ) :   1.0085 B( 32-N , 33-C ) :   0.9468
B( 32-N , 35-C ) :   1.1870 B( 33-C , 34-C ) :   1.1213 B( 33-C , 71-H ) :   0.9266
B( 33-C , 72-H ) :   0.9495 B( 34-C , 73-H ) :   0.9640 B( 34-C , 74-H ) :   0.9676
B( 34-C , 75-H ) :   0.9684 B( 35-C , 36-C ) :   1.1048 B( 36-C , 37-C ) :   1.6437
B( 36-C , 76-H ) :   0.9584 B( 37-C , 38-C ) :   1.0206 B( 37-C , 77-H ) :   0.9567
B( 38-C , 39-N ) :   1.5501 B( 38-C , 43-N ) :   1.5251 B( 39-N , 40-C ) :   1.5452
B( 40-C , 41-C ) :   1.3745 B( 40-C , 78-H ) :   0.9802 B( 41-C , 42-C ) :   1.3571
B( 41-C , 79-H ) :   0.9548 B( 42-C , 43-N ) :   1.4978 B( 42-C , 44-C ) :   1.0164
B( 44-C , 45-C ) :   1.7126 B( 44-C , 80-H ) :   0.9812 B( 45-C , 46-C ) :   1.1089
B( 45-C , 81-H ) :   0.9561 B( 46-C , 47-C ) :   1.6614 B( 46-C , 82-H ) :   0.9498
B( 47-C , 48-C ) :   0.9320 B( 47-C , 55-C ) :   1.0236 B( 48-C , 49-O ) :   2.2744
B( 48-C , 50-C ) :   0.9312 B( 50-C , 51-C ) :   1.4801 B( 50-C , 54-C ) :   1.2217
B( 51-C , 52-S ) :   1.1523 B( 51-C , 61-Cl) :   1.1330 B( 52-S , 53-C ) :   1.1653
B( 53-C , 54-C ) :   1.5458 B( 53-C , 83-H ) :   0.9534 B( 54-C , 55-C ) :   1.0145
B( 55-C , 56-C ) :   1.6529 B( 56-C , 57-C ) :   1.1302 B( 56-C , 59-C ) :   1.1642
B( 57-C , 58-N ) :   2.9966 B( 59-C , 60-N ) :   2.9480

-----------------------------------------------------------------------------
         ABSORPTION SPECTRUM VIA TRANSITION ELECTRIC DIPOLE MOMENTS
-----------------------------------------------------------------------------
State   Energy  Wavelength   fosc         T2         TX        TY        TZ
        (cm-1)    (nm)                  (au**2)     (au)      (au)      (au)
-----------------------------------------------------------------------------
   0   14754.5    677.8   0.729643622  16.28025  -2.63431   2.79313   1.24060
   1   18332.1    545.5   0.002799108   0.05027  -0.08533   0.04430   0.20254
   2   20653.0    484.2   0.103559754   1.65076  -0.46550   0.46440   1.10381
   3   23963.0    417.3   0.049317447   0.67754  -0.50720   0.64824   0.00821
   4   25450.0    392.9   0.001091476   0.01412   0.09221   0.00206  -0.07491
   5   26085.6    383.4   0.044857646   0.56612   0.53707  -0.51674   0.10327
   6   26606.5    375.8   0.334177436   4.13490   0.76850  -1.84696  -0.36474
   7   26950.3    371.1   0.252552511   3.08506  -0.50302   1.52558   0.71037
   8   27301.2    366.3   0.004365010   0.05264   0.22445  -0.04657   0.00946
   9   28350.8    352.7   0.020545175   0.23857  -0.05673  -0.31111  -0.37224
  10   28810.6    347.1   0.112651354   1.28724   0.34328  -0.73194  -0.79603
  11   29268.6    341.7   0.063766655   0.71724  -0.01805   0.66678   0.52184
  12   29330.4    340.9   0.031002155   0.34798  -0.19302  -0.53686   0.15001
  13   29712.1    336.6   0.017467833   0.19354  -0.17372   0.12678   0.38379
  14   30149.8    331.7   0.039607082   0.43248  -0.48129   0.42888   0.12997
  15   30432.1    328.6   0.008293722   0.08972  -0.05289   0.14613   0.25606
  16   31165.7    320.9   0.000533604   0.00564  -0.01797  -0.07083  -0.01721
  17   32018.0    312.3   0.231574755   2.38107   0.73530  -1.34308   0.19117
  18   32223.1    310.3   0.157155302   1.60560   0.69320  -1.05584  -0.10133
  19   32536.9    307.3   0.049170335   0.49751   0.13053   0.24442  -0.64864
  20   33003.4    303.0   0.006202661   0.06187  -0.04495  -0.24302   0.02817
  21   33131.0    301.8   0.013697131   0.13610   0.24808   0.19470   0.19145
  22   33263.7    300.6   0.208809741   2.06660   0.85192  -1.15794   0.00187
  23   33403.6    299.4   0.011146419   0.10985  -0.29387   0.12771   0.08475
  24   33536.0    298.2   0.010435811   0.10244  -0.02603   0.31715  -0.03438
  25   33792.9    295.9   0.225554527   2.19736  -0.58406   1.36068   0.06921
  26   34677.6    288.4   0.026334615   0.25001  -0.11025  -0.02230   0.48719
  27   35067.9    285.2   0.087839154   0.82462  -0.77228   0.29833   0.37311
  28   35259.5    283.6   0.164586309   1.53671  -1.23316   0.04386   0.11873
  29   36100.4    277.0   0.004544971   0.04145  -0.19421  -0.02658   0.05499
  30   36268.4    275.7   0.306042265   2.77798   0.84376  -0.42132  -1.37424
  31   36520.0    273.8   0.244879130   2.20748  -0.13751  -0.68888  -1.30920
  32   36858.5    271.3   0.461690158   4.12371  -1.36911  -1.40667  -0.52014
  33   37240.0    268.5   0.618026775   5.46353   1.06101  -0.23219  -2.06975
  34   37760.8    264.8   0.000604618   0.00527   0.05958   0.03989   0.01142
  35   37924.4    263.7   0.021319358   0.18507   0.00048  -0.27364  -0.33194
  36   38221.3    261.6   0.068734257   0.59203   0.54482   0.19562   0.50689
  37   38449.8    260.1   0.187955844   1.60930  -0.02875  -0.25031   1.24331
  38   38958.9    256.7   0.520468492   4.39809   0.27979   1.86831  -0.91062
  39   39287.4    254.5   0.005382173   0.04510   0.08032   0.19636  -0.00962
  40   39372.6    254.0   0.073859517   0.61757   0.24408  -0.68379   0.30071
  41   39487.2    253.2   0.088298076   0.73616  -0.02385   0.69086  -0.50823

FINAL SINGLE POINT ENERGY     -4251.317001778601

DIPOLE MOMENT
-------------
                                X             Y             Z
Electronic contribution:    -19.23286     -10.51206     -25.86174
Nuclear contribution   :     18.31012       9.10081      24.40592
                        -----------------------------------------
Total Dipole Moment    :     -0.92274      -1.41126      -1.45583
                        -----------------------------------------
Magnitude (a.u.)       :      2.22767
Magnitude (Debye)      :      5.66229

Rotational constants in cm-1:     0.002485     0.000238     0.000235
Rotational constants in MHz :    74.505337     7.140162     7.031035

                             ****ORCA TERMINATED NORMALLY****
TOTAL RUN TIME: 0 days 0 hours 6 minutes 48 seconds 345 msec
