                         Program Version 4.2.0 -  RELEASE  -
|  1> # ORCA input file
|  2> # SCF done       -198.291258405593          0.000769154513
|  3> ! CAM-B3LYP def2-SVP def2/J RIJCOSX Grid4 TightSCF
|  4> %maxcore 5000
|  5> %tddft
|  6>     Mode sTDDFT
|  7>     Ethresh 5.0
|  8>     maxcore 5000
|  9> end
| 10>
| 11> %pal
| 12>   nprocs 6
| 13>   end
| 14> * xyz 0 1
| 15>    C       -1.32094        -0.28337         2.08178
| 16>    C       -2.53732        -0.87156         1.87394
| 17>    C       -3.71191        -0.52084         2.57644
| 18>    N       -4.69638        -0.27039         3.10814
| 19>    C       -2.79996        -1.81561         0.85806
| 20>    N       -3.08931        -2.54124         0.01745
| 21>    C       -1.08470         0.87737         2.93898
| 22>    C        0.11747         1.49893         2.54689
| 23>    C        0.57107         2.64962         3.15466
| 24>    C       -0.19551         3.20319         4.18564
| 25>    C       -1.38512         2.57894         4.59354
| 26>    C       -1.82767         1.41082         3.97866
| 27>    C       -2.21219         3.12171         5.71490
| 28>    O       -2.90273         2.43493         6.42121
| 29>    O       -2.09188         4.44279         5.82004
| 30>    C       -2.81674         5.07217         6.86873
| 31>    C        0.29560         4.37142         4.81988
| 32>    N        0.77425         5.29772         5.29445
| 33>    C        0.75142         0.71187         1.46455
| 34>    O        1.76321         0.96253         0.85661
| 35>    C       -0.10292        -0.50024         1.31950
| 36>    C        0.36196        -1.57676         0.64113
| 37>    C       -0.17098        -2.90550         0.66752
| 38>    C       -0.18486        -3.74463        -0.45855
| 39>    N       -0.71095        -4.94314        -0.44518
| 40>    C       -1.27750        -5.36534         0.69008
| 41>    N       -1.22647        -4.68498         1.83738
| 42>    C       -0.67275        -3.50660         1.83982
| 43>    C       -1.96966        -6.62531         0.74033
| 44>    N       -2.36306        -7.36686        -0.33994
| 45>    C       -2.14116        -7.07887        -1.73656
| 46>    C       -0.76548        -7.55449        -2.19278
| 47>    C       -3.04839        -8.53292         0.05497
| 48>    O       -3.49684        -9.34334        -0.72846
| 49>    C       -3.05512        -8.47145         1.50066
| 50>    C       -2.38523        -7.28226         1.89061
| 51>    C       -2.35868        -7.23689         3.34237
| 52>    O       -1.90365        -6.45379         4.14059
| 53>    N       -3.04069        -8.41763         3.72717
| 54>    C       -3.20565        -8.75806         5.11955
| 55>    C       -2.17107        -9.78203         5.58051
| 56>    C       -3.45101        -9.15455         2.64705
| 57>    C       -4.15507       -10.38805         2.76011
| 58>    C       -4.63636       -11.06881         1.70042
| 59>    C       -5.34050       -12.32442         1.86087
| 60>    N       -5.34020       -12.90670         3.06827
| 61>    C       -5.95522       -14.06673         3.17755
| 62>    C       -6.59612       -14.67576         2.10768
| 63>    C       -6.58029       -13.97776         0.89253
| 64>    N       -5.94175       -12.81439         0.78521
| 65>    C       -7.26405       -14.48608        -0.27882
| 66>    C       -7.42552       -13.75431        -1.40196
| 67>    C       -8.12692       -14.26738        -2.52737
| 68>    C       -8.43039       -13.56039        -3.65060
| 69>    C       -9.13782       -14.04692        -4.82572
| 70>    C       -9.59003       -15.31804        -5.05239
| 71>    C      -10.26115       -15.72798        -6.22661
| 72>    N      -10.80921       -16.13351        -7.14926
| 73>    C       -9.45577       -16.41059        -4.16717
| 74>    N       -9.39411       -17.34860        -3.50845
| 75>    C       -9.27594       -12.92554        -5.75358
| 76>    C       -8.66198       -11.78915        -5.19628
| 77>    C       -8.10991       -12.12087        -3.86180
| 78>    O       -7.54377       -11.36241        -3.11268
| 79>    C       -8.63469       -10.57771        -5.85235
| 80>    C       -9.24233       -10.49096        -7.10870
| 81>    C       -9.86637       -11.61775        -7.66989
| 82>    C       -9.88342       -12.83634        -6.99627
| 83>    C      -10.50559       -11.48297        -9.01099
| 84>    O      -10.38027       -10.51892        -9.72116
| 85>    O      -11.23235       -12.55598        -9.32826
| 86>    C      -11.87943       -12.51776       -10.59303
| 87>    C       -9.21519        -9.23451        -7.76653
| 88>    N       -9.13798        -8.16966        -8.18184
| 89>    H        1.49569         3.11135         2.84250
| 90>    H       -2.73393         0.95103         4.34104
| 91>    H       -2.39043         6.06636         6.97324
| 92>    H       -2.71220         4.50350         7.79432
| 93>    H       -3.87464         5.13373         6.60608
| 94>    H        1.26858        -1.41911         0.06554
| 95>    H        0.21745        -3.41130        -1.40643
| 96>    H       -0.58674        -3.01702         2.80218
| 97>    H       -2.24369        -6.00506        -1.89917
| 98>    H       -2.91960        -7.61630        -2.28526
| 99>    H        0.01218        -7.02123        -1.65288
|100>    H       -0.64775        -7.36551        -3.25574
|101>    H       -0.66011        -8.62185        -2.01376
|102>    H       -4.22080        -9.12682         5.28802
|103>    H       -3.07028        -7.82627         5.67594
|104>    H       -2.25953       -10.70816         5.01723
|105>    H       -2.31390        -9.99858         6.63552
|106>    H       -1.16901        -9.38435         5.44015
|107>    H       -4.31834       -10.79673         3.74723
|108>    H       -4.52944       -10.70990         0.68659
|109>    H       -5.93288       -14.52311         4.15958
|110>    H       -7.09267       -15.62690         2.20835
|111>    H       -7.67391       -15.48588        -0.20401
|112>    H       -7.02385       -12.75200        -1.43825
|113>    H       -8.44330       -15.30111        -2.45924
|114>    H       -8.15707        -9.71936        -5.40452
|115>    H      -10.37047       -13.67779        -7.45982
|116>    H      -11.14614       -12.37492       -11.38902
|117>    H      -12.59661       -11.69519       -10.62531
|118>    H      -12.38494       -13.47357       -10.70074
|119> *
|120>
|121>                          ****END OF INPUT****

CARTESIAN COORDINATES (ANGSTROEM)
---------------------------------
  C     -1.320940   -0.283370    2.081780
  C     -2.537320   -0.871560    1.873940
  C     -3.711910   -0.520840    2.576440
  N     -4.696380   -0.270390    3.108140
  C     -2.799960   -1.815610    0.858060
  N     -3.089310   -2.541240    0.017450
  C     -1.084700    0.877370    2.938980
  C      0.117470    1.498930    2.546890
  C      0.571070    2.649620    3.154660
  C     -0.195510    3.203190    4.185640
  C     -1.385120    2.578940    4.593540
  C     -1.827670    1.410820    3.978660
  C     -2.212190    3.121710    5.714900
  O     -2.902730    2.434930    6.421210
  O     -2.091880    4.442790    5.820040
  C     -2.816740    5.072170    6.868730
  C      0.295600    4.371420    4.819880
  N      0.774250    5.297720    5.294450
  C      0.751420    0.711870    1.464550
  O      1.763210    0.962530    0.856610
  C     -0.102920   -0.500240    1.319500
  C      0.361960   -1.576760    0.641130
  C     -0.170980   -2.905500    0.667520
  C     -0.184860   -3.744630   -0.458550
  N     -0.710950   -4.943140   -0.445180
  C     -1.277500   -5.365340    0.690080
  N     -1.226470   -4.684980    1.837380
  C     -0.672750   -3.506600    1.839820
  C     -1.969660   -6.625310    0.740330
  N     -2.363060   -7.366860   -0.339940
  C     -2.141160   -7.078870   -1.736560
  C     -0.765480   -7.554490   -2.192780
  C     -3.048390   -8.532920    0.054970
  O     -3.496840   -9.343340   -0.728460
  C     -3.055120   -8.471450    1.500660
  C     -2.385230   -7.282260    1.890610
  C     -2.358680   -7.236890    3.342370
  O     -1.903650   -6.453790    4.140590
  N     -3.040690   -8.417630    3.727170
  C     -3.205650   -8.758060    5.119550
  C     -2.171070   -9.782030    5.580510
  C     -3.451010   -9.154550    2.647050
  C     -4.155070  -10.388050    2.760110
  C     -4.636360  -11.068810    1.700420
  C     -5.340500  -12.324420    1.860870
  N     -5.340200  -12.906700    3.068270
  C     -5.955220  -14.066730    3.177550
  C     -6.596120  -14.675760    2.107680
  C     -6.580290  -13.977760    0.892530
  N     -5.941750  -12.814390    0.785210
  C     -7.264050  -14.486080   -0.278820
  C     -7.425520  -13.754310   -1.401960
  C     -8.126920  -14.267380   -2.527370
  C     -8.430390  -13.560390   -3.650600
  C     -9.137820  -14.046920   -4.825720
  C     -9.590030  -15.318040   -5.052390
  C    -10.261150  -15.727980   -6.226610
  N    -10.809210  -16.133510   -7.149260
  C     -9.455770  -16.410590   -4.167170
  N     -9.394110  -17.348600   -3.508450
  C     -9.275940  -12.925540   -5.753580
  C     -8.661980  -11.789150   -5.196280
  C     -8.109910  -12.120870   -3.861800
  O     -7.543770  -11.362410   -3.112680
  C     -8.634690  -10.577710   -5.852350
  C     -9.242330  -10.490960   -7.108700
  C     -9.866370  -11.617750   -7.669890
  C     -9.883420  -12.836340   -6.996270
  C    -10.505590  -11.482970   -9.010990
  O    -10.380270  -10.518920   -9.721160
  O    -11.232350  -12.555980   -9.328260
  C    -11.879430  -12.517760  -10.593030
  C     -9.215190   -9.234510   -7.766530
  N     -9.137980   -8.169660   -8.181840
  H      1.495690    3.111350    2.842500
  H     -2.733930    0.951030    4.341040
  H     -2.390430    6.066360    6.973240
  H     -2.712200    4.503500    7.794320
  H     -3.874640    5.133730    6.606080
  H      1.268580   -1.419110    0.065540
  H      0.217450   -3.411300   -1.406430
  H     -0.586740   -3.017020    2.802180
  H     -2.243690   -6.005060   -1.899170
  H     -2.919600   -7.616300   -2.285260
  H      0.012180   -7.021230   -1.652880
  H     -0.647750   -7.365510   -3.255740
  H     -0.660110   -8.621850   -2.013760
  H     -4.220800   -9.126820    5.288020
  H     -3.070280   -7.826270    5.675940
  H     -2.259530  -10.708160    5.017230
  H     -2.313900   -9.998580    6.635520
  H     -1.169010   -9.384350    5.440150
  H     -4.318340  -10.796730    3.747230
  H     -4.529440  -10.709900    0.686590
  H     -5.932880  -14.523110    4.159580
  H     -7.092670  -15.626900    2.208350
  H     -7.673910  -15.485880   -0.204010
  H     -7.023850  -12.752000   -1.438250
  H     -8.443300  -15.301110   -2.459240
  H     -8.157070   -9.719360   -5.404520
  H    -10.370470  -13.677790   -7.459820
  H    -11.146140  -12.374920  -11.389020
  H    -12.596610  -11.695190  -10.625310
  H    -12.384940  -13.473570  -10.700740

 Total Charge           Charge          ....    0
 Multiplicity           Mult            ....    1
 Number of Electrons    NEL             ....  502
 Basis Dimension        Dim             .... 1186

ORBITAL ENERGIES
----------------

  NO   OCC          E(Eh)            E(eV)
   0   2.0000     -19.278737      -524.6011
   1   2.0000     -19.275627      -524.5165
   2   2.0000     -19.239208      -523.5255
   3   2.0000     -19.233856      -523.3798
   4   2.0000     -19.223473      -523.0973
   5   2.0000     -19.220216      -523.0087
   6   2.0000     -19.189822      -522.1816
   7   2.0000     -19.183901      -522.0205
   8   2.0000     -14.452106      -393.2618
   9   2.0000     -14.447903      -393.1474
  10   2.0000     -14.433330      -392.7509
  11   2.0000     -14.432791      -392.7362
  12   2.0000     -14.431219      -392.6934
  13   2.0000     -14.429671      -392.6513
  14   2.0000     -14.429457      -392.6455
  15   2.0000     -14.424331      -392.5060
  16   2.0000     -14.424178      -392.5019
  17   2.0000     -14.422700      -392.4616
  18   2.0000     -14.418741      -392.3539
  19   2.0000     -14.407120      -392.0377
  20   2.0000     -10.421692      -283.5886
  21   2.0000     -10.417920      -283.4860
  22   2.0000     -10.389804      -282.7209
  23   2.0000     -10.384140      -282.5668
  24   2.0000     -10.373977      -282.2903
  25   2.0000     -10.367517      -282.1145
  26   2.0000     -10.367428      -282.1120
  27   2.0000     -10.366136      -282.0769
  28   2.0000     -10.362973      -281.9908
  29   2.0000     -10.362236      -281.9708
  30   2.0000     -10.357995      -281.8554
  31   2.0000     -10.354743      -281.7669
  32   2.0000     -10.351668      -281.6832
  33   2.0000     -10.345488      -281.5150
  34   2.0000     -10.343902      -281.4719
  35   2.0000     -10.343742      -281.4675
  36   2.0000     -10.343285      -281.4551
  37   2.0000     -10.341308      -281.4013
  38   2.0000     -10.337769      -281.3050
  39   2.0000     -10.336088      -281.2592
  40   2.0000     -10.336075      -281.2589
  41   2.0000     -10.335318      -281.2383
  42   2.0000     -10.334525      -281.2167
  43   2.0000     -10.334490      -281.2158
  44   2.0000     -10.332024      -281.1487
  45   2.0000     -10.332004      -281.1481
  46   2.0000     -10.331565      -281.1362
  47   2.0000     -10.331486      -281.1340
  48   2.0000     -10.330468      -281.1063
  49   2.0000     -10.329359      -281.0761
  50   2.0000     -10.329163      -281.0708
  51   2.0000     -10.329118      -281.0696
  52   2.0000     -10.328593      -281.0553
  53   2.0000     -10.323845      -280.9261
  54   2.0000     -10.321881      -280.8727
  55   2.0000     -10.321763      -280.8694
  56   2.0000     -10.320997      -280.8486
  57   2.0000     -10.319544      -280.8091
  58   2.0000     -10.319079      -280.7964
  59   2.0000     -10.315489      -280.6987
  60   2.0000     -10.315334      -280.6945
  61   2.0000     -10.314895      -280.6826
  62   2.0000     -10.310842      -280.5723
  63   2.0000     -10.307841      -280.4906
  64   2.0000     -10.306956      -280.4665
  65   2.0000     -10.302887      -280.3558
  66   2.0000     -10.297461      -280.2082
  67   2.0000     -10.292065      -280.0613
  68   2.0000     -10.289138      -279.9817
  69   2.0000     -10.286375      -279.9065
  70   2.0000     -10.267208      -279.3849
  71   2.0000     -10.262614      -279.2599
  72   2.0000     -10.259791      -279.1831
  73   2.0000     -10.244539      -278.7681
  74   2.0000      -1.212086       -32.9825
  75   2.0000      -1.208923       -32.8965
  76   2.0000      -1.154668       -31.4201
  77   2.0000      -1.149903       -31.2904
  78   2.0000      -1.131804       -30.7979
  79   2.0000      -1.123260       -30.5655
  80   2.0000      -1.117879       -30.4190
  81   2.0000      -1.114965       -30.3397
  82   2.0000      -1.104397       -30.0522
  83   2.0000      -1.096847       -29.8467
  84   2.0000      -1.061785       -28.8926
  85   2.0000      -1.050164       -28.5764
  86   2.0000      -1.039933       -28.2980
  87   2.0000      -1.035690       -28.1826
  88   2.0000      -1.022492       -27.8234
  89   2.0000      -1.018569       -27.7167
  90   2.0000      -1.009973       -27.4828
  91   2.0000      -1.009037       -27.4573
  92   2.0000      -1.005152       -27.3516
  93   2.0000      -0.997830       -27.1523
  94   2.0000      -0.997025       -27.1304
  95   2.0000      -0.994566       -27.0635
  96   2.0000      -0.978897       -26.6371
  97   2.0000      -0.970964       -26.4213
  98   2.0000      -0.942768       -25.6540
  99   2.0000      -0.937386       -25.5076
 100   2.0000      -0.926023       -25.1984
 101   2.0000      -0.925535       -25.1851
 102   2.0000      -0.921881       -25.0857
 103   2.0000      -0.918077       -24.9821
 104   2.0000      -0.897597       -24.4249
 105   2.0000      -0.894234       -24.3334
 106   2.0000      -0.892349       -24.2821
 107   2.0000      -0.887708       -24.1558
 108   2.0000      -0.869770       -23.6677
 109   2.0000      -0.863923       -23.5085
 110   2.0000      -0.849260       -23.1095
 111   2.0000      -0.833687       -22.6858
 112   2.0000      -0.829124       -22.5616
 113   2.0000      -0.818986       -22.2857
 114   2.0000      -0.813653       -22.1406
 115   2.0000      -0.811016       -22.0689
 116   2.0000      -0.802361       -21.8334
 117   2.0000      -0.787680       -21.4339
 118   2.0000      -0.784724       -21.3534
 119   2.0000      -0.766968       -20.8703
 120   2.0000      -0.765951       -20.8426
 121   2.0000      -0.753728       -20.5100
 122   2.0000      -0.752125       -20.4664
 123   2.0000      -0.747315       -20.3355
 124   2.0000      -0.739701       -20.1283
 125   2.0000      -0.735300       -20.0085
 126   2.0000      -0.716572       -19.4989
 127   2.0000      -0.708743       -19.2859
 128   2.0000      -0.706354       -19.2209
 129   2.0000      -0.704064       -19.1586
 130   2.0000      -0.701651       -19.0929
 131   2.0000      -0.690055       -18.7774
 132   2.0000      -0.680405       -18.5148
 133   2.0000      -0.679906       -18.5012
 134   2.0000      -0.677378       -18.4324
 135   2.0000      -0.665448       -18.1078
 136   2.0000      -0.665241       -18.1021
 137   2.0000      -0.656410       -17.8618
 138   2.0000      -0.651954       -17.7406
 139   2.0000      -0.646083       -17.5808
 140   2.0000      -0.640087       -17.4176
 141   2.0000      -0.637497       -17.3472
 142   2.0000      -0.634825       -17.2745
 143   2.0000      -0.628868       -17.1124
 144   2.0000      -0.625660       -17.0251
 145   2.0000      -0.617493       -16.8028
 146   2.0000      -0.608816       -16.5667
 147   2.0000      -0.602596       -16.3975
 148   2.0000      -0.599490       -16.3129
 149   2.0000      -0.598915       -16.2973
 150   2.0000      -0.587488       -15.9864
 151   2.0000      -0.586667       -15.9640
 152   2.0000      -0.583912       -15.8891
 153   2.0000      -0.583717       -15.8837
 154   2.0000      -0.580026       -15.7833
 155   2.0000      -0.573630       -15.6093
 156   2.0000      -0.567842       -15.4518
 157   2.0000      -0.566127       -15.4051
 158   2.0000      -0.560972       -15.2648
 159   2.0000      -0.560477       -15.2514
 160   2.0000      -0.556179       -15.1344
 161   2.0000      -0.555137       -15.1061
 162   2.0000      -0.554654       -15.0929
 163   2.0000      -0.554244       -15.0818
 164   2.0000      -0.553163       -15.0523
 165   2.0000      -0.550478       -14.9793
 166   2.0000      -0.548399       -14.9227
 167   2.0000      -0.544846       -14.8260
 168   2.0000      -0.539024       -14.6676
 169   2.0000      -0.538339       -14.6490
 170   2.0000      -0.534451       -14.5432
 171   2.0000      -0.533978       -14.5303
 172   2.0000      -0.532285       -14.4842
 173   2.0000      -0.529195       -14.4001
 174   2.0000      -0.526878       -14.3371
 175   2.0000      -0.524661       -14.2768
 176   2.0000      -0.522481       -14.2174
 177   2.0000      -0.516742       -14.0613
 178   2.0000      -0.514865       -14.0102
 179   2.0000      -0.513706       -13.9787
 180   2.0000      -0.509427       -13.8622
 181   2.0000      -0.509297       -13.8587
 182   2.0000      -0.507547       -13.8111
 183   2.0000      -0.506457       -13.7814
 184   2.0000      -0.504450       -13.7268
 185   2.0000      -0.502992       -13.6871
 186   2.0000      -0.499285       -13.5862
 187   2.0000      -0.494646       -13.4600
 188   2.0000      -0.494211       -13.4482
 189   2.0000      -0.492404       -13.3990
 190   2.0000      -0.483195       -13.1484
 191   2.0000      -0.482591       -13.1320
 192   2.0000      -0.480556       -13.0766
 193   2.0000      -0.476394       -12.9633
 194   2.0000      -0.471223       -12.8226
 195   2.0000      -0.470829       -12.8119
 196   2.0000      -0.465875       -12.6771
 197   2.0000      -0.464326       -12.6350
 198   2.0000      -0.463248       -12.6056
 199   2.0000      -0.458812       -12.4849
 200   2.0000      -0.457466       -12.4483
 201   2.0000      -0.457330       -12.4446
 202   2.0000      -0.456682       -12.4270
 203   2.0000      -0.455688       -12.3999
 204   2.0000      -0.452121       -12.3028
 205   2.0000      -0.451702       -12.2914
 206   2.0000      -0.449330       -12.2269
 207   2.0000      -0.448314       -12.1993
 208   2.0000      -0.447037       -12.1645
 209   2.0000      -0.446155       -12.1405
 210   2.0000      -0.445661       -12.1271
 211   2.0000      -0.442815       -12.0496
 212   2.0000      -0.441164       -12.0047
 213   2.0000      -0.440559       -11.9882
 214   2.0000      -0.439063       -11.9475
 215   2.0000      -0.435112       -11.8400
 216   2.0000      -0.434740       -11.8299
 217   2.0000      -0.433195       -11.7878
 218   2.0000      -0.424779       -11.5588
 219   2.0000      -0.423360       -11.5202
 220   2.0000      -0.423350       -11.5199
 221   2.0000      -0.419145       -11.4055
 222   2.0000      -0.417921       -11.3722
 223   2.0000      -0.416605       -11.3364
 224   2.0000      -0.415942       -11.3183
 225   2.0000      -0.410364       -11.1666
 226   2.0000      -0.403138       -10.9700
 227   2.0000      -0.396235       -10.7821
 228   2.0000      -0.393732       -10.7140
 229   2.0000      -0.392240       -10.6734
 230   2.0000      -0.391410       -10.6508
 231   2.0000      -0.391205       -10.6452
 232   2.0000      -0.385948       -10.5022
 233   2.0000      -0.383054       -10.4234
 234   2.0000      -0.380592       -10.3564
 235   2.0000      -0.365737        -9.9522
 236   2.0000      -0.364992        -9.9319
 237   2.0000      -0.362246        -9.8572
 238   2.0000      -0.360232        -9.8024
 239   2.0000      -0.350889        -9.5482
 240   2.0000      -0.346103        -9.4180
 241   2.0000      -0.343648        -9.3511
 242   2.0000      -0.338328        -9.2064
 243   2.0000      -0.337319        -9.1789
 244   2.0000      -0.334572        -9.1042
 245   2.0000      -0.329666        -8.9707
 246   2.0000      -0.325284        -8.8514
 247   2.0000      -0.319142        -8.6843
 248   2.0000      -0.311815        -8.4849
 249   2.0000      -0.307718        -8.3734
 250   2.0000      -0.244643        -6.6571
 251   0.0000      -0.113002        -3.0749
 252   0.0000      -0.111806        -3.0424
 253   0.0000      -0.092941        -2.5291
 254   0.0000      -0.088249        -2.4014
 255   0.0000      -0.075919        -2.0659

MULLIKEN ATOMIC CHARGES
-----------------------
   0 C :    0.262905
   1 C :   -0.314378
   2 C :   -0.187384
   3 N :    0.184597
   4 C :   -0.179524
   5 N :    0.177154
   6 C :    0.042812
   7 C :    0.006352
   8 C :   -0.035471
   9 C :   -0.078202
  10 C :    0.069666
  11 C :   -0.061534
  12 C :    0.168352
  13 O :   -0.183296
  14 O :   -0.291132
  15 C :    0.184551
  16 C :   -0.152767
  17 N :    0.142422
  18 C :    0.144745
  19 O :   -0.120894
  20 C :   -0.122808
  21 C :    0.060163
  22 C :   -0.054516
  23 C :    0.081124
  24 N :   -0.050583
  25 C :   -0.163920
  26 N :    0.010097
  27 C :    0.057750
  28 C :    0.198250
  29 N :   -0.258784
  30 C :    0.135803
  31 C :    0.004398
  32 C :    0.160942
  33 O :   -0.200891
  34 C :   -0.069603
  35 C :   -0.050976
  36 C :    0.152165
  37 O :   -0.156144
  38 N :   -0.268995
  39 C :    0.101719
  40 C :    0.004890
  41 C :    0.158285
  42 C :   -0.003659
  43 C :    0.052405
  44 C :   -0.074470
  45 N :   -0.073521
  46 C :    0.085310
  47 C :   -0.037098
  48 C :    0.043046
  49 N :   -0.023122
  50 C :    0.024569
  51 C :    0.039846
  52 C :   -0.039610
  53 C :   -0.054805
  54 C :    0.334453
  55 C :   -0.345487
  56 C :   -0.187101
  57 N :    0.167129
  58 C :   -0.186524
  59 N :    0.156455
  60 C :    0.057821
  61 C :   -0.007051
  62 C :    0.151369
  63 O :   -0.113173
  64 C :   -0.038545
  65 C :   -0.091681
  66 C :    0.049798
  67 C :   -0.059845
  68 C :    0.180828
  69 O :   -0.172581
  70 O :   -0.291453
  71 C :    0.190253
  72 C :   -0.146788
  73 N :    0.146467
  74 H :    0.016292
  75 H :    0.028410
  76 H :    0.050191
  77 H :    0.043553
  78 H :    0.039317
  79 H :    0.037168
  80 H :    0.010720
  81 H :    0.022159
  82 H :    0.029712
  83 H :    0.033365
  84 H :    0.013477
  85 H :    0.013680
  86 H :    0.017708
  87 H :    0.024261
  88 H :    0.042663
  89 H :    0.018368
  90 H :    0.022105
  91 H :    0.027811
  92 H :   -0.004543
  93 H :    0.026816
  94 H :    0.012579
  95 H :    0.002350
  96 H :    0.002757
  97 H :    0.054682
  98 H :    0.014103
  99 H :    0.018246
 100 H :    0.016771
 101 H :    0.039564
 102 H :    0.039177
 103 H :    0.045960
Sum of atomic charges:   -0.0000000

LOEWDIN ATOMIC CHARGES
----------------------
   0 C :    0.060820
   1 C :   -0.113824
   2 C :   -0.022831
   3 N :   -0.025756
   4 C :   -0.015418
   5 N :   -0.034169
   6 C :    0.000019
   7 C :   -0.036442
   8 C :    0.047718
   9 C :   -0.033379
  10 C :   -0.017470
  11 C :    0.033592
  12 C :    0.084062
  13 O :   -0.153944
  14 O :   -0.065648
  15 C :    0.088551
  16 C :   -0.034524
  17 N :   -0.038434
  18 C :    0.085269
  19 O :   -0.122480
  20 C :   -0.082466
  21 C :    0.078963
  22 C :   -0.092256
  23 C :    0.074279
  24 N :   -0.060948
  25 C :    0.036538
  26 N :   -0.035675
  27 C :    0.066580
  28 C :    0.048471
  29 N :    0.012427
  30 C :    0.037822
  31 C :   -0.062589
  32 C :    0.078203
  33 O :   -0.193550
  34 C :   -0.122969
  35 C :   -0.088816
  36 C :    0.085775
  37 O :   -0.163133
  38 N :   -0.004431
  39 C :    0.036273
  40 C :   -0.060752
  41 C :    0.090463
  42 C :   -0.020293
  43 C :    0.025224
  44 C :    0.028669
  45 N :   -0.081376
  46 C :    0.053576
  47 C :   -0.052540
  48 C :    0.026856
  49 N :   -0.065521
  50 C :    0.015467
  51 C :    0.007750
  52 C :    0.072949
  53 C :   -0.084206
  54 C :    0.071208
  55 C :   -0.123148
  56 C :   -0.020119
  57 N :   -0.037953
  58 C :   -0.019142
  59 N :   -0.040684
  60 C :   -0.006521
  61 C :   -0.030692
  62 C :    0.084226
  63 O :   -0.110015
  64 C :    0.047135
  65 C :   -0.021601
  66 C :   -0.028429
  67 C :    0.027556
  68 C :    0.085888
  69 O :   -0.138513
  70 O :   -0.079579
  71 C :    0.086550
  72 C :   -0.034175
  73 N :   -0.028571
  74 H :    0.052788
  75 H :    0.050464
  76 H :    0.033280
  77 H :    0.027595
  78 H :    0.027893
  79 H :    0.051962
  80 H :    0.030240
  81 H :    0.030127
  82 H :    0.026147
  83 H :    0.031625
  84 H :    0.017718
  85 H :    0.027277
  86 H :    0.025337
  87 H :    0.024320
  88 H :    0.037257
  89 H :    0.023148
  90 H :    0.030417
  91 H :    0.031523
  92 H :    0.032631
  93 H :    0.043601
  94 H :    0.029076
  95 H :    0.036641
  96 H :    0.035098
  97 H :    0.043516
  98 H :    0.042718
  99 H :    0.053648
 100 H :    0.044486
 101 H :    0.027159
 102 H :    0.027263
 103 H :    0.031143

  Mayer bond orders larger than 0.100000
B(  0-C ,  1-C ) :   1.6921 B(  0-C ,  6-C ) :   0.9930 B(  0-C , 20-C ) :   1.0100
B(  1-C ,  2-C ) :   1.1306 B(  1-C ,  4-C ) :   1.1589 B(  2-C ,  3-N ) :   2.9968
B(  4-C ,  5-N ) :   2.9885 B(  6-C ,  7-C ) :   1.3310 B(  6-C , 11-C ) :   1.3350
B(  7-C ,  8-C ) :   1.3644 B(  7-C , 18-C ) :   0.9042 B(  8-C ,  9-C ) :   1.3650
B(  8-C , 74-H ) :   1.0148 B(  9-C , 10-C ) :   1.3720 B(  9-C , 16-C ) :   1.0724
B( 10-C , 11-C ) :   1.3790 B( 10-C , 12-C ) :   0.8681 B( 11-C , 75-H ) :   0.9911
B( 12-C , 13-O ) :   2.1356 B( 12-C , 14-O ) :   1.2371 B( 14-O , 15-C ) :   0.9047
B( 15-C , 76-H ) :   0.9797 B( 15-C , 77-H ) :   0.9711 B( 15-C , 78-H ) :   0.9809
B( 16-C , 17-N ) :   3.0466 B( 18-C , 19-O ) :   2.2915 B( 18-C , 20-C ) :   0.9316
B( 20-C , 21-C ) :   1.7419 B( 21-C , 22-C ) :   1.0199 B( 21-C , 79-H ) :   0.9462
B( 22-C , 23-C ) :   1.3036 B( 22-C , 27-C ) :   1.2696 B( 23-C , 24-N ) :   1.5648
B( 23-C , 80-H ) :   0.9905 B( 24-N , 25-C ) :   1.4801 B( 25-C , 26-N ) :   1.6096
B( 25-C , 28-C ) :   0.9930 B( 26-N , 27-C ) :   1.6166 B( 26-N , 28-C ) :  -0.1210
B( 27-C , 81-H ) :   0.9893 B( 28-C , 29-N ) :   1.2046 B( 28-C , 35-C ) :   1.3905
B( 29-N , 30-C ) :   0.9374 B( 29-N , 32-C ) :   1.0556 B( 30-C , 31-C ) :   1.1227
B( 30-C , 82-H ) :   0.9401 B( 30-C , 83-H ) :   0.9288 B( 31-C , 84-H ) :   0.9634
B( 31-C , 85-H ) :   0.9679 B( 31-C , 86-H ) :   0.9654 B( 32-C , 33-O ) :   2.0518
B( 32-C , 34-C ) :   0.9814 B( 34-C , 35-C ) :   1.2492 B( 34-C , 41-C ) :   1.3380
B( 35-C , 36-C ) :   0.9414 B( 36-C , 37-O ) :   2.1837 B( 36-C , 38-N ) :   1.0124
B( 38-N , 39-C ) :   0.9456 B( 38-N , 41-C ) :   1.1855 B( 39-C , 40-C ) :   1.1211
B( 39-C , 87-H ) :   0.9501 B( 39-C , 88-H ) :   0.9278 B( 40-C , 89-H ) :   0.9686
B( 40-C , 90-H ) :   0.9677 B( 40-C , 91-H ) :   0.9636 B( 41-C , 42-C ) :   1.1052
B( 42-C , 43-C ) :   1.6479 B( 42-C , 92-H ) :   0.9621 B( 43-C , 44-C ) :   1.0216
B( 43-C , 93-H ) :   0.9548 B( 44-C , 45-N ) :   1.4990 B( 44-C , 49-N ) :   1.5590
B( 45-N , 46-C ) :   1.5661 B( 46-C , 47-C ) :   1.3503 B( 46-C , 94-H ) :   0.9805
B( 47-C , 48-C ) :   1.3416 B( 47-C , 95-H ) :   0.9765 B( 48-C , 49-N ) :   1.5168
B( 48-C , 50-C ) :   1.0410 B( 50-C , 51-C ) :   1.6437 B( 50-C , 96-H ) :   0.9833
B( 51-C , 52-C ) :   1.1034 B( 51-C , 97-H ) :   0.9769 B( 52-C , 53-C ) :   1.5831
B( 52-C , 98-H ) :   0.9592 B( 53-C , 54-C ) :   1.0553 B( 53-C , 62-C ) :   0.9309
B( 54-C , 55-C ) :   1.6514 B( 54-C , 60-C ) :   0.9822 B( 55-C , 56-C ) :   1.1420
B( 55-C , 58-C ) :   1.1450 B( 56-C , 57-N ) :   2.9685 B( 58-C , 59-N ) :   2.9635
B( 60-C , 61-C ) :   1.3346 B( 60-C , 67-C ) :   1.3232 B( 61-C , 62-C ) :   0.9202
B( 61-C , 64-C ) :   1.3583 B( 62-C , 63-O ) :   2.2440 B( 64-C , 65-C ) :   1.3626
B( 64-C , 99-H ) :   1.0168 B( 65-C , 66-C ) :   1.3928 B( 65-C , 72-C ) :   1.0627
B( 66-C , 67-C ) :   1.3410 B( 66-C , 68-C ) :   0.8773 B( 67-C ,100-H ) :   0.9836
B( 68-C , 69-O ) :   2.1137 B( 68-C , 70-O ) :   1.2551 B( 70-O , 71-C ) :   0.9090
B( 71-C ,101-H ) :   0.9750 B( 71-C ,102-H ) :   0.9765 B( 71-C ,103-H ) :   0.9807
B( 72-C , 73-N ) :   3.0348

-----------------------------------------------------------------------------
         ABSORPTION SPECTRUM VIA TRANSITION ELECTRIC DIPOLE MOMENTS
-----------------------------------------------------------------------------
State   Energy  Wavelength   fosc         T2         TX        TY        TZ
        (cm-1)    (nm)                  (au**2)     (au)      (au)      (au)
-----------------------------------------------------------------------------
   0   13838.9    722.6   0.412688084   9.81738   1.01046   2.92268  -0.50428
   1   17088.6    585.2   0.008034084   0.15478  -0.05097  -0.08614   0.38047
   2   19011.9    526.0   0.179620994   3.11033  -1.08897  -1.17618   0.73559
   3   22589.2    442.7   0.016737106   0.24392   0.25670  -0.25831  -0.33362
   4   23132.0    432.3   0.000765769   0.01090   0.07072  -0.05256  -0.05599
   5   23946.4    417.6   0.035434220   0.48715  -0.20429   0.64658   0.16535
   6   25059.4    399.1   0.006097124   0.08010  -0.06019  -0.27575   0.02100
   7   26557.0    376.5   0.964695525  11.95877  -1.45908  -0.76859  -3.03959
   8   26863.6    372.3   0.015631460   0.19156  -0.26145   0.31264   0.15956
   9   27242.5    367.1   0.001946660   0.02352   0.13131  -0.07871   0.00926
  10   28205.6    354.5   0.015860380   0.18512   0.00538   0.30415   0.30427
  11   28833.8    346.8   0.117300026   1.33928   0.75446  -0.84319  -0.24311
  12   29222.4    342.2   0.030577432   0.34448  -0.20036   0.17820  -0.52209
  13   29534.1    338.6   0.011830119   0.13187   0.17366  -0.26625  -0.17557
  14   29695.4    336.8   0.002757236   0.03057  -0.14848   0.09033   0.01901
  15   30049.7    332.8   0.010333238   0.11321   0.07863  -0.28705  -0.15692
  16   30293.1    330.1   0.002447734   0.02660   0.04137  -0.01061   0.15741
  17   30303.0    330.0   0.033272901   0.36148  -0.19088  -0.29851   0.48573
  18   31233.7    320.2   0.015574759   0.16416   0.26416   0.30540  -0.03333
  19   31492.4    317.5   0.111008987   1.16045  -0.52027   0.18049  -0.92585
  20   31666.5    315.8   0.170960525   1.77734   0.12598  -0.93355   0.94338
  21   31795.9    314.5   0.081448451   0.84331  -0.56485  -0.59081  -0.41856
  22   32212.3    310.4   0.056442277   0.57684  -0.22457  -0.66490   0.29038
  23   32287.0    309.7   0.027032259   0.27563  -0.01597  -0.02279   0.52427
  24   32462.5    308.0   0.105396443   1.06886   0.39622  -0.42436   0.85545
  25   32662.2    306.2   0.335892076   3.38556  -0.03793  -1.49930   1.06593
  26   33034.6    302.7   0.161835303   1.61280   0.43668   1.17695  -0.19209
  27   33634.6    297.3   0.272244129   2.66470   0.95352   0.79328   1.06123
  28   34059.1    293.6   0.151320462   1.46265   0.52824   1.01854   0.38235
  29   34282.1    291.7   0.316209820   3.03657  -0.04325  -1.58047   0.73268
  30   34564.7    289.3   0.530322292   5.05107   0.72415   2.08595   0.41891
  31   34906.2    286.5   0.392322978   3.70013   0.85284   1.44250   0.94445
  32   35402.1    282.5   0.134981276   1.25522   0.32414   1.07203   0.03012
  33   35664.3    280.4   0.013055104   0.12051   0.11431   0.29456   0.14380
  34   35974.0    278.0   0.049498625   0.45298  -0.19708  -0.33206   0.55125
  35   36353.5    275.1   0.067434258   0.61068   0.53488   0.52036   0.23196
  36   37026.1    270.1   0.010487557   0.09325  -0.18478  -0.08241  -0.22872
  37   37116.8    269.4   0.137320185   1.21798  -0.51624  -0.96798  -0.12035
  38   37179.6    269.0   0.048797105   0.43208  -0.41125  -0.50737  -0.07434
  39   37400.9    267.4   0.074563637   0.65633   0.29800   0.74433   0.11621
  40   37441.3    267.1   0.187320999   1.64706   0.51813   1.11389   0.37129
  41   37598.1    266.0   0.077411385   0.67782  -0.80968  -0.12048   0.08785
  42   37768.3    264.8   0.064364605   0.56104   0.08451   0.57613   0.47114
  43   38079.1    262.6   0.008949532   0.07737   0.00380   0.22357   0.16546
  44   38120.2    262.3   0.000177578   0.00153  -0.03535   0.01672   0.00219
  45   38623.6    258.9   0.018192116   0.15506  -0.05878  -0.37068  -0.11918
  46   38803.4    257.7   0.012315718   0.10449   0.10937   0.22816   0.20116
  47   39122.5    255.6   0.088266904   0.74276  -0.45918  -0.63843  -0.35259
  48   39265.6    254.7   0.176995753   1.48397  -0.57471  -0.96387  -0.47395
  49   39606.7    252.5   0.015081380   0.12536   0.16582   0.07117   0.30462
  50   39669.9    252.1   0.012827674   0.10645   0.11485   0.28588   0.10741
  51   40050.9    249.7   0.001237522   0.01017   0.09250   0.02662   0.03012
  52   40183.0    248.9   0.169138480   1.38572   0.58827   0.93029   0.41740

FINAL SINGLE POINT ENERGY     -3330.401033591842

DIPOLE MOMENT
-------------
                                X             Y             Z
Electronic contribution:     -6.71304      15.79894     -14.64424
Nuclear contribution   :      7.11901     -17.15601      16.24637
                        -----------------------------------------
Total Dipole Moment    :      0.40596      -1.35707       1.60213
                        -----------------------------------------
Magnitude (a.u.)       :      2.13852
Magnitude (Debye)      :      5.43568

Rotational constants in cm-1:     0.001359     0.000268     0.000240
Rotational constants in MHz :    40.727956     8.020173     7.181601

                             ****ORCA TERMINATED NORMALLY****
TOTAL RUN TIME: 0 days 0 hours 10 minutes 8 seconds 272 msec
