                         Program Version 4.2.0 -  RELEASE  -
|  1> # ORCA input file
|  2> # SCF done       -175.123208250844          0.000554173161
|  3> ! CAM-B3LYP def2-SVP def2/J RIJCOSX Grid4 TightSCF
|  4> %maxcore 5000
|  5> %tddft
|  6>     Mode sTDDFT
|  7>     Ethresh 5.0
|  8>     maxcore 5000
|  9> end
| 10>
| 11> %pal
| 12>   nprocs 6
| 13>   end
| 14> * xyz 0 1
| 15>    C       -0.85064         1.51495         0.27692
| 16>    C       -0.50540         0.38189         0.95762
| 17>    C        0.27247        -0.66471         0.41351
| 18>    N        0.90361        -1.54204         0.02924
| 19>    C       -0.85321         0.10776         2.29921
| 20>    N       -1.09650        -0.17878         3.38293
| 21>    C       -0.49736         1.83518        -1.09774
| 22>    C       -0.95929         3.13943        -1.41158
| 23>    C       -0.76257         3.71849        -2.64245
| 24>    C       -0.08720         2.97469        -3.61450
| 25>    C        0.36662         1.67010        -3.29480
| 26>    C        0.17343         1.08672        -2.05034
| 27>    S        1.18065         0.93000        -4.63838
| 28>    C        0.90722         2.36015        -5.59794
| 29>    C        0.23863         3.34319        -4.94749
| 30>   Br        1.52993         2.42173        -7.36383
| 31>    C       -1.61571         3.72564        -0.23445
| 32>    O       -1.94404         4.87473        -0.06736
| 33>    C       -1.65226         2.62353         0.78711
| 34>    C       -2.33305         2.70600         1.94363
| 35>    C       -3.26505         3.77493         2.21638
| 36>    C       -4.30478         4.28621         1.45212
| 37>    C       -4.74745         3.83586         0.12855
| 38>    O       -4.12639         3.08759        -0.58803
| 39>    O       -5.94799         4.31332        -0.19301
| 40>    C       -4.89964         5.24205         2.32597
| 41>    N       -4.25850         5.27302         3.46883
| 42>    O       -3.27603         4.36683         3.41064
| 43>    C       -6.03239         6.11182         2.10230
| 44>    C       -7.05002         6.44384         2.97207
| 45>    C       -7.29051         5.80165         4.30003
| 46>    O       -7.16354         4.61486         4.42140
| 47>    O       -7.64246         6.58427         5.30481
| 48>    C       -7.81457         7.37587         2.21064
| 49>    N       -7.27614         7.54782         1.02486
| 50>    O       -6.18522         6.78348         0.95816
| 51>    C       -9.00580         8.07700         2.62866
| 52>    C       -9.44264         9.36734         2.40520
| 53>    C       -8.83214        10.50144         1.69906
| 54>    O       -9.40252        11.54667         1.51511
| 55>    O       -7.58013        10.26768         1.31891
| 56>    C      -10.64585         9.43861         3.17250
| 57>    N      -10.88127         8.28635         3.75066
| 58>    O       -9.88573         7.44740         3.41244
| 59>    C      -11.48748        10.60020         3.33646
| 60>    C      -11.91932        11.11614         4.49809
| 61>    C      -11.64971        10.77713         5.89166
| 62>    C      -10.54115        10.16416         6.40627
| 63>    C      -10.31222        10.00675         7.79514
| 64>    N      -10.06912         9.86559         8.90652
| 65>    C       -9.43663         9.65714         5.69984
| 66>    N       -8.47014         9.22276         5.25246
| 67>    C      -12.70459        11.39104         6.68684
| 68>    C      -13.47235        12.25530         5.86284
| 69>    C      -12.97445        12.18399         4.47976
| 70>    O      -13.34858        12.80188         3.51588
| 71>    C      -14.52316        12.99884         6.34507
| 72>    C      -14.83913        12.88045         7.70202
| 73>    C      -14.08074        11.99929         8.51387
| 74>    C      -13.01776        11.25041         8.02808
| 75>    S      -14.65000        11.99273        10.15394
| 76>    C      -15.87593        13.16061         9.73811
| 77>    C      -15.86400        13.53555         8.43541
| 78>   Br      -17.05565        13.77256        11.05827
| 79>    H       -1.12235         4.71419        -2.84821
| 80>    H        0.53789         0.09180        -1.85603
| 81>    H       -0.01311         4.29020        -5.38872
| 82>    H       -2.24369         1.96001         2.72185
| 83>    H       -6.21455         4.00014        -1.07196
| 84>    H       -7.72855         7.54162         5.10960
| 85>    H       -7.21984        11.03515         0.84601
| 86>    H      -11.79502        11.10250         2.42588
| 87>    H      -15.08357        13.65127         5.69416
| 88>    H      -12.48130        10.58421         8.68260
| 89>    H      -16.54986        14.24475         8.00946
| 90> *
| 91>
| 92>                          ****END OF INPUT****

CARTESIAN COORDINATES (ANGSTROEM)
---------------------------------
  C     -0.850640    1.514950    0.276920
  C     -0.505400    0.381890    0.957620
  C      0.272470   -0.664710    0.413510
  N      0.903610   -1.542040    0.029240
  C     -0.853210    0.107760    2.299210
  N     -1.096500   -0.178780    3.382930
  C     -0.497360    1.835180   -1.097740
  C     -0.959290    3.139430   -1.411580
  C     -0.762570    3.718490   -2.642450
  C     -0.087200    2.974690   -3.614500
  C      0.366620    1.670100   -3.294800
  C      0.173430    1.086720   -2.050340
  S      1.180650    0.930000   -4.638380
  C      0.907220    2.360150   -5.597940
  C      0.238630    3.343190   -4.947490
  Br     1.529930    2.421730   -7.363830
  C     -1.615710    3.725640   -0.234450
  O     -1.944040    4.874730   -0.067360
  C     -1.652260    2.623530    0.787110
  C     -2.333050    2.706000    1.943630
  C     -3.265050    3.774930    2.216380
  C     -4.304780    4.286210    1.452120
  C     -4.747450    3.835860    0.128550
  O     -4.126390    3.087590   -0.588030
  O     -5.947990    4.313320   -0.193010
  C     -4.899640    5.242050    2.325970
  N     -4.258500    5.273020    3.468830
  O     -3.276030    4.366830    3.410640
  C     -6.032390    6.111820    2.102300
  C     -7.050020    6.443840    2.972070
  C     -7.290510    5.801650    4.300030
  O     -7.163540    4.614860    4.421400
  O     -7.642460    6.584270    5.304810
  C     -7.814570    7.375870    2.210640
  N     -7.276140    7.547820    1.024860
  O     -6.185220    6.783480    0.958160
  C     -9.005800    8.077000    2.628660
  C     -9.442640    9.367340    2.405200
  C     -8.832140   10.501440    1.699060
  O     -9.402520   11.546670    1.515110
  O     -7.580130   10.267680    1.318910
  C    -10.645850    9.438610    3.172500
  N    -10.881270    8.286350    3.750660
  O     -9.885730    7.447400    3.412440
  C    -11.487480   10.600200    3.336460
  C    -11.919320   11.116140    4.498090
  C    -11.649710   10.777130    5.891660
  C    -10.541150   10.164160    6.406270
  C    -10.312220   10.006750    7.795140
  N    -10.069120    9.865590    8.906520
  C     -9.436630    9.657140    5.699840
  N     -8.470140    9.222760    5.252460
  C    -12.704590   11.391040    6.686840
  C    -13.472350   12.255300    5.862840
  C    -12.974450   12.183990    4.479760
  O    -13.348580   12.801880    3.515880
  C    -14.523160   12.998840    6.345070
  C    -14.839130   12.880450    7.702020
  C    -14.080740   11.999290    8.513870
  C    -13.017760   11.250410    8.028080
  S    -14.650000   11.992730   10.153940
  C    -15.875930   13.160610    9.738110
  C    -15.864000   13.535550    8.435410
  Br   -17.055650   13.772560   11.058270
  H     -1.122350    4.714190   -2.848210
  H      0.537890    0.091800   -1.856030
  H     -0.013110    4.290200   -5.388720
  H     -2.243690    1.960010    2.721850
  H     -6.214550    4.000140   -1.071960
  H     -7.728550    7.541620    5.109600
  H     -7.219840   11.035150    0.846010
  H    -11.795020   11.102500    2.425880
  H    -15.083570   13.651270    5.694160
  H    -12.481300   10.584210    8.682600
  H    -16.549860   14.244750    8.009460

 Total Charge           Charge          ....    0
 Multiplicity           Mult            ....    1
 Number of Electrons    NEL             ....  502
 Basis Dimension        Dim             ....  995

ORBITAL ENERGIES
----------------

  NO   OCC          E(Eh)            E(eV)
   0   2.0000    -482.894671    -13140.2320
   1   2.0000    -482.891980    -13140.1588
   2   2.0000     -88.986887     -2421.4563
   3   2.0000     -88.983134     -2421.3542
   4   2.0000     -62.572408     -1702.6818
   5   2.0000     -62.569718     -1702.6086
   6   2.0000     -56.406373     -1534.8954
   7   2.0000     -56.403677     -1534.8221
   8   2.0000     -56.403625     -1534.8207
   9   2.0000     -56.403603     -1534.8201
  10   2.0000     -56.400940     -1534.7476
  11   2.0000     -56.400917     -1534.7470
  12   2.0000     -19.348106      -526.4887
  13   2.0000     -19.341446      -526.3075
  14   2.0000     -19.340152      -526.2723
  15   2.0000     -19.280040      -524.6366
  16   2.0000     -19.276256      -524.5336
  17   2.0000     -19.241480      -523.5873
  18   2.0000     -19.232265      -523.3365
  19   2.0000     -19.225343      -523.1482
  20   2.0000     -19.222150      -523.0613
  21   2.0000     -19.221988      -523.0569
  22   2.0000     -19.187373      -522.1150
  23   2.0000     -14.488384      -394.2490
  24   2.0000     -14.483398      -394.1133
  25   2.0000     -14.479454      -394.0060
  26   2.0000     -14.446129      -393.0992
  27   2.0000     -14.429965      -392.6593
  28   2.0000     -14.427065      -392.5804
  29   2.0000     -14.426766      -392.5722
  30   2.0000     -10.428494      -283.7737
  31   2.0000     -10.427921      -283.7582
  32   2.0000     -10.401392      -283.0363
  33   2.0000     -10.387830      -282.6672
  34   2.0000     -10.382351      -282.5181
  35   2.0000     -10.379556      -282.4421
  36   2.0000     -10.377554      -282.3876
  37   2.0000     -10.371692      -282.2281
  38   2.0000     -10.370515      -282.1960
  39   2.0000     -10.366815      -282.0954
  40   2.0000     -10.364120      -282.0220
  41   2.0000     -10.363529      -282.0060
  42   2.0000     -10.358096      -281.8581
  43   2.0000     -10.354936      -281.7721
  44   2.0000     -10.354008      -281.7469
  45   2.0000     -10.347921      -281.5813
  46   2.0000     -10.346458      -281.5414
  47   2.0000     -10.343704      -281.4665
  48   2.0000     -10.338966      -281.3376
  49   2.0000     -10.334619      -281.2193
  50   2.0000     -10.333862      -281.1987
  51   2.0000     -10.331922      -281.1459
  52   2.0000     -10.329670      -281.0846
  53   2.0000     -10.328662      -281.0572
  54   2.0000     -10.327931      -281.0373
  55   2.0000     -10.324591      -280.9464
  56   2.0000     -10.322823      -280.8983
  57   2.0000     -10.322160      -280.8803
  58   2.0000     -10.321478      -280.8617
  59   2.0000     -10.320376      -280.8317
  60   2.0000     -10.319022      -280.7949
  61   2.0000     -10.316646      -280.7302
  62   2.0000     -10.316411      -280.7238
  63   2.0000     -10.314879      -280.6821
  64   2.0000     -10.314650      -280.6759
  65   2.0000     -10.311844      -280.5995
  66   2.0000     -10.309414      -280.5334
  67   2.0000     -10.309397      -280.5329
  68   2.0000     -10.308283      -280.5026
  69   2.0000     -10.307366      -280.4777
  70   2.0000     -10.303835      -280.3816
  71   2.0000     -10.302046      -280.3329
  72   2.0000      -8.801860      -239.5108
  73   2.0000      -8.799170      -239.4376
  74   2.0000      -8.082967      -219.9487
  75   2.0000      -8.079141      -219.8446
  76   2.0000      -6.638249      -180.6359
  77   2.0000      -6.635528      -180.5619
  78   2.0000      -6.623580      -180.2368
  79   2.0000      -6.623314      -180.2295
  80   2.0000      -6.620905      -180.1640
  81   2.0000      -6.620641      -180.1568
  82   2.0000      -6.052653      -164.7011
  83   2.0000      -6.048836      -164.5972
  84   2.0000      -6.048345      -164.5838
  85   2.0000      -6.044534      -164.4801
  86   2.0000      -6.044175      -164.4704
  87   2.0000      -6.040354      -164.3664
  88   2.0000      -2.754064       -74.9419
  89   2.0000      -2.751353       -74.8681
  90   2.0000      -2.750017       -74.8318
  91   2.0000      -2.749821       -74.8264
  92   2.0000      -2.747300       -74.7578
  93   2.0000      -2.747140       -74.7535
  94   2.0000      -2.738162       -74.5092
  95   2.0000      -2.738136       -74.5085
  96   2.0000      -2.735494       -74.4366
  97   2.0000      -2.735472       -74.4360
  98   2.0000      -1.289481       -35.0886
  99   2.0000      -1.285492       -34.9800
 100   2.0000      -1.282671       -34.9033
 101   2.0000      -1.209800       -32.9203
 102   2.0000      -1.207986       -32.8710
 103   2.0000      -1.171273       -31.8719
 104   2.0000      -1.148763       -31.2594
 105   2.0000      -1.143982       -31.1293
 106   2.0000      -1.112968       -30.2854
 107   2.0000      -1.112119       -30.2623
 108   2.0000      -1.085666       -29.5425
 109   2.0000      -1.043572       -28.3970
 110   2.0000      -1.032905       -28.1068
 111   2.0000      -1.031979       -28.0816
 112   2.0000      -1.023148       -27.8413
 113   2.0000      -1.016104       -27.6496
 114   2.0000      -1.013270       -27.5725
 115   2.0000      -1.005910       -27.3722
 116   2.0000      -1.005093       -27.3500
 117   2.0000      -1.001235       -27.2450
 118   2.0000      -0.998497       -27.1705
 119   2.0000      -0.986622       -26.8473
 120   2.0000      -0.957325       -26.0501
 121   2.0000      -0.955379       -25.9972
 122   2.0000      -0.942817       -25.6554
 123   2.0000      -0.930030       -25.3074
 124   2.0000      -0.924256       -25.1503
 125   2.0000      -0.918187       -24.9851
 126   2.0000      -0.913631       -24.8612
 127   2.0000      -0.907956       -24.7068
 128   2.0000      -0.900014       -24.4906
 129   2.0000      -0.897993       -24.4356
 130   2.0000      -0.894807       -24.3489
 131   2.0000      -0.867411       -23.6035
 132   2.0000      -0.860325       -23.4106
 133   2.0000      -0.843354       -22.9488
 134   2.0000      -0.838037       -22.8041
 135   2.0000      -0.805497       -21.9187
 136   2.0000      -0.801430       -21.8080
 137   2.0000      -0.793511       -21.5925
 138   2.0000      -0.784039       -21.3348
 139   2.0000      -0.779779       -21.2189
 140   2.0000      -0.774487       -21.0749
 141   2.0000      -0.768176       -20.9031
 142   2.0000      -0.757950       -20.6249
 143   2.0000      -0.736007       -20.0278
 144   2.0000      -0.731552       -19.9066
 145   2.0000      -0.723197       -19.6792
 146   2.0000      -0.714662       -19.4469
 147   2.0000      -0.705558       -19.1992
 148   2.0000      -0.701705       -19.0944
 149   2.0000      -0.700779       -19.0692
 150   2.0000      -0.696660       -18.9571
 151   2.0000      -0.691179       -18.8079
 152   2.0000      -0.684610       -18.6292
 153   2.0000      -0.679006       -18.4767
 154   2.0000      -0.668123       -18.1806
 155   2.0000      -0.658070       -17.9070
 156   2.0000      -0.652189       -17.7470
 157   2.0000      -0.638955       -17.3869
 158   2.0000      -0.635367       -17.2892
 159   2.0000      -0.633759       -17.2455
 160   2.0000      -0.622955       -16.9515
 161   2.0000      -0.620980       -16.8977
 162   2.0000      -0.618869       -16.8403
 163   2.0000      -0.617112       -16.7925
 164   2.0000      -0.610858       -16.6223
 165   2.0000      -0.609317       -16.5803
 166   2.0000      -0.602292       -16.3892
 167   2.0000      -0.599645       -16.3172
 168   2.0000      -0.594783       -16.1849
 169   2.0000      -0.588499       -16.0139
 170   2.0000      -0.582289       -15.8449
 171   2.0000      -0.575368       -15.6566
 172   2.0000      -0.569472       -15.4961
 173   2.0000      -0.565796       -15.3961
 174   2.0000      -0.562299       -15.3009
 175   2.0000      -0.557525       -15.1710
 176   2.0000      -0.556706       -15.1488
 177   2.0000      -0.555254       -15.1092
 178   2.0000      -0.552463       -15.0333
 179   2.0000      -0.548986       -14.9387
 180   2.0000      -0.547457       -14.8971
 181   2.0000      -0.545247       -14.8369
 182   2.0000      -0.538241       -14.6463
 183   2.0000      -0.536792       -14.6069
 184   2.0000      -0.535152       -14.5622
 185   2.0000      -0.529881       -14.4188
 186   2.0000      -0.527362       -14.3503
 187   2.0000      -0.522135       -14.2080
 188   2.0000      -0.521129       -14.1807
 189   2.0000      -0.518890       -14.1197
 190   2.0000      -0.516850       -14.0642
 191   2.0000      -0.515947       -14.0396
 192   2.0000      -0.512883       -13.9563
 193   2.0000      -0.511041       -13.9061
 194   2.0000      -0.509908       -13.8753
 195   2.0000      -0.504838       -13.7374
 196   2.0000      -0.501926       -13.6581
 197   2.0000      -0.500374       -13.6159
 198   2.0000      -0.499308       -13.5869
 199   2.0000      -0.496158       -13.5011
 200   2.0000      -0.488949       -13.3050
 201   2.0000      -0.485932       -13.2229
 202   2.0000      -0.483063       -13.1448
 203   2.0000      -0.482078       -13.1180
 204   2.0000      -0.473049       -12.8723
 205   2.0000      -0.466601       -12.6969
 206   2.0000      -0.464179       -12.6309
 207   2.0000      -0.462201       -12.5771
 208   2.0000      -0.458425       -12.4744
 209   2.0000      -0.456285       -12.4162
 210   2.0000      -0.455725       -12.4009
 211   2.0000      -0.453574       -12.3424
 212   2.0000      -0.450449       -12.2574
 213   2.0000      -0.447804       -12.1854
 214   2.0000      -0.447717       -12.1830
 215   2.0000      -0.439696       -11.9647
 216   2.0000      -0.438523       -11.9328
 217   2.0000      -0.436101       -11.8669
 218   2.0000      -0.434447       -11.8219
 219   2.0000      -0.433388       -11.7931
 220   2.0000      -0.428023       -11.6471
 221   2.0000      -0.426861       -11.6155
 222   2.0000      -0.420919       -11.4538
 223   2.0000      -0.419685       -11.4202
 224   2.0000      -0.415788       -11.3142
 225   2.0000      -0.411433       -11.1957
 226   2.0000      -0.407298       -11.0831
 227   2.0000      -0.404780       -11.0146
 228   2.0000      -0.402763       -10.9597
 229   2.0000      -0.398904       -10.8547
 230   2.0000      -0.395415       -10.7598
 231   2.0000      -0.394547       -10.7362
 232   2.0000      -0.388778       -10.5792
 233   2.0000      -0.383851       -10.4451
 234   2.0000      -0.381818       -10.3898
 235   2.0000      -0.381247       -10.3743
 236   2.0000      -0.377445       -10.2708
 237   2.0000      -0.375510       -10.2181
 238   2.0000      -0.373024       -10.1505
 239   2.0000      -0.369449       -10.0532
 240   2.0000      -0.357084        -9.7167
 241   2.0000      -0.354327        -9.6417
 242   2.0000      -0.347392        -9.4530
 243   2.0000      -0.344502        -9.3744
 244   2.0000      -0.338334        -9.2065
 245   2.0000      -0.332749        -9.0546
 246   2.0000      -0.328047        -8.9266
 247   2.0000      -0.323875        -8.8131
 248   2.0000      -0.320906        -8.7323
 249   2.0000      -0.306941        -8.3523
 250   2.0000      -0.301431        -8.2024
 251   0.0000      -0.105202        -2.8627
 252   0.0000      -0.103591        -2.8189
 253   0.0000      -0.068076        -1.8524
 254   0.0000      -0.067198        -1.8285
 255   0.0000      -0.045797        -1.2462

MULLIKEN ATOMIC CHARGES
-----------------------
   0 C :    0.299547
   1 C :   -0.336206
   2 C :   -0.184300
   3 N :    0.160811
   4 C :   -0.188100
   5 N :    0.174120
   6 C :    0.025124
   7 C :   -0.002710
   8 C :   -0.062423
   9 C :    0.115751
  10 C :   -0.087112
  11 C :   -0.021435
  12 S :    0.192316
  13 C :   -0.124688
  14 C :    0.043041
  15 Br:    0.031307
  16 C :    0.154199
  17 O :   -0.136508
  18 C :   -0.019040
  19 C :   -0.067000
  20 C :    0.180877
  21 C :   -0.028335
  22 C :    0.147938
  23 O :   -0.206006
  24 O :   -0.153493
  25 C :   -0.039318
  26 N :    0.042051
  27 O :   -0.136040
  28 C :    0.175345
  29 C :   -0.120689
  30 C :    0.191922
  31 O :   -0.181073
  32 O :   -0.156730
  33 C :   -0.007470
  34 N :    0.037312
  35 O :   -0.138351
  36 C :    0.139845
  37 C :   -0.013710
  38 C :    0.120974
  39 O :   -0.189046
  40 O :   -0.142508
  41 C :   -0.098751
  42 N :    0.036772
  43 O :   -0.149583
  44 C :    0.052880
  45 C :   -0.106797
  46 C :    0.331886
  47 C :   -0.351527
  48 C :   -0.204097
  49 N :    0.169966
  50 C :   -0.067797
  51 N :    0.098418
  52 C :   -0.003357
  53 C :   -0.002642
  54 C :    0.135346
  55 O :   -0.121358
  56 C :   -0.063290
  57 C :    0.113782
  58 C :   -0.088325
  59 C :   -0.010449
  60 S :    0.197645
  61 C :   -0.124648
  62 C :    0.042537
  63 Br:    0.035794
  64 H :   -0.008537
  65 H :   -0.005189
  66 H :   -0.001301
  67 H :    0.056868
  68 H :    0.200072
  69 H :    0.189555
  70 H :    0.199072
  71 H :    0.054606
  72 H :   -0.002493
  73 H :    0.003432
  74 H :    0.001324
Sum of atomic charges:   -0.0000000

LOEWDIN ATOMIC CHARGES
----------------------
   0 C :    0.073056
   1 C :   -0.120181
   2 C :   -0.017274
   3 N :   -0.039511
   4 C :   -0.020971
   5 N :   -0.032874
   6 C :   -0.017229
   7 C :   -0.043261
   8 C :    0.027269
   9 C :   -0.028272
  10 C :   -0.140709
  11 C :   -0.007609
  12 S :    0.437209
  13 C :   -0.268573
  14 C :   -0.069989
  15 Br:    0.143431
  16 C :    0.088117
  17 O :   -0.129809
  18 C :   -0.030354
  19 C :    0.032531
  20 C :    0.077875
  21 C :   -0.109086
  22 C :    0.091026
  23 O :   -0.178923
  24 O :   -0.016242
  25 C :   -0.030256
  26 N :   -0.002598
  27 O :    0.067928
  28 C :    0.053444
  29 C :   -0.101984
  30 C :    0.070323
  31 O :   -0.155478
  32 O :   -0.014989
  33 C :   -0.055801
  34 N :   -0.006285
  35 O :    0.068402
  36 C :    0.065824
  37 C :   -0.112192
  38 C :    0.080787
  39 O :   -0.172256
  40 O :   -0.010725
  41 C :   -0.028829
  42 N :   -0.017055
  43 O :    0.060135
  44 C :    0.072165
  45 C :   -0.057939
  46 C :    0.084536
  47 C :   -0.126695
  48 C :   -0.018837
  49 N :   -0.035267
  50 C :    0.039975
  51 N :   -0.061376
  52 C :   -0.020817
  53 C :   -0.051908
  54 C :    0.086477
  55 O :   -0.120419
  56 C :    0.026647
  57 C :   -0.027159
  58 C :   -0.141191
  59 C :   -0.003371
  60 S :    0.441805
  61 C :   -0.267138
  62 C :   -0.069546
  63 Br:    0.146838
  64 H :    0.042464
  65 H :    0.041654
  66 H :    0.039806
  67 H :    0.056392
  68 H :    0.108996
  69 H :    0.059793
  70 H :    0.108465
  71 H :    0.059409
  72 H :    0.044103
  73 H :    0.043316
  74 H :    0.040777

  Mayer bond orders larger than 0.100000
B(  0-C ,  1-C ) :   1.6661 B(  0-C ,  6-C ) :   1.0266 B(  0-C , 18-C ) :   1.0386
B(  1-C ,  2-C ) :   1.1353 B(  1-C ,  4-C ) :   1.1438 B(  2-C ,  3-N ) :   2.9738
B(  4-C ,  5-N ) :   2.9776 B(  6-C ,  7-C ) :   1.2722 B(  6-C , 11-C ) :   1.3928
B(  7-C ,  8-C ) :   1.4202 B(  7-C , 16-C ) :   0.9433 B(  8-C ,  9-C ) :   1.2543
B(  8-C , 64-H ) :   1.0161 B(  9-C , 10-C ) :   1.2939 B(  9-C , 14-C ) :   1.1651
B( 10-C , 11-C ) :   1.3468 B( 10-C , 12-S ) :   1.0876 B( 11-C , 65-H ) :   0.9788
B( 12-S , 13-C ) :   1.0875 B( 13-C , 14-C ) :   1.6139 B( 13-C , 15-Br) :   1.0235
B( 14-C , 66-H ) :   1.0003 B( 16-C , 17-O ) :   2.2492 B( 16-C , 18-C ) :   0.8872
B( 18-C , 19-C ) :   1.7818 B( 19-C , 20-C ) :   1.0208 B( 19-C , 67-H ) :   0.9303
B( 20-C , 21-C ) :   1.4924 B( 20-C , 27-O ) :   1.1960 B( 21-C , 22-C ) :   0.9343
B( 21-C , 25-C ) :   1.1992 B( 22-C , 23-O ) :   2.0828 B( 22-C , 24-O ) :   1.3196
B( 24-O , 68-H ) :   0.9361 B( 25-C , 26-N ) :   1.7052 B( 25-C , 28-C ) :   0.9520
B( 26-N , 27-O ) :   1.0188 B( 28-C , 29-C ) :   1.5714 B( 28-C , 34-N ) :   0.1076
B( 28-C , 35-O ) :   1.1847 B( 29-C , 30-C ) :   0.8748 B( 29-C , 33-C ) :   1.2291
B( 30-C , 31-O ) :   2.1676 B( 30-C , 32-O ) :   1.2909 B( 32-O , 69-H ) :   0.9001
B( 33-C , 34-N ) :   1.6801 B( 33-C , 36-C ) :   0.9470 B( 34-N , 35-O ) :   1.0398
B( 36-C , 37-C ) :   1.4850 B( 36-C , 43-O ) :   1.2121 B( 37-C , 38-C ) :   0.9195
B( 37-C , 41-C ) :   1.1992 B( 38-C , 39-O ) :   2.1261 B( 38-C , 40-O ) :   1.3290
B( 40-O , 70-H ) :   0.9362 B( 41-C , 42-N ) :   1.6665 B( 41-C , 44-C ) :   0.9712
B( 42-N , 43-O ) :   1.0093 B( 44-C , 45-C ) :   1.8204 B( 44-C , 71-H ) :   0.9247
B( 45-C , 46-C ) :   0.9892 B( 45-C , 54-C ) :   0.9181 B( 46-C , 47-C ) :   1.6577
B( 46-C , 52-C ) :   1.0302 B( 47-C , 48-C ) :   1.1267 B( 47-C , 50-C ) :   1.1981
B( 48-C , 49-N ) :   2.9945 B( 50-C , 51-N ) :   2.8178 B( 51-N , 69-H ) :   0.1183
B( 52-C , 53-C ) :   1.2654 B( 52-C , 59-C ) :   1.3961 B( 53-C , 54-C ) :   0.9244
B( 53-C , 56-C ) :   1.4195 B( 54-C , 55-O ) :   2.2916 B( 56-C , 57-C ) :   1.2555
B( 56-C , 72-H ) :   1.0169 B( 57-C , 58-C ) :   1.2921 B( 57-C , 62-C ) :   1.1685
B( 58-C , 59-C ) :   1.3460 B( 58-C , 60-S ) :   1.0884 B( 59-C , 73-H ) :   0.9803
B( 60-S , 61-C ) :   1.0906 B( 61-C , 62-C ) :   1.6106 B( 61-C , 63-Br) :   1.0260
B( 62-C , 74-H ) :   1.0010

-----------------------------------------------------------------------------
         ABSORPTION SPECTRUM VIA TRANSITION ELECTRIC DIPOLE MOMENTS
-----------------------------------------------------------------------------
State   Energy  Wavelength   fosc         T2         TX        TY        TZ
        (cm-1)    (nm)                  (au**2)     (au)      (au)      (au)
-----------------------------------------------------------------------------
   0   25790.0    387.7   0.132972354   1.69741  -0.93700   0.61276   0.66631
   1   26377.9    379.1   0.242631518   3.02818   0.09281   0.70211  -1.58953
   2   26967.3    370.8   0.376030184   4.59050   1.69491  -0.79212  -1.04419
   3   28732.5    348.0   0.059123647   0.67743  -0.08296   0.53394  -0.62085
   4   29525.2    338.7   0.128075319   1.42806  -1.02867   0.60174   0.08838
   5   30151.1    331.7   0.024933841   0.27225   0.30848  -0.21524  -0.36160
   6   31078.4    321.8   0.282728289   2.99493   1.12034  -0.86297  -0.99752
   7   31922.1    313.3   0.154758471   1.59602  -0.07905   0.41469   1.19072
   8   32339.9    309.2   0.287003443   2.92162   1.07646  -0.26853  -1.30029
   9   32594.1    306.8   0.017245460   0.17419   0.32077  -0.26639  -0.01799
  10   33149.0    301.7   0.567673304   5.63773  -0.08494  -1.18057   2.05834
  11   33652.7    297.2   0.509526052   4.98451   1.78155  -1.15148  -0.69619
  12   34584.1    289.2   0.001064510   0.01013  -0.00720  -0.06768  -0.07417
  13   34618.8    288.9   0.070454252   0.66999  -0.23167   0.18497  -0.76296
  14   35168.2    284.3   0.001291899   0.01209   0.00725  -0.08850   0.06488
  15   36024.3    277.6   0.038308230   0.35008   0.48579  -0.32222  -0.10134
  16   36315.2    275.4   0.000155937   0.00141  -0.00653  -0.03181   0.01895
  17   37033.5    270.0   0.042223857   0.37535  -0.41985  -0.10758   0.43301
  18   37602.1    265.9   0.206100826   1.80445  -0.73148   0.96985   0.57339
  19   37896.2    263.9   0.004028117   0.03499  -0.14699  -0.01270   0.11501
  20   37925.4    263.7   0.050101976   0.43491  -0.43737   0.42315   0.25410
  21   38588.0    259.1   0.018048750   0.15398  -0.32186   0.20769   0.08516
  22   38976.7    256.6   0.047660723   0.40256   0.34787  -0.01663  -0.53035
  23   39762.4    251.5   0.490200962   4.05861  -0.77369   0.36539   1.82387
  24   40012.5    249.9   0.300274147   2.47057  -0.78860   1.29311   0.42020
  25   40213.9    248.7   0.084770092   0.69397   0.56085  -0.52760  -0.31790
  26   40245.6    248.5   0.149239555   1.22079  -0.60299   0.44302   0.81297

FINAL SINGLE POINT ENERGY     -8758.296682512306

DIPOLE MOMENT
-------------
                                X             Y             Z
Electronic contribution:    -14.22473      18.43863      -9.69003
Nuclear contribution   :     12.49130     -15.50469       7.21117
                        -----------------------------------------
Total Dipole Moment    :     -1.73344       2.93394      -2.47886
                        -----------------------------------------
Magnitude (a.u.)       :      4.21397
Magnitude (Debye)      :     10.71107

Rotational constants in cm-1:     0.003039     0.000214     0.000202
Rotational constants in MHz :    91.105013     6.419920     6.068340

                             ****ORCA TERMINATED NORMALLY****
TOTAL RUN TIME: 0 days 0 hours 10 minutes 14 seconds 599 msec
