                         Program Version 4.2.0 -  RELEASE  -
|  1> # ORCA input file
|  2> # SCF done       -171.284654628051          0.000510613430
|  3> ! CAM-B3LYP def2-SVP def2/J RIJCOSX Grid4 TightSCF
|  4> %maxcore 5000
|  5> %tddft
|  6>     Mode sTDDFT
|  7>     Ethresh 5.0
|  8>     maxcore 5000
|  9> end
| 10>
| 11> %pal
| 12>   nprocs 6
| 13>   end
| 14> * xyz 0 1
| 15>    C      -17.17398        -2.54641        -4.94048
| 16>    C      -17.28359        -3.72024        -4.21436
| 17>    C      -18.10491        -4.79375        -4.58687
| 18>    N      -18.70593        -5.73336        -4.87139
| 19>    C      -16.59134        -4.02819        -3.02902
| 20>    N      -16.08424        -4.36393        -2.05276
| 21>    C      -17.94847        -2.24327        -6.14551
| 22>    C      -17.51650        -0.99432        -6.64937
| 23>    C      -18.03096        -0.43740        -7.79112
| 24>    C      -19.02394        -1.15105        -8.47511
| 25>    C      -19.45345        -2.39278        -7.96025
| 26>    C      -18.93418        -2.95441        -6.79806
| 27>    S      -20.68139        -3.10954        -8.96041
| 28>    C      -20.60024        -1.74529       -10.04263
| 29>    C      -19.70208        -0.80182        -9.67570
| 30>   Br      -21.70927        -1.69571       -11.55633
| 31>    C      -16.44727        -0.46574        -5.77046
| 32>    O      -15.84795         0.58288        -5.93521
| 33>    C      -16.26611        -1.46930        -4.71702
| 34>    C      -15.30803        -1.38919        -3.70343
| 35>    C      -14.37101        -0.38986        -3.58824
| 36>    C      -13.38997        -0.36077        -2.59443
| 37>    C      -12.40176         0.61946        -2.44050
| 38>    C      -11.56926         0.40445        -1.36757
| 39>    C      -11.87688        -0.75673        -0.65122
| 40>    S      -13.23928        -1.57861        -1.35652
| 41>    C      -11.23014        -1.23780         0.49654
| 42>    C      -10.22240        -0.60354         1.22860
| 43>    C       -9.81967        -1.31332         2.33566
| 44>    C      -10.48617        -2.53288         2.49952
| 45>    S      -11.64601        -2.76758         1.21558
| 46>    C      -10.27588        -3.43083         3.54795
| 47>    C      -10.84868        -4.66521         3.73084
| 48>    S      -11.95712        -5.45299         2.60550
| 49>    C      -12.11833        -6.91577         3.58243
| 50>    C      -11.34374        -6.76451         4.75866
| 51>    C      -10.65140        -5.54222         4.82234
| 52>    N       -9.95536        -5.55569         5.97878
| 53>    N      -10.15575        -6.69763         6.65307
| 54>    C      -10.97976        -7.43693         5.94409
| 55>    C      -12.86921        -8.00203         3.20148
| 56>    C      -13.53790        -8.11364         1.98410
| 57>    C      -14.26693        -9.21790         1.61458
| 58>    C      -14.89019        -9.37466         0.37354
| 59>    C      -15.65297       -10.47141        -0.04815
| 60>    C      -16.12545       -10.35942        -1.33404
| 61>    C      -15.74160        -9.17043        -1.96638
| 62>    S      -14.78097        -8.18458        -0.89781
| 63>    C      -16.03492        -8.75075        -3.26614
| 64>    C      -16.82433        -9.40221        -4.22841
| 65>    C      -16.93027        -8.71038        -5.40334
| 66>    C      -16.22660        -7.48739        -5.41294
| 67>    S      -15.41081        -7.25032        -3.88627
| 68>    C      -16.23962        -6.57288        -6.44697
| 69>    C      -15.58054        -5.34223        -6.49900
| 70>    S      -15.91371        -4.23128        -7.83406
| 71>    C      -14.82550        -2.98132        -7.27175
| 72>    C      -14.24528        -3.44127        -6.11211
| 73>    C      -14.65436        -4.70928        -5.68104
| 74>    O      -13.94349        -5.00774        -4.55192
| 75>    C      -13.13613        -3.94858        -4.29352
| 76>    O      -12.37564        -3.87357        -3.38823
| 77>    O      -13.30683        -2.97831        -5.23597
| 78>    C      -14.63563        -1.75698        -7.98599
| 79>    C      -13.81380        -0.79073        -7.57222
| 80>    H      -17.67806         0.51635        -8.15097
| 81>    H      -19.29809        -3.90556        -6.44832
| 82>    H      -19.52385         0.10378       -10.22648
| 83>    H      -15.28244        -2.18080        -2.96364
| 84>    H      -14.37292         0.41743        -4.30651
| 85>    H      -12.32306         1.45512        -3.11291
| 86>    H      -10.75267         1.05084        -1.10095
| 87>    H       -9.82139         0.35413         0.95140
| 88>    H       -9.06201        -0.98038         3.02317
| 89>    H       -9.57180        -3.10841         4.30609
| 90>    H       -9.34811        -4.85147         6.36419
| 91>    H      -11.28029        -8.40224         6.29679
| 92>    H      -12.91505        -8.83072         3.89680
| 93>    H      -13.46175        -7.28773         1.28727
| 94>    H      -14.36974       -10.03787         2.31434
| 95>    H      -15.84003       -11.31506         0.59268
| 96>    H      -16.72620       -11.10467        -1.82301
| 97>    H      -17.30202       -10.34615        -4.03826
| 98>    H      -17.50352        -9.03460        -6.25294
| 99>    H      -16.85614        -6.81251        -7.30198
|100>    H      -15.21354        -1.65564        -8.89376
|101>    H      -13.24629        -0.88955        -6.66300
|102>    H      -13.70277         0.12357        -8.12530
|103> *
|104>
|105>                          ****END OF INPUT****

CARTESIAN COORDINATES (ANGSTROEM)
---------------------------------
  C    -17.173980   -2.546410   -4.940480
  C    -17.283590   -3.720240   -4.214360
  C    -18.104910   -4.793750   -4.586870
  N    -18.705930   -5.733360   -4.871390
  C    -16.591340   -4.028190   -3.029020
  N    -16.084240   -4.363930   -2.052760
  C    -17.948470   -2.243270   -6.145510
  C    -17.516500   -0.994320   -6.649370
  C    -18.030960   -0.437400   -7.791120
  C    -19.023940   -1.151050   -8.475110
  C    -19.453450   -2.392780   -7.960250
  C    -18.934180   -2.954410   -6.798060
  S    -20.681390   -3.109540   -8.960410
  C    -20.600240   -1.745290  -10.042630
  C    -19.702080   -0.801820   -9.675700
  Br   -21.709270   -1.695710  -11.556330
  C    -16.447270   -0.465740   -5.770460
  O    -15.847950    0.582880   -5.935210
  C    -16.266110   -1.469300   -4.717020
  C    -15.308030   -1.389190   -3.703430
  C    -14.371010   -0.389860   -3.588240
  C    -13.389970   -0.360770   -2.594430
  C    -12.401760    0.619460   -2.440500
  C    -11.569260    0.404450   -1.367570
  C    -11.876880   -0.756730   -0.651220
  S    -13.239280   -1.578610   -1.356520
  C    -11.230140   -1.237800    0.496540
  C    -10.222400   -0.603540    1.228600
  C     -9.819670   -1.313320    2.335660
  C    -10.486170   -2.532880    2.499520
  S    -11.646010   -2.767580    1.215580
  C    -10.275880   -3.430830    3.547950
  C    -10.848680   -4.665210    3.730840
  S    -11.957120   -5.452990    2.605500
  C    -12.118330   -6.915770    3.582430
  C    -11.343740   -6.764510    4.758660
  C    -10.651400   -5.542220    4.822340
  N     -9.955360   -5.555690    5.978780
  N    -10.155750   -6.697630    6.653070
  C    -10.979760   -7.436930    5.944090
  C    -12.869210   -8.002030    3.201480
  C    -13.537900   -8.113640    1.984100
  C    -14.266930   -9.217900    1.614580
  C    -14.890190   -9.374660    0.373540
  C    -15.652970  -10.471410   -0.048150
  C    -16.125450  -10.359420   -1.334040
  C    -15.741600   -9.170430   -1.966380
  S    -14.780970   -8.184580   -0.897810
  C    -16.034920   -8.750750   -3.266140
  C    -16.824330   -9.402210   -4.228410
  C    -16.930270   -8.710380   -5.403340
  C    -16.226600   -7.487390   -5.412940
  S    -15.410810   -7.250320   -3.886270
  C    -16.239620   -6.572880   -6.446970
  C    -15.580540   -5.342230   -6.499000
  S    -15.913710   -4.231280   -7.834060
  C    -14.825500   -2.981320   -7.271750
  C    -14.245280   -3.441270   -6.112110
  C    -14.654360   -4.709280   -5.681040
  O    -13.943490   -5.007740   -4.551920
  C    -13.136130   -3.948580   -4.293520
  O    -12.375640   -3.873570   -3.388230
  O    -13.306830   -2.978310   -5.235970
  C    -14.635630   -1.756980   -7.985990
  C    -13.813800   -0.790730   -7.572220
  H    -17.678060    0.516350   -8.150970
  H    -19.298090   -3.905560   -6.448320
  H    -19.523850    0.103780  -10.226480
  H    -15.282440   -2.180800   -2.963640
  H    -14.372920    0.417430   -4.306510
  H    -12.323060    1.455120   -3.112910
  H    -10.752670    1.050840   -1.100950
  H     -9.821390    0.354130    0.951400
  H     -9.062010   -0.980380    3.023170
  H     -9.571800   -3.108410    4.306090
  H     -9.348110   -4.851470    6.364190
  H    -11.280290   -8.402240    6.296790
  H    -12.915050   -8.830720    3.896800
  H    -13.461750   -7.287730    1.287270
  H    -14.369740  -10.037870    2.314340
  H    -15.840030  -11.315060    0.592680
  H    -16.726200  -11.104670   -1.823010
  H    -17.302020  -10.346150   -4.038260
  H    -17.503520   -9.034600   -6.252940
  H    -16.856140   -6.812510   -7.301980
  H    -15.213540   -1.655640   -8.893760
  H    -13.246290   -0.889550   -6.663000
  H    -13.702770    0.123570   -8.125300

 Total Charge           Charge          ....    0
 Multiplicity           Mult            ....    1
 Number of Electrons    NEL             ....  524
 Basis Dimension        Dim             .... 1071

ORBITAL ENERGIES
----------------

  NO   OCC          E(Eh)            E(eV)
   0   2.0000    -482.871210    -13139.5936
   1   2.0000     -88.978572     -2421.2300
   2   2.0000     -88.960841     -2420.7475
   3   2.0000     -88.958462     -2420.6828
   4   2.0000     -88.957013     -2420.6434
   5   2.0000     -88.953140     -2420.5380
   6   2.0000     -88.952674     -2420.5253
   7   2.0000     -88.937433     -2420.1106
   8   2.0000     -62.548904     -1702.0422
   9   2.0000     -56.382825     -1534.2547
  10   2.0000     -56.380173     -1534.1825
  11   2.0000     -56.380116     -1534.1810
  12   2.0000     -19.313837      -525.5562
  13   2.0000     -19.307468      -525.3829
  14   2.0000     -19.217727      -522.9409
  15   2.0000     -19.182101      -521.9715
  16   2.0000     -14.494934      -394.4272
  17   2.0000     -14.433226      -392.7480
  18   2.0000     -14.388179      -391.5223
  19   2.0000     -14.382676      -391.3725
  20   2.0000     -10.463410      -284.7239
  21   2.0000     -10.365403      -282.0569
  22   2.0000     -10.355740      -281.7940
  23   2.0000     -10.339549      -281.3534
  24   2.0000     -10.336808      -281.2789
  25   2.0000     -10.332353      -281.1576
  26   2.0000     -10.330692      -281.1124
  27   2.0000     -10.329648      -281.0840
  28   2.0000     -10.322342      -280.8852
  29   2.0000     -10.320722      -280.8411
  30   2.0000     -10.320105      -280.8243
  31   2.0000     -10.316476      -280.7256
  32   2.0000     -10.315916      -280.7104
  33   2.0000     -10.314623      -280.6752
  34   2.0000     -10.313598      -280.6473
  35   2.0000     -10.307941      -280.4933
  36   2.0000     -10.301707      -280.3237
  37   2.0000     -10.300423      -280.2888
  38   2.0000     -10.299902      -280.2746
  39   2.0000     -10.299494      -280.2635
  40   2.0000     -10.299487      -280.2633
  41   2.0000     -10.298203      -280.2284
  42   2.0000     -10.297888      -280.2198
  43   2.0000     -10.294961      -280.1401
  44   2.0000     -10.293691      -280.1056
  45   2.0000     -10.292398      -280.0704
  46   2.0000     -10.290640      -280.0225
  47   2.0000     -10.290119      -280.0084
  48   2.0000     -10.289125      -279.9813
  49   2.0000     -10.288661      -279.9687
  50   2.0000     -10.288352      -279.9603
  51   2.0000     -10.283388      -279.8252
  52   2.0000     -10.283087      -279.8170
  53   2.0000     -10.281425      -279.7718
  54   2.0000     -10.280299      -279.7412
  55   2.0000     -10.279749      -279.7262
  56   2.0000     -10.279330      -279.7148
  57   2.0000     -10.279108      -279.7087
  58   2.0000     -10.278848      -279.7017
  59   2.0000     -10.278210      -279.6843
  60   2.0000     -10.276640      -279.6416
  61   2.0000     -10.276052      -279.6256
  62   2.0000     -10.271290      -279.4960
  63   2.0000     -10.267940      -279.4048
  64   2.0000     -10.263183      -279.2754
  65   2.0000     -10.260378      -279.1991
  66   2.0000     -10.259086      -279.1639
  67   2.0000     -10.251272      -278.9513
  68   2.0000     -10.249128      -278.8930
  69   2.0000      -8.778306      -238.8698
  70   2.0000      -8.072690      -219.6691
  71   2.0000      -8.056307      -219.2233
  72   2.0000      -8.054186      -219.1655
  73   2.0000      -8.052964      -219.1323
  74   2.0000      -8.048224      -219.0033
  75   2.0000      -8.048051      -218.9986
  76   2.0000      -8.032795      -218.5835
  77   2.0000      -6.614465      -179.9887
  78   2.0000      -6.600067      -179.5970
  79   2.0000      -6.599979      -179.5946
  80   2.0000      -6.042332      -164.4202
  81   2.0000      -6.038414      -164.3136
  82   2.0000      -6.033984      -164.1930
  83   2.0000      -6.025776      -163.9697
  84   2.0000      -6.023526      -163.9085
  85   2.0000      -6.022654      -163.8848
  86   2.0000      -6.021551      -163.8547
  87   2.0000      -6.019503      -163.7990
  88   2.0000      -6.018407      -163.7692
  89   2.0000      -6.018074      -163.7601
  90   2.0000      -6.017837      -163.7537
  91   2.0000      -6.017433      -163.7427
  92   2.0000      -6.015970      -163.7029
  93   2.0000      -6.014227      -163.6554
  94   2.0000      -6.013860      -163.6454
  95   2.0000      -6.013296      -163.6301
  96   2.0000      -6.009936      -163.5387
  97   2.0000      -6.009199      -163.5186
  98   2.0000      -6.002072      -163.3247
  99   2.0000      -5.998078      -163.2160
 100   2.0000      -5.994740      -163.1252
 101   2.0000      -2.730397       -74.2979
 102   2.0000      -2.726280       -74.1859
 103   2.0000      -2.726226       -74.1844
 104   2.0000      -2.714796       -73.8733
 105   2.0000      -2.714768       -73.8726
 106   2.0000      -1.287287       -35.0289
 107   2.0000      -1.171451       -31.8768
 108   2.0000      -1.148677       -31.2571
 109   2.0000      -1.140833       -31.0436
 110   2.0000      -1.094759       -29.7899
 111   2.0000      -1.011005       -27.5108
 112   2.0000      -1.003774       -27.3141
 113   2.0000      -0.998315       -27.1655
 114   2.0000      -0.991520       -26.9806
 115   2.0000      -0.986741       -26.8506
 116   2.0000      -0.982858       -26.7449
 117   2.0000      -0.980595       -26.6834
 118   2.0000      -0.966381       -26.2966
 119   2.0000      -0.961980       -26.1768
 120   2.0000      -0.959939       -26.1213
 121   2.0000      -0.928190       -25.2573
 122   2.0000      -0.920244       -25.0411
 123   2.0000      -0.917179       -24.9577
 124   2.0000      -0.909304       -24.7434
 125   2.0000      -0.892528       -24.2869
 126   2.0000      -0.886662       -24.1273
 127   2.0000      -0.882520       -24.0146
 128   2.0000      -0.875474       -23.8229
 129   2.0000      -0.865234       -23.5442
 130   2.0000      -0.862106       -23.4591
 131   2.0000      -0.855028       -23.2665
 132   2.0000      -0.853420       -23.2227
 133   2.0000      -0.851138       -23.1606
 134   2.0000      -0.843075       -22.9412
 135   2.0000      -0.835592       -22.7376
 136   2.0000      -0.831549       -22.6276
 137   2.0000      -0.827456       -22.5162
 138   2.0000      -0.817878       -22.2556
 139   2.0000      -0.812001       -22.0957
 140   2.0000      -0.805991       -21.9321
 141   2.0000      -0.802048       -21.8248
 142   2.0000      -0.786196       -21.3935
 143   2.0000      -0.769861       -20.9490
 144   2.0000      -0.754353       -20.5270
 145   2.0000      -0.744951       -20.2711
 146   2.0000      -0.740479       -20.1495
 147   2.0000      -0.729938       -19.8626
 148   2.0000      -0.726278       -19.7630
 149   2.0000      -0.717804       -19.5324
 150   2.0000      -0.707264       -19.2456
 151   2.0000      -0.704036       -19.1578
 152   2.0000      -0.694244       -18.8913
 153   2.0000      -0.686314       -18.6755
 154   2.0000      -0.678823       -18.4717
 155   2.0000      -0.675976       -18.3942
 156   2.0000      -0.671682       -18.2774
 157   2.0000      -0.665455       -18.1079
 158   2.0000      -0.660774       -17.9806
 159   2.0000      -0.651548       -17.7295
 160   2.0000      -0.646499       -17.5921
 161   2.0000      -0.639757       -17.4087
 162   2.0000      -0.633956       -17.2508
 163   2.0000      -0.632342       -17.2069
 164   2.0000      -0.627068       -17.0634
 165   2.0000      -0.624442       -16.9919
 166   2.0000      -0.623271       -16.9601
 167   2.0000      -0.615563       -16.7503
 168   2.0000      -0.606200       -16.4955
 169   2.0000      -0.601866       -16.3776
 170   2.0000      -0.598683       -16.2910
 171   2.0000      -0.594066       -16.1653
 172   2.0000      -0.589300       -16.0357
 173   2.0000      -0.580241       -15.7892
 174   2.0000      -0.575027       -15.6473
 175   2.0000      -0.568515       -15.4701
 176   2.0000      -0.566702       -15.4208
 177   2.0000      -0.564738       -15.3673
 178   2.0000      -0.558283       -15.1917
 179   2.0000      -0.549685       -14.9577
 180   2.0000      -0.547321       -14.8934
 181   2.0000      -0.542418       -14.7599
 182   2.0000      -0.536649       -14.6030
 183   2.0000      -0.534029       -14.5317
 184   2.0000      -0.533670       -14.5219
 185   2.0000      -0.528811       -14.3897
 186   2.0000      -0.527486       -14.3536
 187   2.0000      -0.520629       -14.1670
 188   2.0000      -0.518192       -14.1007
 189   2.0000      -0.511685       -13.9237
 190   2.0000      -0.508611       -13.8400
 191   2.0000      -0.506780       -13.7902
 192   2.0000      -0.502860       -13.6835
 193   2.0000      -0.500509       -13.6195
 194   2.0000      -0.499386       -13.5890
 195   2.0000      -0.497671       -13.5423
 196   2.0000      -0.496475       -13.5098
 197   2.0000      -0.496391       -13.5075
 198   2.0000      -0.490026       -13.3343
 199   2.0000      -0.488465       -13.2918
 200   2.0000      -0.486746       -13.2450
 201   2.0000      -0.483186       -13.1481
 202   2.0000      -0.480851       -13.0846
 203   2.0000      -0.479679       -13.0527
 204   2.0000      -0.477834       -13.0025
 205   2.0000      -0.475609       -12.9420
 206   2.0000      -0.474303       -12.9064
 207   2.0000      -0.467560       -12.7230
 208   2.0000      -0.466591       -12.6966
 209   2.0000      -0.465650       -12.6710
 210   2.0000      -0.463803       -12.6207
 211   2.0000      -0.462518       -12.5858
 212   2.0000      -0.458501       -12.4764
 213   2.0000      -0.455174       -12.3859
 214   2.0000      -0.451187       -12.2774
 215   2.0000      -0.450317       -12.2537
 216   2.0000      -0.446460       -12.1488
 217   2.0000      -0.444479       -12.0949
 218   2.0000      -0.443076       -12.0567
 219   2.0000      -0.441547       -12.0151
 220   2.0000      -0.436906       -11.8888
 221   2.0000      -0.434725       -11.8295
 222   2.0000      -0.433061       -11.7842
 223   2.0000      -0.429497       -11.6872
 224   2.0000      -0.428534       -11.6610
 225   2.0000      -0.426982       -11.6188
 226   2.0000      -0.423463       -11.5230
 227   2.0000      -0.420431       -11.4405
 228   2.0000      -0.419255       -11.4085
 229   2.0000      -0.415086       -11.2951
 230   2.0000      -0.413312       -11.2468
 231   2.0000      -0.408264       -11.1094
 232   2.0000      -0.404343       -11.0027
 233   2.0000      -0.397456       -10.8153
 234   2.0000      -0.395670       -10.7667
 235   2.0000      -0.394396       -10.7321
 236   2.0000      -0.389736       -10.6053
 237   2.0000      -0.388107       -10.5609
 238   2.0000      -0.385590       -10.4924
 239   2.0000      -0.380136       -10.3440
 240   2.0000      -0.376570       -10.2470
 241   2.0000      -0.367161        -9.9909
 242   2.0000      -0.361396        -9.8341
 243   2.0000      -0.361128        -9.8268
 244   2.0000      -0.356007        -9.6874
 245   2.0000      -0.352404        -9.5894
 246   2.0000      -0.340921        -9.2769
 247   2.0000      -0.335058        -9.1174
 248   2.0000      -0.330908        -9.0045
 249   2.0000      -0.329065        -8.9543
 250   2.0000      -0.322850        -8.7852
 251   2.0000      -0.315843        -8.5945
 252   2.0000      -0.315639        -8.5890
 253   2.0000      -0.307043        -8.3551
 254   2.0000      -0.302775        -8.2389
 255   2.0000      -0.300213        -8.1692
 256   2.0000      -0.294659        -8.0181
 257   2.0000      -0.280549        -7.6341
 258   2.0000      -0.267344        -7.2748
 259   2.0000      -0.261468        -7.1149
 260   2.0000      -0.216238        -5.8841
 261   2.0000      -0.193562        -5.2671
 262   0.0000      -0.113056        -3.0764
 263   0.0000      -0.073931        -2.0118
 264   0.0000      -0.049071        -1.3353
 265   0.0000      -0.031274        -0.8510
 266   0.0000      -0.021398        -0.5823

MULLIKEN ATOMIC CHARGES
-----------------------
   0 C :    0.290684
   1 C :   -0.410297
   2 C :   -0.177994
   3 N :    0.095002
   4 C :   -0.219435
   5 N :    0.134599
   6 C :    0.026369
   7 C :   -0.004863
   8 C :   -0.106798
   9 C :    0.113717
  10 C :   -0.089794
  11 C :   -0.038856
  12 S :    0.160875
  13 C :   -0.126505
  14 C :    0.035770
  15 Br:    0.001534
  16 C :    0.129768
  17 O :   -0.183212
  18 C :   -0.078408
  19 C :   -0.096050
  20 C :   -0.000135
  21 C :   -0.014144
  22 C :    0.009754
  23 C :    0.019965
  24 C :   -0.050689
  25 S :    0.142177
  26 C :   -0.024543
  27 C :    0.007893
  28 C :    0.029215
  29 C :   -0.067690
  30 S :    0.128943
  31 C :   -0.028224
  32 C :   -0.095193
  33 S :    0.079362
  34 C :   -0.015634
  35 C :    0.011130
  36 C :    0.137122
  37 N :   -0.018254
  38 N :   -0.080237
  39 C :    0.003775
  40 C :   -0.051983
  41 C :    0.025347
  42 C :   -0.013618
  43 C :   -0.019337
  44 C :    0.017804
  45 C :    0.031833
  46 C :   -0.065616
  47 S :    0.151754
  48 C :   -0.014127
  49 C :    0.015244
  50 C :    0.074157
  51 C :   -0.053751
  52 S :    0.164895
  53 C :    0.115923
  54 C :   -0.248177
  55 S :    0.165216
  56 C :   -0.222805
  57 C :    0.221422
  58 C :    0.222411
  59 O :   -0.210926
  60 C :    0.301056
  61 O :   -0.118981
  62 O :   -0.212091
  63 C :    0.038895
  64 C :    0.048786
  65 H :   -0.026773
  66 H :   -0.023417
  67 H :   -0.012366
  68 H :    0.003006
  69 H :    0.004589
  70 H :   -0.019182
  71 H :   -0.022864
  72 H :   -0.019480
  73 H :   -0.019677
  74 H :   -0.021456
  75 H :    0.139704
  76 H :   -0.004251
  77 H :   -0.016149
  78 H :    0.022808
  79 H :   -0.013613
  80 H :   -0.012819
  81 H :   -0.009805
  82 H :   -0.010863
  83 H :   -0.003947
  84 H :   -0.003719
  85 H :   -0.009643
  86 H :    0.048540
  87 H :    0.037347
Sum of atomic charges:   -0.0000000

LOEWDIN ATOMIC CHARGES
----------------------
   0 C :    0.048621
   1 C :   -0.195626
   2 C :   -0.015051
   3 N :   -0.106809
   4 C :   -0.038207
   5 N :   -0.089635
   6 C :   -0.017606
   7 C :   -0.049289
   8 C :    0.004724
   9 C :   -0.047732
  10 C :   -0.152529
  11 C :   -0.033328
  12 S :    0.414615
  13 C :   -0.282729
  14 C :   -0.071928
  15 Br:    0.119454
  16 C :    0.076936
  17 O :   -0.172081
  18 C :   -0.123970
  19 C :   -0.016334
  20 C :   -0.059649
  21 C :   -0.139108
  22 C :   -0.058695
  23 C :   -0.038049
  24 C :   -0.198696
  25 S :    0.452263
  26 C :   -0.158924
  27 C :   -0.062185
  28 C :   -0.034988
  29 C :   -0.189104
  30 S :    0.433018
  31 C :   -0.049778
  32 C :   -0.187677
  33 S :    0.395212
  34 C :   -0.114661
  35 C :   -0.109461
  36 C :   -0.008421
  37 N :    0.114448
  38 N :   -0.076020
  39 C :   -0.024622
  40 C :   -0.073655
  41 C :   -0.000551
  42 C :   -0.065748
  43 C :   -0.130830
  44 C :   -0.056591
  45 C :   -0.019945
  46 C :   -0.198952
  47 S :    0.446700
  48 C :   -0.138451
  49 C :   -0.048519
  50 C :    0.005620
  51 C :   -0.165237
  52 S :    0.471141
  53 C :   -0.006989
  54 C :   -0.199426
  55 S :    0.476964
  56 C :   -0.153741
  57 C :   -0.004102
  58 C :    0.005539
  59 O :   -0.020421
  60 C :    0.105194
  61 O :   -0.116367
  62 O :   -0.017867
  63 C :   -0.055732
  64 C :    0.023471
  65 H :    0.034104
  66 H :    0.033886
  67 H :    0.035208
  68 H :    0.023346
  69 H :    0.032805
  70 H :    0.030674
  71 H :    0.027931
  72 H :    0.029609
  73 H :    0.030082
  74 H :    0.036813
  75 H :    0.089753
  76 H :    0.023203
  77 H :    0.034094
  78 H :    0.024097
  79 H :    0.033944
  80 H :    0.032968
  81 H :    0.033298
  82 H :    0.033291
  83 H :    0.038112
  84 H :    0.044605
  85 H :    0.032553
  86 H :    0.032690
  87 H :    0.035030

  Mayer bond orders larger than 0.100000
B(  0-C ,  1-C ) :   1.4561 B(  0-C ,  6-C ) :   0.9645 B(  0-C , 18-C ) :   1.2361
B(  1-C ,  2-C ) :   1.1935 B(  1-C ,  4-C ) :   1.1699 B(  2-C ,  3-N ) :   2.8739
B(  4-C ,  5-N ) :   2.9271 B(  6-C ,  7-C ) :   1.2832 B(  6-C , 11-C ) :   1.4312
B(  7-C ,  8-C ) :   1.4414 B(  7-C , 16-C ) :   0.9183 B(  8-C ,  9-C ) :   1.2079
B(  8-C , 65-H ) :   1.0187 B(  9-C , 10-C ) :   1.3432 B(  9-C , 14-C ) :   1.1569
B( 10-C , 11-C ) :   1.2865 B( 10-C , 12-S ) :   1.0764 B( 11-C , 66-H ) :   0.9836
B( 12-S , 13-C ) :   1.0835 B( 13-C , 14-C ) :   1.6214 B( 13-C , 15-Br) :   1.0052
B( 14-C , 67-H ) :   1.0007 B( 16-C , 17-O ) :   2.1329 B( 16-C , 18-C ) :   1.0069
B( 18-C , 19-C ) :   1.2547 B( 19-C , 20-C ) :   1.4972 B( 19-C , 68-H ) :   0.9468
B( 20-C , 21-C ) :   1.2042 B( 20-C , 69-H ) :   0.9733 B( 21-C , 22-C ) :   1.3558
B( 21-C , 25-S ) :   1.1291 B( 22-C , 23-C ) :   1.3517 B( 22-C , 70-H ) :   1.0013
B( 23-C , 24-C ) :   1.3987 B( 23-C , 71-H ) :   0.9948 B( 24-C , 25-S ) :   1.1110
B( 24-C , 26-C ) :   1.2197 B( 26-C , 27-C ) :   1.3938 B( 26-C , 30-S ) :   1.1281
B( 27-C , 28-C ) :   1.3678 B( 27-C , 72-H ) :   0.9944 B( 28-C , 29-C ) :   1.3487
B( 28-C , 73-H ) :   0.9999 B( 29-C , 30-S ) :   1.0824 B( 29-C , 31-C ) :   1.2591
B( 31-C , 32-C ) :   1.5293 B( 31-C , 74-H ) :   0.9720 B( 32-C , 33-S ) :   1.0110
B( 32-C , 36-C ) :   1.1714 B( 33-S , 34-C ) :   1.0576 B( 34-C , 35-C ) :   1.1153
B( 34-C , 40-C ) :   1.5093 B( 35-C , 36-C ) :   1.3631 B( 35-C , 39-C ) :   1.2227
B( 36-C , 37-N ) :   1.2182 B( 37-N , 38-N ) :   1.1448 B( 37-N , 75-H ) :   0.9451
B( 38-N , 39-C ) :   1.6928 B( 39-C , 76-H ) :   0.9999 B( 40-C , 41-C ) :   1.2566
B( 40-C , 77-H ) :   0.9814 B( 41-C , 42-C ) :   1.4827 B( 41-C , 78-H ) :   0.9697
B( 42-C , 43-C ) :   1.2586 B( 42-C , 79-H ) :   0.9853 B( 43-C , 44-C ) :   1.3206
B( 43-C , 47-S ) :   1.1230 B( 44-C , 45-C ) :   1.3999 B( 44-C , 80-H ) :   1.0003
B( 45-C , 46-C ) :   1.3520 B( 45-C , 81-H ) :   0.9948 B( 46-C , 47-S ) :   1.0880
B( 46-C , 48-C ) :   1.2920 B( 48-C , 49-C ) :   1.2927 B( 48-C , 52-S ) :   1.1401
B( 49-C , 50-C ) :   1.4769 B( 49-C , 82-H ) :   0.9944 B( 50-C , 51-C ) :   1.2291
B( 50-C , 83-H ) :   0.9992 B( 51-C , 52-S ) :   1.0648 B( 51-C , 53-C ) :   1.4608
B( 53-C , 54-C ) :   1.2814 B( 53-C , 84-H ) :   0.9410 B( 54-C , 55-S ) :   1.0685
B( 54-C , 58-C ) :   1.3579 B( 55-S , 56-C ) :   1.1267 B( 56-C , 57-C ) :   1.4423
B( 56-C , 63-C ) :   1.1346 B( 57-C , 58-C ) :   1.3370 B( 57-C , 62-O ) :   1.0675
B( 58-C , 59-O ) :   1.0710 B( 59-O , 60-C ) :   1.0539 B( 60-C , 61-O ) :   2.2493
B( 60-C , 62-O ) :   1.0549 B( 63-C , 64-C ) :   1.8992 B( 63-C , 85-H ) :   0.9458
B( 64-C , 86-H ) :   0.9442 B( 64-C , 87-H ) :   0.9432

-----------------------------------------------------------------------------
         ABSORPTION SPECTRUM VIA TRANSITION ELECTRIC DIPOLE MOMENTS
-----------------------------------------------------------------------------
State   Energy  Wavelength   fosc         T2         TX        TY        TZ
        (cm-1)    (nm)                  (au**2)     (au)      (au)      (au)
-----------------------------------------------------------------------------
   0    4378.4   2284.0   0.081107407   6.09850  -0.15232   2.45033   0.26676
   1    7780.6   1285.2   0.089652031   3.79334  -0.67090  -0.21306  -1.81600
   2   14207.9    703.8   1.748012112  40.50335   2.80148  -1.44443   5.52890
   3   15397.3    649.5   0.037300582   0.79753  -0.80671  -0.30132  -0.23655
   4   17063.9    586.0   0.240621762   4.64230   0.63994   1.71850   1.13117
   5   18614.9    537.2   0.009805346   0.17341  -0.17851   0.13290  -0.35197
   6   19414.9    515.1   0.650889130  11.03690  -0.66350  -2.81075   1.64206
   7   20727.9    482.4   0.406667588   6.45891   1.52234   2.03485   0.02725
   8   21681.1    461.2   0.504726078   7.66389  -1.99726  -1.87153  -0.41497
   9   22569.5    443.1   0.247387334   3.60854   0.35490  -1.22871   1.40459
  10   23543.5    424.7   0.028834190   0.40319   0.11590   0.01806   0.62405
  11   24870.1    402.1   0.001630938   0.02159   0.08744   0.09269   0.07316
  12   25301.9    395.2   0.076375310   0.99375  -0.72564  -0.60231   0.32313
  13   25855.3    386.8   0.128761521   1.63950   0.94166   0.49565   0.71211
  14   26647.1    375.3   0.020891962   0.25811  -0.37480  -0.33313   0.08162
  15   27200.5    367.6   0.034585742   0.41860   0.03995  -0.34969   0.54288
  16   27855.5    359.0   0.277118004   3.27514  -0.90209  -0.20535  -1.55538
  17   28019.8    356.9   0.198052889   2.32698  -1.06325  -1.02706  -0.37632
  18   28280.3    353.6   0.117286056   1.36533  -0.72365  -0.64639  -0.65104
  19   28879.8    346.3   0.032038429   0.36522  -0.02941  -0.36573   0.48020
  20   29076.4    343.9   0.002507043   0.02839  -0.00386   0.16308  -0.04212
  21   29374.4    340.4   0.085034647   0.95302  -0.69584  -0.18200  -0.66008
  22   30011.2    333.2   0.014057169   0.15420  -0.32169  -0.09561  -0.20391
  23   30048.0    332.8   0.019435720   0.21294  -0.39386  -0.09061  -0.22273
  24   30509.4    327.8   0.058357514   0.62971  -0.34902   0.14588  -0.69758
  25   31120.7    321.3   0.235538311   2.49166  -0.79442   0.60383  -1.22309
  26   31280.9    319.7   0.042762320   0.45005   0.52067   0.36254   0.21798
  27   31892.6    313.6   0.042221837   0.43584  -0.37164  -0.21906  -0.49973
  28   32356.8    309.1   0.000940952   0.00957   0.07512   0.05255  -0.03419
  29   32452.2    308.1   0.008486796   0.08609  -0.06310   0.25892   0.12278
  30   32531.6    307.4   0.049141935   0.49730  -0.10361   0.45632  -0.52758
  31   32898.0    304.0   0.058143945   0.58185  -0.01785   0.61272  -0.45399
  32   33198.0    301.2   0.106934816   1.06043   0.12305   0.67145  -0.77100
  33   33451.1    298.9   0.043788446   0.43095   0.51799   0.29410   0.27593
  34   33581.5    297.8   0.008694375   0.08523   0.08752  -0.22783   0.16022
  35   34096.3    293.3   0.020494842   0.19789   0.12017   0.38802  -0.18135
  36   34429.4    290.4   0.000341393   0.00326  -0.04075  -0.01850  -0.03551
  37   34882.7    286.7   0.007295159   0.06885  -0.16225  -0.20190   0.04200
  38   35010.5    285.6   0.041667826   0.39181   0.41696   0.46358  -0.05520
  39   35153.4    284.5   0.006534101   0.06119  -0.06123   0.20738  -0.12015
  40   35348.4    282.9   0.017580190   0.16373  -0.02642  -0.36600   0.17052
  41   35810.5    279.2   0.062930136   0.57853   0.36388  -0.14940   0.65100
  42   36128.2    276.8   0.014881397   0.13560   0.29174   0.09114   0.20540
  43   36183.1    276.4   0.007809238   0.07105  -0.23202  -0.13005   0.01742
  44   36383.2    274.9   0.004233739   0.03831   0.13510   0.11935  -0.07625
  45   36633.6    273.0   0.057822730   0.51963  -0.17167   0.47503  -0.51430
  46   36680.0    272.6   0.029975668   0.26904  -0.43970   0.00763  -0.27504
  47   36904.9    271.0   0.158812825   1.41670   0.23835  -0.69931   0.93320
  48   37144.6    269.2   0.014360734   0.12728  -0.06127  -0.28918   0.19974
  49   37371.3    267.6   0.084658455   0.74577  -0.38460  -0.74017   0.22360
  50   37647.2    265.6   0.005646440   0.04938   0.09518   0.18176  -0.08532
  51   37777.5    264.7   0.005737380   0.05000  -0.14061  -0.15715  -0.07437
  52   37859.9    264.1   0.097747472   0.84997   0.67380   0.50452   0.37607
  53   38234.6    261.5   0.037766168   0.32518   0.07223   0.51577  -0.23225
  54   38371.9    260.6   0.059702582   0.51222  -0.50843  -0.27844  -0.41975
  55   38572.9    259.2   0.049724254   0.42439  -0.47822  -0.44051   0.04054
  56   38958.2    256.7   0.030269172   0.25579   0.05754   0.45261  -0.21821
  57   39078.1    255.9   0.025626203   0.21589  -0.27786  -0.23995  -0.28479
  58   39227.4    254.9   0.064317013   0.53977  -0.09975  -0.59976   0.41245
  59   39679.0    252.0   0.010778648   0.08943   0.05309   0.23188  -0.18123
  60   39955.4    250.3   0.011065477   0.09117   0.08368   0.04189   0.28708
  61   40003.8    250.0   0.031532594   0.25950  -0.10199  -0.47896   0.14032
  62   40172.5    248.9   0.045430103   0.37230  -0.37060  -0.07277  -0.47923

FINAL SINGLE POINT ENERGY     -7758.242496844893

DIPOLE MOMENT
-------------
                                X             Y             Z
Electronic contribution:    -81.67469      23.52063    -101.19099
Nuclear contribution   :     83.30937     -25.22692     101.18656
                        -----------------------------------------
Total Dipole Moment    :      1.63468      -1.70629      -0.00443
                        -----------------------------------------
Magnitude (a.u.)       :      2.36297
Magnitude (Debye)      :      6.00619

Rotational constants in cm-1:     0.001732     0.000475     0.000397
Rotational constants in MHz :    51.928091    14.238759    11.897104

                             ****ORCA TERMINATED NORMALLY****
TOTAL RUN TIME: 0 days 0 hours 10 minutes 10 seconds 530 msec
