                         Program Version 4.2.0 -  RELEASE  -
|  1> # ORCA input file
|  2> # SCF done       -179.105799715396          0.000858317730
|  3> ! CAM-B3LYP def2-SVP def2/J RIJCOSX Grid4 TightSCF
|  4> %maxcore 5000
|  5> %tddft
|  6>     Mode sTDDFT
|  7>     Ethresh 5.0
|  8>     maxcore 5000
|  9> end
| 10>
| 11> %pal
| 12>   nprocs 6
| 13>   end
| 14> * xyz 0 1
| 15>    C       -7.64161        -0.16470         2.09965
| 16>    C       -6.38653        -0.69383         1.91828
| 17>    C       -6.00165        -1.98318         2.33751
| 18>    N       -5.62580        -3.02474         2.64263
| 19>    C       -5.31281        -0.04280         1.27897
| 20>    N       -4.39052         0.41415         0.76783
| 21>    C       -8.75082        -0.82993         2.77497
| 22>    C       -9.88384         0.01936         2.74080
| 23>    C      -11.08788        -0.32626         3.30260
| 24>    C      -11.17629        -1.56703         3.94287
| 25>    C      -10.03991        -2.40974         3.97247
| 26>    C       -8.82431        -2.06347         3.39522
| 27>    S      -10.36847        -3.89589         4.81111
| 28>    C      -12.00450        -3.37080         5.10836
| 29>    C      -12.29257        -2.14706         4.60579
| 30>   Br      -13.17835        -4.49021         6.04896
| 31>    C       -9.54318         1.26242         2.02444
| 32>    O      -10.31588         2.11507         1.64985
| 33>    C       -8.09163         1.15176         1.70789
| 34>    C       -7.37680         2.10591         1.03871
| 35>    C       -7.77295         3.45574         0.93195
| 36>    O       -7.26047         4.22349        -0.07332
| 37>    C       -8.55592         4.26845         1.73957
| 38>    C       -9.29256         4.32435         3.01528
| 39>    O       -9.45408         3.49996         3.87541
| 40>    N       -9.73736         5.63936         3.07322
| 41>    C       -9.32268         6.45714         2.01931
| 42>    O       -9.58662         7.62582         1.90641
| 43>    C       -8.53406         5.55615         1.17865
| 44>    C       -7.72368         5.49904         0.04296
| 45>    C       -7.37070         6.49695        -0.87332
| 46>    C       -6.50222         6.28774        -1.91984
| 47>    C       -6.14365         7.26555        -2.83926
| 48>    C       -5.24108         7.06867        -3.87243
| 49>    C       -4.83887         8.00788        -4.83902
| 50>    C       -3.91437         7.53082        -5.73218
| 51>    C       -3.54669         6.19685        -5.50391
| 52>    S       -4.40989         5.55014        -4.13338
| 53>    C       -2.61558         5.43274        -6.21122
| 54>    C       -1.84812         5.81891        -7.31701
| 55>    C       -0.99757         4.83674        -7.76578
| 56>    C       -1.06390         3.64586        -7.03329
| 57>    S       -2.24677         3.79065        -5.75487
| 58>    C       -0.30269         2.49422        -7.23820
| 59>    C       -0.39610         1.34975        -6.48571
| 60>    C        0.39431         0.21430        -6.66579
| 61>    C        0.33755        -0.97260        -5.92349
| 62>    C        1.25480        -1.91900        -6.30827
| 63>    C        2.07272        -1.50960        -7.37129
| 64>    S        1.64480         0.10502        -7.88166
| 65>    C        3.10500        -2.21876        -7.97970
| 66>    C        3.56138        -3.51243        -7.66615
| 67>    C        4.60698        -3.92978        -8.43847
| 68>    C        5.02815        -2.98422        -9.40246
| 69>    S        4.03914        -1.54047        -9.29115
| 70>    C        6.05695        -3.15257       -10.29701
| 71>    C        6.50800        -2.24380       -11.26391
| 72>    S        5.83943        -0.64435       -11.55767
| 73>    C        6.93767        -0.28140       -12.82805
| 74>    C        7.80006        -1.33240       -13.04223
| 75>    C        7.55108        -2.42589       -12.16129
| 76>    O        8.40813        -3.43877       -12.39278
| 77>    C        9.20247        -3.00783       -13.41065
| 78>    N       10.21401        -3.88522       -13.87099
| 79>    O       10.90959        -3.47648       -14.78156
| 80>    O       10.31597        -4.96661       -13.33415
| 81>    C        8.89317        -1.74884       -13.85114
| 82>    H      -11.93087         0.34482         3.25898
| 83>    H       -7.98913        -2.74204         3.44358
| 84>    H      -13.25156        -1.67072         4.69762
| 85>    H       -6.44309         1.85653         0.55276
| 86>    H      -10.29442         5.98775         3.84028
| 87>    H       -7.81777         7.46631        -0.71069
| 88>    H       -6.06675         5.30245        -2.03048
| 89>    H       -6.58604         8.24900        -2.75190
| 90>    H       -5.23559         9.00740        -4.85359
| 91>    H       -3.49653         8.11220        -6.53405
| 92>    H       -1.92623         6.79538        -7.75924
| 93>    H       -0.32913         4.95172        -8.60066
| 94>    H        0.41633         2.52696        -8.04751
| 95>    H       -1.12353         1.31067        -5.68462
| 96>    H       -0.36973        -1.10624        -5.12437
| 97>    H        1.35227        -2.88475        -5.84693
| 98>    H        3.11573        -4.10166        -6.88550
| 99>    H        5.08962        -4.88612        -8.34517
|100>    H        6.59450        -4.09143       -10.26443
|101>    H        6.88320         0.66240       -13.32900
|102>    H        9.38689        -1.21790       -14.63818
|103> *
|104>
|105>                          ****END OF INPUT****

CARTESIAN COORDINATES (ANGSTROEM)
---------------------------------
  C     -7.641610   -0.164700    2.099650
  C     -6.386530   -0.693830    1.918280
  C     -6.001650   -1.983180    2.337510
  N     -5.625800   -3.024740    2.642630
  C     -5.312810   -0.042800    1.278970
  N     -4.390520    0.414150    0.767830
  C     -8.750820   -0.829930    2.774970
  C     -9.883840    0.019360    2.740800
  C    -11.087880   -0.326260    3.302600
  C    -11.176290   -1.567030    3.942870
  C    -10.039910   -2.409740    3.972470
  C     -8.824310   -2.063470    3.395220
  S    -10.368470   -3.895890    4.811110
  C    -12.004500   -3.370800    5.108360
  C    -12.292570   -2.147060    4.605790
  Br   -13.178350   -4.490210    6.048960
  C     -9.543180    1.262420    2.024440
  O    -10.315880    2.115070    1.649850
  C     -8.091630    1.151760    1.707890
  C     -7.376800    2.105910    1.038710
  C     -7.772950    3.455740    0.931950
  O     -7.260470    4.223490   -0.073320
  C     -8.555920    4.268450    1.739570
  C     -9.292560    4.324350    3.015280
  O     -9.454080    3.499960    3.875410
  N     -9.737360    5.639360    3.073220
  C     -9.322680    6.457140    2.019310
  O     -9.586620    7.625820    1.906410
  C     -8.534060    5.556150    1.178650
  C     -7.723680    5.499040    0.042960
  C     -7.370700    6.496950   -0.873320
  C     -6.502220    6.287740   -1.919840
  C     -6.143650    7.265550   -2.839260
  C     -5.241080    7.068670   -3.872430
  C     -4.838870    8.007880   -4.839020
  C     -3.914370    7.530820   -5.732180
  C     -3.546690    6.196850   -5.503910
  S     -4.409890    5.550140   -4.133380
  C     -2.615580    5.432740   -6.211220
  C     -1.848120    5.818910   -7.317010
  C     -0.997570    4.836740   -7.765780
  C     -1.063900    3.645860   -7.033290
  S     -2.246770    3.790650   -5.754870
  C     -0.302690    2.494220   -7.238200
  C     -0.396100    1.349750   -6.485710
  C      0.394310    0.214300   -6.665790
  C      0.337550   -0.972600   -5.923490
  C      1.254800   -1.919000   -6.308270
  C      2.072720   -1.509600   -7.371290
  S      1.644800    0.105020   -7.881660
  C      3.105000   -2.218760   -7.979700
  C      3.561380   -3.512430   -7.666150
  C      4.606980   -3.929780   -8.438470
  C      5.028150   -2.984220   -9.402460
  S      4.039140   -1.540470   -9.291150
  C      6.056950   -3.152570  -10.297010
  C      6.508000   -2.243800  -11.263910
  S      5.839430   -0.644350  -11.557670
  C      6.937670   -0.281400  -12.828050
  C      7.800060   -1.332400  -13.042230
  C      7.551080   -2.425890  -12.161290
  O      8.408130   -3.438770  -12.392780
  C      9.202470   -3.007830  -13.410650
  N     10.214010   -3.885220  -13.870990
  O     10.909590   -3.476480  -14.781560
  O     10.315970   -4.966610  -13.334150
  C      8.893170   -1.748840  -13.851140
  H    -11.930870    0.344820    3.258980
  H     -7.989130   -2.742040    3.443580
  H    -13.251560   -1.670720    4.697620
  H     -6.443090    1.856530    0.552760
  H    -10.294420    5.987750    3.840280
  H     -7.817770    7.466310   -0.710690
  H     -6.066750    5.302450   -2.030480
  H     -6.586040    8.249000   -2.751900
  H     -5.235590    9.007400   -4.853590
  H     -3.496530    8.112200   -6.534050
  H     -1.926230    6.795380   -7.759240
  H     -0.329130    4.951720   -8.600660
  H      0.416330    2.526960   -8.047510
  H     -1.123530    1.310670   -5.684620
  H     -0.369730   -1.106240   -5.124370
  H      1.352270   -2.884750   -5.846930
  H      3.115730   -4.101660   -6.885500
  H      5.089620   -4.886120   -8.345170
  H      6.594500   -4.091430  -10.264430
  H      6.883200    0.662400  -13.329000
  H      9.386890   -1.217900  -14.638180

 Total Charge           Charge          ....    0
 Multiplicity           Mult            ....    1
 Number of Electrons    NEL             ....  530
 Basis Dimension        Dim             .... 1085

ORBITAL ENERGIES
----------------

  NO   OCC          E(Eh)            E(eV)
   0   2.0000    -482.879595    -13139.8218
   1   2.0000     -88.986186     -2421.4372
   2   2.0000     -88.967758     -2420.9358
   3   2.0000     -88.963581     -2420.8221
   4   2.0000     -88.960862     -2420.7481
   5   2.0000     -88.958304     -2420.6785
   6   2.0000     -88.953513     -2420.5481
   7   2.0000     -62.557279     -1702.2701
   8   2.0000     -56.391221     -1534.4831
   9   2.0000     -56.388523     -1534.4097
  10   2.0000     -56.388488     -1534.4088
  11   2.0000     -19.318718      -525.6890
  12   2.0000     -19.299972      -525.1789
  13   2.0000     -19.249905      -523.8165
  14   2.0000     -19.247681      -523.7560
  15   2.0000     -19.204964      -522.5936
  16   2.0000     -19.203583      -522.5561
  17   2.0000     -19.201773      -522.5068
  18   2.0000     -14.661670      -398.9643
  19   2.0000     -14.445293      -393.0764
  20   2.0000     -14.407859      -392.0578
  21   2.0000     -14.406237      -392.0136
  22   2.0000     -10.394695      -282.8540
  23   2.0000     -10.392643      -282.7982
  24   2.0000     -10.390652      -282.7440
  25   2.0000     -10.358136      -281.8592
  26   2.0000     -10.356872      -281.8248
  27   2.0000     -10.356277      -281.8086
  28   2.0000     -10.351568      -281.6805
  29   2.0000     -10.349167      -281.6152
  30   2.0000     -10.332350      -281.1575
  31   2.0000     -10.331487      -281.1340
  32   2.0000     -10.328122      -281.0425
  33   2.0000     -10.327983      -281.0387
  34   2.0000     -10.324591      -280.9464
  35   2.0000     -10.323818      -280.9254
  36   2.0000     -10.322898      -280.9003
  37   2.0000     -10.322665      -280.8940
  38   2.0000     -10.321890      -280.8729
  39   2.0000     -10.320095      -280.8241
  40   2.0000     -10.317038      -280.7409
  41   2.0000     -10.316831      -280.7353
  42   2.0000     -10.315119      -280.6887
  43   2.0000     -10.314933      -280.6836
  44   2.0000     -10.311134      -280.5802
  45   2.0000     -10.310848      -280.5724
  46   2.0000     -10.309780      -280.5434
  47   2.0000     -10.307266      -280.4750
  48   2.0000     -10.306699      -280.4595
  49   2.0000     -10.299406      -280.2611
  50   2.0000     -10.299241      -280.2566
  51   2.0000     -10.299060      -280.2517
  52   2.0000     -10.298932      -280.2482
  53   2.0000     -10.298632      -280.2400
  54   2.0000     -10.297227      -280.2018
  55   2.0000     -10.296481      -280.1815
  56   2.0000     -10.295294      -280.1492
  57   2.0000     -10.295176      -280.1460
  58   2.0000     -10.293850      -280.1099
  59   2.0000     -10.293381      -280.0971
  60   2.0000     -10.292938      -280.0851
  61   2.0000     -10.291191      -280.0376
  62   2.0000     -10.291166      -280.0369
  63   2.0000     -10.291128      -280.0358
  64   2.0000     -10.289312      -279.9864
  65   2.0000     -10.289265      -279.9851
  66   2.0000     -10.286041      -279.8974
  67   2.0000     -10.282024      -279.7881
  68   2.0000     -10.281106      -279.7631
  69   2.0000     -10.278469      -279.6914
  70   2.0000     -10.278396      -279.6894
  71   2.0000      -8.786692      -239.0981
  72   2.0000      -8.080693      -219.8868
  73   2.0000      -8.063778      -219.4266
  74   2.0000      -8.059801      -219.3183
  75   2.0000      -8.057117      -219.2453
  76   2.0000      -8.054501      -219.1741
  77   2.0000      -8.049900      -219.0489
  78   2.0000      -6.622929      -180.2191
  79   2.0000      -6.608453      -179.8251
  80   2.0000      -6.608268      -179.8201
  81   2.0000      -6.050038      -164.6299
  82   2.0000      -6.045618      -164.5096
  83   2.0000      -6.043110      -164.4414
  84   2.0000      -6.033491      -164.1796
  85   2.0000      -6.029521      -164.0716
  86   2.0000      -6.029198      -164.0628
  87   2.0000      -6.026685      -163.9944
  88   2.0000      -6.025394      -163.9593
  89   2.0000      -6.024980      -163.9480
  90   2.0000      -6.024039      -163.9224
  91   2.0000      -6.022711      -163.8863
  92   2.0000      -6.020800      -163.8343
  93   2.0000      -6.020044      -163.8137
  94   2.0000      -6.019469      -163.7981
  95   2.0000      -6.018354      -163.7677
  96   2.0000      -6.015807      -163.6984
  97   2.0000      -6.015487      -163.6897
  98   2.0000      -6.011061      -163.5693
  99   2.0000      -2.738844       -74.5277
 100   2.0000      -2.734730       -74.4158
 101   2.0000      -2.734600       -74.4122
 102   2.0000      -2.723085       -74.0989
 103   2.0000      -2.723074       -74.0986
 104   2.0000      -1.333161       -36.2771
 105   2.0000      -1.238935       -33.7131
 106   2.0000      -1.216036       -33.0900
 107   2.0000      -1.149600       -31.2822
 108   2.0000      -1.147936       -31.2369
 109   2.0000      -1.128046       -30.6957
 110   2.0000      -1.118696       -30.4413
 111   2.0000      -1.034591       -28.1526
 112   2.0000      -1.014154       -27.5965
 113   2.0000      -1.012853       -27.5611
 114   2.0000      -1.005662       -27.3654
 115   2.0000      -1.005165       -27.3519
 116   2.0000      -1.004206       -27.3258
 117   2.0000      -0.987843       -26.8806
 118   2.0000      -0.985765       -26.8240
 119   2.0000      -0.982493       -26.7350
 120   2.0000      -0.980707       -26.6864
 121   2.0000      -0.943600       -25.6767
 122   2.0000      -0.937379       -25.5074
 123   2.0000      -0.924847       -25.1664
 124   2.0000      -0.918598       -24.9963
 125   2.0000      -0.916908       -24.9503
 126   2.0000      -0.907659       -24.6987
 127   2.0000      -0.900250       -24.4970
 128   2.0000      -0.899652       -24.4808
 129   2.0000      -0.889163       -24.1954
 130   2.0000      -0.878239       -23.8981
 131   2.0000      -0.877012       -23.8647
 132   2.0000      -0.867254       -23.5992
 133   2.0000      -0.860757       -23.4224
 134   2.0000      -0.852472       -23.1970
 135   2.0000      -0.849353       -23.1121
 136   2.0000      -0.841173       -22.8895
 137   2.0000      -0.832106       -22.6427
 138   2.0000      -0.828902       -22.5556
 139   2.0000      -0.821044       -22.3417
 140   2.0000      -0.817482       -22.2448
 141   2.0000      -0.801214       -21.8021
 142   2.0000      -0.791946       -21.5499
 143   2.0000      -0.780124       -21.2282
 144   2.0000      -0.768381       -20.9087
 145   2.0000      -0.759949       -20.6793
 146   2.0000      -0.753378       -20.5005
 147   2.0000      -0.750395       -20.4193
 148   2.0000      -0.740755       -20.1570
 149   2.0000      -0.725027       -19.7290
 150   2.0000      -0.716756       -19.5039
 151   2.0000      -0.708015       -19.2661
 152   2.0000      -0.696487       -18.9524
 153   2.0000      -0.692258       -18.8373
 154   2.0000      -0.687360       -18.7040
 155   2.0000      -0.683133       -18.5890
 156   2.0000      -0.680900       -18.5282
 157   2.0000      -0.671357       -18.2686
 158   2.0000      -0.661979       -18.0134
 159   2.0000      -0.654594       -17.8124
 160   2.0000      -0.650694       -17.7063
 161   2.0000      -0.648135       -17.6367
 162   2.0000      -0.646993       -17.6056
 163   2.0000      -0.641678       -17.4609
 164   2.0000      -0.638633       -17.3781
 165   2.0000      -0.633459       -17.2373
 166   2.0000      -0.630449       -17.1554
 167   2.0000      -0.623793       -16.9743
 168   2.0000      -0.618377       -16.8269
 169   2.0000      -0.615279       -16.7426
 170   2.0000      -0.609563       -16.5870
 171   2.0000      -0.606636       -16.5074
 172   2.0000      -0.604698       -16.4547
 173   2.0000      -0.597528       -16.2596
 174   2.0000      -0.596603       -16.2344
 175   2.0000      -0.591327       -16.0908
 176   2.0000      -0.587134       -15.9767
 177   2.0000      -0.585241       -15.9252
 178   2.0000      -0.579564       -15.7707
 179   2.0000      -0.575245       -15.6532
 180   2.0000      -0.572645       -15.5825
 181   2.0000      -0.570170       -15.5151
 182   2.0000      -0.561503       -15.2793
 183   2.0000      -0.558765       -15.2048
 184   2.0000      -0.556748       -15.1499
 185   2.0000      -0.544334       -14.8121
 186   2.0000      -0.540372       -14.7043
 187   2.0000      -0.538121       -14.6430
 188   2.0000      -0.532521       -14.4906
 189   2.0000      -0.531739       -14.4694
 190   2.0000      -0.528537       -14.3822
 191   2.0000      -0.526412       -14.3244
 192   2.0000      -0.522714       -14.2238
 193   2.0000      -0.517359       -14.0781
 194   2.0000      -0.515290       -14.0218
 195   2.0000      -0.513270       -13.9668
 196   2.0000      -0.512620       -13.9491
 197   2.0000      -0.509601       -13.8670
 198   2.0000      -0.508858       -13.8467
 199   2.0000      -0.505910       -13.7665
 200   2.0000      -0.504021       -13.7151
 201   2.0000      -0.503161       -13.6917
 202   2.0000      -0.501901       -13.6574
 203   2.0000      -0.499711       -13.5978
 204   2.0000      -0.498836       -13.5740
 205   2.0000      -0.496677       -13.5153
 206   2.0000      -0.488684       -13.2978
 207   2.0000      -0.487974       -13.2784
 208   2.0000      -0.484033       -13.1712
 209   2.0000      -0.483567       -13.1585
 210   2.0000      -0.480703       -13.0806
 211   2.0000      -0.478533       -13.0216
 212   2.0000      -0.476165       -12.9571
 213   2.0000      -0.473858       -12.8943
 214   2.0000      -0.470735       -12.8094
 215   2.0000      -0.467932       -12.7331
 216   2.0000      -0.466415       -12.6918
 217   2.0000      -0.463606       -12.6154
 218   2.0000      -0.462773       -12.5927
 219   2.0000      -0.456979       -12.4350
 220   2.0000      -0.453926       -12.3519
 221   2.0000      -0.449264       -12.2251
 222   2.0000      -0.446090       -12.1387
 223   2.0000      -0.443042       -12.0558
 224   2.0000      -0.441535       -12.0148
 225   2.0000      -0.437464       -11.9040
 226   2.0000      -0.436168       -11.8687
 227   2.0000      -0.435505       -11.8507
 228   2.0000      -0.431277       -11.7356
 229   2.0000      -0.429855       -11.6969
 230   2.0000      -0.426552       -11.6071
 231   2.0000      -0.420959       -11.4549
 232   2.0000      -0.418997       -11.4015
 233   2.0000      -0.416332       -11.3290
 234   2.0000      -0.410737       -11.1767
 235   2.0000      -0.409003       -11.1295
 236   2.0000      -0.405086       -11.0229
 237   2.0000      -0.403305       -10.9745
 238   2.0000      -0.400224       -10.8907
 239   2.0000      -0.395666       -10.7666
 240   2.0000      -0.387807       -10.5528
 241   2.0000      -0.384949       -10.4750
 242   2.0000      -0.379892       -10.3374
 243   2.0000      -0.377544       -10.2735
 244   2.0000      -0.375271       -10.2116
 245   2.0000      -0.369450       -10.0532
 246   2.0000      -0.368901       -10.0383
 247   2.0000      -0.362935        -9.8760
 248   2.0000      -0.358984        -9.7684
 249   2.0000      -0.351519        -9.5653
 250   2.0000      -0.351061        -9.5529
 251   2.0000      -0.344723        -9.3804
 252   2.0000      -0.342837        -9.3291
 253   2.0000      -0.339705        -9.2439
 254   2.0000      -0.337193        -9.1755
 255   2.0000      -0.330974        -9.0062
 256   2.0000      -0.328229        -8.9316
 257   2.0000      -0.326656        -8.8888
 258   2.0000      -0.317004        -8.6261
 259   2.0000      -0.306314        -8.3352
 260   2.0000      -0.296788        -8.0760
 261   2.0000      -0.285762        -7.7760
 262   2.0000      -0.271998        -7.4014
 263   2.0000      -0.241093        -6.5605
 264   2.0000      -0.195421        -5.3177
 265   0.0000      -0.120922        -3.2905
 266   0.0000      -0.089594        -2.4380
 267   0.0000      -0.072731        -1.9791
 268   0.0000      -0.060194        -1.6380
 269   0.0000      -0.051220        -1.3938

MULLIKEN ATOMIC CHARGES
-----------------------
   0 C :    0.312979
   1 C :   -0.362250
   2 C :   -0.187177
   3 N :    0.145086
   4 C :   -0.193633
   5 N :    0.148777
   6 C :    0.023055
   7 C :   -0.005288
   8 C :   -0.069116
   9 C :    0.118163
  10 C :   -0.086417
  11 C :   -0.032204
  12 S :    0.180768
  13 C :   -0.122950
  14 C :    0.038638
  15 Br:    0.018231
  16 C :    0.153648
  17 O :   -0.152879
  18 C :   -0.084800
  19 C :   -0.036514
  20 C :    0.122201
  21 O :   -0.213933
  22 C :   -0.015064
  23 C :    0.181568
  24 O :   -0.145339
  25 N :   -0.163749
  26 C :    0.162721
  27 O :   -0.144723
  28 C :   -0.056619
  29 C :    0.127048
  30 C :   -0.071123
  31 C :    0.046108
  32 C :   -0.020905
  33 C :   -0.008553
  34 C :    0.024271
  35 C :    0.029017
  36 C :   -0.052566
  37 S :    0.095257
  38 C :   -0.032458
  39 C :    0.011938
  40 C :    0.033741
  41 C :   -0.035372
  42 S :    0.101740
  43 C :    0.005331
  44 C :   -0.012745
  45 C :   -0.021116
  46 C :    0.026245
  47 C :    0.025051
  48 C :   -0.047767
  49 S :    0.089295
  50 C :   -0.026608
  51 C :    0.021901
  52 C :    0.042051
  53 C :   -0.033401
  54 S :    0.073755
  55 C :   -0.001843
  56 C :   -0.188822
  57 S :    0.143596
  58 C :   -0.125099
  59 C :    0.122817
  60 C :    0.196055
  61 O :   -0.182216
  62 C :    0.237363
  63 N :    0.273823
  64 O :   -0.247639
  65 O :   -0.228092
  66 C :   -0.070983
  67 H :   -0.010738
  68 H :   -0.007648
  69 H :   -0.004475
  70 H :    0.026355
  71 H :    0.136637
  72 H :    0.006989
  73 H :    0.015247
  74 H :   -0.011815
  75 H :   -0.011417
  76 H :   -0.010982
  77 H :   -0.012955
  78 H :   -0.009270
  79 H :   -0.001949
  80 H :    0.003043
  81 H :   -0.001140
  82 H :   -0.007634
  83 H :   -0.007073
  84 H :   -0.004642
  85 H :    0.010539
  86 H :    0.035779
  87 H :    0.014878
Sum of atomic charges:   -0.0000000

LOEWDIN ATOMIC CHARGES
----------------------
   0 C :    0.074866
   1 C :   -0.146898
   2 C :   -0.018366
   3 N :   -0.061271
   4 C :   -0.020356
   5 N :   -0.059571
   6 C :   -0.018227
   7 C :   -0.042894
   8 C :    0.024088
   9 C :   -0.032743
  10 C :   -0.143858
  11 C :   -0.012619
  12 S :    0.428307
  13 C :   -0.273037
  14 C :   -0.069936
  15 Br:    0.133204
  16 C :    0.087495
  17 O :   -0.138490
  18 C :   -0.083694
  19 C :    0.042604
  20 C :    0.039807
  21 O :    0.008848
  22 C :   -0.044557
  23 C :    0.089886
  24 O :   -0.149746
  25 N :   -0.004052
  26 C :    0.085406
  27 O :   -0.161890
  28 C :   -0.107363
  29 C :    0.088901
  30 C :   -0.068576
  31 C :    0.011374
  32 C :   -0.073837
  33 C :   -0.125926
  34 C :   -0.048497
  35 C :   -0.021451
  36 C :   -0.192501
  37 S :    0.394550
  38 C :   -0.160724
  39 C :   -0.045075
  40 C :   -0.026503
  41 C :   -0.158617
  42 S :    0.400272
  43 C :   -0.039479
  44 C :   -0.064639
  45 C :   -0.136002
  46 C :   -0.035653
  47 C :   -0.026330
  48 C :   -0.180806
  49 S :    0.389258
  50 C :   -0.167412
  51 C :   -0.036992
  52 C :   -0.022859
  53 C :   -0.156400
  54 S :    0.375743
  55 C :   -0.055756
  56 C :   -0.205521
  57 S :    0.473409
  58 C :   -0.183487
  59 C :   -0.084204
  60 C :    0.024223
  61 O :    0.004664
  62 C :    0.026725
  63 N :    0.271955
  64 O :   -0.208415
  65 O :   -0.190193
  66 C :   -0.007843
  67 H :    0.041190
  68 H :    0.040212
  69 H :    0.038480
  70 H :    0.050070
  71 H :    0.093926
  72 H :    0.043590
  73 H :    0.028053
  74 H :    0.034322
  75 H :    0.034014
  76 H :    0.033034
  77 H :    0.032039
  78 H :    0.034964
  79 H :    0.030213
  80 H :    0.031872
  81 H :    0.038181
  82 H :    0.034398
  83 H :    0.034804
  84 H :    0.037030
  85 H :    0.048908
  86 H :    0.030383
  87 H :    0.047999

  Mayer bond orders larger than 0.100000
B(  0-C ,  1-C ) :   1.6078 B(  0-C ,  6-C ) :   1.0028 B(  0-C , 18-C ) :   1.1058
B(  1-C ,  2-C ) :   1.1490 B(  1-C ,  4-C ) :   1.1488 B(  2-C ,  3-N ) :   2.9663
B(  4-C ,  5-N ) :   2.9723 B(  6-C ,  7-C ) :   1.2757 B(  6-C , 11-C ) :   1.4067
B(  7-C ,  8-C ) :   1.4301 B(  7-C , 16-C ) :   0.9347 B(  8-C ,  9-C ) :   1.2442
B(  8-C , 67-H ) :   1.0155 B(  9-C , 10-C ) :   1.3080 B(  9-C , 14-C ) :   1.1605
B( 10-C , 11-C ) :   1.3316 B( 10-C , 12-S ) :   1.0830 B( 11-C , 68-H ) :   0.9793
B( 12-S , 13-C ) :   1.0854 B( 13-C , 14-C ) :   1.6197 B( 13-C , 15-Br) :   1.0165
B( 14-C , 69-H ) :   1.0004 B( 16-C , 17-O ) :   2.2192 B( 16-C , 18-C ) :   0.9368
B( 18-C , 19-C ) :   1.5417 B( 19-C , 20-C ) :   1.2120 B( 19-C , 70-H ) :   0.9336
B( 20-C , 21-O ) :   1.1073 B( 20-C , 22-C ) :   1.3932 B( 21-O , 29-C ) :   1.1612
B( 22-C , 23-C ) :   0.8638 B( 22-C , 28-C ) :   1.3546 B( 23-C , 24-O ) :   2.2324
B( 23-C , 25-N ) :   1.0956 B( 25-N , 26-C ) :   1.0674 B( 25-N , 71-H ) :   0.9158
B( 26-C , 27-O ) :   2.2654 B( 26-C , 28-C ) :   0.8914 B( 28-C , 29-C ) :   1.2827
B( 29-C , 30-C ) :   1.2526 B( 30-C , 31-C ) :   1.4825 B( 30-C , 72-H ) :   0.9693
B( 31-C , 32-C ) :   1.2363 B( 31-C , 73-H ) :   0.9793 B( 32-C , 33-C ) :   1.4414
B( 32-C , 74-H ) :   0.9864 B( 33-C , 34-C ) :   1.2096 B( 33-C , 37-S ) :   1.0674
B( 34-C , 35-C ) :   1.5036 B( 34-C , 75-H ) :   1.0005 B( 35-C , 36-C ) :   1.2643
B( 35-C , 76-H ) :   0.9949 B( 36-C , 37-S ) :   1.0568 B( 36-C , 38-C ) :   1.3876
B( 38-C , 39-C ) :   1.2666 B( 38-C , 42-S ) :   1.0823 B( 39-C , 40-C ) :   1.4887
B( 39-C , 77-H ) :   0.9956 B( 40-C , 41-C ) :   1.2337 B( 40-C , 78-H ) :   1.0011
B( 41-C , 42-S ) :   1.0527 B( 41-C , 43-C ) :   1.4391 B( 43-C , 44-C ) :   1.2893
B( 43-C , 79-H ) :   0.9725 B( 44-C , 45-C ) :   1.4391 B( 44-C , 80-H ) :   0.9735
B( 45-C , 46-C ) :   1.2223 B( 45-C , 49-S ) :   1.0650 B( 46-C , 47-C ) :   1.5064
B( 46-C , 81-H ) :   1.0021 B( 47-C , 48-C ) :   1.2461 B( 47-C , 82-H ) :   0.9953
B( 48-C , 49-S ) :   1.0552 B( 48-C , 50-C ) :   1.4364 B( 50-C , 51-C ) :   1.2182
B( 50-C , 54-S ) :   1.0600 B( 51-C , 52-C ) :   1.5586 B( 51-C , 83-H ) :   0.9946
B( 52-C , 53-C ) :   1.1621 B( 52-C , 84-H ) :   1.0007 B( 53-C , 54-S ) :   1.0346
B( 53-C , 55-C ) :   1.5398 B( 55-C , 56-C ) :   1.1961 B( 55-C , 85-H ) :   0.9731
B( 56-C , 57-S ) :   1.1014 B( 56-C , 58-C ) :   0.1054 B( 56-C , 60-C ) :   1.4254
B( 57-S , 58-C ) :   1.1906 B( 58-C , 59-C ) :   1.4116 B( 58-C , 86-H ) :   0.9750
B( 59-C , 60-C ) :   1.2356 B( 59-C , 66-C ) :   1.0592 B( 60-C , 61-O ) :   1.1280
B( 61-O , 62-C ) :   1.1211 B( 62-C , 63-N ) :   0.9145 B( 62-C , 66-C ) :   1.5786
B( 63-N , 64-O ) :   1.5345 B( 63-N , 65-O ) :   1.5155 B( 64-O , 65-O ) :   0.2814
B( 66-C , 87-H ) :   1.0271

-----------------------------------------------------------------------------
         ABSORPTION SPECTRUM VIA TRANSITION ELECTRIC DIPOLE MOMENTS
-----------------------------------------------------------------------------
State   Energy  Wavelength   fosc         T2         TX        TY        TZ
        (cm-1)    (nm)                  (au**2)     (au)      (au)      (au)
-----------------------------------------------------------------------------
   0    5303.6   1885.5   0.957085938  59.40899   5.64498  -2.55168  -4.58607
   1   11726.7    852.8   0.295194345   8.28717   0.89911  -2.71510   0.32711
   2   13771.5    726.1   0.386943116   9.24999  -0.89198   2.86912  -0.47172
   3   16313.7    613.0   0.004028798   0.08130   0.26843  -0.03211   0.09065
   4   18432.7    542.5   0.113657026   2.02994   0.07700  -1.14694   0.84174
   5   20164.8    495.9   0.011471823   0.18729   0.16398   0.34290   0.20692
   6   20438.6    489.3   0.310800578   5.00618  -0.02525   2.11388  -0.73284
   7   21707.5    460.7   0.136860194   2.07560  -0.32562   1.40300  -0.03405
   8   23786.3    420.4   0.154341683   2.13615   0.55025   0.84471  -1.05823
   9   25254.2    396.0   0.288625398   3.76249   1.33874   0.71204  -1.20965
  10   25499.7    392.2   0.356754874   4.60586   0.62927   1.19448  -1.66826
  11   25811.6    387.4   0.560933409   7.15437   1.22819   1.51748  -1.82844
  12   26344.5    379.6   0.006410059   0.08010   0.09519  -0.10540   0.24481
  13   27826.5    359.4   0.125335387   1.48283   0.83774  -0.01698  -0.88359
  14   28238.1    354.1   0.033772195   0.39373   0.54081  -0.07674  -0.30882
  15   28643.4    349.1   0.049976738   0.57441  -0.14126  -0.64828   0.36631
  16   28823.9    346.9   0.065005200   0.74246  -0.21429   0.82731  -0.10997
  17   29330.9    340.9   0.031939430   0.35849   0.24198   0.54523   0.05156
  18   29692.0    336.8   0.006330374   0.07019  -0.18092   0.14345   0.12991
  19   29813.4    335.4   0.025200305   0.27827  -0.30042   0.23657   0.36340
  20   30040.2    332.9   0.118215191   1.29553  -0.96175  -0.54268   0.27581
  21   30097.1    332.3   0.002043581   0.02235   0.10094   0.09456  -0.05676
  22   30950.8    323.1   0.003769615   0.04010   0.09798  -0.01791  -0.17371
  23   31480.6    317.7   0.148996034   1.55814  -0.75017  -0.08946   0.99367
  24   31772.5    314.7   0.001754199   0.01818   0.02634   0.05322   0.12104
  25   32284.3    309.7   0.054106450   0.55174   0.57430  -0.16315  -0.44193
  26   32426.9    308.4   0.001906695   0.01936   0.04281  -0.12124  -0.05317
  27   32536.6    307.3   0.027372888   0.27696   0.30139  -0.42325   0.08358
  28   32645.1    306.3   0.307048620   3.09646   1.39798   0.84122  -0.65914
  29   33102.9    302.1   0.002699719   0.02685   0.09052   0.01377  -0.13589
  30   33314.7    300.2   0.021622530   0.21367   0.33462   0.20913  -0.24077
  31   33499.3    298.5   0.020273470   0.19924  -0.32681   0.30252   0.03022
  32   34334.5    291.3   0.073202719   0.70189   0.71234   0.40117  -0.18308
  33   34371.0    290.9   0.291414487   2.79122  -1.44350   0.06454   0.83866
  34   34593.4    289.1   0.094177026   0.89625  -0.55787   0.75780   0.10378
  35   34830.4    287.1   0.009721917   0.09189   0.07280  -0.28310   0.08027
  36   35405.2    282.4   0.051188502   0.47597   0.34335  -0.59839  -0.00253
  37   35722.7    279.9   0.011459175   0.10561   0.14214  -0.28754   0.05216
  38   36035.0    277.5   0.007796177   0.07123  -0.04998  -0.24115   0.10284
  39   36195.1    276.3   0.022871390   0.20803  -0.37679  -0.14874   0.20960
  40   36475.8    274.2   0.032687612   0.29502   0.13598   0.52022  -0.07685
  41   37565.4    266.2   0.006081046   0.05329   0.10050  -0.09918  -0.18264
  42   37682.5    265.4   0.076107144   0.66491  -0.59602   0.54813   0.09603
  43   37854.3    264.2   0.012830582   0.11159   0.02237  -0.33096   0.03941
  44   37941.4    263.6   0.071852231   0.62345  -0.09796  -0.63348   0.46104
  45   38209.3    261.7   0.315693694   2.72003   1.15688  -1.04021  -0.54738
  46   38726.0    258.2   0.106538369   0.90569  -0.75138   0.55555   0.18025
  47   39229.3    254.9   0.022916745   0.19232   0.14005  -0.39804  -0.11945
  48   39410.7    253.7   0.017244037   0.14405  -0.32399   0.16433   0.10986
  49   39454.8    253.5   0.004621159   0.03856   0.17306  -0.09236   0.00896
  50   39555.3    252.8   0.001212954   0.01010   0.01806  -0.05377   0.08293
  51   39850.6    250.9   0.027642473   0.22836  -0.11209   0.38391  -0.26155
  52   40115.3    249.3   0.120937129   0.99249  -0.64990   0.75369  -0.04556

FINAL SINGLE POINT ENERGY     -7584.328666621894

DIPOLE MOMENT
-------------
                                X             Y             Z
Electronic contribution:   -108.55392     -71.86374     110.10656
Nuclear contribution   :    109.12731      73.29103    -112.93669
                        -----------------------------------------
Total Dipole Moment    :      0.57340       1.42729      -2.83013
                        -----------------------------------------
Magnitude (a.u.)       :      3.22111
Magnitude (Debye)      :      8.18742

Rotational constants in cm-1:     0.001026     0.000178     0.000153
Rotational constants in MHz :    30.759373     5.339800     4.596976

                             ****ORCA TERMINATED NORMALLY****
TOTAL RUN TIME: 0 days 0 hours 13 minutes 23 seconds 667 msec
