                         Program Version 4.2.0 -  RELEASE  -
|  1> # ORCA input file
|  2> # SCF done       -158.972050790008          0.000768422558
|  3> ! CAM-B3LYP def2-SVP def2/J RIJCOSX Grid4 TightSCF
|  4> %maxcore 5000
|  5> %tddft
|  6>     Mode sTDDFT
|  7>     Ethresh 5.0
|  8>     maxcore 5000
|  9> end
| 10>
| 11> %pal
| 12>   nprocs 6
| 13>   end
| 14> * xyz 0 1
| 15>    C       -8.17451         1.01382        11.88594
| 16>    C       -8.36465        -0.32606        11.62244
| 17>    C       -8.09567        -1.35768        12.54128
| 18>    N       -7.90090        -2.24858        13.24094
| 19>    C       -8.84383        -0.86918        10.41528
| 20>    N       -9.22731        -1.40393         9.47208
| 21>    C       -7.66524         1.55246        13.14776
| 22>    C       -7.59116         2.96171        13.03899
| 23>    C       -7.15150         3.76299        14.06239
| 24>    C       -6.76712         3.14342        15.25741
| 25>    C       -6.84577         1.73627        15.35773
| 26>    C       -7.28915         0.92480        14.31891
| 27>    S       -6.32833         1.17700        16.92071
| 28>    C       -6.01814         2.82173        17.40934
| 29>    C       -6.28676         3.74270        16.45469
| 30>   Br       -5.37146         3.16800        19.13685
| 31>    C       -8.05956         3.36942        11.69583
| 32>    O       -8.12154         4.51079        11.27732
| 33>    C       -8.42585         2.12087        11.00648
| 34>    C       -8.94773         2.05667         9.72329
| 35>    C       -9.19428         3.15170         8.91220
| 36>    C       -9.75209         3.04975         7.64476
| 37>    C      -10.06247         4.11043         6.77540
| 38>    C      -10.63678         3.71486         5.59479
| 39>    C      -10.79513         2.32534         5.48645
| 40>    S      -10.19453         1.52360         6.91537
| 41>    C      -11.35793         1.60687         4.42973
| 42>    C      -11.93488         2.10970         3.25524
| 43>    C      -12.42768         1.13371         2.42397
| 44>    C      -12.24954        -0.16975         2.90618
| 45>    S      -11.43798        -0.13301         4.45519
| 46>    C      -12.64647        -1.35401         2.28814
| 47>    C      -12.40657        -2.61225         2.78863
| 48>    C      -12.81515        -3.79968         2.18721
| 49>    C      -12.55298        -5.10136         2.64254
| 50>    C      -13.08002        -6.08929         1.85266
| 51>    C      -13.79138        -5.60431         0.74190
| 52>    S      -13.76147        -3.85502         0.71940
| 53>    C      -14.45947        -6.33693        -0.22874
| 54>    C      -14.54682        -7.74141        -0.34199
| 55>    C      -15.28982        -8.16322        -1.40017
| 56>    C      -15.84640        -7.11700        -2.18996
| 57>    S      -15.35118        -5.56802        -1.51659
| 58>    C      -16.65321        -7.31644        -3.27171
| 59>    C      -17.30714        -6.35654        -4.12033
| 60>    C      -17.16261        -5.01387        -4.07706
| 61>    C      -18.18272        -6.92008        -5.08366
| 62>    C      -18.94085        -7.40222        -5.89338
| 63>    C      -19.82620        -7.93411        -6.83523
| 64>    C      -19.76408        -9.21051        -7.25110
| 65>    C      -20.58424        -9.82987        -8.26685
| 66>    C      -21.85724        -9.52562        -8.61851
| 67>    O      -22.48857       -10.09000        -9.71984
| 68>    C      -21.77164       -11.03631       -10.38727
| 69>    C      -20.46018       -11.41156        -9.97456
| 70>    C      -19.92007       -12.37811       -10.75486
| 71>    S      -21.00682       -12.84857       -12.01120
| 72>    C      -22.20055       -11.72494       -11.47233
| 73>    O      -19.84633       -10.82102        -8.91229
| 74>    C      -22.79570        -8.64461        -7.93426
| 75>    C      -22.90988        -8.47604        -6.62339
| 76>    H       -7.10658         4.83474        13.94773
| 77>    H       -7.33008        -0.14371        14.44759
| 78>    H       -6.15354         4.80103        16.58649
| 79>    H       -9.19505         1.08196         9.32075
| 80>    H       -8.95743         4.14069         9.27716
| 81>    H       -9.86119         5.13266         7.04171
| 82>    H      -10.94060         4.39089         4.81593
| 83>    H      -11.98558         3.16249         3.04480
| 84>    H      -12.90938         1.32851         1.48200
| 85>    H      -13.17513        -1.25990         1.34746
| 86>    H      -11.85629        -2.70442         3.71660
| 87>    H      -11.98279        -5.28042         3.53677
| 88>    H      -12.97564        -7.14029         2.05223
| 89>    H      -14.06149        -8.39912         0.35622
| 90>    H      -15.46757        -9.19560        -1.64435
| 91>    H      -16.85599        -8.35242        -3.51628
| 92>    H      -16.50370        -4.52361        -3.38530
| 93>    H      -17.70787        -4.38745        -4.76143
| 94>    H      -20.57787        -7.25712        -7.21830
| 95>    H      -18.95737        -9.84362        -6.90448
| 96>    H      -18.95773       -12.83668       -10.66769
| 97>    H      -23.13758       -11.63925       -11.98116
| 98>    H      -23.52090        -8.20333        -8.60593
| 99>    H      -22.24226        -8.94756        -5.92287
|100>    H      -23.67902        -7.84726        -6.21065
|101> *
|102>
|103>                          ****END OF INPUT****

CARTESIAN COORDINATES (ANGSTROEM)
---------------------------------
  C     -8.174510    1.013820   11.885940
  C     -8.364650   -0.326060   11.622440
  C     -8.095670   -1.357680   12.541280
  N     -7.900900   -2.248580   13.240940
  C     -8.843830   -0.869180   10.415280
  N     -9.227310   -1.403930    9.472080
  C     -7.665240    1.552460   13.147760
  C     -7.591160    2.961710   13.038990
  C     -7.151500    3.762990   14.062390
  C     -6.767120    3.143420   15.257410
  C     -6.845770    1.736270   15.357730
  C     -7.289150    0.924800   14.318910
  S     -6.328330    1.177000   16.920710
  C     -6.018140    2.821730   17.409340
  C     -6.286760    3.742700   16.454690
  Br    -5.371460    3.168000   19.136850
  C     -8.059560    3.369420   11.695830
  O     -8.121540    4.510790   11.277320
  C     -8.425850    2.120870   11.006480
  C     -8.947730    2.056670    9.723290
  C     -9.194280    3.151700    8.912200
  C     -9.752090    3.049750    7.644760
  C    -10.062470    4.110430    6.775400
  C    -10.636780    3.714860    5.594790
  C    -10.795130    2.325340    5.486450
  S    -10.194530    1.523600    6.915370
  C    -11.357930    1.606870    4.429730
  C    -11.934880    2.109700    3.255240
  C    -12.427680    1.133710    2.423970
  C    -12.249540   -0.169750    2.906180
  S    -11.437980   -0.133010    4.455190
  C    -12.646470   -1.354010    2.288140
  C    -12.406570   -2.612250    2.788630
  C    -12.815150   -3.799680    2.187210
  C    -12.552980   -5.101360    2.642540
  C    -13.080020   -6.089290    1.852660
  C    -13.791380   -5.604310    0.741900
  S    -13.761470   -3.855020    0.719400
  C    -14.459470   -6.336930   -0.228740
  C    -14.546820   -7.741410   -0.341990
  C    -15.289820   -8.163220   -1.400170
  C    -15.846400   -7.117000   -2.189960
  S    -15.351180   -5.568020   -1.516590
  C    -16.653210   -7.316440   -3.271710
  C    -17.307140   -6.356540   -4.120330
  C    -17.162610   -5.013870   -4.077060
  C    -18.182720   -6.920080   -5.083660
  C    -18.940850   -7.402220   -5.893380
  C    -19.826200   -7.934110   -6.835230
  C    -19.764080   -9.210510   -7.251100
  C    -20.584240   -9.829870   -8.266850
  C    -21.857240   -9.525620   -8.618510
  O    -22.488570  -10.090000   -9.719840
  C    -21.771640  -11.036310  -10.387270
  C    -20.460180  -11.411560   -9.974560
  C    -19.920070  -12.378110  -10.754860
  S    -21.006820  -12.848570  -12.011200
  C    -22.200550  -11.724940  -11.472330
  O    -19.846330  -10.821020   -8.912290
  C    -22.795700   -8.644610   -7.934260
  C    -22.909880   -8.476040   -6.623390
  H     -7.106580    4.834740   13.947730
  H     -7.330080   -0.143710   14.447590
  H     -6.153540    4.801030   16.586490
  H     -9.195050    1.081960    9.320750
  H     -8.957430    4.140690    9.277160
  H     -9.861190    5.132660    7.041710
  H    -10.940600    4.390890    4.815930
  H    -11.985580    3.162490    3.044800
  H    -12.909380    1.328510    1.482000
  H    -13.175130   -1.259900    1.347460
  H    -11.856290   -2.704420    3.716600
  H    -11.982790   -5.280420    3.536770
  H    -12.975640   -7.140290    2.052230
  H    -14.061490   -8.399120    0.356220
  H    -15.467570   -9.195600   -1.644350
  H    -16.855990   -8.352420   -3.516280
  H    -16.503700   -4.523610   -3.385300
  H    -17.707870   -4.387450   -4.761430
  H    -20.577870   -7.257120   -7.218300
  H    -18.957370   -9.843620   -6.904480
  H    -18.957730  -12.836680  -10.667690
  H    -23.137580  -11.639250  -11.981160
  H    -23.520900   -8.203330   -8.605930
  H    -22.242260   -8.947560   -5.922870
  H    -23.679020   -7.847260   -6.210650

 Total Charge           Charge          ....    0
 Multiplicity           Mult            ....    1
 Number of Electrons    NEL             ....  488
 Basis Dimension        Dim             .... 1021

ORBITAL ENERGIES
----------------

  NO   OCC          E(Eh)            E(eV)
   0   2.0000    -482.871065    -13139.5897
   1   2.0000     -88.966581     -2420.9038
   2   2.0000     -88.965392     -2420.8714
   3   2.0000     -88.960637     -2420.7420
   4   2.0000     -88.957534     -2420.6576
   5   2.0000     -88.954394     -2420.5721
   6   2.0000     -88.951787     -2420.5012
   7   2.0000     -62.548755     -1702.0382
   8   2.0000     -56.382686     -1534.2509
   9   2.0000     -56.380009     -1534.1780
  10   2.0000     -56.379968     -1534.1769
  11   2.0000     -19.270678      -524.3818
  12   2.0000     -19.268366      -524.3189
  13   2.0000     -19.189115      -522.1624
  14   2.0000     -14.390668      -391.5900
  15   2.0000     -14.388154      -391.5216
  16   2.0000     -10.343647      -281.4649
  17   2.0000     -10.341982      -281.4196
  18   2.0000     -10.341141      -281.3968
  19   2.0000     -10.339251      -281.3453
  20   2.0000     -10.337046      -281.2853
  21   2.0000     -10.336780      -281.2781
  22   2.0000     -10.334263      -281.2096
  23   2.0000     -10.329663      -281.0844
  24   2.0000     -10.328949      -281.0650
  25   2.0000     -10.328486      -281.0524
  26   2.0000     -10.325558      -280.9727
  27   2.0000     -10.317193      -280.7451
  28   2.0000     -10.315787      -280.7068
  29   2.0000     -10.313029      -280.6318
  30   2.0000     -10.312778      -280.6250
  31   2.0000     -10.310589      -280.5654
  32   2.0000     -10.309817      -280.5444
  33   2.0000     -10.306226      -280.4467
  34   2.0000     -10.304928      -280.4113
  35   2.0000     -10.304771      -280.4071
  36   2.0000     -10.304195      -280.3914
  37   2.0000     -10.303617      -280.3757
  38   2.0000     -10.300117      -280.2804
  39   2.0000     -10.299913      -280.2749
  40   2.0000     -10.298664      -280.2409
  41   2.0000     -10.295347      -280.1506
  42   2.0000     -10.295338      -280.1504
  43   2.0000     -10.295225      -280.1473
  44   2.0000     -10.294965      -280.1402
  45   2.0000     -10.294264      -280.1212
  46   2.0000     -10.293222      -280.0928
  47   2.0000     -10.292674      -280.0779
  48   2.0000     -10.291500      -280.0460
  49   2.0000     -10.291011      -280.0326
  50   2.0000     -10.286540      -279.9110
  51   2.0000     -10.286291      -279.9042
  52   2.0000     -10.285211      -279.8748
  53   2.0000     -10.284775      -279.8630
  54   2.0000     -10.284442      -279.8539
  55   2.0000     -10.282699      -279.8065
  56   2.0000     -10.281596      -279.7765
  57   2.0000     -10.279743      -279.7260
  58   2.0000     -10.278989      -279.7055
  59   2.0000     -10.276196      -279.6295
  60   2.0000     -10.275683      -279.6155
  61   2.0000     -10.272908      -279.5400
  62   2.0000     -10.268236      -279.4129
  63   2.0000     -10.263844      -279.2934
  64   2.0000     -10.262414      -279.2545
  65   2.0000      -8.778163      -238.8660
  66   2.0000      -8.062475      -219.3911
  67   2.0000      -8.061732      -219.3709
  68   2.0000      -8.056943      -219.2406
  69   2.0000      -8.053418      -219.1446
  70   2.0000      -8.050248      -219.0584
  71   2.0000      -8.047671      -218.9883
  72   2.0000      -6.614361      -179.9859
  73   2.0000      -6.599934      -179.5933
  74   2.0000      -6.599782      -179.5892
  75   2.0000      -6.032196      -164.1444
  76   2.0000      -6.031344      -164.1212
  77   2.0000      -6.028084      -164.0325
  78   2.0000      -6.027330      -164.0120
  79   2.0000      -6.026472      -163.9886
  80   2.0000      -6.023508      -163.9080
  81   2.0000      -6.023136      -163.8979
  82   2.0000      -6.022874      -163.8907
  83   2.0000      -6.022428      -163.8786
  84   2.0000      -6.019778      -163.8065
  85   2.0000      -6.018842      -163.7810
  86   2.0000      -6.018243      -163.7647
  87   2.0000      -6.017188      -163.7360
  88   2.0000      -6.015612      -163.6931
  89   2.0000      -6.014670      -163.6675
  90   2.0000      -6.013164      -163.6265
  91   2.0000      -6.011858      -163.5910
  92   2.0000      -6.009050      -163.5146
  93   2.0000      -2.730264       -74.2943
  94   2.0000      -2.726187       -74.1833
  95   2.0000      -2.726078       -74.1804
  96   2.0000      -2.714602       -73.8681
  97   2.0000      -2.714595       -73.8679
  98   2.0000      -1.194747       -32.5107
  99   2.0000      -1.157136       -31.4873
 100   2.0000      -1.102153       -29.9911
 101   2.0000      -1.014863       -27.6158
 102   2.0000      -1.006535       -27.3892
 103   2.0000      -1.000953       -27.2373
 104   2.0000      -0.992742       -27.0139
 105   2.0000      -0.989482       -26.9252
 106   2.0000      -0.983002       -26.7488
 107   2.0000      -0.982163       -26.7260
 108   2.0000      -0.968864       -26.3641
 109   2.0000      -0.964871       -26.2555
 110   2.0000      -0.935628       -25.4597
 111   2.0000      -0.925100       -25.1732
 112   2.0000      -0.922192       -25.0941
 113   2.0000      -0.918746       -25.0003
 114   2.0000      -0.896989       -24.4083
 115   2.0000      -0.891072       -24.2473
 116   2.0000      -0.886421       -24.1208
 117   2.0000      -0.881735       -23.9932
 118   2.0000      -0.867124       -23.5956
 119   2.0000      -0.864239       -23.5171
 120   2.0000      -0.860453       -23.4141
 121   2.0000      -0.854216       -23.2444
 122   2.0000      -0.853170       -23.2159
 123   2.0000      -0.847063       -23.0498
 124   2.0000      -0.839149       -22.8344
 125   2.0000      -0.829405       -22.5693
 126   2.0000      -0.827913       -22.5287
 127   2.0000      -0.825083       -22.4516
 128   2.0000      -0.812217       -22.1015
 129   2.0000      -0.808568       -22.0023
 130   2.0000      -0.802190       -21.8287
 131   2.0000      -0.793526       -21.5929
 132   2.0000      -0.778964       -21.1967
 133   2.0000      -0.760988       -20.7075
 134   2.0000      -0.752927       -20.4882
 135   2.0000      -0.738246       -20.0887
 136   2.0000      -0.733048       -19.9472
 137   2.0000      -0.719392       -19.5756
 138   2.0000      -0.712241       -19.3811
 139   2.0000      -0.700001       -19.0480
 140   2.0000      -0.694035       -18.8856
 141   2.0000      -0.688249       -18.7282
 142   2.0000      -0.674368       -18.3505
 143   2.0000      -0.672148       -18.2901
 144   2.0000      -0.666899       -18.1472
 145   2.0000      -0.665260       -18.1026
 146   2.0000      -0.652620       -17.7587
 147   2.0000      -0.651524       -17.7289
 148   2.0000      -0.648999       -17.6602
 149   2.0000      -0.644006       -17.5243
 150   2.0000      -0.638819       -17.3831
 151   2.0000      -0.635549       -17.2942
 152   2.0000      -0.629530       -17.1304
 153   2.0000      -0.618902       -16.8412
 154   2.0000      -0.611409       -16.6373
 155   2.0000      -0.609541       -16.5864
 156   2.0000      -0.609032       -16.5726
 157   2.0000      -0.600876       -16.3507
 158   2.0000      -0.598034       -16.2733
 159   2.0000      -0.589546       -16.0424
 160   2.0000      -0.582021       -15.8376
 161   2.0000      -0.577367       -15.7109
 162   2.0000      -0.573841       -15.6150
 163   2.0000      -0.572333       -15.5740
 164   2.0000      -0.569440       -15.4953
 165   2.0000      -0.560495       -15.2518
 166   2.0000      -0.557743       -15.1770
 167   2.0000      -0.545369       -14.8402
 168   2.0000      -0.543961       -14.8019
 169   2.0000      -0.541245       -14.7280
 170   2.0000      -0.534103       -14.5337
 171   2.0000      -0.528211       -14.3734
 172   2.0000      -0.522638       -14.2217
 173   2.0000      -0.519558       -14.1379
 174   2.0000      -0.516244       -14.0477
 175   2.0000      -0.515462       -14.0264
 176   2.0000      -0.513360       -13.9692
 177   2.0000      -0.512771       -13.9532
 178   2.0000      -0.510262       -13.8849
 179   2.0000      -0.506686       -13.7876
 180   2.0000      -0.506010       -13.7692
 181   2.0000      -0.503623       -13.7043
 182   2.0000      -0.502708       -13.6794
 183   2.0000      -0.499874       -13.6023
 184   2.0000      -0.494502       -13.4561
 185   2.0000      -0.493549       -13.4302
 186   2.0000      -0.488556       -13.2943
 187   2.0000      -0.487015       -13.2524
 188   2.0000      -0.485809       -13.2195
 189   2.0000      -0.483186       -13.1482
 190   2.0000      -0.479451       -13.0465
 191   2.0000      -0.477255       -12.9868
 192   2.0000      -0.474040       -12.8993
 193   2.0000      -0.473338       -12.8802
 194   2.0000      -0.472775       -12.8649
 195   2.0000      -0.471358       -12.8263
 196   2.0000      -0.468714       -12.7544
 197   2.0000      -0.467755       -12.7283
 198   2.0000      -0.464554       -12.6412
 199   2.0000      -0.457989       -12.4625
 200   2.0000      -0.453031       -12.3276
 201   2.0000      -0.451579       -12.2881
 202   2.0000      -0.449887       -12.2420
 203   2.0000      -0.447244       -12.1701
 204   2.0000      -0.445071       -12.1110
 205   2.0000      -0.439337       -11.9550
 206   2.0000      -0.437848       -11.9144
 207   2.0000      -0.430184       -11.7059
 208   2.0000      -0.429587       -11.6897
 209   2.0000      -0.428007       -11.6466
 210   2.0000      -0.425737       -11.5849
 211   2.0000      -0.423677       -11.5288
 212   2.0000      -0.420350       -11.4383
 213   2.0000      -0.418433       -11.3861
 214   2.0000      -0.416316       -11.3285
 215   2.0000      -0.414258       -11.2725
 216   2.0000      -0.408719       -11.1218
 217   2.0000      -0.404768       -11.0143
 218   2.0000      -0.402669       -10.9572
 219   2.0000      -0.399177       -10.8622
 220   2.0000      -0.397669       -10.8211
 221   2.0000      -0.385517       -10.4905
 222   2.0000      -0.383008       -10.4222
 223   2.0000      -0.380345       -10.3497
 224   2.0000      -0.371425       -10.1070
 225   2.0000      -0.364641        -9.9224
 226   2.0000      -0.360701        -9.8152
 227   2.0000      -0.354924        -9.6580
 228   2.0000      -0.350648        -9.5416
 229   2.0000      -0.345286        -9.3957
 230   2.0000      -0.344235        -9.3671
 231   2.0000      -0.341057        -9.2806
 232   2.0000      -0.335201        -9.1213
 233   2.0000      -0.328224        -8.9314
 234   2.0000      -0.319906        -8.7051
 235   2.0000      -0.309739        -8.4284
 236   2.0000      -0.302524        -8.2321
 237   2.0000      -0.296180        -8.0595
 238   2.0000      -0.294698        -8.0191
 239   2.0000      -0.287424        -7.8212
 240   2.0000      -0.273695        -7.4476
 241   2.0000      -0.251788        -6.8515
 242   2.0000      -0.248439        -6.7604
 243   2.0000      -0.204064        -5.5529
 244   0.0000      -0.122011        -3.3201
 245   0.0000      -0.072799        -1.9810
 246   0.0000      -0.048605        -1.3226
 247   0.0000      -0.041394        -1.1264
 248   0.0000      -0.027481        -0.7478

MULLIKEN ATOMIC CHARGES
-----------------------
   0 C :    0.330362
   1 C :   -0.373604
   2 C :   -0.189250
   3 N :    0.127956
   4 C :   -0.191165
   5 N :    0.124853
   6 C :    0.016997
   7 C :   -0.005137
   8 C :   -0.084737
   9 C :    0.119718
  10 C :   -0.091926
  11 C :   -0.032876
  12 S :    0.174317
  13 C :   -0.123075
  14 C :    0.035079
  15 Br:    0.008299
  16 C :    0.135525
  17 O :   -0.173887
  18 C :   -0.093245
  19 C :   -0.042626
  20 C :   -0.024799
  21 C :    0.006256
  22 C :    0.016376
  23 C :    0.037847
  24 C :   -0.052519
  25 S :    0.112879
  26 C :   -0.026175
  27 C :    0.008123
  28 C :    0.045044
  29 C :   -0.044448
  30 S :    0.116015
  31 C :    0.017196
  32 C :   -0.016297
  33 C :   -0.018536
  34 C :    0.030032
  35 C :    0.029231
  36 C :   -0.049140
  37 S :    0.094546
  38 C :   -0.030989
  39 C :    0.024907
  40 C :    0.047560
  41 C :   -0.010170
  42 S :    0.081301
  43 C :   -0.008303
  44 C :   -0.051362
  45 C :   -0.014823
  46 C :   -0.016425
  47 C :    0.007259
  48 C :   -0.065666
  49 C :   -0.003952
  50 C :    0.141290
  51 C :    0.120173
  52 O :   -0.260757
  53 C :    0.213231
  54 C :    0.220848
  55 C :   -0.175908
  56 S :    0.103640
  57 C :   -0.173084
  58 O :   -0.266580
  59 C :   -0.042039
  60 C :    0.000018
  61 H :   -0.017653
  62 H :   -0.011162
  63 H :   -0.007517
  64 H :    0.009621
  65 H :    0.013540
  66 H :   -0.003989
  67 H :   -0.009964
  68 H :   -0.009485
  69 H :   -0.007229
  70 H :   -0.000435
  71 H :    0.006406
  72 H :    0.000645
  73 H :   -0.004300
  74 H :   -0.005843
  75 H :   -0.001636
  76 H :    0.001720
  77 H :    0.031395
  78 H :    0.034120
  79 H :    0.039036
  80 H :    0.015228
  81 H :    0.022403
  82 H :    0.023414
  83 H :    0.016630
  84 H :    0.039835
  85 H :    0.031842
Sum of atomic charges:   -0.0000000

LOEWDIN ATOMIC CHARGES
----------------------
   0 C :    0.071519
   1 C :   -0.164724
   2 C :   -0.019061
   3 N :   -0.077321
   4 C :   -0.020632
   5 N :   -0.076092
   6 C :   -0.016479
   7 C :   -0.047519
   8 C :    0.014308
   9 C :   -0.037924
  10 C :   -0.146727
  11 C :   -0.016235
  12 S :    0.423740
  13 C :   -0.276878
  14 C :   -0.071518
  15 Br:    0.125195
  16 C :    0.080668
  17 O :   -0.164606
  18 C :   -0.114566
  19 C :    0.042446
  20 C :   -0.074597
  21 C :   -0.107553
  22 C :   -0.049437
  23 C :   -0.013595
  24 C :   -0.198931
  25 S :    0.417170
  26 C :   -0.147886
  27 C :   -0.047253
  28 C :   -0.017749
  29 C :   -0.162799
  30 S :    0.411849
  31 C :   -0.026418
  32 C :   -0.069521
  33 C :   -0.127420
  34 C :   -0.035792
  35 C :   -0.019129
  36 C :   -0.182547
  37 S :    0.390254
  38 C :   -0.160826
  39 C :   -0.037346
  40 C :   -0.013250
  41 C :   -0.141019
  42 S :    0.396794
  43 C :   -0.025740
  44 C :   -0.052013
  45 C :   -0.012852
  46 C :   -0.031044
  47 C :   -0.034820
  48 C :   -0.030151
  49 C :   -0.005603
  50 C :    0.012779
  51 C :    0.023452
  52 O :   -0.060783
  53 C :   -0.008788
  54 C :   -0.007562
  55 C :   -0.211577
  56 S :    0.429495
  57 C :   -0.210527
  58 O :   -0.067177
  59 C :   -0.034292
  60 C :   -0.017770
  61 H :    0.037707
  62 H :    0.039415
  63 H :    0.036809
  64 H :    0.030217
  65 H :    0.037424
  66 H :    0.036942
  67 H :    0.033383
  68 H :    0.033247
  69 H :    0.036161
  70 H :    0.031650
  71 H :    0.033166
  72 H :    0.039194
  73 H :    0.035577
  74 H :    0.035044
  75 H :    0.037761
  76 H :    0.042435
  77 H :    0.009039
  78 H :    0.034215
  79 H :    0.044189
  80 H :    0.040329
  81 H :    0.028184
  82 H :    0.028559
  83 H :    0.036751
  84 H :    0.027789
  85 H :    0.029194

  Mayer bond orders larger than 0.100000
B(  0-C ,  1-C ) :   1.5581 B(  0-C ,  6-C ) :   0.9831 B(  0-C , 18-C ) :   1.1383
B(  1-C ,  2-C ) :   1.1551 B(  1-C ,  4-C ) :   1.1590 B(  2-C ,  3-N ) :   2.9569
B(  4-C ,  5-N ) :   2.9536 B(  6-C ,  7-C ) :   1.2797 B(  6-C , 11-C ) :   1.4225
B(  7-C ,  8-C ) :   1.4329 B(  7-C , 16-C ) :   0.9324 B(  8-C ,  9-C ) :   1.2329
B(  8-C , 61-H ) :   1.0173 B(  9-C , 10-C ) :   1.3219 B(  9-C , 14-C ) :   1.1597
B( 10-C , 11-C ) :   1.3145 B( 10-C , 12-S ) :   1.0810 B( 11-C , 62-H ) :   0.9807
B( 12-S , 13-C ) :   1.0850 B( 13-C , 14-C ) :   1.6205 B( 13-C , 15-Br) :   1.0095
B( 14-C , 63-H ) :   1.0004 B( 16-C , 17-O ) :   2.1744 B( 16-C , 18-C ) :   0.9754
B( 18-C , 19-C ) :   1.4283 B( 19-C , 20-C ) :   1.3082 B( 19-C , 64-H ) :   0.9447
B( 20-C , 21-C ) :   1.3602 B( 20-C , 65-H ) :   0.9778 B( 21-C , 22-C ) :   1.2226
B( 21-C , 25-S ) :   1.0936 B( 22-C , 23-C ) :   1.4847 B( 22-C , 66-H ) :   1.0029
B( 23-C , 24-C ) :   1.2685 B( 23-C , 67-H ) :   0.9955 B( 24-C , 25-S ) :   1.0584
B( 24-C , 26-C ) :   1.3793 B( 26-C , 27-C ) :   1.2627 B( 26-C , 30-S ) :   1.0970
B( 27-C , 28-C ) :   1.4935 B( 27-C , 68-H ) :   0.9964 B( 28-C , 29-C ) :   1.2271
B( 28-C , 69-H ) :   1.0002 B( 29-C , 30-S ) :   1.0481 B( 29-C , 31-C ) :   1.4521
B( 31-C , 32-C ) :   1.2793 B( 31-C , 70-H ) :   0.9716 B( 32-C , 33-C ) :   1.4523
B( 32-C , 71-H ) :   0.9722 B( 33-C , 34-C ) :   1.2081 B( 33-C , 37-S ) :   1.0688
B( 34-C , 35-C ) :   1.5238 B( 34-C , 72-H ) :   1.0015 B( 35-C , 36-C ) :   1.2300
B( 35-C , 73-H ) :   0.9954 B( 36-C , 37-S ) :   1.0483 B( 36-C , 38-C ) :   1.4634
B( 38-C , 39-C ) :   1.1924 B( 38-C , 42-S ) :   1.0585 B( 39-C , 40-C ) :   1.5936
B( 39-C , 74-H ) :   0.9937 B( 40-C , 41-C ) :   1.1300 B( 40-C , 75-H ) :   0.9997
B( 41-C , 42-S ) :   1.0313 B( 41-C , 43-C ) :   1.6223 B( 43-C , 44-C ) :   1.1042
B( 43-C , 76-H ) :   0.9662 B( 44-C , 45-C ) :   1.8452 B( 44-C , 46-C ) :   0.9194
B( 45-C , 77-H ) :   0.9351 B( 45-C , 78-H ) :   0.9425 B( 46-C , 47-C ) :   2.3597
B( 47-C , 48-C ) :   0.9946 B( 48-C , 49-C ) :   1.7741 B( 48-C , 79-H ) :   0.9481
B( 49-C , 50-C ) :   1.0808 B( 49-C , 80-H ) :   0.9521 B( 50-C , 51-C ) :   1.6121
B( 50-C , 58-O ) :   1.0185 B( 51-C , 52-O ) :   1.0300 B( 51-C , 59-C ) :   1.0582
B( 52-O , 53-C ) :   1.0598 B( 53-C , 54-C ) :   1.1967 B( 53-C , 57-C ) :   1.5784
B( 54-C , 55-C ) :   1.5776 B( 54-C , 58-O ) :   1.0626 B( 55-C , 56-S ) :   1.1372
B( 55-C , 81-H ) :   0.9719 B( 56-S , 57-C ) :   1.1388 B( 57-C , 82-H ) :   0.9720
B( 59-C , 60-C ) :   1.9827 B( 59-C , 83-H ) :   0.9432 B( 60-C , 84-H ) :   0.9531
B( 60-C , 85-H ) :   0.9516

-----------------------------------------------------------------------------
         ABSORPTION SPECTRUM VIA TRANSITION ELECTRIC DIPOLE MOMENTS
-----------------------------------------------------------------------------
State   Energy  Wavelength   fosc         T2         TX        TY        TZ
        (cm-1)    (nm)                  (au**2)     (au)      (au)      (au)
-----------------------------------------------------------------------------
   0    6691.8   1494.4   1.306257564  64.26319   3.37688   3.97531   6.08743
   1   14559.8    686.8   0.007073066   0.15993   0.16924   0.09417   0.34989
   2   17586.7    568.6   0.383244866   7.17411   0.49645   2.57330  -0.55298
   3   18672.8    535.5   0.034572881   0.60954   0.34047   0.66767   0.21872
   4   20867.5    479.2   0.018448112   0.29104  -0.19691   0.38137  -0.32684
   5   22710.9    440.3   0.042387941   0.61445  -0.00717   0.72873   0.28870
   6   23198.4    431.1   0.030413284   0.43160  -0.02072   0.63848   0.15335
   7   25677.2    389.5   0.563786791   7.22842  -1.72939   0.48962  -1.99947
   8   25950.2    385.4   0.032865199   0.41694   0.44769   0.46438  -0.02935
   9   25985.1    384.8   0.010925506   0.13842   0.16987   0.30298  -0.13330
  10   26601.8    375.9   0.068434707   0.84692   0.23932   0.70214  -0.54465
  11   27083.0    369.2   0.101594875   1.23495   0.15072  -0.95765   0.54327
  12   27151.7    368.3   0.116647137   1.41434  -0.05293   1.15082  -0.29519
  13   27951.1    357.8   0.152055186   1.79093   0.58293  -0.24115   1.18024
  14   28853.6    346.6   0.181362049   2.06929   0.52300  -0.65189   1.17081
  15   29304.6    341.2   0.021225949   0.23846  -0.17291   0.09169  -0.44738
  16   30331.2    329.7   0.016153051   0.17532  -0.20410  -0.28543  -0.22846
  17   30686.7    325.9   0.006499574   0.06973   0.21303  -0.14992  -0.04325
  18   31772.9    314.7   0.619498229   6.41887  -0.99432  -0.59124  -2.25403
  19   31951.2    313.0   0.025351824   0.26121   0.19413   0.24251   0.40585
  20   31985.8    312.6   0.060856947   0.62637  -0.17522  -0.46764  -0.61399
  21   32073.0    311.8   0.001304616   0.01339  -0.05456  -0.02557  -0.09880
  22   32552.6    307.2   0.000668841   0.00676  -0.03947   0.07209  -0.00319
  23   32802.0    304.9   0.000334471   0.00336  -0.00413  -0.05153  -0.02616
  24   32987.6    303.1   0.013643418   0.13616   0.23933   0.07265   0.27130
  25   33443.4    299.0   0.045652022   0.44939   0.25911   0.53838   0.30397
  26   34139.5    292.9   0.098727282   0.95204  -0.07382  -0.87687  -0.42153
  27   34330.2    291.3   0.094519074   0.90640  -0.53768   0.24699  -0.74585
  28   34595.5    289.1   0.014693929   0.13983  -0.22267   0.03307  -0.29859
  29   34726.6    288.0   0.050145215   0.47538   0.25772   0.51458   0.37970
  30   35345.9    282.9   0.008339757   0.07768   0.18681  -0.04161   0.20260
  31   35572.3    281.1   0.156286017   1.44638   0.33947   1.05653   0.46357
  32   36144.3    276.7   0.093794418   0.85430   0.61473   0.37009   0.58262
  33   36552.9    273.6   0.213290726   1.92099   0.41763   1.17653   0.60196
  34   36821.8    271.6   0.044532627   0.39815  -0.12156  -0.55978  -0.26462
  35   36908.0    270.9   0.012282379   0.10956  -0.05521   0.30941  -0.10381
  36   37212.3    268.7   0.000020317   0.00018   0.00297  -0.00897  -0.00952
  37   37759.1    264.8   0.003399640   0.02964   0.12203   0.11095  -0.04939
  38   38414.9    260.3   0.185591061   1.59050  -0.22907  -1.10003  -0.57267
  39   38730.2    258.2   0.044529033   0.37850  -0.28616  -0.37238  -0.39743
  40   38998.6    256.4   0.018466686   0.15589   0.31921   0.12408  -0.19646
  41   39393.7    253.8   0.036132973   0.30196   0.25547   0.39349   0.28611
  42   40039.2    249.8   0.034556854   0.28414  -0.13008   0.26969  -0.44100

FINAL SINGLE POINT ENERGY     -7176.732863514235

DIPOLE MOMENT
-------------
                                X             Y             Z
Electronic contribution:    111.82076      76.11526     212.19956
Nuclear contribution   :   -114.49991     -76.80951    -217.12846
                        -----------------------------------------
Total Dipole Moment    :     -2.67915      -0.69425      -4.92891
                        -----------------------------------------
Magnitude (a.u.)       :      5.65278
Magnitude (Debye)      :     14.36824

Rotational constants in cm-1:     0.003621     0.000123     0.000120
Rotational constants in MHz :   108.564977     3.673504     3.589523

                             ****ORCA TERMINATED NORMALLY****
TOTAL RUN TIME: 0 days 0 hours 7 minutes 38 seconds 507 msec
