                         Program Version 4.2.0 -  RELEASE  -
|  1> # ORCA input file
|  2> # SCF done       -165.072987379199          0.000561989609
|  3> ! CAM-B3LYP def2-SVP def2/J RIJCOSX Grid4 TightSCF
|  4> %maxcore 5000
|  5> %tddft
|  6>     Mode sTDDFT
|  7>     Ethresh 5.0
|  8>     maxcore 5000
|  9> end
| 10>
| 11> %pal
| 12>   nprocs 6
| 13>   end
| 14> * xyz 0 1
| 15>    C       -5.27650        -2.92151         5.65522
| 16>    C       -4.84301        -2.16304         6.71538
| 17>    C       -5.41584        -2.19103         8.00135
| 18>    N       -5.84024        -2.17601         9.06853
| 19>    C       -3.77206        -1.25345         6.63130
| 20>    N       -2.90960        -0.49417         6.60669
| 21>    C       -6.39592        -3.85604         5.65081
| 22>    C       -6.55494        -4.39529         4.34477
| 23>    C       -7.53142        -5.31012         4.03735
| 24>    C       -8.39217        -5.71735         5.06310
| 25>    C       -8.22606        -5.17619         6.36042
| 26>    C       -7.24018        -4.24864         6.67313
| 27>    S       -9.39351        -5.82008         7.47488
| 28>    C      -10.07850        -6.79427         6.20106
| 29>    C       -9.46672        -6.64572         5.00188
| 30>   Br      -11.53498        -7.91523         6.57445
| 31>    C       -5.52480        -3.81589         3.47031
| 32>    O       -5.31114        -3.99969         2.28649
| 33>    C       -4.72177        -2.92972         4.32295
| 34>    C       -3.61789        -2.33836         3.79634
| 35>    S       -3.21062        -2.55911         2.14618
| 36>    C       -1.62752        -1.74604         2.19913
| 37>    C       -0.65100        -2.05797         3.09483
| 38>    S        0.74643        -1.08313         2.90139
| 39>    C        0.02871        -0.25918         1.57755
| 40>    C       -1.23184        -0.70419         1.31446
| 41>    S       -2.25604        -0.02996         0.04205
| 42>    C       -1.91869         1.65559         0.35139
| 43>    C       -2.01256         2.64994        -0.54435
| 44>    C       -1.75097         4.00132        -0.16102
| 45>    O       -1.54268         4.24917         1.17640
| 46>    C       -1.28690         5.56389         1.26893
| 47>    C       -0.96025         6.54200         2.23032
| 48>    C       -0.69798         6.19012         3.63927
| 49>    O       -0.04680         6.86400         4.42689
| 50>    N       -1.21806         5.00058         3.99707
| 51>    C       -0.83225         7.72507         1.46637
| 52>    O       -1.03952         7.47083         0.12289
| 53>    C       -1.32187         6.16267         0.01404
| 54>    C       -1.62821         5.15775        -0.91545
| 55>    C       -0.50718         9.06683         1.74529
| 56>    C       -0.55822         9.72900         2.94664
| 57>    C        0.02708        10.99094         3.24628
| 58>    C       -0.03113        11.33346         4.56404
| 59>    C       -0.68345        10.36551         5.36049
| 60>    S       -1.34927         9.10279         4.35808
| 61>    C       -0.66538        10.15110         6.72735
| 62>    C       -0.08774        10.87488         7.78910
| 63>    C       -0.05401        10.18597         8.96930
| 64>    C       -0.58593         8.87695         8.89478
| 65>    S       -1.26047         8.61161         7.29996
| 66>    C       -0.59616         7.91267         9.87533
| 67>    C       -0.93026         6.56014         9.72238
| 68>    S       -1.31507         5.64097        11.17289
| 69>    C       -1.64056         4.15828        10.32935
| 70>    C       -1.42142         4.35626         8.96817
| 71>    C       -1.02117         5.68732         8.62855
| 72>    N       -0.76867         5.67024         7.29666
| 73>    N       -1.00758         4.45679         6.77802
| 74>    C       -1.39570         3.65538         7.73748
| 75>    C       -2.06001         3.00699        11.05897
| 76>    C       -2.40008         1.83210        10.52012
| 77>    H       -7.62949        -5.70313         3.03760
| 78>    H       -7.15101        -3.86602         7.67643
| 79>    H       -9.75945        -7.16921         4.11010
| 80>    H       -2.95251        -1.71944         4.37543
| 81>    H       -0.68068        -2.80190         3.86599
| 82>    H        0.56863         0.51626         1.07196
| 83>    H       -1.63930         1.86184         1.37291
| 84>    H       -2.27203         2.46821        -1.57479
| 85>    H       -1.74761         4.44202         3.35321
| 86>    H       -1.08100         4.66356         4.95105
| 87>    H       -1.74059         5.23598        -1.97620
| 88>    H       -0.18474         9.63085         0.87906
| 89>    H        0.53143        11.56564         2.48951
| 90>    H        0.41742        12.21466         4.98733
| 91>    H        0.31313        11.86325         7.65104
| 92>    H        0.38576        10.56047         9.87714
| 93>    H       -0.33978         8.22742        10.87896
| 94>    H       -0.46210         6.40316         6.66700
| 95>    H       -1.62742         2.63172         7.52575
| 96>    H       -2.10202         3.13911        12.13267
| 97>    H       -2.38275         1.66041         9.45925
| 98>    H       -2.71217         1.00888        11.13750
| 99> *
|100>
|101>                          ****END OF INPUT****

CARTESIAN COORDINATES (ANGSTROEM)
---------------------------------
  C     -5.276500   -2.921510    5.655220
  C     -4.843010   -2.163040    6.715380
  C     -5.415840   -2.191030    8.001350
  N     -5.840240   -2.176010    9.068530
  C     -3.772060   -1.253450    6.631300
  N     -2.909600   -0.494170    6.606690
  C     -6.395920   -3.856040    5.650810
  C     -6.554940   -4.395290    4.344770
  C     -7.531420   -5.310120    4.037350
  C     -8.392170   -5.717350    5.063100
  C     -8.226060   -5.176190    6.360420
  C     -7.240180   -4.248640    6.673130
  S     -9.393510   -5.820080    7.474880
  C    -10.078500   -6.794270    6.201060
  C     -9.466720   -6.645720    5.001880
  Br   -11.534980   -7.915230    6.574450
  C     -5.524800   -3.815890    3.470310
  O     -5.311140   -3.999690    2.286490
  C     -4.721770   -2.929720    4.322950
  C     -3.617890   -2.338360    3.796340
  S     -3.210620   -2.559110    2.146180
  C     -1.627520   -1.746040    2.199130
  C     -0.651000   -2.057970    3.094830
  S      0.746430   -1.083130    2.901390
  C      0.028710   -0.259180    1.577550
  C     -1.231840   -0.704190    1.314460
  S     -2.256040   -0.029960    0.042050
  C     -1.918690    1.655590    0.351390
  C     -2.012560    2.649940   -0.544350
  C     -1.750970    4.001320   -0.161020
  O     -1.542680    4.249170    1.176400
  C     -1.286900    5.563890    1.268930
  C     -0.960250    6.542000    2.230320
  C     -0.697980    6.190120    3.639270
  O     -0.046800    6.864000    4.426890
  N     -1.218060    5.000580    3.997070
  C     -0.832250    7.725070    1.466370
  O     -1.039520    7.470830    0.122890
  C     -1.321870    6.162670    0.014040
  C     -1.628210    5.157750   -0.915450
  C     -0.507180    9.066830    1.745290
  C     -0.558220    9.729000    2.946640
  C      0.027080   10.990940    3.246280
  C     -0.031130   11.333460    4.564040
  C     -0.683450   10.365510    5.360490
  S     -1.349270    9.102790    4.358080
  C     -0.665380   10.151100    6.727350
  C     -0.087740   10.874880    7.789100
  C     -0.054010   10.185970    8.969300
  C     -0.585930    8.876950    8.894780
  S     -1.260470    8.611610    7.299960
  C     -0.596160    7.912670    9.875330
  C     -0.930260    6.560140    9.722380
  S     -1.315070    5.640970   11.172890
  C     -1.640560    4.158280   10.329350
  C     -1.421420    4.356260    8.968170
  C     -1.021170    5.687320    8.628550
  N     -0.768670    5.670240    7.296660
  N     -1.007580    4.456790    6.778020
  C     -1.395700    3.655380    7.737480
  C     -2.060010    3.006990   11.058970
  C     -2.400080    1.832100   10.520120
  H     -7.629490   -5.703130    3.037600
  H     -7.151010   -3.866020    7.676430
  H     -9.759450   -7.169210    4.110100
  H     -2.952510   -1.719440    4.375430
  H     -0.680680   -2.801900    3.865990
  H      0.568630    0.516260    1.071960
  H     -1.639300    1.861840    1.372910
  H     -2.272030    2.468210   -1.574790
  H     -1.747610    4.442020    3.353210
  H     -1.081000    4.663560    4.951050
  H     -1.740590    5.235980   -1.976200
  H     -0.184740    9.630850    0.879060
  H      0.531430   11.565640    2.489510
  H      0.417420   12.214660    4.987330
  H      0.313130   11.863250    7.651040
  H      0.385760   10.560470    9.877140
  H     -0.339780    8.227420   10.878960
  H     -0.462100    6.403160    6.667000
  H     -1.627420    2.631720    7.525750
  H     -2.102020    3.139110   12.132670
  H     -2.382750    1.660410    9.459250
  H     -2.712170    1.008880   11.137500

 Total Charge           Charge          ....    0
 Multiplicity           Mult            ....    1
 Number of Electrons    NEL             ....  506
 Basis Dimension        Dim             .... 1024

ORBITAL ENERGIES
----------------

  NO   OCC          E(Eh)            E(eV)
   0   2.0000    -482.889064    -13140.0795
   1   2.0000     -88.979884     -2421.2657
   2   2.0000     -88.971136     -2421.0277
   3   2.0000     -88.970463     -2421.0094
   4   2.0000     -88.955306     -2420.5969
   5   2.0000     -88.941433     -2420.2194
   6   2.0000     -88.933486     -2420.0032
   7   2.0000     -88.924158     -2419.7494
   8   2.0000     -62.566770     -1702.5284
   9   2.0000     -56.400729     -1534.7419
  10   2.0000     -56.397998     -1534.6675
  11   2.0000     -56.397969     -1534.6668
  12   2.0000     -19.292517      -524.9761
  13   2.0000     -19.281505      -524.6764
  14   2.0000     -19.224436      -523.1235
  15   2.0000     -19.156965      -521.2875
  16   2.0000     -14.464683      -393.6040
  17   2.0000     -14.433856      -392.7652
  18   2.0000     -14.425245      -392.5309
  19   2.0000     -14.420142      -392.3920
  20   2.0000     -14.386677      -391.4814
  21   2.0000     -10.369617      -282.1716
  22   2.0000     -10.363224      -281.9977
  23   2.0000     -10.352050      -281.6936
  24   2.0000     -10.349289      -281.6185
  25   2.0000     -10.346809      -281.5510
  26   2.0000     -10.341991      -281.4199
  27   2.0000     -10.336045      -281.2581
  28   2.0000     -10.331729      -281.1406
  29   2.0000     -10.330160      -281.0979
  30   2.0000     -10.327959      -281.0381
  31   2.0000     -10.323058      -280.9047
  32   2.0000     -10.315742      -280.7056
  33   2.0000     -10.315087      -280.6878
  34   2.0000     -10.313902      -280.6555
  35   2.0000     -10.312506      -280.6175
  36   2.0000     -10.311406      -280.5876
  37   2.0000     -10.310965      -280.5756
  38   2.0000     -10.310269      -280.5567
  39   2.0000     -10.309646      -280.5397
  40   2.0000     -10.309639      -280.5395
  41   2.0000     -10.306581      -280.4563
  42   2.0000     -10.305075      -280.4154
  43   2.0000     -10.303964      -280.3851
  44   2.0000     -10.300749      -280.2976
  45   2.0000     -10.300691      -280.2961
  46   2.0000     -10.300563      -280.2926
  47   2.0000     -10.299007      -280.2502
  48   2.0000     -10.297578      -280.2114
  49   2.0000     -10.296060      -280.1700
  50   2.0000     -10.295277      -280.1487
  51   2.0000     -10.295055      -280.1427
  52   2.0000     -10.292453      -280.0719
  53   2.0000     -10.289425      -279.9895
  54   2.0000     -10.283827      -279.8371
  55   2.0000     -10.282866      -279.8110
  56   2.0000     -10.279750      -279.7262
  57   2.0000     -10.278354      -279.6882
  58   2.0000     -10.276988      -279.6511
  59   2.0000     -10.276508      -279.6380
  60   2.0000     -10.275950      -279.6228
  61   2.0000     -10.274695      -279.5887
  62   2.0000     -10.270107      -279.4638
  63   2.0000     -10.269483      -279.4468
  64   2.0000     -10.266289      -279.3599
  65   2.0000     -10.262416      -279.2545
  66   2.0000      -8.796198      -239.3567
  67   2.0000      -8.075895      -219.7563
  68   2.0000      -8.066646      -219.5046
  69   2.0000      -8.064858      -219.4560
  70   2.0000      -8.050418      -219.0630
  71   2.0000      -8.037000      -218.6979
  72   2.0000      -8.029898      -218.5046
  73   2.0000      -8.020511      -218.2492
  74   2.0000      -6.632540      -180.4806
  75   2.0000      -6.617922      -180.0828
  76   2.0000      -6.617695      -180.0766
  77   2.0000      -6.045592      -164.5089
  78   2.0000      -6.041288      -164.3918
  79   2.0000      -6.037116      -164.2783
  80   2.0000      -6.035821      -164.2430
  81   2.0000      -6.034822      -164.2159
  82   2.0000      -6.031520      -164.1260
  83   2.0000      -6.030073      -164.0866
  84   2.0000      -6.029026      -164.0581
  85   2.0000      -6.026098      -163.9784
  86   2.0000      -6.019652      -163.8031
  87   2.0000      -6.015569      -163.6919
  88   2.0000      -6.012714      -163.6143
  89   2.0000      -6.007331      -163.4678
  90   2.0000      -6.003171      -163.3546
  91   2.0000      -5.999626      -163.2581
  92   2.0000      -5.996968      -163.1858
  93   2.0000      -5.995520      -163.1464
  94   2.0000      -5.990798      -163.0179
  95   2.0000      -5.990202      -163.0017
  96   2.0000      -5.985888      -162.8843
  97   2.0000      -5.981559      -162.7665
  98   2.0000      -2.748382       -74.7873
  99   2.0000      -2.744295       -74.6761
 100   2.0000      -2.744164       -74.6725
 101   2.0000      -2.732531       -74.3559
 102   2.0000      -2.732506       -74.3553
 103   2.0000      -1.210699       -32.9448
 104   2.0000      -1.189360       -32.3641
 105   2.0000      -1.139576       -31.0095
 106   2.0000      -1.133950       -30.8563
 107   2.0000      -1.092850       -29.7380
 108   2.0000      -1.028163       -27.9777
 109   2.0000      -1.019025       -27.7291
 110   2.0000      -1.005480       -27.3605
 111   2.0000      -1.000809       -27.2334
 112   2.0000      -0.995269       -27.0826
 113   2.0000      -0.986113       -26.8335
 114   2.0000      -0.975351       -26.5406
 115   2.0000      -0.960267       -26.1302
 116   2.0000      -0.957109       -26.0442
 117   2.0000      -0.952985       -25.9320
 118   2.0000      -0.934266       -25.4227
 119   2.0000      -0.925328       -25.1795
 120   2.0000      -0.913751       -24.8644
 121   2.0000      -0.911587       -24.8055
 122   2.0000      -0.900453       -24.5026
 123   2.0000      -0.893736       -24.3198
 124   2.0000      -0.891012       -24.2457
 125   2.0000      -0.887651       -24.1542
 126   2.0000      -0.885161       -24.0865
 127   2.0000      -0.877527       -23.8787
 128   2.0000      -0.864034       -23.5116
 129   2.0000      -0.851898       -23.1813
 130   2.0000      -0.846210       -23.0265
 131   2.0000      -0.840314       -22.8661
 132   2.0000      -0.836326       -22.7576
 133   2.0000      -0.834122       -22.6976
 134   2.0000      -0.814633       -22.1673
 135   2.0000      -0.807417       -21.9709
 136   2.0000      -0.801212       -21.8021
 137   2.0000      -0.798089       -21.7171
 138   2.0000      -0.778964       -21.1967
 139   2.0000      -0.767764       -20.8919
 140   2.0000      -0.753388       -20.5007
 141   2.0000      -0.750926       -20.4337
 142   2.0000      -0.732513       -19.9327
 143   2.0000      -0.714569       -19.4444
 144   2.0000      -0.705109       -19.1870
 145   2.0000      -0.704055       -19.1583
 146   2.0000      -0.698020       -18.9941
 147   2.0000      -0.695274       -18.9194
 148   2.0000      -0.690686       -18.7945
 149   2.0000      -0.687565       -18.7096
 150   2.0000      -0.682796       -18.5798
 151   2.0000      -0.677471       -18.4349
 152   2.0000      -0.668327       -18.1861
 153   2.0000      -0.663698       -18.0602
 154   2.0000      -0.658835       -17.9278
 155   2.0000      -0.650771       -17.7084
 156   2.0000      -0.644957       -17.5502
 157   2.0000      -0.629968       -17.1423
 158   2.0000      -0.626203       -17.0398
 159   2.0000      -0.622789       -16.9470
 160   2.0000      -0.614126       -16.7112
 161   2.0000      -0.610938       -16.6245
 162   2.0000      -0.605254       -16.4698
 163   2.0000      -0.600824       -16.3493
 164   2.0000      -0.599362       -16.3095
 165   2.0000      -0.598578       -16.2881
 166   2.0000      -0.597840       -16.2681
 167   2.0000      -0.588468       -16.0130
 168   2.0000      -0.574967       -15.6457
 169   2.0000      -0.573941       -15.6177
 170   2.0000      -0.569619       -15.5001
 171   2.0000      -0.568765       -15.4769
 172   2.0000      -0.556742       -15.1497
 173   2.0000      -0.550569       -14.9817
 174   2.0000      -0.547562       -14.8999
 175   2.0000      -0.547049       -14.8860
 176   2.0000      -0.542539       -14.7632
 177   2.0000      -0.541684       -14.7400
 178   2.0000      -0.535466       -14.5708
 179   2.0000      -0.533318       -14.5123
 180   2.0000      -0.532390       -14.4871
 181   2.0000      -0.527207       -14.3460
 182   2.0000      -0.520967       -14.1762
 183   2.0000      -0.518825       -14.1179
 184   2.0000      -0.517399       -14.0791
 185   2.0000      -0.514415       -13.9979
 186   2.0000      -0.512304       -13.9405
 187   2.0000      -0.510581       -13.8936
 188   2.0000      -0.509234       -13.8570
 189   2.0000      -0.503879       -13.7112
 190   2.0000      -0.501542       -13.6477
 191   2.0000      -0.498058       -13.5528
 192   2.0000      -0.495706       -13.4888
 193   2.0000      -0.493810       -13.4373
 194   2.0000      -0.492218       -13.3939
 195   2.0000      -0.486570       -13.2402
 196   2.0000      -0.485648       -13.2152
 197   2.0000      -0.482932       -13.1412
 198   2.0000      -0.477129       -12.9833
 199   2.0000      -0.476479       -12.9657
 200   2.0000      -0.473409       -12.8821
 201   2.0000      -0.471865       -12.8401
 202   2.0000      -0.468927       -12.7602
 203   2.0000      -0.463750       -12.6193
 204   2.0000      -0.462565       -12.5870
 205   2.0000      -0.458252       -12.4697
 206   2.0000      -0.457783       -12.4569
 207   2.0000      -0.454219       -12.3599
 208   2.0000      -0.453371       -12.3369
 209   2.0000      -0.450553       -12.2602
 210   2.0000      -0.450023       -12.2457
 211   2.0000      -0.445208       -12.1147
 212   2.0000      -0.444150       -12.0859
 213   2.0000      -0.443904       -12.0792
 214   2.0000      -0.434273       -11.8172
 215   2.0000      -0.431583       -11.7440
 216   2.0000      -0.430873       -11.7247
 217   2.0000      -0.429319       -11.6824
 218   2.0000      -0.426988       -11.6189
 219   2.0000      -0.426788       -11.6135
 220   2.0000      -0.422545       -11.4980
 221   2.0000      -0.418016       -11.3748
 222   2.0000      -0.415897       -11.3171
 223   2.0000      -0.415348       -11.3022
 224   2.0000      -0.413368       -11.2483
 225   2.0000      -0.404254       -11.0003
 226   2.0000      -0.402663       -10.9570
 227   2.0000      -0.400874       -10.9083
 228   2.0000      -0.390339       -10.6217
 229   2.0000      -0.382858       -10.4181
 230   2.0000      -0.378346       -10.2953
 231   2.0000      -0.377696       -10.2776
 232   2.0000      -0.366854        -9.9826
 233   2.0000      -0.362921        -9.8756
 234   2.0000      -0.361510        -9.8372
 235   2.0000      -0.345144        -9.3918
 236   2.0000      -0.339896        -9.2490
 237   2.0000      -0.338024        -9.1981
 238   2.0000      -0.335058        -9.1174
 239   2.0000      -0.331284        -9.0147
 240   2.0000      -0.329127        -8.9560
 241   2.0000      -0.324636        -8.8338
 242   2.0000      -0.321280        -8.7425
 243   2.0000      -0.318145        -8.6572
 244   2.0000      -0.312848        -8.5130
 245   2.0000      -0.307547        -8.3688
 246   2.0000      -0.299675        -8.1546
 247   2.0000      -0.292717        -7.9652
 248   2.0000      -0.290967        -7.9176
 249   2.0000      -0.281484        -7.6596
 250   2.0000      -0.262243        -7.1360
 251   2.0000      -0.233820        -6.3626
 252   2.0000      -0.191628        -5.2145
 253   0.0000      -0.088514        -2.4086
 254   0.0000      -0.073669        -2.0046
 255   0.0000      -0.056331        -1.5328
 256   0.0000      -0.028155        -0.7661
 257   0.0000      -0.007874        -0.2143

MULLIKEN ATOMIC CHARGES
-----------------------
   0 C :    0.329860
   1 C :   -0.339968
   2 C :   -0.189395
   3 N :    0.153851
   4 C :   -0.198104
   5 N :    0.145212
   6 C :   -0.002191
   7 C :   -0.013247
   8 C :   -0.063108
   9 C :    0.113442
  10 C :   -0.090145
  11 C :   -0.017842
  12 S :    0.189539
  13 C :   -0.124842
  14 C :    0.041005
  15 Br:    0.027352
  16 C :    0.139323
  17 O :   -0.162474
  18 C :   -0.063909
  19 C :   -0.123923
  20 S :    0.211102
  21 C :   -0.051400
  22 C :   -0.107206
  23 S :    0.152615
  24 C :   -0.116600
  25 C :   -0.031473
  26 S :    0.097090
  27 C :   -0.109575
  28 C :    0.028136
  29 C :    0.161238
  30 O :   -0.237330
  31 C :    0.074653
  32 C :   -0.051257
  33 C :    0.063052
  34 O :   -0.250099
  35 N :   -0.080007
  36 C :    0.129623
  37 O :   -0.210013
  38 C :    0.211574
  39 C :   -0.139039
  40 C :   -0.054645
  41 C :   -0.028996
  42 C :    0.034205
  43 C :    0.033324
  44 C :   -0.062175
  45 S :    0.130252
  46 C :   -0.034353
  47 C :    0.028545
  48 C :    0.044643
  49 C :   -0.066264
  50 S :    0.054012
  51 C :    0.053049
  52 C :   -0.228314
  53 S :    0.136693
  54 C :   -0.119196
  55 C :   -0.006159
  56 C :    0.168006
  57 N :   -0.040318
  58 N :   -0.089002
  59 C :    0.012479
  60 C :    0.037857
  61 C :   -0.022189
  62 H :   -0.008714
  63 H :   -0.005606
  64 H :   -0.001785
  65 H :    0.070053
  66 H :    0.037576
  67 H :    0.044831
  68 H :    0.055639
  69 H :   -0.000760
  70 H :    0.113931
  71 H :    0.108157
  72 H :   -0.009245
  73 H :   -0.005876
  74 H :   -0.017563
  75 H :   -0.017302
  76 H :   -0.015956
  77 H :   -0.014963
  78 H :   -0.016325
  79 H :    0.155211
  80 H :    0.011221
  81 H :   -0.014629
  82 H :    0.022782
  83 H :    0.032346
Sum of atomic charges:    0.0000000

LOEWDIN ATOMIC CHARGES
----------------------
   0 C :    0.080911
   1 C :   -0.146002
   2 C :   -0.020634
   3 N :   -0.053273
   4 C :   -0.012560
   5 N :   -0.063714
   6 C :   -0.021182
   7 C :   -0.049829
   8 C :    0.023156
   9 C :   -0.031457
  10 C :   -0.144746
  11 C :   -0.006622
  12 S :    0.435121
  13 C :   -0.270275
  14 C :   -0.069728
  15 Br:    0.139624
  16 C :    0.075611
  17 O :   -0.154292
  18 C :   -0.137607
  19 C :   -0.075145
  20 S :    0.482478
  21 C :   -0.231387
  22 C :   -0.196277
  23 S :    0.472555
  24 C :   -0.195583
  25 C :   -0.216320
  26 S :    0.345183
  27 C :   -0.166277
  28 C :   -0.070148
  29 C :    0.038843
  30 O :   -0.004667
  31 C :   -0.002017
  32 C :   -0.127483
  33 C :    0.048305
  34 O :   -0.249173
  35 N :   -0.005151
  36 C :    0.070154
  37 O :   -0.002332
  38 C :   -0.006646
  39 C :   -0.074037
  40 C :   -0.095373
  41 C :   -0.135616
  42 C :   -0.040145
  43 C :   -0.032347
  44 C :   -0.187920
  45 S :    0.445127
  46 C :   -0.167918
  47 C :   -0.045399
  48 C :   -0.027665
  49 C :   -0.167594
  50 S :    0.398277
  51 C :   -0.068789
  52 C :   -0.214420
  53 S :    0.457469
  54 C :   -0.164356
  55 C :   -0.091894
  56 C :   -0.018886
  57 N :    0.097851
  58 N :   -0.029437
  59 C :   -0.026033
  60 C :   -0.046977
  61 C :   -0.030487
  62 H :    0.042366
  63 H :    0.041637
  64 H :    0.039570
  65 H :    0.039540
  66 H :    0.027048
  67 H :    0.030426
  68 H :    0.024854
  69 H :    0.037311
  70 H :    0.063023
  71 H :    0.043158
  72 H :    0.035420
  73 H :    0.039515
  74 H :    0.030240
  75 H :    0.030404
  76 H :    0.031200
  77 H :    0.031882
  78 H :    0.033226
  79 H :    0.053861
  80 H :    0.025847
  81 H :    0.029134
  82 H :    0.025881
  83 H :    0.029612

  Mayer bond orders larger than 0.100000
B(  0-C ,  1-C ) :   1.6335 B(  0-C ,  6-C ) :   1.0114 B(  0-C , 18-C ) :   1.0751
B(  1-C ,  2-C ) :   1.1381 B(  1-C ,  4-C ) :   1.1554 B(  2-C ,  3-N ) :   2.9735
B(  4-C ,  5-N ) :   2.9663 B(  6-C ,  7-C ) :   1.2705 B(  6-C , 11-C ) :   1.4171
B(  7-C ,  8-C ) :   1.4316 B(  7-C , 16-C ) :   0.9475 B(  8-C ,  9-C ) :   1.2432
B(  8-C , 62-H ) :   1.0167 B(  9-C , 10-C ) :   1.3089 B(  9-C , 14-C ) :   1.1629
B( 10-C , 11-C ) :   1.3277 B( 10-C , 12-S ) :   1.0855 B( 11-C , 63-H ) :   0.9803
B( 12-S , 13-C ) :   1.0893 B( 13-C , 14-C ) :   1.6163 B( 13-C , 15-Br) :   1.0210
B( 14-C , 64-H ) :   1.0003 B( 16-C , 17-O ) :   2.1674 B( 16-C , 18-C ) :   0.9743
B( 18-C , 19-C ) :   1.5977 B( 19-C , 20-S ) :   1.2199 B( 19-C , 65-H ) :   0.9239
B( 20-S , 21-C ) :   0.9447 B( 21-C , 22-C ) :   1.5653 B( 21-C , 25-C ) :   1.2959
B( 22-C , 23-S ) :   1.2003 B( 22-C , 66-H ) :   0.9701 B( 23-S , 24-C ) :   1.1884
B( 24-C , 25-C ) :   1.5696 B( 24-C , 67-H ) :   0.9664 B( 25-C , 26-S ) :   1.0084
B( 26-S , 27-C ) :   1.0368 B( 27-C , 28-C ) :   1.7491 B( 27-C , 68-H ) :   0.9380
B( 28-C , 29-C ) :   1.1647 B( 28-C , 69-H ) :   0.9567 B( 29-C , 30-O ) :   1.0896
B( 29-C , 39-C ) :   1.4480 B( 30-O , 31-C ) :   1.1067 B( 31-C , 32-C ) :   1.2252
B( 31-C , 38-C ) :   1.3892 B( 32-C , 33-C ) :   0.9106 B( 32-C , 36-C ) :   1.3725
B( 33-C , 34-O ) :   2.0172 B( 33-C , 35-N ) :   1.3404 B( 35-N , 70-H ) :   0.9328
B( 35-N , 71-H ) :   0.8761 B( 36-C , 37-O ) :   1.0879 B( 36-C , 40-C ) :   1.2196
B( 37-O , 38-C ) :   1.1360 B( 38-C , 39-C ) :   1.2027 B( 39-C , 72-H ) :   1.0314
B( 40-C , 41-C ) :   1.5380 B( 40-C , 73-H ) :   0.9521 B( 41-C , 42-C ) :   1.1426
B( 41-C , 45-S ) :   1.0939 B( 42-C , 43-C ) :   1.5971 B( 42-C , 74-H ) :   0.9964
B( 43-C , 44-C ) :   1.1893 B( 43-C , 75-H ) :   0.9919 B( 44-C , 45-S ) :   1.0838
B( 44-C , 46-C ) :   1.4660 B( 46-C , 47-C ) :   1.2022 B( 46-C , 50-S ) :   1.0556
B( 47-C , 48-C ) :   1.5716 B( 47-C , 76-H ) :   0.9932 B( 48-C , 49-C ) :   1.1643
B( 48-C , 77-H ) :   0.9961 B( 49-C , 50-S ) :   1.0226 B( 49-C , 51-C ) :   1.5782
B( 51-C , 52-C ) :   1.2028 B( 51-C , 78-H ) :   0.9426 B( 52-C , 53-S ) :   1.0925
B( 52-C , 54-C ) :   0.1065 B( 52-C , 56-C ) :   1.3280 B( 53-S , 54-C ) :   1.1606
B( 54-C , 55-C ) :   1.3368 B( 54-C , 60-C ) :   1.1351 B( 55-C , 56-C ) :   1.2597
B( 55-C , 59-C ) :   1.1635 B( 56-C , 57-N ) :   1.1674 B( 57-N , 58-N ) :   1.1617
B( 57-N , 79-H ) :   0.8967 B( 58-N , 59-C ) :   1.6774 B( 58-N , 71-H ) :   0.1510
B( 59-C , 80-H ) :   0.9959 B( 60-C , 61-C ) :   1.9039 B( 60-C , 81-H ) :   0.9512
B( 61-C , 82-H ) :   0.9565 B( 61-C , 83-H ) :   0.9483

-----------------------------------------------------------------------------
         ABSORPTION SPECTRUM VIA TRANSITION ELECTRIC DIPOLE MOMENTS
-----------------------------------------------------------------------------
State   Energy  Wavelength   fosc         T2         TX        TY        TZ
        (cm-1)    (nm)                  (au**2)     (au)      (au)      (au)
-----------------------------------------------------------------------------
   0   11793.2    847.9   0.637933037  17.80814  -0.12311  -0.49715   4.18877
   1   12907.4    774.8   0.012042720   0.30716   0.11824   0.27547  -0.46615
   2   19076.4    524.2   0.012484435   0.21545  -0.17284  -0.37216   0.21697
   3   20433.7    489.4   0.018049171   0.29079  -0.18816  -0.47323   0.17732
   4   21120.5    473.5   0.003564995   0.05557  -0.10060  -0.16034   0.14050
   5   22543.1    443.6   1.473867585  21.52392   0.86518   4.53283   0.47833
   6   24137.9    414.3   0.008138126   0.11099   0.10211   0.31688   0.01252
   7   26016.1    384.4   0.276190918   3.49497   0.99135   0.92106  -1.28990
   8   26317.2    380.0   0.409309998   5.12022   0.02318  -2.04290  -0.97275
   9   26766.9    373.6   0.002865695   0.03525  -0.02824  -0.18559  -0.00208
  10   28448.7    351.5   0.008476069   0.09809   0.13754   0.16759   0.22601
  11   28660.7    348.9   0.293141105   3.36717  -1.30933  -1.18699  -0.49385
  12   29014.0    344.7   0.073210867   0.83070  -0.17763  -0.51953   0.72748
  13   29801.7    335.6   0.002107938   0.02329   0.10136  -0.03115   0.10973
  14   30045.1    332.8   0.191259221   2.09567   1.19538   0.64664  -0.49858
  15   30477.7    328.1   0.001153064   0.01246   0.01524   0.10522   0.03395
  16   30643.0    326.3   0.024493687   0.26315  -0.21557   0.38228  -0.26559
  17   31277.4    319.7   0.123019840   1.29485   0.56417   0.74624   0.64784
  18   31447.1    318.0   0.078683645   0.82372  -0.62011  -0.19972   0.63190
  19   32276.6    309.8   0.004053158   0.04134  -0.16144  -0.10780  -0.06046
  20   32341.9    309.2   0.015605042   0.15885  -0.28861  -0.25285  -0.10778
  21   32405.9    308.6   0.006010905   0.06106  -0.03831  -0.23727   0.05745
  22   32622.6    306.5   0.052454891   0.52935   0.26152   0.59740  -0.32259
  23   32961.3    303.4   0.150817818   1.50634  -0.93933  -0.69071   0.38330
  24   33063.9    302.4   0.154387732   1.53721  -1.03430  -0.67674   0.09724
  25   33211.0    301.1   0.368124415   3.64912  -1.53598  -1.07412   0.36899
  26   34490.3    289.9   0.046650510   0.44528   0.50385   0.41827   0.12832
  27   34513.3    289.7   0.243841063   2.32593   0.26678   0.77459   1.28638
  28   34610.6    288.9   0.005447865   0.05182  -0.18089  -0.10903  -0.08492
  29   35289.0    283.4   0.036167934   0.33741  -0.00626  -0.51686   0.26500
  30   35402.8    282.5   0.052641475   0.48952  -0.13185  -0.66191  -0.18442
  31   35906.7    278.5   0.063421984   0.58149  -0.09903  -0.71567   0.24392
  32   36238.9    275.9   0.109609684   0.99575   0.08421   0.81874  -0.56420
  33   36486.3    274.1   0.065445277   0.59051  -0.20970   0.68419  -0.28002
  34   36573.3    273.4   0.102927341   0.92649   0.53615   0.29116  -0.74449
  35   36989.9    270.3   0.000584727   0.00520  -0.02696  -0.02933  -0.06014
  36   37016.7    270.1   0.032587010   0.28982   0.22597   0.31651   0.37226
  37   37543.3    266.4   0.024199959   0.21221  -0.02833  -0.27202   0.37068
  38   37704.9    265.2   0.000495222   0.00432  -0.06390  -0.01409   0.00647
  39   38024.7    263.0   0.022078462   0.19115  -0.11793  -0.17740   0.38181
  40   38330.8    260.9   0.000652007   0.00560  -0.06005  -0.04095   0.01782
  41   38510.7    259.7   0.000207776   0.00178  -0.00260  -0.02546  -0.03349
  42   39057.8    256.0   0.002600504   0.02192  -0.08305  -0.11916  -0.02867
  43   39667.4    252.1   0.042241332   0.35057   0.08878   0.55571  -0.18407
  44   39734.6    251.7   0.000455946   0.00378  -0.04974   0.03550   0.00661
  45   39841.9    251.0   0.000667522   0.00552  -0.00865  -0.06591   0.03312

FINAL SINGLE POINT ENERGY     -7660.092036413234

DIPOLE MOMENT
-------------
                                X             Y             Z
Electronic contribution:   -104.06059    -128.66695      11.46277
Nuclear contribution   :    103.74633     127.30558     -11.81488
                        -----------------------------------------
Total Dipole Moment    :     -0.31426      -1.36137      -0.35211
                        -----------------------------------------
Magnitude (a.u.)       :      1.44086
Magnitude (Debye)      :      3.66237

Rotational constants in cm-1:     0.001278     0.000360     0.000307
Rotational constants in MHz :    38.317176    10.799776     9.201189

                             ****ORCA TERMINATED NORMALLY****
TOTAL RUN TIME: 0 days 0 hours 7 minutes 33 seconds 966 msec
