                         Program Version 4.2.0 -  RELEASE  -
|  1> # ORCA input file
|  2> # SCF done       -167.397305620656          0.000456677993
|  3> ! CAM-B3LYP def2-SVP def2/J RIJCOSX Grid4 TightSCF
|  4> %maxcore 5000
|  5> %tddft
|  6>     Mode sTDDFT
|  7>     Ethresh 5.0
|  8>     maxcore 5000
|  9> end
| 10>
| 11> %pal
| 12>   nprocs 6
| 13>   end
| 14> * xyz 0 1
| 15>    C       -2.55269         2.96174        -1.01330
| 16>    C       -1.24695         2.97122        -1.41931
| 17>    C       -0.16953         3.38002        -0.60237
| 18>    N        0.74708         3.69876         0.00993
| 19>    C       -0.77810         2.62745        -2.70663
| 20>    N       -0.31219         2.38342        -3.72727
| 21>    C       -3.03457         3.40126         0.28803
| 22>    C       -4.44940         3.45319         0.25745
| 23>    C       -5.19863         3.85354         1.33739
| 24>    C       -4.52018         4.20592         2.50823
| 25>    C       -3.10538         4.14164         2.53271
| 26>    C       -2.34766         3.74599         1.43905
| 27>    S       -2.47022         4.61818         4.07817
| 28>    C       -4.08945         4.89650         4.66152
| 29>    C       -5.05801         4.64411         3.74882
| 30>   Br       -4.34862         5.49345         6.41974
| 31>    C       -4.93068         3.04736        -1.07917
| 32>    O       -6.05910         3.16416        -1.49568
| 33>    C       -3.71913         2.57018        -1.80602
| 34>    C       -3.65193         1.84899        -2.94875
| 35>    C       -4.70332         1.27612        -3.76234
| 36>    C       -4.39357         0.82790        -4.99883
| 37>    C       -6.01762         1.12562        -3.27576
| 38>    C       -7.15510         0.90528        -2.92487
| 39>    C       -8.45892         0.72462        -2.47074
| 40>    C       -8.96097         1.45581        -1.45132
| 41>    C      -10.30366         1.38323        -0.98122
| 42>    S      -11.04884         2.87970        -0.52343
| 43>    C      -12.64348         2.18685        -0.41530
| 44>    C      -12.58861         0.81897        -0.75747
| 45>    C      -11.24920         0.34645        -0.97538
| 46>    C      -11.06862        -1.05877        -1.10055
| 47>    C       -9.74873        -1.75526        -0.91551
| 48>    F       -8.84154        -1.05157        -0.22559
| 49>    F       -9.90891        -2.90192        -0.22495
| 50>    F       -9.15931        -2.12624        -2.07137
| 51>    C      -12.16068        -1.87343        -1.27927
| 52>    C      -13.45959        -1.34824        -1.31431
| 53>    C      -13.67558        -0.03216        -1.01302
| 54>    C      -13.67748         3.04745        -0.01934
| 55>    C      -14.89855         2.80131         0.56750
| 56>    C      -15.82585         3.81833         0.90909
| 57>    C      -16.93232         3.38188         1.57280
| 58>    C      -16.94291         1.99016         1.80572
| 59>    S      -15.49987         1.25514         1.14225
| 60>    C      -17.90411         1.23199         2.44591
| 61>    C      -19.11537         1.66555         3.02953
| 62>    C      -19.84628         0.66352         3.58906
| 63>    C      -19.25364        -0.62177         3.48262
| 64>    S      -17.72434        -0.50186         2.63159
| 65>    C      -19.77363        -1.79063         3.97035
| 66>    C      -19.20810        -3.07476         3.88558
| 67>    S      -17.68900        -3.46745         3.09527
| 68>    C      -17.78432        -5.14276         3.46377
| 69>    C      -18.93217        -5.42011         4.16881
| 70>    C      -19.72301        -4.25415         4.39848
| 71>    O      -20.83872        -4.55602         5.09421
| 72>    C      -20.76963        -5.89776         5.31164
| 73>    N      -21.82566        -6.50140         6.03466
| 74>    O      -21.73852        -7.70131         6.21803
| 75>    O      -22.73188        -5.79335         6.41717
| 76>    C      -19.65028        -6.48268         4.78294
| 77>    H       -6.27527         3.89090         1.28272
| 78>    H       -1.27331         3.71118         1.50758
| 79>    H       -6.10868         4.76195         3.94127
| 80>    H       -2.66367         1.61709        -3.32692
| 81>    H       -3.39404         0.90858        -5.39102
| 82>    H       -5.14483         0.39982        -5.63912
| 83>    H       -9.06090         0.00064        -3.00203
| 84>    H       -8.34391         2.24532        -1.04246
| 85>    H      -12.01754        -2.93840        -1.38067
| 86>    H      -14.28887        -2.00291        -1.52749
| 87>    H      -14.67662         0.36213        -0.99267
| 88>    H      -13.43576         4.10128        -0.10856
| 89>    H      -15.64367         4.84599         0.64793
| 90>    H      -17.73210         4.02038         1.90161
| 91>    H      -19.41229         2.69878         3.02003
| 92>    H      -20.79444         0.79926         4.07816
| 93>    H      -20.72308        -1.74074         4.48710
| 94>    H      -17.00632        -5.80532         3.14701
| 95>    H      -19.39718        -7.52107         4.83684
| 96> *
| 97>
| 98>                          ****END OF INPUT****

CARTESIAN COORDINATES (ANGSTROEM)
---------------------------------
  C     -2.552690    2.961740   -1.013300
  C     -1.246950    2.971220   -1.419310
  C     -0.169530    3.380020   -0.602370
  N      0.747080    3.698760    0.009930
  C     -0.778100    2.627450   -2.706630
  N     -0.312190    2.383420   -3.727270
  C     -3.034570    3.401260    0.288030
  C     -4.449400    3.453190    0.257450
  C     -5.198630    3.853540    1.337390
  C     -4.520180    4.205920    2.508230
  C     -3.105380    4.141640    2.532710
  C     -2.347660    3.745990    1.439050
  S     -2.470220    4.618180    4.078170
  C     -4.089450    4.896500    4.661520
  C     -5.058010    4.644110    3.748820
  Br    -4.348620    5.493450    6.419740
  C     -4.930680    3.047360   -1.079170
  O     -6.059100    3.164160   -1.495680
  C     -3.719130    2.570180   -1.806020
  C     -3.651930    1.848990   -2.948750
  C     -4.703320    1.276120   -3.762340
  C     -4.393570    0.827900   -4.998830
  C     -6.017620    1.125620   -3.275760
  C     -7.155100    0.905280   -2.924870
  C     -8.458920    0.724620   -2.470740
  C     -8.960970    1.455810   -1.451320
  C    -10.303660    1.383230   -0.981220
  S    -11.048840    2.879700   -0.523430
  C    -12.643480    2.186850   -0.415300
  C    -12.588610    0.818970   -0.757470
  C    -11.249200    0.346450   -0.975380
  C    -11.068620   -1.058770   -1.100550
  C     -9.748730   -1.755260   -0.915510
  F     -8.841540   -1.051570   -0.225590
  F     -9.908910   -2.901920   -0.224950
  F     -9.159310   -2.126240   -2.071370
  C    -12.160680   -1.873430   -1.279270
  C    -13.459590   -1.348240   -1.314310
  C    -13.675580   -0.032160   -1.013020
  C    -13.677480    3.047450   -0.019340
  C    -14.898550    2.801310    0.567500
  C    -15.825850    3.818330    0.909090
  C    -16.932320    3.381880    1.572800
  C    -16.942910    1.990160    1.805720
  S    -15.499870    1.255140    1.142250
  C    -17.904110    1.231990    2.445910
  C    -19.115370    1.665550    3.029530
  C    -19.846280    0.663520    3.589060
  C    -19.253640   -0.621770    3.482620
  S    -17.724340   -0.501860    2.631590
  C    -19.773630   -1.790630    3.970350
  C    -19.208100   -3.074760    3.885580
  S    -17.689000   -3.467450    3.095270
  C    -17.784320   -5.142760    3.463770
  C    -18.932170   -5.420110    4.168810
  C    -19.723010   -4.254150    4.398480
  O    -20.838720   -4.556020    5.094210
  C    -20.769630   -5.897760    5.311640
  N    -21.825660   -6.501400    6.034660
  O    -21.738520   -7.701310    6.218030
  O    -22.731880   -5.793350    6.417170
  C    -19.650280   -6.482680    4.782940
  H     -6.275270    3.890900    1.282720
  H     -1.273310    3.711180    1.507580
  H     -6.108680    4.761950    3.941270
  H     -2.663670    1.617090   -3.326920
  H     -3.394040    0.908580   -5.391020
  H     -5.144830    0.399820   -5.639120
  H     -9.060900    0.000640   -3.002030
  H     -8.343910    2.245320   -1.042460
  H    -12.017540   -2.938400   -1.380670
  H    -14.288870   -2.002910   -1.527490
  H    -14.676620    0.362130   -0.992670
  H    -13.435760    4.101280   -0.108560
  H    -15.643670    4.845990    0.647930
  H    -17.732100    4.020380    1.901610
  H    -19.412290    2.698780    3.020030
  H    -20.794440    0.799260    4.078160
  H    -20.723080   -1.740740    4.487100
  H    -17.006320   -5.805320    3.147010
  H    -19.397180   -7.521070    4.836840

 Total Charge           Charge          ....    0
 Multiplicity           Mult            ....    1
 Number of Electrons    NEL             ....  490
 Basis Dimension        Dim             .... 1001

ORBITAL ENERGIES
----------------

  NO   OCC          E(Eh)            E(eV)
   0   2.0000    -482.888874    -13140.0743
   1   2.0000     -88.979173     -2421.2464
   2   2.0000     -88.978219     -2421.2204
   3   2.0000     -88.969715     -2420.9890
   4   2.0000     -88.953975     -2420.5607
   5   2.0000     -88.953490     -2420.5475
   6   2.0000     -62.566568     -1702.5229
   7   2.0000     -56.400524     -1534.7363
   8   2.0000     -56.397797     -1534.6621
   9   2.0000     -56.397771     -1534.6614
  10   2.0000     -24.793561      -674.6671
  11   2.0000     -24.791203      -674.6029
  12   2.0000     -24.789023      -674.5436
  13   2.0000     -19.310947      -525.4776
  14   2.0000     -19.244613      -523.6725
  15   2.0000     -19.242399      -523.6123
  16   2.0000     -19.221220      -523.0360
  17   2.0000     -14.656280      -398.8176
  18   2.0000     -14.420850      -392.4113
  19   2.0000     -14.419479      -392.3740
  20   2.0000     -10.512232      -286.0524
  21   2.0000     -10.388215      -282.6777
  22   2.0000     -10.372544      -282.2513
  23   2.0000     -10.362878      -281.9882
  24   2.0000     -10.348389      -281.5940
  25   2.0000     -10.347993      -281.5832
  26   2.0000     -10.347085      -281.5585
  27   2.0000     -10.329754      -281.0869
  28   2.0000     -10.323386      -280.9136
  29   2.0000     -10.322100      -280.8786
  30   2.0000     -10.320617      -280.8383
  31   2.0000     -10.320042      -280.8226
  32   2.0000     -10.317948      -280.7656
  33   2.0000     -10.317555      -280.7549
  34   2.0000     -10.317145      -280.7438
  35   2.0000     -10.314924      -280.6833
  36   2.0000     -10.314875      -280.6820
  37   2.0000     -10.314743      -280.6784
  38   2.0000     -10.313888      -280.6552
  39   2.0000     -10.313671      -280.6492
  40   2.0000     -10.312627      -280.6209
  41   2.0000     -10.312177      -280.6086
  42   2.0000     -10.311619      -280.5934
  43   2.0000     -10.310026      -280.5501
  44   2.0000     -10.306297      -280.4486
  45   2.0000     -10.305184      -280.4183
  46   2.0000     -10.300237      -280.2837
  47   2.0000     -10.299673      -280.2683
  48   2.0000     -10.299660      -280.2680
  49   2.0000     -10.299139      -280.2538
  50   2.0000     -10.296822      -280.1908
  51   2.0000     -10.296435      -280.1802
  52   2.0000     -10.296395      -280.1791
  53   2.0000     -10.295610      -280.1578
  54   2.0000     -10.293876      -280.1106
  55   2.0000     -10.293583      -280.1026
  56   2.0000     -10.293126      -280.0902
  57   2.0000     -10.292337      -280.0687
  58   2.0000     -10.291370      -280.0424
  59   2.0000     -10.290169      -280.0097
  60   2.0000     -10.286217      -279.9022
  61   2.0000     -10.285619      -279.8859
  62   2.0000     -10.284763      -279.8626
  63   2.0000     -10.281176      -279.7650
  64   2.0000     -10.265102      -279.3276
  65   2.0000     -10.261823      -279.2384
  66   2.0000      -8.795984      -239.3509
  67   2.0000      -8.075120      -219.7352
  68   2.0000      -8.072744      -219.6705
  69   2.0000      -8.065328      -219.4687
  70   2.0000      -8.049926      -219.0496
  71   2.0000      -8.049703      -219.0436
  72   2.0000      -6.632303      -180.4741
  73   2.0000      -6.617730      -180.0776
  74   2.0000      -6.617486      -180.0710
  75   2.0000      -6.044835      -164.4883
  76   2.0000      -6.042087      -164.4136
  77   2.0000      -6.040521      -164.3709
  78   2.0000      -6.037645      -164.2927
  79   2.0000      -6.036349      -164.2574
  80   2.0000      -6.035179      -164.2256
  81   2.0000      -6.034209      -164.1992
  82   2.0000      -6.030242      -164.0912
  83   2.0000      -6.028089      -164.0326
  84   2.0000      -6.019692      -163.8042
  85   2.0000      -6.019501      -163.7989
  86   2.0000      -6.015543      -163.6912
  87   2.0000      -6.015378      -163.6868
  88   2.0000      -6.010870      -163.5641
  89   2.0000      -6.010549      -163.5554
  90   2.0000      -2.748171       -74.7815
  91   2.0000      -2.744082       -74.6703
  92   2.0000      -2.743922       -74.6659
  93   2.0000      -2.732322       -74.3503
  94   2.0000      -2.732314       -74.3500
  95   2.0000      -1.381759       -37.5996
  96   2.0000      -1.327648       -36.1271
  97   2.0000      -1.285172       -34.9713
  98   2.0000      -1.279934       -34.8288
  99   2.0000      -1.230810       -33.4920
 100   2.0000      -1.143960       -31.1287
 101   2.0000      -1.137146       -30.9433
 102   2.0000      -1.027438       -27.9580
 103   2.0000      -1.017907       -27.6987
 104   2.0000      -1.007002       -27.4019
 105   2.0000      -1.003349       -27.3025
 106   2.0000      -0.998731       -27.1769
 107   2.0000      -0.996541       -27.1173
 108   2.0000      -0.994244       -27.0548
 109   2.0000      -0.978887       -26.6369
 110   2.0000      -0.950854       -25.8740
 111   2.0000      -0.946453       -25.7543
 112   2.0000      -0.936890       -25.4941
 113   2.0000      -0.933345       -25.3976
 114   2.0000      -0.915908       -24.9231
 115   2.0000      -0.912684       -24.8354
 116   2.0000      -0.903125       -24.5753
 117   2.0000      -0.890281       -24.2258
 118   2.0000      -0.889260       -24.1980
 119   2.0000      -0.886090       -24.1117
 120   2.0000      -0.878320       -23.9003
 121   2.0000      -0.871699       -23.7201
 122   2.0000      -0.854694       -23.2574
 123   2.0000      -0.844215       -22.9723
 124   2.0000      -0.841848       -22.9078
 125   2.0000      -0.838047       -22.8044
 126   2.0000      -0.833246       -22.6738
 127   2.0000      -0.831824       -22.6351
 128   2.0000      -0.820474       -22.3262
 129   2.0000      -0.801717       -21.8158
 130   2.0000      -0.787350       -21.4249
 131   2.0000      -0.778997       -21.1976
 132   2.0000      -0.774066       -21.0634
 133   2.0000      -0.769356       -20.9353
 134   2.0000      -0.762760       -20.7558
 135   2.0000      -0.741825       -20.1861
 136   2.0000      -0.725340       -19.7375
 137   2.0000      -0.717402       -19.5215
 138   2.0000      -0.714060       -19.4306
 139   2.0000      -0.709164       -19.2973
 140   2.0000      -0.701172       -19.0799
 141   2.0000      -0.697728       -18.9861
 142   2.0000      -0.687803       -18.7161
 143   2.0000      -0.679570       -18.4920
 144   2.0000      -0.678426       -18.4609
 145   2.0000      -0.675785       -18.3890
 146   2.0000      -0.666015       -18.1232
 147   2.0000      -0.664364       -18.0783
 148   2.0000      -0.662221       -18.0200
 149   2.0000      -0.658817       -17.9273
 150   2.0000      -0.646130       -17.5821
 151   2.0000      -0.641406       -17.4535
 152   2.0000      -0.639462       -17.4007
 153   2.0000      -0.632838       -17.2204
 154   2.0000      -0.629419       -17.1274
 155   2.0000      -0.628234       -17.0951
 156   2.0000      -0.619948       -16.8697
 157   2.0000      -0.617432       -16.8012
 158   2.0000      -0.605296       -16.4709
 159   2.0000      -0.602855       -16.4045
 160   2.0000      -0.599602       -16.3160
 161   2.0000      -0.590440       -16.0667
 162   2.0000      -0.586518       -15.9600
 163   2.0000      -0.585945       -15.9444
 164   2.0000      -0.583060       -15.8659
 165   2.0000      -0.579737       -15.7754
 166   2.0000      -0.567697       -15.4478
 167   2.0000      -0.565242       -15.3810
 168   2.0000      -0.558773       -15.2050
 169   2.0000      -0.557023       -15.1574
 170   2.0000      -0.554524       -15.0894
 171   2.0000      -0.553672       -15.0662
 172   2.0000      -0.543866       -14.7994
 173   2.0000      -0.543532       -14.7903
 174   2.0000      -0.542763       -14.7693
 175   2.0000      -0.542616       -14.7653
 176   2.0000      -0.533255       -14.5106
 177   2.0000      -0.529541       -14.4096
 178   2.0000      -0.528424       -14.3792
 179   2.0000      -0.519132       -14.1263
 180   2.0000      -0.517066       -14.0701
 181   2.0000      -0.516188       -14.0462
 182   2.0000      -0.513002       -13.9595
 183   2.0000      -0.510523       -13.8920
 184   2.0000      -0.509928       -13.8759
 185   2.0000      -0.506249       -13.7757
 186   2.0000      -0.504692       -13.7334
 187   2.0000      -0.501268       -13.6402
 188   2.0000      -0.498344       -13.5606
 189   2.0000      -0.496951       -13.5227
 190   2.0000      -0.496781       -13.5181
 191   2.0000      -0.496442       -13.5089
 192   2.0000      -0.491535       -13.3753
 193   2.0000      -0.487670       -13.2702
 194   2.0000      -0.487517       -13.2660
 195   2.0000      -0.480661       -13.0795
 196   2.0000      -0.479769       -13.0552
 197   2.0000      -0.477532       -12.9943
 198   2.0000      -0.473428       -12.8826
 199   2.0000      -0.471600       -12.8329
 200   2.0000      -0.464245       -12.6327
 201   2.0000      -0.461499       -12.5580
 202   2.0000      -0.459644       -12.5075
 203   2.0000      -0.456075       -12.4104
 204   2.0000      -0.455784       -12.4025
 205   2.0000      -0.453719       -12.3463
 206   2.0000      -0.452924       -12.3247
 207   2.0000      -0.450319       -12.2538
 208   2.0000      -0.448352       -12.2003
 209   2.0000      -0.446963       -12.1625
 210   2.0000      -0.442800       -12.0492
 211   2.0000      -0.437479       -11.9044
 212   2.0000      -0.432724       -11.7750
 213   2.0000      -0.431144       -11.7320
 214   2.0000      -0.428070       -11.6484
 215   2.0000      -0.427829       -11.6418
 216   2.0000      -0.424803       -11.5595
 217   2.0000      -0.421335       -11.4651
 218   2.0000      -0.418852       -11.3975
 219   2.0000      -0.413661       -11.2563
 220   2.0000      -0.412446       -11.2232
 221   2.0000      -0.404131       -10.9970
 222   2.0000      -0.400073       -10.8865
 223   2.0000      -0.391629       -10.6568
 224   2.0000      -0.390404       -10.6234
 225   2.0000      -0.386802       -10.5254
 226   2.0000      -0.380653       -10.3581
 227   2.0000      -0.378150       -10.2900
 228   2.0000      -0.373229       -10.1561
 229   2.0000      -0.372208       -10.1283
 230   2.0000      -0.365408        -9.9433
 231   2.0000      -0.353481        -9.6187
 232   2.0000      -0.346430        -9.4268
 233   2.0000      -0.345164        -9.3924
 234   2.0000      -0.334997        -9.1157
 235   2.0000      -0.326335        -8.8800
 236   2.0000      -0.324500        -8.8301
 237   2.0000      -0.322364        -8.7720
 238   2.0000      -0.318853        -8.6764
 239   2.0000      -0.314065        -8.5461
 240   2.0000      -0.304674        -8.2906
 241   2.0000      -0.297162        -8.0862
 242   2.0000      -0.288975        -7.8634
 243   2.0000      -0.254993        -6.9387
 244   2.0000      -0.210898        -5.7388
 245   0.0000      -0.093856        -2.5540
 246   0.0000      -0.090782        -2.4703
 247   0.0000      -0.064270        -1.7489
 248   0.0000      -0.060070        -1.6346
 249   0.0000      -0.046105        -1.2546

MULLIKEN ATOMIC CHARGES
-----------------------
   0 C :    0.296726
   1 C :   -0.345038
   2 C :   -0.185891
   3 N :    0.153389
   4 C :   -0.188238
   5 N :    0.157162
   6 C :    0.018635
   7 C :    0.001224
   8 C :   -0.077600
   9 C :    0.120823
  10 C :   -0.090295
  11 C :   -0.023087
  12 S :    0.189099
  13 C :   -0.121635
  14 C :    0.037179
  15 Br:    0.026719
  16 C :    0.143833
  17 O :   -0.125092
  18 C :   -0.041669
  19 C :   -0.006433
  20 C :   -0.041948
  21 C :    0.019298
  22 C :    0.042732
  23 C :   -0.023846
  24 C :   -0.067283
  25 C :    0.025022
  26 C :   -0.150646
  27 S :    0.165268
  28 C :   -0.133460
  29 C :    0.086888
  30 C :    0.116731
  31 C :   -0.139675
  32 C :    0.517490
  33 F :   -0.151677
  34 F :   -0.170542
  35 F :   -0.171155
  36 C :   -0.001379
  37 C :    0.028027
  38 C :   -0.017531
  39 C :   -0.006596
  40 C :   -0.029038
  41 C :    0.031639
  42 C :    0.031393
  43 C :   -0.052693
  44 S :    0.082161
  45 C :   -0.034651
  46 C :    0.025172
  47 C :    0.040855
  48 C :   -0.028781
  49 S :    0.058486
  50 C :   -0.005748
  51 C :   -0.192681
  52 S :    0.140583
  53 C :   -0.130312
  54 C :    0.123603
  55 C :    0.195180
  56 O :   -0.184347
  57 C :    0.235198
  58 N :    0.273844
  59 O :   -0.250129
  60 O :   -0.230253
  61 C :   -0.071837
  62 H :   -0.010977
  63 H :   -0.002795
  64 H :   -0.001475
  65 H :    0.009068
  66 H :    0.043867
  67 H :    0.042490
  68 H :    0.027054
  69 H :    0.008755
  70 H :    0.003702
  71 H :   -0.007803
  72 H :   -0.005901
  73 H :   -0.008391
  74 H :   -0.009442
  75 H :   -0.011907
  76 H :   -0.012151
  77 H :   -0.008555
  78 H :    0.004953
  79 H :    0.032904
  80 H :    0.013435
Sum of atomic charges:   -0.0000000

LOEWDIN ATOMIC CHARGES
----------------------
   0 C :    0.079235
   1 C :   -0.135061
   2 C :   -0.017753
   3 N :   -0.048720
   4 C :   -0.022609
   5 N :   -0.047396
   6 C :   -0.022339
   7 C :   -0.048672
   8 C :    0.020325
   9 C :   -0.029799
  10 C :   -0.142966
  11 C :   -0.008145
  12 S :    0.434570
  13 C :   -0.269698
  14 C :   -0.070819
  15 Br:    0.139732
  16 C :    0.086471
  17 O :   -0.114642
  18 C :   -0.078051
  19 C :    0.079738
  20 C :   -0.046857
  21 C :    0.039560
  22 C :   -0.041436
  23 C :   -0.012238
  24 C :   -0.039512
  25 C :   -0.020591
  26 C :   -0.179063
  27 S :    0.485417
  28 C :   -0.175314
  29 C :   -0.047530
  30 C :   -0.037341
  31 C :   -0.084936
  32 C :    0.174441
  33 F :   -0.047220
  34 F :   -0.066105
  35 F :   -0.066632
  36 C :    0.005121
  37 C :   -0.029389
  38 C :   -0.003670
  39 C :   -0.081836
  40 C :   -0.150972
  41 C :   -0.030114
  42 C :   -0.035885
  43 C :   -0.178262
  44 S :    0.397353
  45 C :   -0.177802
  46 C :   -0.035309
  47 C :   -0.028766
  48 C :   -0.152286
  49 S :    0.362209
  50 C :   -0.067848
  51 C :   -0.204144
  52 S :    0.473041
  53 C :   -0.190076
  54 C :   -0.084349
  55 C :    0.020196
  56 O :    0.001487
  57 C :    0.025221
  58 N :    0.272106
  59 O :   -0.210680
  60 O :   -0.192298
  61 C :   -0.008856
  62 H :    0.040055
  63 H :    0.041638
  64 H :    0.039336
  65 H :    0.046420
  66 H :    0.033802
  67 H :    0.037369
  68 H :    0.035778
  69 H :    0.033532
  70 H :    0.035631
  71 H :    0.032644
  72 H :    0.019061
  73 H :    0.034573
  74 H :    0.034013
  75 H :    0.032798
  76 H :    0.032821
  77 H :    0.035370
  78 H :    0.046611
  79 H :    0.029111
  80 H :    0.047200

  Mayer bond orders larger than 0.100000
B(  0-C ,  1-C ) :   1.6517 B(  0-C ,  6-C ) :   1.0121 B(  0-C , 18-C ) :   1.0465
B(  1-C ,  2-C ) :   1.1389 B(  1-C ,  4-C ) :   1.1350 B(  2-C ,  3-N ) :   2.9759
B(  4-C ,  5-N ) :   2.9871 B(  6-C ,  7-C ) :   1.2716 B(  6-C , 11-C ) :   1.3992
B(  7-C ,  8-C ) :   1.4166 B(  7-C , 16-C ) :   0.9272 B(  8-C ,  9-C ) :   1.2553
B(  8-C , 62-H ) :   1.0174 B(  9-C , 10-C ) :   1.2978 B(  9-C , 14-C ) :   1.1643
B( 10-C , 11-C ) :   1.3413 B( 10-C , 12-S ) :   1.0855 B( 11-C , 63-H ) :   0.9812
B( 12-S , 13-C ) :   1.0870 B( 13-C , 14-C ) :   1.6166 B( 13-C , 15-Br) :   1.0205
B( 14-C , 64-H ) :   1.0006 B( 16-C , 17-O ) :   2.2180 B( 16-C , 18-C ) :   0.9149
B( 18-C , 19-C ) :   1.6699 B( 19-C , 20-C ) :   1.0975 B( 19-C , 65-H ) :   0.9405
B( 20-C , 21-C ) :   1.8458 B( 20-C , 22-C ) :   0.8690 B( 21-C , 66-H ) :   0.9468
B( 21-C , 67-H ) :   0.9483 B( 22-C , 23-C ) :   2.3173 B( 23-C , 24-C ) :   1.0609
B( 24-C , 25-C ) :   1.7392 B( 24-C , 68-H ) :   0.9303 B( 25-C , 26-C ) :   1.0960
B( 25-C , 69-H ) :   0.9469 B( 26-C , 27-S ) :   1.1530 B( 26-C , 28-C ) :   0.1032
B( 26-C , 30-C ) :   1.3590 B( 27-S , 28-C ) :   1.1565 B( 28-C , 29-C ) :   1.3027
B( 28-C , 39-C ) :   1.1851 B( 29-C , 30-C ) :   1.2179 B( 29-C , 38-C ) :   1.2267
B( 30-C , 31-C ) :   1.2189 B( 31-C , 32-C ) :   0.9600 B( 31-C , 36-C ) :   1.5491
B( 32-C , 33-F ) :   1.1516 B( 32-C , 34-F ) :   1.1479 B( 32-C , 35-F ) :   1.1353
B( 36-C , 37-C ) :   1.2214 B( 36-C , 70-H ) :   0.9866 B( 37-C , 38-C ) :   1.5341
B( 37-C , 71-H ) :   0.9876 B( 38-C , 72-H ) :   0.9746 B( 39-C , 40-C ) :   1.5907
B( 39-C , 73-H ) :   0.9424 B( 40-C , 41-C ) :   1.1497 B( 40-C , 44-S ) :   1.0309
B( 41-C , 42-C ) :   1.5840 B( 41-C , 74-H ) :   0.9985 B( 42-C , 43-C ) :   1.1875
B( 42-C , 75-H ) :   0.9930 B( 43-C , 44-S ) :   1.0416 B( 43-C , 45-C ) :   1.5109
B( 45-C , 46-C ) :   1.1871 B( 45-C , 49-S ) :   1.0392 B( 46-C , 47-C ) :   1.5914
B( 46-C , 76-H ) :   0.9936 B( 47-C , 48-C ) :   1.1419 B( 47-C , 77-H ) :   1.0000
B( 48-C , 49-S ) :   1.0320 B( 48-C , 50-C ) :   1.5694 B( 50-C , 51-C ) :   1.1770
B( 50-C , 78-H ) :   0.9728 B( 51-C , 52-S ) :   1.1063 B( 51-C , 53-C ) :   0.1083
B( 51-C , 55-C ) :   1.4398 B( 52-S , 53-C ) :   1.1880 B( 53-C , 54-C ) :   1.4156
B( 53-C , 79-H ) :   0.9754 B( 54-C , 55-C ) :   1.2324 B( 54-C , 61-C ) :   1.0580
B( 55-C , 56-O ) :   1.1225 B( 56-O , 57-C ) :   1.1229 B( 57-C , 58-N ) :   0.9167
B( 57-C , 61-C ) :   1.5772 B( 58-N , 59-O ) :   1.5332 B( 58-N , 60-O ) :   1.5142
B( 59-O , 60-O ) :   0.2800 B( 61-C , 80-H ) :   1.0264

-----------------------------------------------------------------------------
         ABSORPTION SPECTRUM VIA TRANSITION ELECTRIC DIPOLE MOMENTS
-----------------------------------------------------------------------------
State   Energy  Wavelength   fosc         T2         TX        TY        TZ
        (cm-1)    (nm)                  (au**2)     (au)      (au)      (au)
-----------------------------------------------------------------------------
   0   12459.3    802.6   1.241695428  32.80923  -4.68804  -1.94989   2.65131
   1   16081.6    621.8   0.011889033   0.24338   0.22883   0.42150   0.11559
   2   18194.9    549.6   0.071377429   1.29148   0.80140  -0.79818  -0.11026
   3   20277.7    493.2   0.147241573   2.39049   1.28402  -0.64251  -0.57357
   4   21526.7    464.5   0.009965956   0.15241   0.23016  -0.23052  -0.21518
   5   22680.8    440.9   0.474142518   6.88219   0.82501  -2.45303   0.42915
   6   24035.3    416.1   0.050871425   0.69679   0.45207   0.25338   0.65438
   7   26587.8    376.1   0.027612571   0.34190  -0.47931  -0.32942  -0.06037
   8   27098.2    369.0   0.113814116   1.38271   1.08746   0.29890  -0.33286
   9   27590.0    362.4   0.094728572   1.13033  -1.04471  -0.15461  -0.12248
  10   28235.9    354.2   0.314250879   3.66395  -0.87999   0.46588   1.63479
  11   29022.1    344.6   0.057760474   0.65520   0.66235   0.41804  -0.20429
  12   29289.4    341.4   0.075627227   0.85005   0.01288   0.86163   0.32784
  13   30101.2    332.2   0.102807502   1.12439   0.16642  -0.98200  -0.36382
  14   30192.2    331.2   0.329369497   3.59140  -0.61477  -1.78552  -0.15929
  15   30559.4    327.2   0.097327227   1.04849   0.54411  -0.12682   0.85811
  16   31061.6    321.9   0.020814573   0.22061  -0.33246  -0.13939  -0.30108
  17   31230.1    320.2   0.099640689   1.05036   0.87933  -0.17553  -0.49632
  18   31612.0    316.3   0.085313190   0.88846  -0.68282  -0.31228   0.56983
  19   31803.3    314.4   0.046263780   0.47890  -0.59093  -0.18286   0.31026
  20   32112.0    311.4   0.026945660   0.27625   0.37239   0.21305  -0.30361
  21   33183.7    301.4   0.069256339   0.68708  -0.06722  -0.46558  -0.68250
  22   33673.0    297.0   0.062028288   0.60643  -0.35292   0.19213   0.66706
  23   33882.7    295.1   0.343244322   3.33504  -0.71553   0.36993   1.63897
  24   34204.5    292.4   0.323437470   3.11302   1.45642  -0.28030  -0.95567
  25   34600.2    289.0   0.143255818   1.36304  -0.68624  -0.94440   0.01519
  26   35140.7    284.6   0.005436287   0.05093  -0.20473  -0.05260  -0.07905
  27   35472.1    281.9   0.081877175   0.75989  -0.75104  -0.32998  -0.29488
  28   35644.5    280.5   0.044354432   0.40966   0.20168  -0.09340  -0.60022
  29   35992.6    277.8   0.136235968   1.24610  -0.41196  -1.02626  -0.15227
  30   36051.9    277.4   0.066492556   0.60718   0.06008   0.17614  -0.75667
  31   37070.0    269.8   0.015460779   0.13730   0.10262  -0.27667   0.22412
  32   37455.6    267.0   0.113042857   0.99358  -0.82510  -0.54351   0.13184
  33   37773.6    264.7   0.367098082   3.19941   1.42483   0.02634  -1.08101
  34   38024.4    263.0   0.015997369   0.13850   0.27166  -0.24431  -0.07084
  35   38252.7    261.4   0.092874887   0.79930  -0.55297  -0.47552   0.51712
  36   38496.5    259.8   0.051220658   0.43803   0.32166  -0.29492   0.49758
  37   38775.0    257.9   0.178978200   1.51958  -0.40905  -0.69624  -0.93140
  38   39035.9    256.2   0.230837973   1.94679  -0.84312  -0.43353  -1.02372
  39   39386.5    253.9   0.051173243   0.42773  -0.19506   0.37952   0.49563
  40   39536.8    252.9   0.015319024   0.12756   0.14261  -0.10672  -0.30956
  41   39696.2    251.9   0.056488666   0.46848   0.02530   0.08989   0.67805
  42   39847.5    251.0   0.135005091   1.11538  -0.88564  -0.26934   0.50842
  43   40251.5    248.4   0.008254028   0.06751   0.13982   0.21855   0.01400

FINAL SINGLE POINT ENERGY     -7089.920170225875

DIPOLE MOMENT
-------------
                                X             Y             Z
Electronic contribution:     83.74722      38.18969      59.45165
Nuclear contribution   :    -85.40923     -36.70122     -59.43625
                        -----------------------------------------
Total Dipole Moment    :     -1.66201       1.48847       0.01540
                        -----------------------------------------
Magnitude (a.u.)       :      2.23116
Magnitude (Debye)      :      5.67115

Rotational constants in cm-1:     0.001380     0.000293     0.000272
Rotational constants in MHz :    41.362075     8.796763     8.156232

                             ****ORCA TERMINATED NORMALLY****
TOTAL RUN TIME: 0 days 0 hours 6 minutes 49 seconds 330 msec
