                         Program Version 4.2.0 -  RELEASE  -
|  1> # ORCA input file
|  2> # SCF done       -202.973126454824          0.000650921548
|  3> ! CAM-B3LYP def2-SVP def2/J RIJCOSX Grid4 TightSCF
|  4> %maxcore 5000
|  5> %tddft
|  6>     Mode sTDDFT
|  7>     Ethresh 5.0
|  8>     maxcore 5000
|  9> end
| 10>
| 11> %pal
| 12>   nprocs 6
| 13>   end
| 14> * xyz 0 1
| 15>    C        2.50987       -14.54857         1.87135
| 16>    C        1.92288       -13.74780         0.97131
| 17>    C        1.32153       -14.12447        -0.27655
| 18>    C        0.79490       -13.09688        -0.97641
| 19>    C        0.92708       -11.82729        -0.34636
| 20>    S        1.77853       -11.99591         1.17609
| 21>    C        0.46402       -10.62226        -0.80485
| 22>    C       -0.31733       -10.37135        -1.96245
| 23>    C       -0.65551        -9.06943        -2.12417
| 24>    C       -0.16388        -8.19709        -1.11252
| 25>    S        0.77913        -9.11721         0.04665
| 26>    C       -0.35041        -6.84407        -1.10019
| 27>    C        0.15541        -5.86982        -0.21057
| 28>    S        0.54504        -4.32974        -0.96420
| 29>    C        1.36937        -3.78656         0.42363
| 30>    C        1.31735        -4.69402         1.45101
| 31>    C        0.55049        -5.86817         1.13363
| 32>    C        0.15461        -6.80321         2.12880
| 33>    S        0.84419        -6.78266         3.71342
| 34>    O       -0.41840        -6.00633         4.58107
| 35>    C       -0.53763        -6.26653         5.95721
| 36>    C        1.96897        -5.42022         3.67002
| 37>    C        2.02435        -4.52113         2.67674
| 38>    O        2.65575        -5.42964         4.84956
| 39>    C        3.63888        -4.43562         5.04185
| 40>    C       -0.83705        -7.78942         1.95679
| 41>    C       -1.20334        -8.70604         2.90556
| 42>    C       -2.19560        -9.67308         2.69250
| 43>    O       -2.49743       -10.54793         3.69702
| 44>    C       -2.99077        -9.98549         1.59481
| 45>    C       -3.29478        -9.63430         0.22585
| 46>    O       -2.91719        -8.72861        -0.48351
| 47>    N       -4.22467       -10.60660        -0.17215
| 48>    C       -4.56598       -11.52597         0.80945
| 49>    O       -5.33574       -12.44762         0.65723
| 50>    C       -3.77794       -11.10565         1.96497
| 51>    C       -3.45496       -11.42319         3.26878
| 52>    C       -3.95392       -12.44853         4.10690
| 53>    C       -3.48500       -12.69384         5.35596
| 54>    C       -3.92605       -13.69407         6.26889
| 55>    S       -3.63412       -13.35294         7.96083
| 56>    C       -4.52119       -14.71941         8.46118
| 57>    C       -5.00812       -15.44097         7.40091
| 58>    C       -4.63550       -14.88928         6.13238
| 59>    C       -4.91859       -15.57624         4.91212
| 60>    S       -6.18939       -16.75130         4.80131
| 61>    O       -7.62726       -15.90536         4.65253
| 62>    C       -8.47666       -16.22286         3.56409
| 63>    C       -6.39207       -17.22725         6.50009
| 64>    C       -5.80559       -16.61890         7.54112
| 65>    O       -7.17945       -18.33548         6.50166
| 66>    C       -7.46034       -18.94744         7.74241
| 67>    C       -4.22192       -15.37513         3.71763
| 68>    C       -4.68239       -15.73146         2.47204
| 69>    C       -4.05927       -15.29447         1.31065
| 70>    C       -4.58902       -15.42431         0.04049
| 71>    C       -4.07124       -14.82336        -1.15213
| 72>    C       -3.04313       -13.90860        -1.24087
| 73>    C       -2.57825       -13.35238        -2.44251
| 74>    N       -2.12918       -12.86321        -3.38245
| 75>    C       -2.35429       -13.35146        -0.15013
| 76>    N       -1.76112       -12.81571         0.67814
| 77>    C       -4.89318       -15.27300        -2.27348
| 78>    C       -5.95012       -16.06469        -1.76310
| 79>    C       -5.80915       -16.16673        -0.29153
| 80>    O       -6.57149       -16.75648         0.45775
| 81>    C       -6.91441       -16.61525        -2.56824
| 82>    C       -6.82815       -16.38101        -3.94653
| 83>    C       -5.76599       -15.59564        -4.44574
| 84>    C       -4.79188       -15.03162        -3.62877
| 85>    S       -5.84733       -15.43501        -6.17573
| 86>    C       -7.29011       -16.41325        -6.20097
| 87>    C       -7.69173       -16.83813        -4.98061
| 88>   Br       -8.13161       -16.78122        -7.83820
| 89>    H        2.57161       -15.60962         1.70461
| 90>    H        2.93179       -14.16269         2.78092
| 91>    H        1.30955       -15.15384        -0.59023
| 92>    H        0.30846       -13.19454        -1.93115
| 93>    H       -0.62612       -11.16230        -2.62214
| 94>    H       -1.26184        -8.69240        -2.92761
| 95>    H       -0.84670        -6.44274        -1.97595
| 96>    H        1.86423        -2.83580         0.41942
| 97>    H        0.35942        -5.95192         6.49892
| 98>    H       -0.72247        -7.32744         6.14787
| 99>    H       -1.39290        -5.68562         6.30229
|100>    H        2.65163        -3.64535         2.75963
|101>    H        4.38826        -4.46366         4.24554
|102>    H        4.10883        -4.66633         5.99585
|103>    H        3.19044        -3.43849         5.08647
|104>    H       -1.40270        -7.76159         1.03703
|105>    H       -0.69968        -8.75286         3.86127
|106>    H       -4.61332       -10.62857        -1.10377
|107>    H       -4.74534       -13.03600         3.66859
|108>    H       -2.73838       -12.01550         5.75013
|109>    H       -4.65384       -14.92308         9.50508
|110>    H       -7.94209       -16.20850         2.61182
|111>    H       -9.24619       -15.45182         3.55667
|112>    H       -8.93859       -17.20275         3.70815
|113>    H       -5.95698       -16.98557         8.54601
|114>    H       -7.99050       -18.26237         8.41025
|115>    H       -6.54299       -19.29452         8.22690
|116>    H       -8.09702       -19.79909         7.51243
|117>    H       -3.28222       -14.84375         3.78117
|118>    H       -5.62255       -16.25495         2.37792
|119>    H       -3.12930       -14.75478         1.42743
|120>    H       -7.71357       -17.20915        -2.15276
|121>    H       -4.00150       -14.43807        -4.05762
|122>    H       -8.56053       -17.44843        -4.81351
|123> *
|124>
|125>                          ****END OF INPUT****

CARTESIAN COORDINATES (ANGSTROEM)
---------------------------------
  C      2.509870  -14.548570    1.871350
  C      1.922880  -13.747800    0.971310
  C      1.321530  -14.124470   -0.276550
  C      0.794900  -13.096880   -0.976410
  C      0.927080  -11.827290   -0.346360
  S      1.778530  -11.995910    1.176090
  C      0.464020  -10.622260   -0.804850
  C     -0.317330  -10.371350   -1.962450
  C     -0.655510   -9.069430   -2.124170
  C     -0.163880   -8.197090   -1.112520
  S      0.779130   -9.117210    0.046650
  C     -0.350410   -6.844070   -1.100190
  C      0.155410   -5.869820   -0.210570
  S      0.545040   -4.329740   -0.964200
  C      1.369370   -3.786560    0.423630
  C      1.317350   -4.694020    1.451010
  C      0.550490   -5.868170    1.133630
  C      0.154610   -6.803210    2.128800
  S      0.844190   -6.782660    3.713420
  O     -0.418400   -6.006330    4.581070
  C     -0.537630   -6.266530    5.957210
  C      1.968970   -5.420220    3.670020
  C      2.024350   -4.521130    2.676740
  O      2.655750   -5.429640    4.849560
  C      3.638880   -4.435620    5.041850
  C     -0.837050   -7.789420    1.956790
  C     -1.203340   -8.706040    2.905560
  C     -2.195600   -9.673080    2.692500
  O     -2.497430  -10.547930    3.697020
  C     -2.990770   -9.985490    1.594810
  C     -3.294780   -9.634300    0.225850
  O     -2.917190   -8.728610   -0.483510
  N     -4.224670  -10.606600   -0.172150
  C     -4.565980  -11.525970    0.809450
  O     -5.335740  -12.447620    0.657230
  C     -3.777940  -11.105650    1.964970
  C     -3.454960  -11.423190    3.268780
  C     -3.953920  -12.448530    4.106900
  C     -3.485000  -12.693840    5.355960
  C     -3.926050  -13.694070    6.268890
  S     -3.634120  -13.352940    7.960830
  C     -4.521190  -14.719410    8.461180
  C     -5.008120  -15.440970    7.400910
  C     -4.635500  -14.889280    6.132380
  C     -4.918590  -15.576240    4.912120
  S     -6.189390  -16.751300    4.801310
  O     -7.627260  -15.905360    4.652530
  C     -8.476660  -16.222860    3.564090
  C     -6.392070  -17.227250    6.500090
  C     -5.805590  -16.618900    7.541120
  O     -7.179450  -18.335480    6.501660
  C     -7.460340  -18.947440    7.742410
  C     -4.221920  -15.375130    3.717630
  C     -4.682390  -15.731460    2.472040
  C     -4.059270  -15.294470    1.310650
  C     -4.589020  -15.424310    0.040490
  C     -4.071240  -14.823360   -1.152130
  C     -3.043130  -13.908600   -1.240870
  C     -2.578250  -13.352380   -2.442510
  N     -2.129180  -12.863210   -3.382450
  C     -2.354290  -13.351460   -0.150130
  N     -1.761120  -12.815710    0.678140
  C     -4.893180  -15.273000   -2.273480
  C     -5.950120  -16.064690   -1.763100
  C     -5.809150  -16.166730   -0.291530
  O     -6.571490  -16.756480    0.457750
  C     -6.914410  -16.615250   -2.568240
  C     -6.828150  -16.381010   -3.946530
  C     -5.765990  -15.595640   -4.445740
  C     -4.791880  -15.031620   -3.628770
  S     -5.847330  -15.435010   -6.175730
  C     -7.290110  -16.413250   -6.200970
  C     -7.691730  -16.838130   -4.980610
  Br    -8.131610  -16.781220   -7.838200
  H      2.571610  -15.609620    1.704610
  H      2.931790  -14.162690    2.780920
  H      1.309550  -15.153840   -0.590230
  H      0.308460  -13.194540   -1.931150
  H     -0.626120  -11.162300   -2.622140
  H     -1.261840   -8.692400   -2.927610
  H     -0.846700   -6.442740   -1.975950
  H      1.864230   -2.835800    0.419420
  H      0.359420   -5.951920    6.498920
  H     -0.722470   -7.327440    6.147870
  H     -1.392900   -5.685620    6.302290
  H      2.651630   -3.645350    2.759630
  H      4.388260   -4.463660    4.245540
  H      4.108830   -4.666330    5.995850
  H      3.190440   -3.438490    5.086470
  H     -1.402700   -7.761590    1.037030
  H     -0.699680   -8.752860    3.861270
  H     -4.613320  -10.628570   -1.103770
  H     -4.745340  -13.036000    3.668590
  H     -2.738380  -12.015500    5.750130
  H     -4.653840  -14.923080    9.505080
  H     -7.942090  -16.208500    2.611820
  H     -9.246190  -15.451820    3.556670
  H     -8.938590  -17.202750    3.708150
  H     -5.956980  -16.985570    8.546010
  H     -7.990500  -18.262370    8.410250
  H     -6.542990  -19.294520    8.226900
  H     -8.097020  -19.799090    7.512430
  H     -3.282220  -14.843750    3.781170
  H     -5.622550  -16.254950    2.377920
  H     -3.129300  -14.754780    1.427430
  H     -7.713570  -17.209150   -2.152760
  H     -4.001500  -14.438070   -4.057620
  H     -8.560530  -17.448430   -4.813510

 Total Charge           Charge          ....    0
 Multiplicity           Mult            ....    1
 Number of Electrons    NEL             ....  596
 Basis Dimension        Dim             .... 1252

ORBITAL ENERGIES
----------------

  NO   OCC          E(Eh)            E(eV)
   0   2.0000    -482.871829    -13139.6105
   1   2.0000     -89.071420     -2423.7565
   2   2.0000     -89.053072     -2423.2573
   3   2.0000     -88.958250     -2420.6770
   4   2.0000     -88.955489     -2420.6019
   5   2.0000     -88.937856     -2420.1221
   6   2.0000     -88.912674     -2419.4369
   7   2.0000     -88.905915     -2419.2530
   8   2.0000     -62.549554     -1702.0599
   9   2.0000     -56.383482     -1534.2726
  10   2.0000     -56.380810     -1534.1998
  11   2.0000     -56.380762     -1534.1985
  12   2.0000     -19.276944      -524.5523
  13   2.0000     -19.268900      -524.3334
  14   2.0000     -19.267970      -524.3081
  15   2.0000     -19.252249      -523.8803
  16   2.0000     -19.230259      -523.2820
  17   2.0000     -19.189700      -522.1783
  18   2.0000     -19.179650      -521.9048
  19   2.0000     -19.174653      -521.7688
  20   2.0000     -14.420607      -392.4047
  21   2.0000     -14.394886      -391.7048
  22   2.0000     -14.389294      -391.5526
  23   2.0000     -10.376132      -282.3489
  24   2.0000     -10.366792      -282.0948
  25   2.0000     -10.362174      -281.9691
  26   2.0000     -10.360887      -281.9341
  27   2.0000     -10.345276      -281.5093
  28   2.0000     -10.341721      -281.4125
  29   2.0000     -10.339435      -281.3503
  30   2.0000     -10.337606      -281.3006
  31   2.0000     -10.325716      -280.9770
  32   2.0000     -10.319816      -280.8165
  33   2.0000     -10.319731      -280.8142
  34   2.0000     -10.314675      -280.6766
  35   2.0000     -10.311224      -280.5827
  36   2.0000     -10.306542      -280.4553
  37   2.0000     -10.305332      -280.4223
  38   2.0000     -10.303804      -280.3808
  39   2.0000     -10.301500      -280.3181
  40   2.0000     -10.298490      -280.2362
  41   2.0000     -10.297536      -280.2102
  42   2.0000     -10.296199      -280.1738
  43   2.0000     -10.294499      -280.1276
  44   2.0000     -10.292964      -280.0858
  45   2.0000     -10.292316      -280.0682
  46   2.0000     -10.288823      -279.9731
  47   2.0000     -10.288191      -279.9559
  48   2.0000     -10.287117      -279.9267
  49   2.0000     -10.284622      -279.8588
  50   2.0000     -10.284197      -279.8472
  51   2.0000     -10.283673      -279.8330
  52   2.0000     -10.282852      -279.8106
  53   2.0000     -10.280585      -279.7489
  54   2.0000     -10.279681      -279.7243
  55   2.0000     -10.279280      -279.7134
  56   2.0000     -10.279125      -279.7092
  57   2.0000     -10.276909      -279.6489
  58   2.0000     -10.274611      -279.5864
  59   2.0000     -10.274060      -279.5714
  60   2.0000     -10.273330      -279.5515
  61   2.0000     -10.273306      -279.5509
  62   2.0000     -10.273204      -279.5481
  63   2.0000     -10.272674      -279.5337
  64   2.0000     -10.268684      -279.4251
  65   2.0000     -10.268425      -279.4180
  66   2.0000     -10.268349      -279.4160
  67   2.0000     -10.256019      -279.0805
  68   2.0000     -10.254453      -279.0379
  69   2.0000     -10.254019      -279.0260
  70   2.0000     -10.253798      -279.0200
  71   2.0000     -10.253211      -279.0040
  72   2.0000     -10.251079      -278.9460
  73   2.0000     -10.246573      -278.8234
  74   2.0000     -10.242694      -278.7179
  75   2.0000     -10.241400      -278.6827
  76   2.0000     -10.240502      -278.6582
  77   2.0000     -10.239006      -278.6175
  78   2.0000      -8.778976      -238.8881
  79   2.0000      -8.154576      -221.8973
  80   2.0000      -8.136448      -221.4040
  81   2.0000      -8.054235      -219.1669
  82   2.0000      -8.051466      -219.0915
  83   2.0000      -8.033851      -218.6122
  84   2.0000      -8.008123      -217.9121
  85   2.0000      -8.002651      -217.7632
  86   2.0000      -6.615188      -180.0084
  87   2.0000      -6.600721      -179.6148
  88   2.0000      -6.600611      -179.6117
  89   2.0000      -6.125114      -166.6728
  90   2.0000      -6.121443      -166.5729
  91   2.0000      -6.115979      -166.4243
  92   2.0000      -6.106902      -166.1773
  93   2.0000      -6.103634      -166.0883
  94   2.0000      -6.097550      -165.9228
  95   2.0000      -6.023936      -163.9196
  96   2.0000      -6.020592      -163.8286
  97   2.0000      -6.019681      -163.8038
  98   2.0000      -6.016433      -163.7155
  99   2.0000      -6.015447      -163.6886
 100   2.0000      -6.013895      -163.6464
 101   2.0000      -6.003058      -163.3515
 102   2.0000      -5.998895      -163.2382
 103   2.0000      -5.996137      -163.1632
 104   2.0000      -5.977845      -162.6654
 105   2.0000      -5.973797      -162.5553
 106   2.0000      -5.972503      -162.5201
 107   2.0000      -5.969183      -162.4297
 108   2.0000      -5.968634      -162.4148
 109   2.0000      -5.963107      -162.2644
 110   2.0000      -2.731074       -74.3163
 111   2.0000      -2.727011       -74.2057
 112   2.0000      -2.726900       -74.2027
 113   2.0000      -2.715417       -73.8903
 114   2.0000      -2.715405       -73.8899
 115   2.0000      -1.183138       -32.1948
 116   2.0000      -1.183000       -32.1911
 117   2.0000      -1.171564       -31.8799
 118   2.0000      -1.146396       -31.1950
 119   2.0000      -1.121505       -30.5177
 120   2.0000      -1.119741       -30.4697
 121   2.0000      -1.101168       -29.9643
 122   2.0000      -1.098360       -29.8879
 123   2.0000      -1.006578       -27.3904
 124   2.0000      -1.001633       -27.2558
 125   2.0000      -0.997901       -27.1543
 126   2.0000      -0.992218       -26.9996
 127   2.0000      -0.982694       -26.7405
 128   2.0000      -0.972346       -26.4589
 129   2.0000      -0.965497       -26.2725
 130   2.0000      -0.961027       -26.1509
 131   2.0000      -0.957117       -26.0445
 132   2.0000      -0.946339       -25.7512
 133   2.0000      -0.934795       -25.4371
 134   2.0000      -0.923107       -25.1190
 135   2.0000      -0.915564       -24.9138
 136   2.0000      -0.901661       -24.5354
 137   2.0000      -0.892945       -24.2983
 138   2.0000      -0.887162       -24.1409
 139   2.0000      -0.883605       -24.0441
 140   2.0000      -0.880509       -23.9599
 141   2.0000      -0.869255       -23.6536
 142   2.0000      -0.865004       -23.5380
 143   2.0000      -0.864468       -23.5234
 144   2.0000      -0.854386       -23.2490
 145   2.0000      -0.851600       -23.1732
 146   2.0000      -0.847985       -23.0748
 147   2.0000      -0.830838       -22.6082
 148   2.0000      -0.826341       -22.4859
 149   2.0000      -0.815980       -22.2040
 150   2.0000      -0.812024       -22.0963
 151   2.0000      -0.809088       -22.0164
 152   2.0000      -0.807485       -21.9728
 153   2.0000      -0.805504       -21.9189
 154   2.0000      -0.789933       -21.4952
 155   2.0000      -0.782346       -21.2887
 156   2.0000      -0.779071       -21.1996
 157   2.0000      -0.772091       -21.0097
 158   2.0000      -0.756584       -20.5877
 159   2.0000      -0.753441       -20.5022
 160   2.0000      -0.742145       -20.1948
 161   2.0000      -0.741584       -20.1795
 162   2.0000      -0.734517       -19.9872
 163   2.0000      -0.732443       -19.9308
 164   2.0000      -0.721567       -19.6348
 165   2.0000      -0.715973       -19.4826
 166   2.0000      -0.701487       -19.0884
 167   2.0000      -0.693801       -18.8793
 168   2.0000      -0.685828       -18.6623
 169   2.0000      -0.678118       -18.4525
 170   2.0000      -0.672115       -18.2892
 171   2.0000      -0.668262       -18.1843
 172   2.0000      -0.664574       -18.0840
 173   2.0000      -0.657110       -17.8809
 174   2.0000      -0.654241       -17.8028
 175   2.0000      -0.648020       -17.6335
 176   2.0000      -0.639247       -17.3948
 177   2.0000      -0.638158       -17.3652
 178   2.0000      -0.635927       -17.3045
 179   2.0000      -0.631045       -17.1716
 180   2.0000      -0.623962       -16.9789
 181   2.0000      -0.617003       -16.7895
 182   2.0000      -0.613269       -16.6879
 183   2.0000      -0.611045       -16.6274
 184   2.0000      -0.605364       -16.4728
 185   2.0000      -0.602922       -16.4063
 186   2.0000      -0.599385       -16.3101
 187   2.0000      -0.593183       -16.1413
 188   2.0000      -0.586390       -15.9565
 189   2.0000      -0.581061       -15.8115
 190   2.0000      -0.580651       -15.8003
 191   2.0000      -0.577537       -15.7156
 192   2.0000      -0.574012       -15.6197
 193   2.0000      -0.573394       -15.6029
 194   2.0000      -0.569602       -15.4997
 195   2.0000      -0.566895       -15.4260
 196   2.0000      -0.565595       -15.3906
 197   2.0000      -0.560975       -15.2649
 198   2.0000      -0.556774       -15.1506
 199   2.0000      -0.554492       -15.0885
 200   2.0000      -0.550132       -14.9699
 201   2.0000      -0.547236       -14.8910
 202   2.0000      -0.545925       -14.8554
 203   2.0000      -0.542458       -14.7610
 204   2.0000      -0.541010       -14.7216
 205   2.0000      -0.537191       -14.6177
 206   2.0000      -0.536654       -14.6031
 207   2.0000      -0.532614       -14.4932
 208   2.0000      -0.528818       -14.3899
 209   2.0000      -0.525860       -14.3094
 210   2.0000      -0.522331       -14.2134
 211   2.0000      -0.521148       -14.1812
 212   2.0000      -0.517109       -14.0712
 213   2.0000      -0.514956       -14.0127
 214   2.0000      -0.511355       -13.9147
 215   2.0000      -0.507986       -13.8230
 216   2.0000      -0.506445       -13.7811
 217   2.0000      -0.502156       -13.6644
 218   2.0000      -0.495411       -13.4808
 219   2.0000      -0.493798       -13.4369
 220   2.0000      -0.492096       -13.3906
 221   2.0000      -0.491399       -13.3717
 222   2.0000      -0.489099       -13.3091
 223   2.0000      -0.486974       -13.2512
 224   2.0000      -0.486503       -13.2384
 225   2.0000      -0.483853       -13.1663
 226   2.0000      -0.478024       -13.0077
 227   2.0000      -0.474994       -12.9253
 228   2.0000      -0.473966       -12.8973
 229   2.0000      -0.473117       -12.8742
 230   2.0000      -0.471477       -12.8295
 231   2.0000      -0.468339       -12.7442
 232   2.0000      -0.467157       -12.7120
 233   2.0000      -0.465112       -12.6563
 234   2.0000      -0.463563       -12.6142
 235   2.0000      -0.461788       -12.5659
 236   2.0000      -0.460014       -12.5176
 237   2.0000      -0.456496       -12.4219
 238   2.0000      -0.452904       -12.3241
 239   2.0000      -0.451310       -12.2808
 240   2.0000      -0.450542       -12.2599
 241   2.0000      -0.448566       -12.2061
 242   2.0000      -0.448066       -12.1925
 243   2.0000      -0.445681       -12.1276
 244   2.0000      -0.444628       -12.0989
 245   2.0000      -0.442991       -12.0544
 246   2.0000      -0.440462       -11.9856
 247   2.0000      -0.437635       -11.9087
 248   2.0000      -0.434648       -11.8274
 249   2.0000      -0.433304       -11.7908
 250   2.0000      -0.428581       -11.6623
 251   2.0000      -0.427302       -11.6275
 252   2.0000      -0.426429       -11.6037
 253   2.0000      -0.424046       -11.5389
 254   2.0000      -0.420924       -11.4539
 255   2.0000      -0.419253       -11.4084
 256   2.0000      -0.418945       -11.4001
 257   2.0000      -0.416709       -11.3392
 258   2.0000      -0.413666       -11.2564
 259   2.0000      -0.407757       -11.0956
 260   2.0000      -0.404813       -11.0155
 261   2.0000      -0.402717       -10.9585
 262   2.0000      -0.399659       -10.8753
 263   2.0000      -0.395120       -10.7518
 264   2.0000      -0.393967       -10.7204
 265   2.0000      -0.392114       -10.6700
 266   2.0000      -0.387736       -10.5508
 267   2.0000      -0.385686       -10.4951
 268   2.0000      -0.383929       -10.4472
 269   2.0000      -0.379496       -10.3266
 270   2.0000      -0.374333       -10.1861
 271   2.0000      -0.370441       -10.0802
 272   2.0000      -0.369320       -10.0497
 273   2.0000      -0.367595       -10.0028
 274   2.0000      -0.362682        -9.8691
 275   2.0000      -0.361594        -9.8395
 276   2.0000      -0.358320        -9.7504
 277   2.0000      -0.351986        -9.5780
 278   2.0000      -0.348236        -9.4760
 279   2.0000      -0.340164        -9.2563
 280   2.0000      -0.336608        -9.1596
 281   2.0000      -0.331566        -9.0224
 282   2.0000      -0.327487        -8.9114
 283   2.0000      -0.323719        -8.8088
 284   2.0000      -0.312990        -8.5169
 285   2.0000      -0.310574        -8.4512
 286   2.0000      -0.303758        -8.2657
 287   2.0000      -0.301469        -8.2034
 288   2.0000      -0.295981        -8.0540
 289   2.0000      -0.289019        -7.8646
 290   2.0000      -0.286771        -7.8034
 291   2.0000      -0.279420        -7.6034
 292   2.0000      -0.273790        -7.4502
 293   2.0000      -0.261845        -7.1252
 294   2.0000      -0.247731        -6.7411
 295   2.0000      -0.230235        -6.2650
 296   2.0000      -0.209543        -5.7020
 297   2.0000      -0.178074        -4.8456
 298   0.0000      -0.065555        -1.7839
 299   0.0000      -0.040578        -1.1042
 300   0.0000      -0.037839        -1.0296
 301   0.0000      -0.034418        -0.9366
 302   0.0000      -0.024323        -0.6619

MULLIKEN ATOMIC CHARGES
-----------------------
   0 C :   -0.047669
   1 C :   -0.044879
   2 C :    0.033192
   3 C :    0.045542
   4 C :   -0.054089
   5 S :    0.059838
   6 C :   -0.048511
   7 C :    0.009455
   8 C :    0.078140
   9 C :   -0.038326
  10 S :    0.079080
  11 C :    0.015335
  12 C :   -0.238055
  13 S :    0.124192
  14 C :   -0.123109
  15 C :    0.031268
  16 C :    0.233078
  17 C :   -0.174714
  18 S :    0.457024
  19 O :   -0.466955
  20 C :    0.176795
  21 C :    0.090077
  22 C :    0.012624
  23 O :   -0.326149
  24 C :    0.170782
  25 C :    0.012661
  26 C :   -0.056215
  27 C :    0.181906
  28 O :   -0.230244
  29 C :   -0.081357
  30 C :    0.173929
  31 O :   -0.179642
  32 N :   -0.170345
  33 C :    0.165174
  34 O :   -0.177819
  35 C :    0.005778
  36 C :    0.066325
  37 C :   -0.050678
  38 C :    0.022590
  39 C :   -0.190093
  40 S :    0.136633
  41 C :   -0.130753
  42 C :    0.049664
  43 C :    0.254190
  44 C :   -0.246640
  45 S :    0.503990
  46 O :   -0.467343
  47 C :    0.159312
  48 C :    0.094052
  49 C :    0.010004
  50 O :   -0.318501
  51 C :    0.167319
  52 C :    0.041721
  53 C :   -0.040854
  54 C :   -0.009186
  55 C :   -0.082796
  56 C :    0.347674
  57 C :   -0.381116
  58 C :   -0.159068
  59 N :    0.107308
  60 C :   -0.203347
  61 N :    0.141578
  62 C :    0.010434
  63 C :   -0.000680
  64 C :    0.150592
  65 O :   -0.188093
  66 C :   -0.087132
  67 C :    0.118512
  68 C :   -0.091169
  69 C :   -0.035113
  70 S :    0.172952
  71 C :   -0.124242
  72 C :    0.035756
  73 Br:    0.008258
  74 H :    0.007663
  75 H :    0.007344
  76 H :   -0.023933
  77 H :   -0.010680
  78 H :   -0.022617
  79 H :   -0.022638
  80 H :   -0.016585
  81 H :    0.010423
  82 H :    0.015384
  83 H :    0.021600
  84 H :    0.044767
  85 H :   -0.018127
  86 H :    0.033258
  87 H :    0.045535
  88 H :    0.031136
  89 H :    0.044294
  90 H :   -0.038017
  91 H :    0.128371
  92 H :    0.025207
  93 H :   -0.005074
  94 H :    0.016172
  95 H :    0.057463
  96 H :    0.049679
  97 H :    0.023395
  98 H :   -0.013842
  99 H :    0.034692
 100 H :    0.032646
 101 H :    0.051372
 102 H :    0.035975
 103 H :    0.008654
 104 H :    0.000330
 105 H :   -0.022213
 106 H :   -0.011745
 107 H :   -0.009741
Sum of atomic charges:    0.0000000

LOEWDIN ATOMIC CHARGES
----------------------
   0 C :   -0.102977
   1 C :   -0.131892
   2 C :   -0.043819
   3 C :   -0.018384
   4 C :   -0.174978
   5 S :    0.340797
   6 C :   -0.173551
   7 C :   -0.044942
   8 C :   -0.018863
   9 C :   -0.143835
  10 S :    0.405101
  11 C :   -0.090072
  12 C :   -0.186256
  13 S :    0.444908
  14 C :   -0.191732
  15 C :   -0.073529
  16 C :   -0.062424
  17 C :   -0.283757
  18 S :    0.902012
  19 O :   -0.333599
  20 C :    0.044071
  21 C :   -0.114151
  22 C :   -0.055169
  23 O :   -0.123842
  24 C :    0.081659
  25 C :    0.008523
  26 C :   -0.131523
  27 C :    0.099180
  28 O :   -0.003732
  29 C :   -0.130902
  30 C :    0.090092
  31 O :   -0.173843
  32 N :   -0.005048
  33 C :    0.082921
  34 O :   -0.186764
  35 C :   -0.083591
  36 C :    0.052935
  37 C :   -0.035316
  38 C :   -0.056638
  39 C :   -0.175749
  40 S :    0.456256
  41 C :   -0.190529
  42 C :   -0.069323
  43 C :   -0.062595
  44 C :   -0.281954
  45 S :    0.921575
  46 O :   -0.322252
  47 C :    0.052433
  48 C :   -0.102133
  49 C :   -0.062055
  50 O :   -0.118582
  51 C :    0.082777
  52 C :    0.038393
  53 C :   -0.093253
  54 C :    0.077843
  55 C :   -0.125565
  56 C :    0.087391
  57 C :   -0.175431
  58 C :   -0.006768
  59 N :   -0.093614
  60 C :   -0.018252
  61 N :   -0.061551
  62 C :   -0.014423
  63 C :   -0.043999
  64 C :    0.090301
  65 O :   -0.182892
  66 C :    0.013367
  67 C :   -0.038471
  68 C :   -0.147556
  69 C :   -0.018067
  70 S :    0.422135
  71 C :   -0.277539
  72 C :   -0.071378
  73 Br:    0.124471
  74 H :    0.022902
  75 H :    0.019818
  76 H :    0.028213
  77 H :    0.032282
  78 H :    0.028822
  79 H :    0.030666
  80 H :    0.031200
  81 H :    0.020082
  82 H :    0.006363
  83 H :    0.009411
  84 H :    0.032088
  85 H :    0.040446
  86 H :    0.020173
  87 H :    0.032798
  88 H :    0.018513
  89 H :    0.043995
  90 H :    0.010583
  91 H :    0.088061
  92 H :    0.045334
  93 H :    0.029129
  94 H :    0.022118
  95 H :    0.021268
  96 H :    0.034849
  97 H :    0.013144
  98 H :    0.042054
  99 H :    0.020557
 100 H :    0.019800
 101 H :    0.035147
 102 H :    0.048326
 103 H :    0.011555
 104 H :    0.039635
 105 H :    0.036058
 106 H :    0.038358
 107 H :    0.036169

  Mayer bond orders larger than 0.100000
B(  0-C ,  1-C ) :   1.8618 B(  0-C , 74-H ) :   0.9491 B(  0-C , 75-H ) :   0.9401
B(  1-C ,  2-C ) :   1.0807 B(  1-C ,  5-S ) :   1.0130 B(  2-C ,  3-C ) :   1.6518
B(  2-C , 76-H ) :   0.9943 B(  3-C ,  4-C ) :   1.1582 B(  3-C , 77-H ) :   0.9876
B(  4-C ,  5-S ) :   1.0283 B(  4-C ,  6-C ) :   1.5801 B(  6-C ,  7-C ) :   1.1514
B(  6-C , 10-S ) :   1.0287 B(  7-C ,  8-C ) :   1.6222 B(  7-C , 78-H ) :   0.9852
B(  8-C ,  9-C ) :   1.1126 B(  8-C , 79-H ) :   0.9972 B(  9-C , 10-S ) :   1.0484
B(  9-C , 11-C ) :   1.6493 B( 11-C , 12-C ) :   1.1308 B( 11-C , 80-H ) :   0.9370
B( 12-C , 13-S ) :   1.1086 B( 12-C , 16-C ) :   1.4091 B( 13-S , 14-C ) :   1.1809
B( 14-C , 15-C ) :   1.4777 B( 14-C , 81-H ) :   0.9706 B( 15-C , 16-C ) :   1.1742
B( 15-C , 22-C ) :   1.1079 B( 16-C , 17-C ) :   1.1811 B( 17-C , 18-S ) :   1.1424
B( 17-C , 25-C ) :   1.2658 B( 18-S , 19-O ) :   0.7614 B( 18-S , 21-C ) :   1.0055
B( 19-O , 20-C ) :   0.9526 B( 20-C , 82-H ) :   0.9743 B( 20-C , 83-H ) :   0.9741
B( 20-C , 84-H ) :   0.9770 B( 21-C , 22-C ) :   1.6030 B( 21-C , 23-O ) :   1.0960
B( 22-C , 85-H ) :   0.9780 B( 23-O , 24-C ) :   0.9527 B( 24-C , 86-H ) :   0.9690
B( 24-C , 87-H ) :   0.9789 B( 24-C , 88-H ) :   0.9705 B( 25-C , 26-C ) :   1.5039
B( 25-C , 89-H ) :   0.9536 B( 26-C , 27-C ) :   1.2661 B( 26-C , 90-H ) :   0.9253
B( 27-C , 28-O ) :   1.1343 B( 27-C , 29-C ) :   1.3471 B( 28-O , 36-C ) :   1.1260
B( 29-C , 30-C ) :   0.9339 B( 29-C , 35-C ) :   1.2568 B( 30-C , 31-O ) :   2.1200
B( 30-C , 32-N ) :   1.0652 B( 32-N , 33-C ) :   1.0991 B( 32-N , 91-H ) :   0.9166
B( 33-C , 34-O ) :   2.1856 B( 33-C , 35-C ) :   0.8938 B( 35-C , 36-C ) :   1.3910
B( 36-C , 37-C ) :   1.2161 B( 37-C , 38-C ) :   1.6348 B( 37-C , 92-H ) :   0.9466
B( 38-C , 39-C ) :   1.0899 B( 38-C , 93-H ) :   0.9554 B( 39-C , 40-S ) :   1.1281
B( 39-C , 43-C ) :   1.4483 B( 40-S , 41-C ) :   1.1796 B( 41-C , 42-C ) :   1.4769
B( 41-C , 94-H ) :   0.9713 B( 42-C , 43-C ) :   1.2162 B( 42-C , 49-C ) :   1.0945
B( 43-C , 44-C ) :   1.0690 B( 44-C , 45-S ) :   1.1321 B( 44-C , 52-C ) :   1.3301
B( 45-S , 46-O ) :   0.8581 B( 45-S , 48-C ) :   0.9842 B( 46-O , 47-C ) :   0.9149
B( 47-C , 95-H ) :   0.9677 B( 47-C , 96-H ) :   0.9752 B( 47-C , 97-H ) :   0.9776
B( 48-C , 49-C ) :   1.6274 B( 48-C , 50-O ) :   1.1191 B( 49-C , 98-H ) :   0.9724
B( 50-O , 51-C ) :   0.9483 B( 51-C , 99-H ) :   0.9703 B( 51-C ,100-H ) :   0.9695
B( 51-C ,101-H ) :   0.9785 B( 52-C , 53-C ) :   1.4084 B( 52-C ,102-H ) :   0.9749
B( 53-C , 54-C ) :   1.3282 B( 53-C ,103-H ) :   0.9552 B( 54-C , 55-C ) :   1.3713
B( 54-C ,104-H ) :   0.9623 B( 55-C , 56-C ) :   1.1498 B( 55-C , 64-C ) :   0.9921
B( 56-C , 57-C ) :   1.5442 B( 56-C , 62-C ) :   0.9858 B( 57-C , 58-C ) :   1.1833
B( 57-C , 60-C ) :   1.1724 B( 58-C , 59-N ) :   2.8343 B( 60-C , 61-N ) :   2.8682
B( 62-C , 63-C ) :   1.2825 B( 62-C , 69-C ) :   1.4222 B( 63-C , 64-C ) :   0.9390
B( 63-C , 66-C ) :   1.4347 B( 64-C , 65-O ) :   2.1285 B( 66-C , 67-C ) :   1.2326
B( 66-C ,105-H ) :   1.0159 B( 67-C , 68-C ) :   1.3271 B( 67-C , 72-C ) :   1.1594
B( 68-C , 69-C ) :   1.3128 B( 68-C , 70-S ) :   1.0795 B( 69-C ,106-H ) :   0.9816
B( 70-S , 71-C ) :   1.0851 B( 71-C , 72-C ) :   1.6216 B( 71-C , 73-Br) :   1.0096
B( 72-C ,107-H ) :   1.0002

-----------------------------------------------------------------------------
         ABSORPTION SPECTRUM VIA TRANSITION ELECTRIC DIPOLE MOMENTS
-----------------------------------------------------------------------------
State   Energy  Wavelength   fosc         T2         TX        TY        TZ
        (cm-1)    (nm)                  (au**2)     (au)      (au)      (au)
-----------------------------------------------------------------------------
   0   10746.2    930.6   0.021289187   0.65220   0.45277   0.47162   0.47411
   1   14613.4    684.3   0.209777800   4.72589   1.62059   1.44463   0.11237
   2   15306.0    653.3   0.131697570   2.83265   0.19666   1.61766  -0.42090
   3   16303.0    613.4   0.451558357   9.11845  -1.07202   1.39256   2.45561
   4   17594.4    568.4   0.167237391   3.12920   0.68674  -1.61887   0.19201
   5   18495.9    540.7   0.031907405   0.56793  -0.23857   0.65755   0.28042
   6   19880.3    503.0   0.392640798   6.50200  -0.51052  -0.24391   2.48634
   7   21619.8    462.5   0.687340098  10.46635   1.20940   2.76253  -1.17137
   8   22486.3    444.7   0.161813492   2.36904  -0.69395   0.91492  -1.02489
   9   22805.2    438.5   0.037264049   0.53794  -0.25222   0.51194  -0.46070
  10   23291.8    429.3   0.065987187   0.93268  -0.22175   0.05456  -0.93836
  11   24844.1    402.5   0.266496547   3.53137   0.08869   1.78558  -0.57899
  12   25217.4    396.6   0.116429645   1.51999  -0.40578  -0.30444   1.12367
  13   25610.4    390.5   0.168324897   2.16375  -0.61922  -0.93459  -0.95230
  14   26024.7    384.3   0.453822251   5.74085  -0.15263  -2.31379   0.60327
  15   26764.1    373.6   0.028662474   0.35256  -0.18810  -0.53338   0.18079
  16   28410.7    352.0   0.045363239   0.52565  -0.13141   0.21646  -0.67936
  17   29035.4    344.4   0.055772076   0.63236   0.01727   0.36726   0.70511
  18   29366.4    340.5   0.004914903   0.05510   0.15953   0.06279   0.16033
  19   29781.7    335.8   0.271020859   2.99591   0.95456   0.62418   1.30197
  20   29821.3    335.3   0.008141750   0.08988   0.25076   0.03274   0.16102
  21   30235.3    330.7   0.047932621   0.52191   0.11878  -0.50452   0.50324
  22   30357.8    329.4   0.133821427   1.45121  -0.06664   0.52217  -1.08356
  23   30723.8    325.5   0.141234855   1.51336   0.44307   0.08454   1.14451
  24   30803.3    324.6   0.091238265   0.97511  -0.09997  -0.39365   0.90009
  25   31030.4    322.3   0.013477412   0.14299  -0.31724  -0.17238  -0.11240
  26   31489.7    317.6   0.036499123   0.38158  -0.40707  -0.45121  -0.11084
  27   31608.8    316.4   0.014471352   0.15072  -0.00906   0.10001  -0.37502
  28   31742.4    315.0   0.149651101   1.55209   0.21545  -0.22056   1.20707
  29   31932.2    313.2   0.097697597   1.00723  -0.09429  -0.47083   0.88129
  30   32125.1    311.3   0.123777800   1.26845   0.58904   0.27584   0.91945
  31   32761.5    305.2   0.182790967   1.83682  -0.14882   0.59507  -1.20854
  32   32838.3    304.5   0.025028626   0.25092   0.39017   0.26610   0.16696
  33   33068.0    302.4   0.275160164   2.73939  -1.17462  -0.78333  -0.86374
  34   33175.5    301.4   0.002036841   0.02021   0.13358  -0.04571   0.01673
  35   33474.1    298.7   0.044787085   0.44047   0.48197   0.45023   0.07396
  36   33826.6    295.6   0.027574696   0.26837  -0.42011  -0.27266  -0.13241
  37   33930.3    294.7   0.249685659   2.42260  -0.50741   0.11487  -1.46695
  38   34181.0    292.6   0.087424930   0.84203  -0.54867  -0.42423  -0.60085
  39   34452.9    290.3   0.037769630   0.36091   0.44437   0.37532   0.15025
  40   34585.5    289.1   0.024967702   0.23766  -0.06726  -0.33819   0.34462
  41   34916.1    286.4   0.204432925   1.92753   0.97471   0.54797   0.82292
  42   35025.8    285.5   0.031601506   0.29703  -0.41561  -0.34404  -0.07704
  43   35240.1    283.8   0.037603679   0.35129  -0.34136  -0.17195  -0.45298
  44   35271.5    283.5   0.090813408   0.84762  -0.73090  -0.55949   0.01940
  45   35820.5    279.2   0.072816618   0.66923  -0.41670  -0.41036   0.57201
  46   36086.9    277.1   0.062135490   0.56685  -0.09470  -0.43174   0.60949
  47   36294.0    275.5   0.103659078   0.94026  -0.61374  -0.74967   0.03967
  48   36672.6    272.7   0.030187352   0.27099  -0.39250  -0.16811  -0.29779
  49   36975.8    270.4   0.019867241   0.17689   0.36771  -0.18000   0.09630
  50   37096.8    269.6   0.040357479   0.35815   0.17504   0.28221   0.49787
  51   37392.6    267.4   0.036963109   0.32543   0.06505  -0.02973  -0.56596
  52   37785.1    264.7   0.027515339   0.23973   0.07893  -0.29308  -0.38420
  53   37886.4    263.9   0.012584627   0.10935   0.27768   0.03816  -0.17548
  54   37997.6    263.2   0.085523850   0.74098   0.30755   0.80101   0.06914
  55   38077.5    262.6   0.004504933   0.03895  -0.15931   0.03694  -0.11047
  56   38289.7    261.2   0.014067364   0.12095  -0.31854  -0.13760   0.02342
  57   38448.8    260.1   0.069845790   0.59804  -0.07447  -0.16828   0.75112
  58   38510.1    259.7   0.074540742   0.63723   0.33943   0.65143  -0.31250
  59   38711.6    258.3   0.044390640   0.37751  -0.11918   0.06687  -0.59903
  60   38823.3    257.6   0.014977830   0.12701  -0.28540  -0.00743   0.21331
  61   39029.2    256.2   0.025506162   0.21514  -0.31504  -0.27036   0.20688
  62   39078.1    255.9   0.051716531   0.43568  -0.31924  -0.57442  -0.06170
  63   39276.1    254.6   0.056157674   0.47071  -0.34923   0.01383   0.59039
  64   39393.1    253.9   0.072254427   0.60384   0.35136   0.50831  -0.47117
  65   39615.8    252.4   0.154173131   1.28120   0.06650   0.39364  -1.05916
  66   39709.3    251.8   0.010630493   0.08813  -0.01325  -0.01919  -0.29595
  67   39936.8    250.4   0.037219886   0.30682   0.53857   0.12943  -0.00311
  68   40054.7    249.7   0.144669772   1.18905   0.52594   0.55691   0.77607
  69   40298.9    248.1   0.035301562   0.28839  -0.06559  -0.10567   0.52242

FINAL SINGLE POINT ENERGY     -8238.910064727814

DIPOLE MOMENT
-------------
                                X             Y             Z
Electronic contribution:    -61.87419     -50.57401    -136.02075
Nuclear contribution   :     61.16158      49.86487     140.85606
                        -----------------------------------------
Total Dipole Moment    :     -0.71261      -0.70914       4.83531
                        -----------------------------------------
Magnitude (a.u.)       :      4.93871
Magnitude (Debye)      :     12.55321

Rotational constants in cm-1:     0.000797     0.000473     0.000330
Rotational constants in MHz :    23.880367    14.170854     9.893978

                             ****ORCA TERMINATED NORMALLY****
TOTAL RUN TIME: 0 days 0 hours 13 minutes 40 seconds 740 msec
