                         Program Version 4.2.0 -  RELEASE  -
|  1> # ORCA input file
|  2> # SCF done       -211.626386569649          0.000404654287
|  3> ! CAM-B3LYP def2-SVP def2/J RIJCOSX Grid4 TightSCF
|  4> %maxcore 5000
|  5> %tddft
|  6>     Mode sTDDFT
|  7>     Ethresh 5.0
|  8>     maxcore 5000
|  9> end
| 10>
| 11> %pal
| 12>   nprocs 6
| 13>   end
| 14> * xyz 0 1
| 15>    C        0.26953         1.16443         0.12456
| 16>    C       -0.41419         0.48089         1.12511
| 17>    C       -0.36396        -0.95900         1.22546
| 18>    N       -1.12640        -1.59084         2.13506
| 19>    C       -1.81519        -0.88552         2.98788
| 20>    C       -1.77802         0.55709         2.95895
| 21>    N       -1.12462         1.19109         2.02771
| 22>    C       -2.49224         1.29157         3.94117
| 23>    N       -3.07829         1.84499         4.75413
| 24>    C       -2.61811        -1.55499         3.94608
| 25>    N       -3.25840        -2.06999         4.74356
| 26>    C        0.42777        -1.72553         0.34927
| 27>    C        1.12574        -1.02773        -0.64453
| 28>    C        1.03008         0.41537        -0.76165
| 29>    N        1.77840         0.87550        -1.77573
| 30>    S        2.51754        -0.35337        -2.47208
| 31>    N        1.96374        -1.53844        -1.55676
| 32>    C        0.49296        -3.16805         0.47840
| 33>    C        0.41405        -4.00905        -0.64737
| 34>    C        0.48860        -5.44405        -0.52718
| 35>    N        0.33220        -6.20898        -1.61996
| 36>    C        0.22387        -5.64355        -2.79095
| 37>    C        0.18276        -4.21140        -2.91417
| 38>    N        0.22505        -3.45084        -1.85524
| 39>    C        0.05011        -3.60196        -4.18749
| 40>    N       -0.03171        -3.12665        -5.22612
| 41>    C        0.10270        -6.46775        -3.93802
| 42>    N        0.02999        -7.11827        -4.87772
| 43>    C        0.66631        -6.07455         0.72073
| 44>    C        0.73171        -5.23472         1.84246
| 45>    C        0.64094        -3.79553         1.72219
| 46>    N        0.78546        -3.19310         2.90981
| 47>    S        0.98578        -4.30566         4.03671
| 48>    N        0.93999        -5.60712         3.11191
| 49>    C        0.77397        -7.51259         0.83386
| 50>    C        0.11773        -8.20713         1.86983
| 51>    C        0.24637        -9.63379         2.02218
| 52>    N       -0.22315       -10.21819         3.13582
| 53>    C       -0.91959        -9.51999         3.98799
| 54>    C       -1.24958        -8.14632         3.70475
| 55>    N       -0.70354        -7.53447         2.69211
| 56>    C       -2.15356        -7.44466         4.54084
| 57>    N       -2.87436        -6.90734         5.25006
| 58>    C       -1.36880       -10.14171         5.17932
| 59>    N       -1.75956       -10.63578         6.13589
| 60>    C        0.91326       -10.42562         1.06604
| 61>    C        1.52508        -9.73990         0.00755
| 62>    C        1.48956        -8.29485        -0.08489
| 63>    N        2.20092        -7.85578        -1.13157
| 64>    S        2.77441        -9.11014        -1.93743
| 65>    N        2.19611       -10.27909        -1.01820
| 66>    C        0.96830       -11.86337         1.21529
| 67>    C        2.14031       -12.59549         0.95198
| 68>    C        2.17684       -14.02950         1.08530
| 69>    N        3.32620       -14.68527         0.84395
| 70>    C        4.37003       -14.03244         0.40501
| 71>    C        4.32702       -12.60199         0.27380
| 72>    N        3.25423       -11.93362         0.59323
| 73>    C        5.47442       -11.88259        -0.14708
| 74>    N        6.40057       -11.30986        -0.50070
| 75>    C        5.55481       -14.75907         0.12977
| 76>    N        6.50905       -15.35054        -0.09629
| 77>    C        1.04905       -14.77378         1.48413
| 78>    C       -0.12216       -14.04310         1.73875
| 79>    C       -0.15837       -12.60246         1.61147
| 80>    N       -1.38760       -12.12200         1.83313
| 81>    S       -2.36715       -13.33715         2.17692
| 82>    N       -1.32517       -14.53956         2.04370
| 83>    C        1.09698       -16.21634         1.57590
| 84>    C        1.82860       -16.98356         0.64773
| 85>    C        1.92809       -18.41893         0.76215
| 86>    N        2.72529       -19.10441        -0.08731
| 87>    C        3.37403       -18.45993        -1.01265
| 88>    C        3.18317       -17.04251        -1.20166
| 89>    N        2.42649       -16.36161        -0.38399
| 90>    C        3.78677       -16.36157        -2.28738
| 91>    N        4.27562       -15.80263        -3.15940
| 92>    C        4.24174       -19.16710        -1.88571
| 93>    N        4.94330       -19.70644        -2.61147
| 94>    C        1.25436       -19.11294         1.75989
| 95>    C        0.51271       -18.37219         2.67139
| 96>    C        0.44494       -16.92467         2.59688
| 97>    N       -0.24826       -16.41363         3.61942
| 98>    S       -0.78253       -17.60853         4.53363
| 99>    N       -0.16488       -18.84072         3.72908
|100>    H        0.22079         2.23859         0.06543
|101>    H        1.34851       -20.18256         1.84125
|102> *
|103>
|104>                          ****END OF INPUT****

CARTESIAN COORDINATES (ANGSTROEM)
---------------------------------
  C      0.269530    1.164430    0.124560
  C     -0.414190    0.480890    1.125110
  C     -0.363960   -0.959000    1.225460
  N     -1.126400   -1.590840    2.135060
  C     -1.815190   -0.885520    2.987880
  C     -1.778020    0.557090    2.958950
  N     -1.124620    1.191090    2.027710
  C     -2.492240    1.291570    3.941170
  N     -3.078290    1.844990    4.754130
  C     -2.618110   -1.554990    3.946080
  N     -3.258400   -2.069990    4.743560
  C      0.427770   -1.725530    0.349270
  C      1.125740   -1.027730   -0.644530
  C      1.030080    0.415370   -0.761650
  N      1.778400    0.875500   -1.775730
  S      2.517540   -0.353370   -2.472080
  N      1.963740   -1.538440   -1.556760
  C      0.492960   -3.168050    0.478400
  C      0.414050   -4.009050   -0.647370
  C      0.488600   -5.444050   -0.527180
  N      0.332200   -6.208980   -1.619960
  C      0.223870   -5.643550   -2.790950
  C      0.182760   -4.211400   -2.914170
  N      0.225050   -3.450840   -1.855240
  C      0.050110   -3.601960   -4.187490
  N     -0.031710   -3.126650   -5.226120
  C      0.102700   -6.467750   -3.938020
  N      0.029990   -7.118270   -4.877720
  C      0.666310   -6.074550    0.720730
  C      0.731710   -5.234720    1.842460
  C      0.640940   -3.795530    1.722190
  N      0.785460   -3.193100    2.909810
  S      0.985780   -4.305660    4.036710
  N      0.939990   -5.607120    3.111910
  C      0.773970   -7.512590    0.833860
  C      0.117730   -8.207130    1.869830
  C      0.246370   -9.633790    2.022180
  N     -0.223150  -10.218190    3.135820
  C     -0.919590   -9.519990    3.987990
  C     -1.249580   -8.146320    3.704750
  N     -0.703540   -7.534470    2.692110
  C     -2.153560   -7.444660    4.540840
  N     -2.874360   -6.907340    5.250060
  C     -1.368800  -10.141710    5.179320
  N     -1.759560  -10.635780    6.135890
  C      0.913260  -10.425620    1.066040
  C      1.525080   -9.739900    0.007550
  C      1.489560   -8.294850   -0.084890
  N      2.200920   -7.855780   -1.131570
  S      2.774410   -9.110140   -1.937430
  N      2.196110  -10.279090   -1.018200
  C      0.968300  -11.863370    1.215290
  C      2.140310  -12.595490    0.951980
  C      2.176840  -14.029500    1.085300
  N      3.326200  -14.685270    0.843950
  C      4.370030  -14.032440    0.405010
  C      4.327020  -12.601990    0.273800
  N      3.254230  -11.933620    0.593230
  C      5.474420  -11.882590   -0.147080
  N      6.400570  -11.309860   -0.500700
  C      5.554810  -14.759070    0.129770
  N      6.509050  -15.350540   -0.096290
  C      1.049050  -14.773780    1.484130
  C     -0.122160  -14.043100    1.738750
  C     -0.158370  -12.602460    1.611470
  N     -1.387600  -12.122000    1.833130
  S     -2.367150  -13.337150    2.176920
  N     -1.325170  -14.539560    2.043700
  C      1.096980  -16.216340    1.575900
  C      1.828600  -16.983560    0.647730
  C      1.928090  -18.418930    0.762150
  N      2.725290  -19.104410   -0.087310
  C      3.374030  -18.459930   -1.012650
  C      3.183170  -17.042510   -1.201660
  N      2.426490  -16.361610   -0.383990
  C      3.786770  -16.361570   -2.287380
  N      4.275620  -15.802630   -3.159400
  C      4.241740  -19.167100   -1.885710
  N      4.943300  -19.706440   -2.611470
  C      1.254360  -19.112940    1.759890
  C      0.512710  -18.372190    2.671390
  C      0.444940  -16.924670    2.596880
  N     -0.248260  -16.413630    3.619420
  S     -0.782530  -17.608530    4.533630
  N     -0.164880  -18.840720    3.729080
  H      0.220790    2.238590    0.065430
  H      1.348510  -20.182560    1.841250

 Total Charge           Charge          ....    0
 Multiplicity           Mult            ....    1
 Number of Electrons    NEL             ....  592
 Basis Dimension        Dim             .... 1220

ORBITAL ENERGIES
----------------

  NO   OCC          E(Eh)            E(eV)
   0   2.0000     -89.065468     -2423.5946
   1   2.0000     -89.063743     -2423.5477
   2   2.0000     -89.062048     -2423.5015
   3   2.0000     -89.061666     -2423.4911
   4   2.0000     -89.060191     -2423.4510
   5   2.0000     -14.477151      -393.9433
   6   2.0000     -14.475512      -393.8987
   7   2.0000     -14.474084      -393.8598
   8   2.0000     -14.473849      -393.8535
   9   2.0000     -14.473469      -393.8431
  10   2.0000     -14.472859      -393.8265
  11   2.0000     -14.471826      -393.7984
  12   2.0000     -14.471780      -393.7972
  13   2.0000     -14.471650      -393.7936
  14   2.0000     -14.469500      -393.7351
  15   2.0000     -14.467110      -393.6701
  16   2.0000     -14.466891      -393.6641
  17   2.0000     -14.466669      -393.6581
  18   2.0000     -14.465824      -393.6351
  19   2.0000     -14.464040      -393.5865
  20   2.0000     -14.463618      -393.5751
  21   2.0000     -14.463603      -393.5747
  22   2.0000     -14.463548      -393.5731
  23   2.0000     -14.463495      -393.5717
  24   2.0000     -14.463037      -393.5592
  25   2.0000     -14.443712      -393.0334
  26   2.0000     -14.443401      -393.0249
  27   2.0000     -14.442553      -393.0019
  28   2.0000     -14.441746      -392.9799
  29   2.0000     -14.441606      -392.9761
  30   2.0000     -14.440352      -392.9420
  31   2.0000     -14.439113      -392.9082
  32   2.0000     -14.438368      -392.8880
  33   2.0000     -14.437202      -392.8562
  34   2.0000     -14.434792      -392.7906
  35   2.0000     -10.395416      -282.8736
  36   2.0000     -10.395123      -282.8657
  37   2.0000     -10.394477      -282.8481
  38   2.0000     -10.393632      -282.8251
  39   2.0000     -10.393206      -282.8135
  40   2.0000     -10.392988      -282.8076
  41   2.0000     -10.392304      -282.7890
  42   2.0000     -10.392077      -282.7828
  43   2.0000     -10.391453      -282.7658
  44   2.0000     -10.390786      -282.7477
  45   2.0000     -10.366121      -282.0765
  46   2.0000     -10.365647      -282.0636
  47   2.0000     -10.365389      -282.0566
  48   2.0000     -10.365382      -282.0564
  49   2.0000     -10.364483      -282.0319
  50   2.0000     -10.364071      -282.0207
  51   2.0000     -10.362886      -281.9885
  52   2.0000     -10.362384      -281.9748
  53   2.0000     -10.360448      -281.9221
  54   2.0000     -10.360062      -281.9116
  55   2.0000     -10.359922      -281.9078
  56   2.0000     -10.359715      -281.9022
  57   2.0000     -10.359364      -281.8926
  58   2.0000     -10.358925      -281.8807
  59   2.0000     -10.358471      -281.8683
  60   2.0000     -10.358185      -281.8605
  61   2.0000     -10.357198      -281.8337
  62   2.0000     -10.357062      -281.8300
  63   2.0000     -10.354905      -281.7713
  64   2.0000     -10.354827      -281.7692
  65   2.0000     -10.342075      -281.4222
  66   2.0000     -10.341386      -281.4034
  67   2.0000     -10.341298      -281.4010
  68   2.0000     -10.341006      -281.3931
  69   2.0000     -10.340509      -281.3795
  70   2.0000     -10.340345      -281.3751
  71   2.0000     -10.338155      -281.3155
  72   2.0000     -10.337516      -281.2981
  73   2.0000     -10.336848      -281.2799
  74   2.0000     -10.336515      -281.2709
  75   2.0000     -10.335824      -281.2521
  76   2.0000     -10.334791      -281.2239
  77   2.0000     -10.334441      -281.2144
  78   2.0000     -10.332953      -281.1739
  79   2.0000     -10.332148      -281.1520
  80   2.0000     -10.330902      -281.1181
  81   2.0000     -10.329910      -281.0911
  82   2.0000     -10.327327      -281.0209
  83   2.0000     -10.323954      -280.9291
  84   2.0000     -10.323774      -280.9242
  85   2.0000      -8.156166      -221.9406
  86   2.0000      -8.154652      -221.8994
  87   2.0000      -8.152751      -221.8476
  88   2.0000      -8.152722      -221.8468
  89   2.0000      -8.151419      -221.8114
  90   2.0000      -6.126958      -166.7230
  91   2.0000      -6.125510      -166.6836
  92   2.0000      -6.123554      -166.6304
  93   2.0000      -6.123459      -166.6278
  94   2.0000      -6.122217      -166.5940
  95   2.0000      -6.119648      -166.5241
  96   2.0000      -6.119188      -166.5116
  97   2.0000      -6.118024      -166.4799
  98   2.0000      -6.117680      -166.4705
  99   2.0000      -6.116240      -166.4313
 100   2.0000      -6.116205      -166.4304
 101   2.0000      -6.115745      -166.4179
 102   2.0000      -6.115663      -166.4157
 103   2.0000      -6.114833      -166.3931
 104   2.0000      -6.114372      -166.3805
 105   2.0000      -1.159629       -31.5551
 106   2.0000      -1.159166       -31.5425
 107   2.0000      -1.155982       -31.4559
 108   2.0000      -1.155443       -31.4412
 109   2.0000      -1.154779       -31.4231
 110   2.0000      -1.137972       -30.9658
 111   2.0000      -1.135523       -30.8992
 112   2.0000      -1.134850       -30.8808
 113   2.0000      -1.131178       -30.7809
 114   2.0000      -1.129324       -30.7305
 115   2.0000      -1.067215       -29.0404
 116   2.0000      -1.064285       -28.9607
 117   2.0000      -1.060910       -28.8688
 118   2.0000      -1.058042       -28.7908
 119   2.0000      -1.053423       -28.6651
 120   2.0000      -1.029574       -28.0161
 121   2.0000      -1.028332       -27.9823
 122   2.0000      -1.026439       -27.9308
 123   2.0000      -1.023066       -27.8391
 124   2.0000      -1.022121       -27.8133
 125   2.0000      -1.019132       -27.7320
 126   2.0000      -1.017569       -27.6895
 127   2.0000      -1.016133       -27.6504
 128   2.0000      -1.014234       -27.5987
 129   2.0000      -1.013099       -27.5678
 130   2.0000      -1.010777       -27.5046
 131   2.0000      -1.010291       -27.4914
 132   2.0000      -1.009462       -27.4689
 133   2.0000      -1.008203       -27.4346
 134   2.0000      -1.003955       -27.3190
 135   2.0000      -1.000903       -27.2360
 136   2.0000      -0.996721       -27.1222
 137   2.0000      -0.989665       -26.9302
 138   2.0000      -0.982490       -26.7349
 139   2.0000      -0.977405       -26.5966
 140   2.0000      -0.932640       -25.3784
 141   2.0000      -0.925397       -25.1813
 142   2.0000      -0.923290       -25.1240
 143   2.0000      -0.920779       -25.0557
 144   2.0000      -0.917434       -24.9647
 145   2.0000      -0.915503       -24.9121
 146   2.0000      -0.914055       -24.8727
 147   2.0000      -0.897129       -24.4121
 148   2.0000      -0.877693       -23.8832
 149   2.0000      -0.862916       -23.4811
 150   2.0000      -0.851001       -23.1569
 151   2.0000      -0.848703       -23.0944
 152   2.0000      -0.845151       -22.9977
 153   2.0000      -0.843740       -22.9593
 154   2.0000      -0.841632       -22.9020
 155   2.0000      -0.820218       -22.3193
 156   2.0000      -0.815227       -22.1835
 157   2.0000      -0.813952       -22.1488
 158   2.0000      -0.809322       -22.0228
 159   2.0000      -0.801944       -21.8220
 160   2.0000      -0.786876       -21.4120
 161   2.0000      -0.767374       -20.8813
 162   2.0000      -0.755095       -20.5472
 163   2.0000      -0.753590       -20.5062
 164   2.0000      -0.751065       -20.4375
 165   2.0000      -0.744712       -20.2647
 166   2.0000      -0.740125       -20.1398
 167   2.0000      -0.726282       -19.7631
 168   2.0000      -0.724344       -19.7104
 169   2.0000      -0.720529       -19.6066
 170   2.0000      -0.718993       -19.5648
 171   2.0000      -0.715938       -19.4817
 172   2.0000      -0.708566       -19.2811
 173   2.0000      -0.708037       -19.2667
 174   2.0000      -0.702992       -19.1294
 175   2.0000      -0.697939       -18.9919
 176   2.0000      -0.692722       -18.8499
 177   2.0000      -0.688647       -18.7390
 178   2.0000      -0.679750       -18.4969
 179   2.0000      -0.673291       -18.3212
 180   2.0000      -0.668201       -18.1827
 181   2.0000      -0.663416       -18.0525
 182   2.0000      -0.661387       -17.9972
 183   2.0000      -0.659629       -17.9494
 184   2.0000      -0.655355       -17.8331
 185   2.0000      -0.648618       -17.6498
 186   2.0000      -0.643889       -17.5211
 187   2.0000      -0.640742       -17.4355
 188   2.0000      -0.637992       -17.3606
 189   2.0000      -0.636518       -17.3205
 190   2.0000      -0.627898       -17.0860
 191   2.0000      -0.624202       -16.9854
 192   2.0000      -0.615153       -16.7392
 193   2.0000      -0.610729       -16.6188
 194   2.0000      -0.607320       -16.5260
 195   2.0000      -0.593483       -16.1495
 196   2.0000      -0.592490       -16.1225
 197   2.0000      -0.589480       -16.0406
 198   2.0000      -0.585441       -15.9307
 199   2.0000      -0.584624       -15.9084
 200   2.0000      -0.582550       -15.8520
 201   2.0000      -0.577545       -15.7158
 202   2.0000      -0.575826       -15.6690
 203   2.0000      -0.573172       -15.5968
 204   2.0000      -0.569973       -15.5098
 205   2.0000      -0.569176       -15.4881
 206   2.0000      -0.566315       -15.4102
 207   2.0000      -0.560923       -15.2635
 208   2.0000      -0.560270       -15.2457
 209   2.0000      -0.557375       -15.1669
 210   2.0000      -0.551440       -15.0055
 211   2.0000      -0.548962       -14.9380
 212   2.0000      -0.547749       -14.9050
 213   2.0000      -0.542234       -14.7549
 214   2.0000      -0.538221       -14.6457
 215   2.0000      -0.535128       -14.5616
 216   2.0000      -0.506018       -13.7695
 217   2.0000      -0.502201       -13.6656
 218   2.0000      -0.501637       -13.6502
 219   2.0000      -0.500933       -13.6311
 220   2.0000      -0.500633       -13.6229
 221   2.0000      -0.499365       -13.5884
 222   2.0000      -0.497526       -13.5384
 223   2.0000      -0.496671       -13.5151
 224   2.0000      -0.495681       -13.4882
 225   2.0000      -0.495007       -13.4698
 226   2.0000      -0.492727       -13.4078
 227   2.0000      -0.489515       -13.3204
 228   2.0000      -0.487518       -13.2660
 229   2.0000      -0.485449       -13.2097
 230   2.0000      -0.483946       -13.1688
 231   2.0000      -0.469809       -12.7842
 232   2.0000      -0.469350       -12.7717
 233   2.0000      -0.468054       -12.7364
 234   2.0000      -0.467384       -12.7182
 235   2.0000      -0.467193       -12.7130
 236   2.0000      -0.465046       -12.6545
 237   2.0000      -0.464713       -12.6455
 238   2.0000      -0.464059       -12.6277
 239   2.0000      -0.463596       -12.6151
 240   2.0000      -0.462901       -12.5962
 241   2.0000      -0.462229       -12.5779
 242   2.0000      -0.460841       -12.5401
 243   2.0000      -0.458788       -12.4843
 244   2.0000      -0.457948       -12.4614
 245   2.0000      -0.457103       -12.4384
 246   2.0000      -0.455356       -12.3909
 247   2.0000      -0.455049       -12.3825
 248   2.0000      -0.453938       -12.3523
 249   2.0000      -0.452540       -12.3142
 250   2.0000      -0.452214       -12.3054
 251   2.0000      -0.451350       -12.2819
 252   2.0000      -0.450776       -12.2662
 253   2.0000      -0.447678       -12.1819
 254   2.0000      -0.446733       -12.1562
 255   2.0000      -0.444735       -12.1019
 256   2.0000      -0.443751       -12.0751
 257   2.0000      -0.442668       -12.0456
 258   2.0000      -0.439690       -11.9646
 259   2.0000      -0.437315       -11.9000
 260   2.0000      -0.434324       -11.8185
 261   2.0000      -0.432609       -11.7719
 262   2.0000      -0.432392       -11.7660
 263   2.0000      -0.431053       -11.7295
 264   2.0000      -0.429807       -11.6956
 265   2.0000      -0.426554       -11.6071
 266   2.0000      -0.425427       -11.5764
 267   2.0000      -0.424200       -11.5431
 268   2.0000      -0.422860       -11.5066
 269   2.0000      -0.421910       -11.4808
 270   2.0000      -0.421346       -11.4654
 271   2.0000      -0.418489       -11.3877
 272   2.0000      -0.417808       -11.3691
 273   2.0000      -0.415442       -11.3048
 274   2.0000      -0.412698       -11.2301
 275   2.0000      -0.405148       -11.0246
 276   2.0000      -0.401320       -10.9205
 277   2.0000      -0.393680       -10.7126
 278   2.0000      -0.392369       -10.6769
 279   2.0000      -0.383702       -10.4411
 280   2.0000      -0.381611       -10.3842
 281   2.0000      -0.372345       -10.1320
 282   2.0000      -0.370596       -10.0844
 283   2.0000      -0.367013        -9.9869
 284   2.0000      -0.364055        -9.9064
 285   2.0000      -0.360489        -9.8094
 286   2.0000      -0.359071        -9.7708
 287   2.0000      -0.357950        -9.7403
 288   2.0000      -0.355534        -9.6746
 289   2.0000      -0.353400        -9.6165
 290   2.0000      -0.348449        -9.4818
 291   2.0000      -0.343280        -9.3411
 292   2.0000      -0.337773        -9.1913
 293   2.0000      -0.322740        -8.7822
 294   2.0000      -0.305424        -8.3110
 295   2.0000      -0.286275        -7.7899
 296   0.0000      -0.148809        -4.0493
 297   0.0000      -0.134140        -3.6501
 298   0.0000      -0.123721        -3.3666
 299   0.0000      -0.121463        -3.3052
 300   0.0000      -0.121120        -3.2958

MULLIKEN ATOMIC CHARGES
-----------------------
   0 C :   -0.077438
   1 C :    0.014051
   2 C :   -0.049510
   3 N :    0.070801
   4 C :   -0.132533
   5 C :   -0.145140
   6 N :    0.061544
   7 C :   -0.197722
   8 N :    0.237634
   9 C :   -0.211665
  10 N :    0.246668
  11 C :    0.044243
  12 C :   -0.001477
  13 C :    0.106592
  14 N :   -0.262997
  15 S :    0.571072
  16 N :   -0.275765
  17 C :    0.061083
  18 C :   -0.056823
  19 C :   -0.065638
  20 N :    0.075252
  21 C :   -0.122816
  22 C :   -0.128556
  23 N :    0.080480
  24 C :   -0.222165
  25 N :    0.244338
  26 C :   -0.227959
  27 N :    0.247469
  28 C :    0.049916
  29 C :    0.023781
  30 C :    0.018845
  31 N :   -0.271412
  32 S :    0.581496
  33 N :   -0.277206
  34 C :    0.049366
  35 C :   -0.057539
  36 C :   -0.077320
  37 N :    0.070157
  38 C :   -0.141861
  39 C :   -0.126024
  40 N :    0.078523
  41 C :   -0.215011
  42 N :    0.243002
  43 C :   -0.205477
  44 N :    0.237196
  45 C :    0.060888
  46 C :    0.018319
  47 C :    0.021233
  48 N :   -0.277509
  49 S :    0.587293
  50 N :   -0.269282
  51 C :    0.040832
  52 C :   -0.048367
  53 C :   -0.037796
  54 N :    0.043587
  55 C :   -0.115034
  56 C :   -0.121218
  57 N :    0.075359
  58 C :   -0.226843
  59 N :    0.249755
  60 C :   -0.234891
  61 N :    0.259914
  62 C :    0.071870
  63 C :    0.002399
  64 C :    0.022313
  65 N :   -0.282387
  66 S :    0.570055
  67 N :   -0.256696
  68 C :    0.061296
  69 C :   -0.041476
  70 C :    0.025453
  71 N :    0.061297
  72 C :   -0.128487
  73 C :   -0.131244
  74 N :    0.043094
  75 C :   -0.223029
  76 N :    0.256850
  77 C :   -0.203801
  78 N :    0.240196
  79 C :   -0.078136
  80 C :    0.101932
  81 C :   -0.019846
  82 N :   -0.260851
  83 S :    0.560607
  84 N :   -0.264795
  85 H :   -0.008282
  86 H :   -0.008027
Sum of atomic charges:   -0.0000000

LOEWDIN ATOMIC CHARGES
----------------------
   0 C :    0.019000
   1 C :   -0.012596
   2 C :    0.003056
   3 N :    0.010788
   4 C :   -0.023460
   5 C :   -0.025050
   6 N :    0.003330
   7 C :   -0.036328
   8 N :    0.001822
   9 C :   -0.040243
  10 N :    0.003615
  11 C :   -0.009384
  12 C :   -0.033803
  13 C :   -0.047973
  14 N :   -0.284537
  15 S :    0.714547
  16 N :   -0.285590
  17 C :    0.002541
  18 C :    0.002486
  19 C :    0.004711
  20 N :    0.014069
  21 C :   -0.024621
  22 C :   -0.024047
  23 N :    0.013454
  24 C :   -0.037765
  25 N :   -0.003612
  26 C :   -0.038886
  27 N :   -0.003553
  28 C :   -0.002518
  29 C :   -0.030905
  30 C :   -0.032665
  31 N :   -0.282108
  32 S :    0.718512
  33 N :   -0.283575
  34 C :   -0.003908
  35 C :    0.004105
  36 C :    0.003040
  37 N :    0.012788
  38 C :   -0.026010
  39 C :   -0.024081
  40 N :    0.013282
  41 C :   -0.040889
  42 N :    0.002946
  43 C :   -0.037451
  44 N :   -0.005780
  45 C :   -0.001461
  46 C :   -0.032833
  47 C :   -0.031854
  48 N :   -0.283145
  49 S :    0.723111
  50 N :   -0.278534
  51 C :   -0.002669
  52 C :    0.004541
  53 C :    0.005620
  54 N :    0.015906
  55 C :   -0.026643
  56 C :   -0.019407
  57 N :    0.011132
  58 C :   -0.037103
  59 N :   -0.002749
  60 C :   -0.041499
  61 N :    0.002871
  62 C :    0.001148
  63 C :   -0.034969
  64 C :   -0.031467
  65 N :   -0.285332
  66 S :    0.708178
  67 N :   -0.272041
  68 C :   -0.010851
  69 C :    0.005748
  70 C :   -0.012838
  71 N :    0.000553
  72 C :   -0.019858
  73 C :   -0.028555
  74 N :    0.015133
  75 C :   -0.040717
  76 N :    0.000572
  77 C :   -0.035399
  78 N :    0.004239
  79 C :    0.020331
  80 C :   -0.049341
  81 C :   -0.035888
  82 N :   -0.276309
  83 S :    0.704983
  84 N :   -0.284569
  85 H :    0.052579
  86 H :    0.052631

  Mayer bond orders larger than 0.100000
B(  0-C ,  1-C ) :   1.2841 B(  0-C , 11-C ) :   0.1431 B(  0-C , 13-C ) :   1.1726
B(  0-C , 85-H ) :   1.0688 B(  1-C ,  2-C ) :   1.1310 B(  1-C ,  6-N ) :   1.3366
B(  2-C ,  3-N ) :   1.4042 B(  2-C , 11-C ) :   1.3654 B(  3-N ,  4-C ) :   1.7517
B(  4-C ,  5-C ) :   1.1707 B(  4-C ,  9-C ) :   1.1477 B(  5-C ,  6-N ) :   1.7968
B(  5-C ,  7-C ) :   1.1467 B(  7-C ,  8-N ) :   3.0522 B(  9-C , 10-N ) :   3.0546
B( 11-C , 12-C ) :   1.3234 B( 11-C , 17-C ) :   0.9450 B( 12-C , 13-C ) :   1.1199
B( 12-C , 16-N ) :   1.4584 B( 13-C , 14-N ) :   1.4424 B( 14-N , 15-S ) :   1.3319
B( 14-N , 16-N ) :   0.1630 B( 15-S , 16-N ) :   1.3103 B( 17-C , 18-C ) :   1.3395
B( 17-C , 28-C ) :   0.1479 B( 17-C , 30-C ) :   1.2997 B( 18-C , 19-C ) :   1.1020
B( 18-C , 23-N ) :   1.4196 B( 19-C , 20-N ) :   1.4190 B( 19-C , 28-C ) :   1.3350
B( 20-N , 21-C ) :   1.7367 B( 21-C , 22-C ) :   1.1853 B( 21-C , 26-C ) :   1.1534
B( 22-C , 23-N ) :   1.7460 B( 22-C , 24-C ) :   1.1523 B( 24-C , 25-N ) :   3.0536
B( 26-C , 27-N ) :   3.0547 B( 28-C , 29-C ) :   1.2965 B( 28-C , 34-C ) :   0.9648
B( 29-C , 30-C ) :   1.0992 B( 29-C , 33-N ) :   1.4590 B( 30-C , 31-N ) :   1.4620
B( 31-N , 32-S ) :   1.3203 B( 31-N , 33-N ) :   0.1603 B( 32-S , 33-N ) :   1.3171
B( 34-C , 35-C ) :   1.3377 B( 34-C , 45-C ) :   0.1407 B( 34-C , 47-C ) :   1.2928
B( 35-C , 36-C ) :   1.1035 B( 35-C , 40-N ) :   1.4110 B( 36-C , 37-N ) :   1.4146
B( 36-C , 45-C ) :   1.3302 B( 37-N , 38-C ) :   1.7446 B( 38-C , 39-C ) :   1.1697
B( 38-C , 43-C ) :   1.1480 B( 39-C , 40-N ) :   1.7456 B( 39-C , 41-C ) :   1.1466
B( 41-C , 42-N ) :   3.0537 B( 43-C , 44-N ) :   3.0569 B( 45-C , 46-C ) :   1.3000
B( 45-C , 51-C ) :   0.9591 B( 46-C , 47-C ) :   1.0966 B( 46-C , 50-N ) :   1.4579
B( 47-C , 48-N ) :   1.4564 B( 48-N , 49-S ) :   1.3161 B( 48-N , 50-N ) :   0.1577
B( 49-S , 50-N ) :   1.3201 B( 51-C , 52-C ) :   1.3499 B( 51-C , 62-C ) :   0.1468
B( 51-C , 64-C ) :   1.2916 B( 52-C , 53-C ) :   1.1090 B( 52-C , 57-N ) :   1.4098
B( 53-C , 54-N ) :   1.3681 B( 53-C , 62-C ) :   1.3356 B( 54-N , 55-C ) :   1.7205
B( 55-C , 56-C ) :   1.1817 B( 55-C , 60-C ) :   1.1580 B( 56-C , 57-N ) :   1.7433
B( 56-C , 58-C ) :   1.1622 B( 58-C , 59-N ) :   3.0520 B( 60-C , 61-N ) :   3.0433
B( 62-C , 63-C ) :   1.2760 B( 62-C , 68-C ) :   0.9667 B( 63-C , 64-C ) :   1.0956
B( 63-C , 67-N ) :   1.4820 B( 64-C , 65-N ) :   1.4679 B( 65-N , 66-S ) :   1.3077
B( 65-N , 67-N ) :   0.1588 B( 66-S , 67-N ) :   1.3172 B( 68-C , 69-C ) :   1.3620
B( 68-C , 79-C ) :   0.1397 B( 68-C , 81-C ) :   1.3005 B( 69-C , 70-C ) :   1.1371
B( 69-C , 74-N ) :   1.3587 B( 70-C , 71-N ) :   1.3265 B( 70-C , 79-C ) :   1.2925
B( 71-N , 72-C ) :   1.8042 B( 72-C , 73-C ) :   1.1656 B( 72-C , 77-C ) :   1.1527
B( 73-C , 74-N ) :   1.7287 B( 73-C , 75-C ) :   1.1578 B( 75-C , 76-N ) :   3.0478
B( 77-C , 78-N ) :   3.0497 B( 79-C , 80-C ) :   1.1673 B( 79-C , 86-H ) :   1.0685
B( 80-C , 81-C ) :   1.1162 B( 80-C , 84-N ) :   1.4516 B( 81-C , 82-N ) :   1.4836
B( 82-N , 83-S ) :   1.3060 B( 82-N , 84-N ) :   0.1612 B( 83-S , 84-N ) :   1.3233

-----------------------------------------------------------------------------
         ABSORPTION SPECTRUM VIA TRANSITION ELECTRIC DIPOLE MOMENTS
-----------------------------------------------------------------------------
State   Energy  Wavelength   fosc         T2         TX        TY        TZ
        (cm-1)    (nm)                  (au**2)     (au)      (au)      (au)
-----------------------------------------------------------------------------
   0   13966.5    716.0   0.868354532  20.46840  -0.46990   4.49271  -0.25128
   1   17127.7    583.8   0.000868819   0.01670   0.05611  -0.06103  -0.09913
   2   18218.1    548.9   0.001762344   0.03185  -0.04937  -0.15990  -0.06199
   3   19085.5    524.0   0.000675389   0.01165   0.05153   0.08011  -0.05077
   4   19258.3    519.3   0.021983129   0.37579   0.04749  -0.60815  -0.06074
   5   19580.4    510.7   0.023515020   0.39537   0.00165   0.61865   0.11239
   6   20442.2    489.2   0.030318553   0.48827  -0.04329  -0.68613  -0.12496
   7   22230.5    449.8   0.034979407   0.51801   0.41264  -0.12830  -0.57557
   8   23513.5    425.3   0.008435987   0.11811   0.21566  -0.11253  -0.24277
   9   24302.8    411.5   0.034245663   0.46390   0.38049   0.56448  -0.02203
  10   24644.5    405.8   0.020620976   0.27546  -0.02542   0.47775   0.21580
  11   24844.6    402.5   0.021149144   0.28024   0.22150   0.47969  -0.03291
  12   25292.1    395.4   0.007843485   0.10209  -0.23320  -0.18109   0.12214
  13   25674.3    389.5   0.013337360   0.17102   0.12116  -0.16063   0.36130
  14   26151.2    382.4   0.020738682   0.26108   0.18161   0.44274   0.17909
  15   26290.8    380.4   0.046932326   0.58768   0.14677   0.49586  -0.56592
  16   26398.6    378.8   0.024543911   0.30608   0.13824  -0.53025  -0.07620
  17   26568.7    376.4   0.013155695   0.16301   0.13743  -0.37634  -0.04997
  18   26651.7    375.2   0.001643194   0.02030  -0.07146  -0.01814   0.12191
  19   27631.4    361.9   0.010640750   0.12678  -0.31314   0.09819   0.13813
  20   27955.9    357.7   0.030691209   0.36142  -0.36057   0.42543   0.22455
  21   28156.3    355.2   0.006281963   0.07345  -0.14922   0.17077   0.14840
  22   28329.4    353.0   0.075633095   0.87892  -0.57084   0.28686  -0.68613
  23   28339.5    352.9   0.033530193   0.38951   0.40520  -0.46466  -0.09705
  24   28524.5    350.6   0.076830488   0.88673   0.21634  -0.10469  -0.91048
  25   28809.3    347.1   0.086606123   0.98967  -0.80821  -0.52545   0.24570
  26   29100.3    343.6   0.101480986   1.14806  -0.64067  -0.01296   0.85874
  27   29146.3    343.1   0.045378122   0.51255   0.40456   0.29658  -0.51081
  28   29461.7    339.4   0.008970875   0.10024  -0.08724  -0.30197   0.03805
  29   29637.7    337.4   0.021847149   0.24268   0.26575   0.23885  -0.33912
  30   29816.7    335.4   0.029567904   0.32646   0.24487  -0.32494  -0.40114
  31   30154.8    331.6   0.001442801   0.01575   0.11717  -0.02225  -0.03909
  32   30496.4    327.9   0.002258367   0.02438  -0.08480   0.13045   0.01306
  33   30537.1    327.5   0.009078184   0.09787   0.22415  -0.15938  -0.14908
  34   30976.4    322.8   0.006695199   0.07116  -0.10294   0.23731   0.06512
  35   31145.4    321.1   0.008982262   0.09494  -0.03715   0.15943   0.26105
  36   31333.7    319.1   0.063980179   0.67222   0.37242  -0.70823  -0.17870
  37   31593.5    316.5   0.001597995   0.01665   0.05726   0.11550   0.00572
  38   31820.5    314.3   0.049854723   0.51579   0.06147   0.25632  -0.66807
  39   31968.7    312.8   0.046159745   0.47535  -0.02730   0.67728  -0.12606
  40   32067.9    311.8   0.012533182   0.12867   0.27470   0.22957   0.02236
  41   32260.8    310.0   0.033905673   0.34600   0.29827  -0.22377  -0.45493
  42   32351.8    309.1   0.010397415   0.10580  -0.12450  -0.20804  -0.21685
  43   32436.9    308.3   0.024511392   0.24877   0.28263   0.01670   0.41063
  44   32799.8    304.9   0.080839265   0.81139  -0.59762  -0.06685   0.67065
  45   32894.2    304.0   0.024326409   0.24346   0.22710  -0.26010  -0.35247
  46   33027.8    302.8   0.019044267   0.18983   0.15111   0.34927   0.21215
  47   33184.1    301.3   0.062259841   0.61767  -0.59488   0.29134   0.42297
  48   33285.3    300.4   0.008087919   0.07999  -0.00095  -0.27247   0.07586
  49   33470.4    298.8   0.052504887   0.51643   0.53724  -0.06759  -0.47248
  50   33544.1    298.1   0.063362963   0.62186  -0.12735  -0.13981   0.76557
  51   33728.2    296.5   0.001792885   0.01750  -0.03713   0.08108   0.09771
  52   33840.6    295.5   0.028905539   0.28120  -0.48877  -0.20363   0.02907
  53   33994.6    294.2   0.006365140   0.06164  -0.19088   0.14966   0.05297
  54   34484.5    290.0   0.042774222   0.40835  -0.27307  -0.51318  -0.26539
  55   34685.4    288.3   0.008229073   0.07811  -0.27020   0.00262  -0.07134
  56   34803.3    287.3   0.006425720   0.06078  -0.07978  -0.20694   0.10767
  57   34957.3    286.1   0.265545760   2.50079   1.52957   0.20555   0.34491
  58   35067.5    285.2   0.116072402   1.08968  -0.10542   0.08720  -1.03487
  59   35228.9    283.9   0.015139122   0.14147  -0.05752   0.03993  -0.36956
  60   35407.3    282.4   0.093223131   0.86677  -0.10167  -0.03688   0.92470
  61   35430.1    282.2   0.152590239   1.41785  -0.72360  -0.16969  -0.93030
  62   35694.6    280.2   0.272834698   2.51636   0.90794   0.16665  -1.29005
  63   35827.1    279.1   0.240370710   2.20874   0.08497   0.16318   1.47475
  64   35963.3    278.1   0.201556545   1.84507  -0.90821  -0.07808   1.00704
  65   36147.4    276.6   0.121973695   1.11087   0.84582  -0.15041  -0.61060
  66   36399.9    274.7   0.381290968   3.44852  -1.14974   0.55845   1.34713
  67   36472.7    274.2   0.024350008   0.21979   0.13634  -0.30179  -0.33184
  68   36598.4    273.2   0.087902840   0.79071   0.80369  -0.27567  -0.26231
  69   36733.8    272.2   0.417150537   3.73855  -1.27384   0.32253   1.41840
  70   36975.8    270.4   0.094862160   0.84460  -0.70834   0.46295   0.35852
  71   37073.3    269.7   0.275778436   2.44892   0.68716   0.17005  -1.39564
  72   37146.2    269.2   0.004353050   0.03858   0.15552  -0.11523  -0.03339
  73   37341.5    267.8   0.014020814   0.12361  -0.22242   0.13665  -0.23551
  74   37370.7    267.6   0.078804955   0.69422   0.01147  -0.29600  -0.77876
  75   37619.5    265.8   0.010247116   0.08967  -0.23429  -0.03362   0.18344
  76   37716.4    265.1   0.125252538   1.09328  -0.76491   0.08154   0.70820
  77   37810.4    264.5   0.007176608   0.06249  -0.04607  -0.08971   0.22872
  78   38001.2    263.1   0.004663373   0.04040  -0.02985  -0.00087  -0.19877
  79   38072.0    262.7   0.033406107   0.28887  -0.20121  -0.21051  -0.45174
  80   38412.7    260.3   0.003140707   0.02692   0.11796   0.08904   0.07123
  81   38550.7    259.4   0.003814874   0.03258   0.07528   0.15032   0.06569
  82   38602.8    259.0   0.004794167   0.04089   0.16607   0.08313  -0.07997
  83   38693.0    258.4   0.002932264   0.02495   0.06283  -0.01705  -0.14391
  84   38915.8    257.0   0.020183734   0.17075   0.00143  -0.27204  -0.31103
  85   38983.7    256.5   0.006790644   0.05735   0.11755  -0.05958  -0.19995
  86   39014.6    256.3   0.013835288   0.11674   0.14870   0.02997   0.30616
  87   39150.8    255.4   0.015062197   0.12666   0.28439   0.20537   0.06001
  88   39276.4    254.6   0.015072923   0.12634   0.01536  -0.14765  -0.32296
  89   39366.6    254.0   0.040840616   0.34154   0.18450  -0.32723  -0.44768
  90   39508.8    253.1   0.023851312   0.19874   0.24224  -0.01925  -0.37376
  91   39612.6    252.4   0.080482562   0.66887   0.68504   0.36481  -0.25788
  92   39692.1    251.9   0.117797056   0.97703  -0.78366  -0.01563   0.60221
  93   39717.8    251.8   0.021782497   0.18055   0.33652   0.22054  -0.13663
  94   39898.8    250.6   0.028939904   0.23879  -0.20633  -0.12772  -0.42415
  95   40128.9    249.2   0.068451452   0.56157  -0.29104   0.26364   0.63824
  96   40217.9    248.6   0.009435164   0.07723   0.18188   0.06415   0.20009

FINAL SINGLE POINT ENERGY     -5534.652166527860

DIPOLE MOMENT
-------------
                                X             Y             Z
Electronic contribution:     -0.47189       0.04566       1.02061
Nuclear contribution   :     -0.08999       0.00735       0.09529
                        -----------------------------------------
Total Dipole Moment    :     -0.56188       0.05301       1.11591
                        -----------------------------------------
Magnitude (a.u.)       :      1.25051
Magnitude (Debye)      :      3.17854

Rotational constants in cm-1:     0.001404     0.000339     0.000293
Rotational constants in MHz :    42.096726    10.177435     8.784645

                             ****ORCA TERMINATED NORMALLY****
TOTAL RUN TIME: 0 days 0 hours 11 minutes 4 seconds 963 msec
