                         Program Version 4.2.0 -  RELEASE  -
|  1> # ORCA input file
|  2> # SCF done       -222.427276833800          0.000763714311
|  3> ! CAM-B3LYP def2-SVP def2/J RIJCOSX Grid4 TightSCF
|  4> %maxcore 5000
|  5> %tddft
|  6>     Mode sTDDFT
|  7>     Ethresh 5.0
|  8>     maxcore 5000
|  9> end
| 10>
| 11> %pal
| 12>   nprocs 6
| 13>   end
| 14> * xyz 0 1
| 15>    C        1.49208        -0.40587         4.75990
| 16>    C        0.69361         0.57831         5.32331
| 17>    F        1.20291         1.35414         6.28550
| 18>    C       -0.62598         0.77460         4.91244
| 19>    F       -1.35707         1.74076         5.47963
| 20>    C       -1.18737        -0.02142         3.92666
| 21>    C       -0.39700        -1.00856         3.37128
| 22>    C        0.93670        -1.20492         3.77369
| 23>    C        1.51304        -2.28517         2.97403
| 24>    C        2.84908        -2.50124         2.76516
| 25>    C        3.87057        -1.83159         3.47029
| 26>    N        4.73059        -1.32677         4.03792
| 27>    C        3.35172        -3.33844         1.74430
| 28>    N        3.81611        -3.93296         0.87969
| 29>    C        0.42908        -2.89838         2.23825
| 30>    C       -0.75339        -2.00200         2.33005
| 31>    O       -1.79193        -2.09707         1.72171
| 32>    C        0.33939        -4.10724         1.61463
| 33>    C        1.18795        -5.22963         1.77187
| 34>    C        1.32157        -6.26990         0.87914
| 35>    C        2.27284        -7.20455         1.39235
| 36>    C        2.65420        -6.67947         2.70211
| 37>    C        2.03262        -5.51247         2.93645
| 38>    F        3.49117        -7.30589         3.53362
| 39>    C        2.75931        -8.34160         0.79208
| 40>    C        3.74056        -9.24645         1.28087
| 41>    C        3.95371       -10.23819         0.34573
| 42>    C        3.07153        -9.98084        -0.80439
| 43>    C        2.37730        -8.86976        -0.52831
| 44>    F        1.45735        -8.29489        -1.30755
| 45>    C        4.86805       -11.30348         0.49910
| 46>    C        5.11894       -12.24528        -0.45044
| 47>    C        6.05480       -13.31090        -0.38835
| 48>    S        6.57732       -13.91189        -1.93887
| 49>    C        6.70039       -13.99648         0.64550
| 50>    C        6.33046       -13.88544         2.07703
| 51>    O        5.46792       -13.14202         2.51081
| 52>    C        7.07328       -14.79461         2.92852
| 53>    C        7.00747       -14.95860         4.29604
| 54>    N        7.87852       -15.93017         4.65537
| 55>    C        8.05079       -16.43469         5.99481
| 56>    C        7.04531       -17.54438         6.29464
| 57>    C        8.49801       -16.41414         3.55393
| 58>    C        8.03048       -15.72965         2.45204
| 59>    C        8.38624       -15.87928         1.05480
| 60>    O        9.17190       -16.72301         0.66077
| 61>    C        7.66763       -14.92870         0.17119
| 62>    C        7.75812       -14.96483        -1.22140
| 63>    C        8.60603       -15.66586        -2.12187
| 64>    C        9.89400       -16.03179        -1.89123
| 65>    C       10.70569       -16.73857        -2.81079
| 66>    C       10.36721       -17.34385        -4.00285
| 67>    C       11.51829       -17.98642        -4.54075
| 68>    C       12.60110       -17.70504        -3.58555
| 69>    C       12.13460       -16.97708        -2.56388
| 70>    F       13.85761       -18.12963        -3.75492
| 71>    C       11.62116       -18.74320        -5.68450
| 72>    C       12.77104       -19.41655        -6.19313
| 73>    C       12.42703       -20.09553        -7.34395
| 74>    C       11.00684       -19.85218        -7.61181
| 75>    C       10.54969       -19.05692        -6.63255
| 76>    F        9.30145       -18.59226        -6.50694
| 77>    C       13.30454       -20.90960        -8.09291
| 78>    C       12.98087       -21.57495        -9.23821
| 79>    C       13.87272       -22.35791       -10.00463
| 80>    C       15.05363       -22.95890        -9.66666
| 81>    C       15.98676       -23.34027       -10.76181
| 82>    O       15.74360       -23.37103       -11.94487
| 83>    C       17.27690       -23.62116       -10.09316
| 84>    C       17.10406       -23.54979        -8.69996
| 85>    C       18.18586       -23.74082        -7.85568
| 86>    C       19.41966       -24.00682        -8.43102
| 87>    C       19.58017       -24.09100        -9.81494
| 88>    C       18.50337       -23.89663       -10.66515
| 89>    F       20.78797       -24.35687       -10.32519
| 90>    F       20.48034       -24.18215        -7.63625
| 91>    C       15.69282       -23.28262        -8.41052
| 92>    C       15.08067       -23.54576        -7.21288
| 93>    C       13.68516       -23.50726        -7.01732
| 94>    N       12.55585       -23.51892        -6.81475
| 95>    C       15.76706       -23.96127        -6.05271
| 96>    N       16.27939       -24.28815        -5.07954
| 97>    H        2.50519        -0.52298         5.10927
| 98>    H       -2.20654         0.13027         3.60867
| 99>    H       -0.52784        -4.24101         0.97592
|100>    H        0.84419        -6.33900        -0.07863
|101>    H        2.08461        -4.92254         3.83063
|102>    H        4.23808        -9.16522         2.22700
|103>    H        2.99986       -10.58013        -1.69011
|104>    H        5.38581       -11.34249         1.44473
|105>    H        4.62987       -12.15105        -1.41239
|106>    H        6.40566       -14.43623         5.01287
|107>    H        7.91690       -15.60855         6.69778
|108>    H        9.06998       -16.81646         6.09283
|109>    H        6.02868       -17.17034         6.20123
|110>    H        7.19006       -17.91238         7.30618
|111>    H        7.17484       -18.37106         5.60033
|112>    H        9.22915       -17.19626         3.60577
|113>    H        8.18762       -15.82952        -3.10714
|114>    H       10.35962       -15.77406        -0.95230
|115>    H        9.39569       -17.36778        -4.45477
|116>    H       12.67427       -16.62112        -1.70840
|117>    H       13.74201       -19.40574        -5.73779
|118>    H       10.44526       -20.24846        -8.43378
|119>    H       14.32222       -20.95771        -7.72512
|120>    H       11.99449       -21.43698        -9.65741
|121>    H       13.62873       -22.45240       -11.05964
|122>    H       18.11263       -23.68201        -6.78197
|123>    H       18.62562       -23.95837       -11.73471
|124> *
|125>
|126>                          ****END OF INPUT****

CARTESIAN COORDINATES (ANGSTROEM)
---------------------------------
  C      1.492080   -0.405870    4.759900
  C      0.693610    0.578310    5.323310
  F      1.202910    1.354140    6.285500
  C     -0.625980    0.774600    4.912440
  F     -1.357070    1.740760    5.479630
  C     -1.187370   -0.021420    3.926660
  C     -0.397000   -1.008560    3.371280
  C      0.936700   -1.204920    3.773690
  C      1.513040   -2.285170    2.974030
  C      2.849080   -2.501240    2.765160
  C      3.870570   -1.831590    3.470290
  N      4.730590   -1.326770    4.037920
  C      3.351720   -3.338440    1.744300
  N      3.816110   -3.932960    0.879690
  C      0.429080   -2.898380    2.238250
  C     -0.753390   -2.002000    2.330050
  O     -1.791930   -2.097070    1.721710
  C      0.339390   -4.107240    1.614630
  C      1.187950   -5.229630    1.771870
  C      1.321570   -6.269900    0.879140
  C      2.272840   -7.204550    1.392350
  C      2.654200   -6.679470    2.702110
  C      2.032620   -5.512470    2.936450
  F      3.491170   -7.305890    3.533620
  C      2.759310   -8.341600    0.792080
  C      3.740560   -9.246450    1.280870
  C      3.953710  -10.238190    0.345730
  C      3.071530   -9.980840   -0.804390
  C      2.377300   -8.869760   -0.528310
  F      1.457350   -8.294890   -1.307550
  C      4.868050  -11.303480    0.499100
  C      5.118940  -12.245280   -0.450440
  C      6.054800  -13.310900   -0.388350
  S      6.577320  -13.911890   -1.938870
  C      6.700390  -13.996480    0.645500
  C      6.330460  -13.885440    2.077030
  O      5.467920  -13.142020    2.510810
  C      7.073280  -14.794610    2.928520
  C      7.007470  -14.958600    4.296040
  N      7.878520  -15.930170    4.655370
  C      8.050790  -16.434690    5.994810
  C      7.045310  -17.544380    6.294640
  C      8.498010  -16.414140    3.553930
  C      8.030480  -15.729650    2.452040
  C      8.386240  -15.879280    1.054800
  O      9.171900  -16.723010    0.660770
  C      7.667630  -14.928700    0.171190
  C      7.758120  -14.964830   -1.221400
  C      8.606030  -15.665860   -2.121870
  C      9.894000  -16.031790   -1.891230
  C     10.705690  -16.738570   -2.810790
  C     10.367210  -17.343850   -4.002850
  C     11.518290  -17.986420   -4.540750
  C     12.601100  -17.705040   -3.585550
  C     12.134600  -16.977080   -2.563880
  F     13.857610  -18.129630   -3.754920
  C     11.621160  -18.743200   -5.684500
  C     12.771040  -19.416550   -6.193130
  C     12.427030  -20.095530   -7.343950
  C     11.006840  -19.852180   -7.611810
  C     10.549690  -19.056920   -6.632550
  F      9.301450  -18.592260   -6.506940
  C     13.304540  -20.909600   -8.092910
  C     12.980870  -21.574950   -9.238210
  C     13.872720  -22.357910  -10.004630
  C     15.053630  -22.958900   -9.666660
  C     15.986760  -23.340270  -10.761810
  O     15.743600  -23.371030  -11.944870
  C     17.276900  -23.621160  -10.093160
  C     17.104060  -23.549790   -8.699960
  C     18.185860  -23.740820   -7.855680
  C     19.419660  -24.006820   -8.431020
  C     19.580170  -24.091000   -9.814940
  C     18.503370  -23.896630  -10.665150
  F     20.787970  -24.356870  -10.325190
  F     20.480340  -24.182150   -7.636250
  C     15.692820  -23.282620   -8.410520
  C     15.080670  -23.545760   -7.212880
  C     13.685160  -23.507260   -7.017320
  N     12.555850  -23.518920   -6.814750
  C     15.767060  -23.961270   -6.052710
  N     16.279390  -24.288150   -5.079540
  H      2.505190   -0.522980    5.109270
  H     -2.206540    0.130270    3.608670
  H     -0.527840   -4.241010    0.975920
  H      0.844190   -6.339000   -0.078630
  H      2.084610   -4.922540    3.830630
  H      4.238080   -9.165220    2.227000
  H      2.999860  -10.580130   -1.690110
  H      5.385810  -11.342490    1.444730
  H      4.629870  -12.151050   -1.412390
  H      6.405660  -14.436230    5.012870
  H      7.916900  -15.608550    6.697780
  H      9.069980  -16.816460    6.092830
  H      6.028680  -17.170340    6.201230
  H      7.190060  -17.912380    7.306180
  H      7.174840  -18.371060    5.600330
  H      9.229150  -17.196260    3.605770
  H      8.187620  -15.829520   -3.107140
  H     10.359620  -15.774060   -0.952300
  H      9.395690  -17.367780   -4.454770
  H     12.674270  -16.621120   -1.708400
  H     13.742010  -19.405740   -5.737790
  H     10.445260  -20.248460   -8.433780
  H     14.322220  -20.957710   -7.725120
  H     11.994490  -21.436980   -9.657410
  H     13.628730  -22.452400  -11.059640
  H     18.112630  -23.682010   -6.781970
  H     18.625620  -23.958370  -11.734710

 Total Charge           Charge          ....    0
 Multiplicity           Mult            ....    1
 Number of Electrons    NEL             ....  566
 Basis Dimension        Dim             .... 1287

ORBITAL ENERGIES
----------------

  NO   OCC          E(Eh)            E(eV)
   0   2.0000     -88.975658     -2421.1508
   1   2.0000     -24.803989      -674.9509
   2   2.0000     -24.803814      -674.9461
   3   2.0000     -24.802729      -674.9166
   4   2.0000     -24.802334      -674.9058
   5   2.0000     -24.799355      -674.8248
   6   2.0000     -24.795346      -674.7157
   7   2.0000     -24.793940      -674.6774
   8   2.0000     -24.793761      -674.6725
   9   2.0000     -19.223127      -523.0879
  10   2.0000     -19.220512      -523.0167
  11   2.0000     -19.204043      -522.5686
  12   2.0000     -19.202333      -522.5220
  13   2.0000     -14.492253      -394.3542
  14   2.0000     -14.421829      -392.4379
  15   2.0000     -14.419380      -392.3713
  16   2.0000     -14.418591      -392.3498
  17   2.0000     -14.415287      -392.2599
  18   2.0000     -10.390231      -282.7326
  19   2.0000     -10.389221      -282.7051
  20   2.0000     -10.388524      -282.6861
  21   2.0000     -10.387688      -282.6634
  22   2.0000     -10.374622      -282.3078
  23   2.0000     -10.371660      -282.2272
  24   2.0000     -10.366468      -282.0859
  25   2.0000     -10.365660      -282.0639
  26   2.0000     -10.364524      -282.0330
  27   2.0000     -10.361000      -281.9371
  28   2.0000     -10.360170      -281.9146
  29   2.0000     -10.360061      -281.9116
  30   2.0000     -10.351387      -281.6756
  31   2.0000     -10.348495      -281.5969
  32   2.0000     -10.347894      -281.5805
  33   2.0000     -10.347762      -281.5769
  34   2.0000     -10.337144      -281.2880
  35   2.0000     -10.329827      -281.0889
  36   2.0000     -10.328531      -281.0536
  37   2.0000     -10.323561      -280.9184
  38   2.0000     -10.321839      -280.8715
  39   2.0000     -10.321265      -280.8559
  40   2.0000     -10.320480      -280.8345
  41   2.0000     -10.319479      -280.8073
  42   2.0000     -10.319408      -280.8054
  43   2.0000     -10.319039      -280.7953
  44   2.0000     -10.317655      -280.7577
  45   2.0000     -10.317481      -280.7529
  46   2.0000     -10.316198      -280.7180
  47   2.0000     -10.316032      -280.7135
  48   2.0000     -10.315675      -280.7038
  49   2.0000     -10.312557      -280.6189
  50   2.0000     -10.312293      -280.6118
  51   2.0000     -10.311710      -280.5959
  52   2.0000     -10.310941      -280.5750
  53   2.0000     -10.310631      -280.5665
  54   2.0000     -10.310453      -280.5617
  55   2.0000     -10.307977      -280.4943
  56   2.0000     -10.306553      -280.4556
  57   2.0000     -10.304496      -280.3996
  58   2.0000     -10.303135      -280.3626
  59   2.0000     -10.300806      -280.2992
  60   2.0000     -10.300531      -280.2917
  61   2.0000     -10.300418      -280.2886
  62   2.0000     -10.300307      -280.2856
  63   2.0000     -10.298621      -280.2397
  64   2.0000     -10.297606      -280.2121
  65   2.0000     -10.297381      -280.2060
  66   2.0000     -10.296881      -280.1924
  67   2.0000     -10.296054      -280.1699
  68   2.0000     -10.294014      -280.1144
  69   2.0000     -10.289017      -279.9784
  70   2.0000     -10.288556      -279.9658
  71   2.0000     -10.287745      -279.9438
  72   2.0000     -10.285061      -279.8707
  73   2.0000     -10.284173      -279.8466
  74   2.0000     -10.281810      -279.7823
  75   2.0000     -10.280104      -279.7358
  76   2.0000     -10.279016      -279.7062
  77   2.0000     -10.278298      -279.6867
  78   2.0000     -10.272395      -279.5261
  79   2.0000     -10.272379      -279.5256
  80   2.0000     -10.271971      -279.5146
  81   2.0000     -10.269716      -279.4532
  82   2.0000      -8.071984      -219.6499
  83   2.0000      -6.040957      -164.3828
  84   2.0000      -6.037008      -164.2753
  85   2.0000      -6.034352      -164.2031
  86   2.0000      -1.327924       -36.1346
  87   2.0000      -1.326497       -36.0958
  88   2.0000      -1.312647       -35.7189
  89   2.0000      -1.312645       -35.7189
  90   2.0000      -1.311262       -35.6813
  91   2.0000      -1.308215       -35.5983
  92   2.0000      -1.307164       -35.5697
  93   2.0000      -1.306401       -35.5490
  94   2.0000      -1.138697       -30.9855
  95   2.0000      -1.136281       -30.9198
  96   2.0000      -1.124888       -30.6098
  97   2.0000      -1.120267       -30.4840
  98   2.0000      -1.111689       -30.2506
  99   2.0000      -1.025992       -27.9187
 100   2.0000      -1.024307       -27.8728
 101   2.0000      -1.006036       -27.3756
 102   2.0000      -1.005504       -27.3612
 103   2.0000      -1.005114       -27.3505
 104   2.0000      -1.000348       -27.2209
 105   2.0000      -0.997878       -27.1536
 106   2.0000      -0.995292       -27.0833
 107   2.0000      -0.994965       -27.0744
 108   2.0000      -0.979636       -26.6573
 109   2.0000      -0.976838       -26.5811
 110   2.0000      -0.960677       -26.1414
 111   2.0000      -0.960507       -26.1367
 112   2.0000      -0.941909       -25.6306
 113   2.0000      -0.923373       -25.1263
 114   2.0000      -0.918873       -25.0038
 115   2.0000      -0.909354       -24.7448
 116   2.0000      -0.904481       -24.6122
 117   2.0000      -0.900451       -24.5025
 118   2.0000      -0.892184       -24.2776
 119   2.0000      -0.883137       -24.0314
 120   2.0000      -0.878364       -23.9015
 121   2.0000      -0.876942       -23.8628
 122   2.0000      -0.871738       -23.7212
 123   2.0000      -0.858759       -23.3680
 124   2.0000      -0.848170       -23.0799
 125   2.0000      -0.844510       -22.9803
 126   2.0000      -0.841203       -22.8903
 127   2.0000      -0.835760       -22.7422
 128   2.0000      -0.822480       -22.3808
 129   2.0000      -0.817575       -22.2473
 130   2.0000      -0.809721       -22.0336
 131   2.0000      -0.800804       -21.7910
 132   2.0000      -0.793574       -21.5942
 133   2.0000      -0.786693       -21.4070
 134   2.0000      -0.777391       -21.1539
 135   2.0000      -0.776694       -21.1349
 136   2.0000      -0.769413       -20.9368
 137   2.0000      -0.768297       -20.9064
 138   2.0000      -0.765368       -20.8267
 139   2.0000      -0.747112       -20.3299
 140   2.0000      -0.736633       -20.0448
 141   2.0000      -0.729236       -19.8435
 142   2.0000      -0.721060       -19.6211
 143   2.0000      -0.717122       -19.5139
 144   2.0000      -0.712421       -19.3860
 145   2.0000      -0.709206       -19.2985
 146   2.0000      -0.705730       -19.2039
 147   2.0000      -0.694691       -18.9035
 148   2.0000      -0.691599       -18.8194
 149   2.0000      -0.682539       -18.5728
 150   2.0000      -0.680856       -18.5270
 151   2.0000      -0.679254       -18.4834
 152   2.0000      -0.673528       -18.3276
 153   2.0000      -0.669361       -18.2142
 154   2.0000      -0.667557       -18.1652
 155   2.0000      -0.660508       -17.9733
 156   2.0000      -0.654991       -17.8232
 157   2.0000      -0.654166       -17.8008
 158   2.0000      -0.647454       -17.6181
 159   2.0000      -0.645598       -17.5676
 160   2.0000      -0.644074       -17.5262
 161   2.0000      -0.641282       -17.4502
 162   2.0000      -0.635421       -17.2907
 163   2.0000      -0.633932       -17.2502
 164   2.0000      -0.630411       -17.1543
 165   2.0000      -0.628684       -17.1074
 166   2.0000      -0.625195       -17.0124
 167   2.0000      -0.620651       -16.8888
 168   2.0000      -0.615013       -16.7354
 169   2.0000      -0.613463       -16.6932
 170   2.0000      -0.609709       -16.5910
 171   2.0000      -0.603432       -16.4202
 172   2.0000      -0.600380       -16.3372
 173   2.0000      -0.592740       -16.1293
 174   2.0000      -0.591454       -16.0943
 175   2.0000      -0.590850       -16.0778
 176   2.0000      -0.588145       -16.0042
 177   2.0000      -0.579916       -15.7803
 178   2.0000      -0.573533       -15.6066
 179   2.0000      -0.571907       -15.5624
 180   2.0000      -0.569005       -15.4834
 181   2.0000      -0.567396       -15.4396
 182   2.0000      -0.565799       -15.3962
 183   2.0000      -0.563733       -15.3400
 184   2.0000      -0.560830       -15.2610
 185   2.0000      -0.560138       -15.2421
 186   2.0000      -0.558409       -15.1951
 187   2.0000      -0.558047       -15.1852
 188   2.0000      -0.557222       -15.1628
 189   2.0000      -0.555237       -15.1088
 190   2.0000      -0.554501       -15.0887
 191   2.0000      -0.553129       -15.0514
 192   2.0000      -0.552671       -15.0390
 193   2.0000      -0.551211       -14.9992
 194   2.0000      -0.550009       -14.9665
 195   2.0000      -0.547604       -14.9011
 196   2.0000      -0.544873       -14.8267
 197   2.0000      -0.541526       -14.7357
 198   2.0000      -0.539459       -14.6794
 199   2.0000      -0.537788       -14.6340
 200   2.0000      -0.536039       -14.5864
 201   2.0000      -0.533003       -14.5038
 202   2.0000      -0.531751       -14.4697
 203   2.0000      -0.530189       -14.4272
 204   2.0000      -0.528378       -14.3779
 205   2.0000      -0.527558       -14.3556
 206   2.0000      -0.524856       -14.2821
 207   2.0000      -0.522242       -14.2109
 208   2.0000      -0.520659       -14.1678
 209   2.0000      -0.511299       -13.9131
 210   2.0000      -0.510140       -13.8816
 211   2.0000      -0.508300       -13.8315
 212   2.0000      -0.504162       -13.7189
 213   2.0000      -0.502589       -13.6761
 214   2.0000      -0.501572       -13.6485
 215   2.0000      -0.499244       -13.5851
 216   2.0000      -0.497859       -13.5474
 217   2.0000      -0.497173       -13.5288
 218   2.0000      -0.494063       -13.4441
 219   2.0000      -0.489753       -13.3268
 220   2.0000      -0.486907       -13.2494
 221   2.0000      -0.486003       -13.2248
 222   2.0000      -0.484193       -13.1756
 223   2.0000      -0.482499       -13.1295
 224   2.0000      -0.481774       -13.1097
 225   2.0000      -0.480618       -13.0783
 226   2.0000      -0.479662       -13.0523
 227   2.0000      -0.476935       -12.9781
 228   2.0000      -0.475094       -12.9280
 229   2.0000      -0.471586       -12.8325
 230   2.0000      -0.468605       -12.7514
 231   2.0000      -0.467256       -12.7147
 232   2.0000      -0.463842       -12.6218
 233   2.0000      -0.462161       -12.5760
 234   2.0000      -0.460200       -12.5227
 235   2.0000      -0.460151       -12.5213
 236   2.0000      -0.459472       -12.5029
 237   2.0000      -0.457906       -12.4603
 238   2.0000      -0.456467       -12.4211
 239   2.0000      -0.455722       -12.4008
 240   2.0000      -0.454647       -12.3716
 241   2.0000      -0.454188       -12.3591
 242   2.0000      -0.451934       -12.2977
 243   2.0000      -0.451034       -12.2733
 244   2.0000      -0.448940       -12.2163
 245   2.0000      -0.445452       -12.1214
 246   2.0000      -0.445120       -12.1123
 247   2.0000      -0.444378       -12.0921
 248   2.0000      -0.440119       -11.9763
 249   2.0000      -0.436304       -11.8724
 250   2.0000      -0.434712       -11.8291
 251   2.0000      -0.431512       -11.7420
 252   2.0000      -0.429920       -11.6987
 253   2.0000      -0.427522       -11.6335
 254   2.0000      -0.424922       -11.5627
 255   2.0000      -0.423414       -11.5217
 256   2.0000      -0.421217       -11.4619
 257   2.0000      -0.416367       -11.3299
 258   2.0000      -0.411642       -11.2013
 259   2.0000      -0.410250       -11.1635
 260   2.0000      -0.401889       -10.9359
 261   2.0000      -0.386528       -10.5180
 262   2.0000      -0.376834       -10.2542
 263   2.0000      -0.363406        -9.8888
 264   2.0000      -0.353264        -9.6128
 265   2.0000      -0.352501        -9.5920
 266   2.0000      -0.347395        -9.4531
 267   2.0000      -0.344384        -9.3712
 268   2.0000      -0.343161        -9.3379
 269   2.0000      -0.339176        -9.2295
 270   2.0000      -0.332929        -9.0595
 271   2.0000      -0.331415        -9.0183
 272   2.0000      -0.329700        -8.9716
 273   2.0000      -0.323825        -8.8117
 274   2.0000      -0.318613        -8.6699
 275   2.0000      -0.315609        -8.5882
 276   2.0000      -0.312597        -8.5062
 277   2.0000      -0.309026        -8.4090
 278   2.0000      -0.307394        -8.3646
 279   2.0000      -0.290405        -7.9023
 280   2.0000      -0.283217        -7.7067
 281   2.0000      -0.270318        -7.3557
 282   2.0000      -0.247073        -6.7232
 283   0.0000      -0.125587        -3.4174
 284   0.0000      -0.116628        -3.1736
 285   0.0000      -0.082372        -2.2414
 286   0.0000      -0.080261        -2.1840
 287   0.0000      -0.060514        -1.6467

MULLIKEN ATOMIC CHARGES
-----------------------
   0 C :   -0.089489
   1 C :    0.234425
   2 F :   -0.164080
   3 C :    0.233152
   4 F :   -0.167963
   5 C :   -0.099195
   6 C :    0.004761
   7 C :    0.032683
   8 C :    0.249962
   9 C :   -0.334161
  10 C :   -0.184534
  11 N :    0.165832
  12 C :   -0.191957
  13 N :    0.178882
  14 C :   -0.122703
  15 C :    0.140014
  16 O :   -0.132051
  17 C :    0.042841
  18 C :    0.047784
  19 C :   -0.022455
  20 C :    0.008258
  21 C :    0.259814
  22 C :   -0.070748
  23 F :   -0.171941
  24 C :    0.020269
  25 C :   -0.075975
  26 C :    0.092935
  27 C :   -0.068364
  28 C :    0.259746
  29 F :   -0.171486
  30 C :    0.044748
  31 C :    0.038875
  32 C :   -0.140409
  33 S :    0.156649
  34 C :    0.008445
  35 C :    0.128086
  36 O :   -0.169192
  37 C :   -0.010475
  38 C :    0.009833
  39 N :   -0.133174
  40 C :    0.089835
  41 C :    0.002577
  42 C :    0.006685
  43 C :   -0.015187
  44 C :    0.126213
  45 O :   -0.165946
  46 C :    0.007305
  47 C :   -0.142956
  48 C :    0.038787
  49 C :    0.067335
  50 C :    0.083456
  51 C :   -0.082366
  52 C :    0.013404
  53 C :    0.260864
  54 C :   -0.068780
  55 F :   -0.174080
  56 C :   -0.000563
  57 C :   -0.062277
  58 C :    0.090511
  59 C :   -0.063195
  60 C :    0.258126
  61 F :   -0.174756
  62 C :    0.040856
  63 C :    0.008663
  64 C :    0.047331
  65 C :   -0.128035
  66 C :    0.133136
  67 O :   -0.138916
  68 C :    0.016328
  69 C :    0.021100
  70 C :   -0.091563
  71 C :    0.235882
  72 C :    0.233736
  73 C :   -0.104677
  74 F :   -0.168275
  75 F :   -0.164614
  76 C :    0.264525
  77 C :   -0.335259
  78 C :   -0.202510
  79 N :    0.180229
  80 C :   -0.182422
  81 N :    0.163984
  82 H :    0.017633
  83 H :    0.013440
  84 H :    0.025280
  85 H :   -0.000776
  86 H :   -0.002831
  87 H :   -0.004856
  88 H :   -0.010395
  89 H :    0.009809
  90 H :   -0.013105
  91 H :    0.007320
  92 H :    0.035525
  93 H :    0.033812
  94 H :    0.031166
  95 H :    0.031282
  96 H :    0.031940
  97 H :    0.008386
  98 H :   -0.001910
  99 H :   -0.001219
 100 H :   -0.011442
 101 H :   -0.010389
 102 H :   -0.005513
 103 H :   -0.013796
 104 H :    0.003445
 105 H :    0.001704
 106 H :    0.030033
 107 H :    0.018799
 108 H :    0.014530
Sum of atomic charges:   -0.0000000

LOEWDIN ATOMIC CHARGES
----------------------
   0 C :   -0.020851
   1 C :    0.075039
   2 F :   -0.042176
   3 C :    0.069744
   4 F :   -0.044851
   5 C :   -0.003820
   6 C :   -0.047457
   7 C :   -0.012239
   8 C :    0.062958
   9 C :   -0.126833
  10 C :   -0.021054
  11 N :   -0.043110
  12 C :   -0.020084
  13 N :   -0.038769
  14 C :   -0.089454
  15 C :    0.083472
  16 O :   -0.133215
  17 C :    0.077714
  18 C :   -0.029213
  19 C :    0.008819
  20 C :   -0.009709
  21 C :    0.083782
  22 C :   -0.057588
  23 F :   -0.047405
  24 C :    0.025171
  25 C :   -0.047118
  26 C :    0.013843
  27 C :   -0.051433
  28 C :    0.083622
  29 F :   -0.047183
  30 C :    0.017578
  31 C :   -0.039146
  32 C :   -0.127619
  33 S :    0.470875
  34 C :   -0.083359
  35 C :    0.080343
  36 O :   -0.159865
  37 C :   -0.102683
  38 C :    0.031144
  39 N :    0.091364
  40 C :    0.044369
  41 C :   -0.056702
  42 C :    0.030986
  43 C :   -0.103440
  44 C :    0.078201
  45 O :   -0.159840
  46 C :   -0.085364
  47 C :   -0.130400
  48 C :   -0.026500
  49 C :    0.017082
  50 C :    0.009890
  51 C :   -0.057211
  52 C :    0.019363
  53 C :    0.078558
  54 C :   -0.046934
  55 F :   -0.049559
  56 C :   -0.008814
  57 C :   -0.016825
  58 C :   -0.012604
  59 C :   -0.050476
  60 C :    0.080671
  61 F :   -0.051553
  62 C :    0.046115
  63 C :   -0.039233
  64 C :    0.068068
  65 C :   -0.095768
  66 C :    0.083415
  67 O :   -0.137348
  68 C :   -0.047071
  69 C :   -0.012462
  70 C :   -0.021154
  71 C :    0.074395
  72 C :    0.069280
  73 C :   -0.004790
  74 F :   -0.045146
  75 F :   -0.042759
  76 C :    0.062857
  77 C :   -0.137250
  78 C :   -0.018166
  79 N :   -0.034555
  80 C :   -0.022620
  81 N :   -0.046855
  82 H :    0.051514
  83 H :    0.052809
  84 H :    0.051527
  85 H :    0.030340
  86 H :    0.030470
  87 H :    0.028813
  88 H :    0.031060
  89 H :    0.037824
  90 H :    0.026347
  91 H :    0.029703
  92 H :    0.034189
  93 H :    0.034064
  94 H :    0.030735
  95 H :    0.033696
  96 H :    0.031224
  97 H :    0.029913
  98 H :    0.031107
  99 H :    0.034213
 100 H :    0.022338
 101 H :    0.033702
 102 H :    0.027010
 103 H :    0.031503
 104 H :    0.036712
 105 H :    0.035246
 106 H :    0.048685
 107 H :    0.051367
 108 H :    0.052803

  Mayer bond orders larger than 0.100000
B(  0-C ,  1-C ) :   1.3367 B(  0-C ,  5-C ) :   0.1047 B(  0-C ,  7-C ) :   1.3192
B(  0-C , 82-H ) :   0.9947 B(  1-C ,  2-F ) :   1.1428 B(  1-C ,  3-C ) :   1.2904
B(  3-C ,  4-F ) :   1.1311 B(  3-C ,  5-C ) :   1.3226 B(  5-C ,  6-C ) :   1.3229
B(  5-C , 83-H ) :   1.0190 B(  6-C ,  7-C ) :   1.3411 B(  6-C , 15-C ) :   0.9266
B(  7-C ,  8-C ) :   1.0180 B(  8-C ,  9-C ) :   1.6610 B(  8-C , 14-C ) :   1.0456
B(  9-C , 10-C ) :   1.1314 B(  9-C , 12-C ) :   1.1554 B( 10-C , 11-N ) :   2.9966
B( 12-C , 13-N ) :   3.0077 B( 14-C , 15-C ) :   0.9401 B( 14-C , 17-C ) :   1.6293
B( 15-C , 16-O ) :   2.2833 B( 17-C , 18-C ) :   1.0994 B( 17-C , 84-H ) :   0.9573
B( 18-C , 19-C ) :   1.5124 B( 18-C , 22-C ) :   1.0255 B( 19-C , 20-C ) :   1.1097
B( 19-C , 85-H ) :   1.0184 B( 20-C , 21-C ) :   1.0390 B( 20-C , 24-C ) :   1.4613
B( 21-C , 22-C ) :   1.6538 B( 21-C , 23-F ) :   1.1342 B( 22-C , 86-H ) :   1.0097
B( 24-C , 25-C ) :   1.1264 B( 24-C , 28-C ) :   1.0043 B( 25-C , 26-C ) :   1.5029
B( 25-C , 87-H ) :   1.0243 B( 26-C , 27-C ) :   0.9981 B( 26-C , 30-C ) :   1.1693
B( 27-C , 28-C ) :   1.6887 B( 27-C , 88-H ) :   1.0102 B( 28-C , 29-F ) :   1.1285
B( 30-C , 31-C ) :   1.6318 B( 30-C , 89-H ) :   0.9611 B( 31-C , 32-C ) :   1.1308
B( 31-C , 90-H ) :   0.9419 B( 32-C , 33-S ) :   1.1474 B( 32-C , 34-C ) :   1.4558
B( 33-S , 47-C ) :   1.1448 B( 34-C , 35-C ) :   0.9394 B( 34-C , 46-C ) :   1.2060
B( 35-C , 36-O ) :   2.2002 B( 35-C , 37-C ) :   0.9958 B( 37-C , 38-C ) :   1.4232
B( 37-C , 43-C ) :   1.2879 B( 38-C , 39-N ) :   1.2360 B( 38-C , 91-H ) :   0.9936
B( 39-N , 40-C ) :   0.9493 B( 39-N , 42-C ) :   1.2368 B( 40-C , 41-C ) :   1.1109
B( 40-C , 92-H ) :   0.9512 B( 40-C , 93-H ) :   0.9511 B( 41-C , 94-H ) :   0.9676
B( 41-C , 95-H ) :   0.9683 B( 41-C , 96-H ) :   0.9673 B( 42-C , 43-C ) :   1.4215
B( 42-C , 97-H ) :   0.9942 B( 43-C , 44-C ) :   0.9939 B( 44-C , 45-O ) :   2.2171
B( 44-C , 46-C ) :   0.9371 B( 46-C , 47-C ) :   1.4688 B( 47-C , 48-C ) :   1.1109
B( 48-C , 49-C ) :   1.6729 B( 48-C , 98-H ) :   0.9466 B( 49-C , 50-C ) :   1.1543
B( 49-C , 99-H ) :   0.9585 B( 50-C , 51-C ) :   1.5298 B( 50-C , 54-C ) :   1.0028
B( 51-C , 52-C ) :   1.1413 B( 51-C ,100-H ) :   1.0081 B( 52-C , 53-C ) :   1.0027
B( 52-C , 56-C ) :   1.4610 B( 53-C , 54-C ) :   1.6708 B( 53-C , 55-F ) :   1.1227
B( 54-C ,101-H ) :   1.0223 B( 56-C , 57-C ) :   1.1133 B( 56-C , 60-C ) :   1.0315
B( 57-C , 58-C ) :   1.4967 B( 57-C ,102-H ) :   1.0202 B( 58-C , 59-C ) :   1.0279
B( 58-C , 62-C ) :   1.1832 B( 59-C , 60-C ) :   1.6622 B( 59-C ,103-H ) :   1.0124
B( 60-C , 61-F ) :   1.1253 B( 62-C , 63-C ) :   1.5744 B( 62-C ,104-H ) :   0.9652
B( 63-C , 64-C ) :   1.1822 B( 63-C ,105-H ) :   0.9608 B( 64-C , 65-C ) :   1.6312
B( 64-C ,106-H ) :   0.9287 B( 65-C , 66-C ) :   0.9527 B( 65-C , 76-C ) :   1.0493
B( 66-C , 67-O ) :   2.2650 B( 66-C , 68-C ) :   0.9270 B( 68-C , 69-C ) :   1.3454
B( 68-C , 73-C ) :   1.3210 B( 69-C , 70-C ) :   1.3195 B( 69-C , 76-C ) :   1.0110
B( 70-C , 71-C ) :   1.3361 B( 70-C , 73-C ) :   0.1045 B( 70-C ,107-H ) :   0.9948
B( 71-C , 72-C ) :   1.2903 B( 71-C , 75-F ) :   1.1426 B( 72-C , 73-C ) :   1.3198
B( 72-C , 74-F ) :   1.1317 B( 73-C ,108-H ) :   1.0205 B( 76-C , 77-C ) :   1.6469
B( 77-C , 78-C ) :   1.1708 B( 77-C , 80-C ) :   1.1259 B( 78-C , 79-N ) :   2.9969
B( 80-C , 81-N ) :   2.9964

-----------------------------------------------------------------------------
         ABSORPTION SPECTRUM VIA TRANSITION ELECTRIC DIPOLE MOMENTS
-----------------------------------------------------------------------------
State   Energy  Wavelength   fosc         T2         TX        TY        TZ
        (cm-1)    (nm)                  (au**2)     (au)      (au)      (au)
-----------------------------------------------------------------------------
   0   12132.4    824.2   1.712141619  46.45895   3.30600  -4.96995  -3.29072
   1   14198.3    704.3   0.118282240   2.74258  -0.28082   1.45012  -0.74891
   2   16919.3    591.0   0.067024625   1.30415   0.50374  -0.90250  -0.48568
   3   17783.8    562.3   0.045367714   0.83984   0.10493   0.79160   0.44967
   4   19654.4    508.8   0.028948165   0.48488  -0.25096   0.00380   0.64953
   5   20354.0    491.3   0.551041184   8.91270   1.79570  -2.07220  -1.18075
   6   21685.2    461.1   0.086552620   1.31399  -0.64636   0.84678  -0.42330
   7   23420.9    427.0   0.137263584   1.92942   0.43291   1.27297   0.34864
   8   24124.5    414.5   0.146178162   1.99480  -0.26505   0.00891   1.38725
   9   24530.0    407.7   0.587428309   7.88376  -1.15643   2.32079   1.07720
  10   25417.8    393.4   0.029693303   0.38459   0.10402  -0.60074   0.11350
  11   26061.4    383.7   0.039106203   0.49400   0.62063  -0.24183  -0.22434
  12   26791.9    373.2   0.029910754   0.36754   0.20199   0.57090  -0.02851
  13   26870.5    372.2   0.018986259   0.23262  -0.30635   0.37239  -0.00950
  14   27075.7    369.3   0.023623688   0.28724  -0.04572  -0.50696  -0.16775
  15   27376.5    365.3   0.054424736   0.65448  -0.57182   0.45460   0.34761
  16   27479.2    363.9   0.005066620   0.06070   0.20538   0.08963   0.10241
  17   27599.5    362.3   0.132503623   1.58053   0.63470  -0.53364  -0.94494
  18   27793.5    359.8   0.123743057   1.46573  -0.26366   1.06335  -0.51526
  19   28046.8    356.5   0.061675950   0.72395   0.35982  -0.59153  -0.49454
  20   28545.4    350.3   0.391043171   4.50988  -1.17799   1.26133   1.23744
  21   29294.9    341.4   0.024248447   0.27250  -0.09331   0.03505  -0.51241
  22   29559.3    338.3   0.007680616   0.08554   0.21927  -0.08859  -0.17209
  23   29697.0    336.7   0.021477350   0.23809  -0.23830   0.31321   0.28844
  24   30009.6    333.2   0.031825567   0.34913  -0.54481  -0.07912   0.21460
  25   30153.1    331.6   0.066814593   0.72948   0.25962  -0.81020   0.07519
  26   30616.2    326.6   0.019193503   0.20639   0.35828  -0.26776  -0.07953
  27   30862.4    324.0   0.112420523   1.19920   0.31548   0.68880   0.79072
  28   31573.9    316.7   0.010843412   0.11306   0.25755  -0.15174  -0.15396
  29   31880.9    313.7   0.076758025   0.79263   0.37264  -0.36905   0.71942
  30   32324.2    309.4   0.043006533   0.43801  -0.05556  -0.19192  -0.63094
  31   32659.9    306.2   0.045495878   0.45860  -0.35375   0.52912   0.23128
  32   32667.5    306.1   0.000409629   0.00413  -0.04197   0.01526   0.04619
  33   32845.1    304.5   0.020325127   0.20372  -0.08726   0.12609  -0.42451
  34   32879.1    304.1   0.053346098   0.53414   0.42169  -0.23745  -0.54767
  35   33017.7    302.9   0.059879147   0.59704  -0.67045   0.30577   0.23248
  36   33318.5    300.1   0.067331952   0.66529  -0.56654   0.20252   0.55073
  37   33579.6    297.8   0.018155495   0.17800   0.39593  -0.06437  -0.13072
  38   33709.4    296.7   0.049573611   0.48414   0.10444   0.33997   0.59804
  39   33955.9    294.5   0.007471786   0.07244  -0.23921   0.07063  -0.10115
  40   34106.5    293.2   0.052514654   0.50690  -0.30148   0.63441  -0.11634
  41   34291.1    291.6   0.095812530   0.91985   0.16490   0.40827   0.85204
  42   34398.8    290.7   0.244423373   2.33924   1.06081  -0.63199  -0.90250
  43   34832.5    287.1   0.037329580   0.35281   0.18641  -0.54343  -0.15082
  44   35177.8    284.3   0.024850792   0.23257  -0.47389   0.07952  -0.04091
  45   35451.1    282.1   0.068165621   0.63301  -0.50309   0.38915   0.47799
  46   35850.3    278.9   0.039628720   0.36391   0.37690   0.03723  -0.46954
  47   36151.2    276.6   0.035766758   0.32571   0.33551  -0.21685  -0.40757
  48   36189.6    276.3   0.150449781   1.36862  -0.93643   0.60796  -0.34943
  49   36326.2    275.3   0.305216570   2.76608  -1.10453   0.25705   1.21656
  50   36381.1    274.9   0.026585408   0.24057  -0.19147  -0.41875  -0.16901
  51   36526.4    273.8   0.229736572   2.07061   1.25616  -0.64187  -0.28403
  52   36627.2    273.0   0.013479932   0.12116   0.03215   0.06922   0.33961
  53   37355.4    267.7   0.052818130   0.46548  -0.37178   0.19947   0.53617
  54   37640.6    265.7   0.051156436   0.44742  -0.63351   0.13575  -0.16633
  55   37650.2    265.6   0.234129733   2.04722   1.13252  -0.34173  -0.80489
  56   37809.0    264.5   0.071335069   0.62113   0.71866  -0.20853  -0.24735
  57   37949.2    263.5   0.031427905   0.27264  -0.28136  -0.18112   0.40084
  58   38186.5    261.9   0.015417623   0.13292   0.10699  -0.22737  -0.26414
  59   38280.6    261.2   0.089073572   0.76603   0.47638  -0.44268   0.58577
  60   38476.6    259.9   0.119249037   1.02032   0.79205  -0.02552  -0.62636
  61   38648.1    258.7   0.108861776   0.92731  -0.31624   0.08461   0.90562
  62   39120.0    255.6   0.027625555   0.23248   0.37274  -0.28336  -0.11512
  63   39214.1    255.0   0.009995799   0.08392  -0.07066  -0.02666  -0.27967
  64   39564.4    252.8   0.027795568   0.23128  -0.39850   0.06664   0.26085
  65   39596.4    252.5   0.007017990   0.05835  -0.10547   0.21290  -0.04358
  66   39786.7    251.3   0.020411668   0.16889   0.10633  -0.10982   0.38148
  67   39842.5    251.0   0.002194227   0.01813   0.08850  -0.09256  -0.04160
  68   39903.2    250.6   0.003858155   0.03183  -0.13365  -0.07086  -0.09460
  69   40024.3    249.8   0.000331503   0.00273  -0.02952   0.02655   0.03392
  70   40299.2    248.1   0.013033192   0.10647   0.25890  -0.09916  -0.17207

FINAL SINGLE POINT ENERGY     -4221.593989942758

DIPOLE MOMENT
-------------
                                X             Y             Z
Electronic contribution:      6.63580      37.72854     -24.06596
Nuclear contribution   :     -7.44796     -38.47648      25.70389
                        -----------------------------------------
Total Dipole Moment    :     -0.81215      -0.74794       1.63793
                        -----------------------------------------
Magnitude (a.u.)       :      1.97530
Magnitude (Debye)      :      5.02082

Rotational constants in cm-1:     0.001622     0.000121     0.000118
Rotational constants in MHz :    48.630028     3.636579     3.528033

                             ****ORCA TERMINATED NORMALLY****
TOTAL RUN TIME: 0 days 0 hours 11 minutes 55 seconds 493 msec
