                         Program Version 4.2.0 -  RELEASE  -
|  1> # ORCA input file
|  2> # SCF done       -215.568130735116          0.000796152750
|  3> ! CAM-B3LYP def2-SVP def2/J RIJCOSX Grid4 TightSCF
|  4> %maxcore 5000
|  5> %tddft
|  6>     Mode sTDDFT
|  7>     Ethresh 5.0
|  8>     maxcore 5000
|  9> end
| 10>
| 11> %pal
| 12>   nprocs 6
| 13>   end
| 14> * xyz 0 1
| 15>    C        0.78084        -0.61861        -3.78028
| 16>    C        0.59519         0.75535        -3.74005
| 17>    F        0.74603         1.46281        -4.86376
| 18>    C        0.25902         1.41459        -2.55615
| 19>    F        0.08353         2.74031        -2.56601
| 20>    C        0.10848         0.71137        -1.37154
| 21>    C        0.30257        -0.65566        -1.40757
| 22>    C        0.63148        -1.32741        -2.59927
| 23>    C        0.72655        -2.75974        -2.31917
| 24>    C        0.61731        -3.76591        -3.24153
| 25>    C        0.59956        -3.55149        -4.63553
| 26>    N        0.60715        -3.41950        -5.77513
| 27>    C        0.39960        -5.11781        -2.89355
| 28>    N        0.13893        -6.21200        -2.66776
| 29>    C        0.67930        -2.91860        -0.88232
| 30>    C        0.22865        -1.62913        -0.29263
| 31>    O       -0.07977        -1.42014         0.85550
| 32>    C        1.04324        -3.95639        -0.07673
| 33>    C        1.85882        -5.06792        -0.39544
| 34>    C        1.92217        -6.24529         0.31787
| 35>    C        2.87439        -7.11258        -0.29741
| 36>    C        3.42429        -6.34453        -1.41396
| 37>    C        2.83483        -5.14076        -1.48859
| 38>    F        4.39815        -6.79600        -2.20901
| 39>    C        3.22299        -8.39269         0.06995
| 40>    C        4.16014        -9.26010        -0.55327
| 41>    C        4.22287       -10.44416         0.15848
| 42>    C        3.28716       -10.34869         1.28683
| 43>    C        2.70314        -9.14498         1.22175
| 44>    F        1.79161        -8.65571         2.06522
| 45>    C        5.02854       -11.57707        -0.07737
| 46>    C        5.88633       -11.70473        -1.13394
| 47>    C        6.70666       -12.83687        -1.32067
| 48>    O        6.67949       -13.82553        -0.40692
| 49>    C        7.55504       -14.78492        -0.77194
| 50>    C        8.18108       -14.41365        -1.98619
| 51>    C        7.63264       -13.16273        -2.33385
| 52>    C        7.95145       -12.33002        -3.52851
| 53>    F        7.26316       -11.18786        -3.59145
| 54>    F        9.25174       -11.97444        -3.57674
| 55>    F        7.70005       -12.97145        -4.68720
| 56>    O        9.08291       -15.23448        -2.51644
| 57>    C        9.74815       -14.94625        -3.73467
| 58>    C        7.78923       -15.94463        -0.01990
| 59>    C        7.15015       -16.26302         1.14738
| 60>    C        7.41998       -17.41892         1.90425
| 61>    C        8.36929       -18.40177         1.67275
| 62>    C        8.29331       -19.37446         2.70009
| 63>    C        7.21412       -18.91706         3.58815
| 64>    C        6.69783       -17.76708         3.13339
| 65>    F        6.84079       -19.57812         4.68720
| 66>    C        9.06332       -20.50765         2.85769
| 67>    C        8.98385       -21.49991         3.87406
| 68>    C        9.94901       -22.46260         3.64434
| 69>    C       10.69313       -22.08570         2.43964
| 70>    C       10.15892       -20.94151         1.98739
| 71>    F       10.55217       -20.25895         0.90554
| 72>    C       10.14481       -23.62487         4.41956
| 73>    C       11.14178       -24.53584         4.22345
| 74>    C       11.36335       -25.69040         5.00533
| 75>    C       10.51676       -26.40731         5.80490
| 76>    C       11.11210       -27.31703         6.82187
| 77>    O       12.27028       -27.65082         6.90641
| 78>    C        9.99582       -27.67432         7.72490
| 79>    C        8.79901       -27.13548         7.22122
| 80>    C        7.61300       -27.31020         7.91607
| 81>    C        7.65400       -28.03093         9.10056
| 82>    C        8.84392       -28.57592         9.58608
| 83>    C       10.03459       -28.40028         8.89913
| 84>    F        8.83445       -29.27071        10.72903
| 85>    F        6.52376       -28.20206         9.79352
| 86>    C        9.07939       -26.46385         5.94936
| 87>    C        8.13806       -26.18481         4.99301
| 88>    C        8.44372       -25.76412         3.68293
| 89>    N        8.63747       -25.44887         2.59686
| 90>    C        6.75077       -26.36152         5.17820
| 91>    N        5.61316       -26.47025         5.28107
| 92>    H        1.04175        -1.08521        -4.71642
| 93>    H       -0.15154         1.21989        -0.45685
| 94>    H        0.72561        -3.87437         0.95805
| 95>    H        1.31396        -6.49802         1.16413
| 96>    H        3.07087        -4.34963        -2.17293
| 97>    H        4.72199        -9.01385        -1.43177
| 98>    H        3.12004       -11.11999         2.01294
| 99>    H        4.95667       -12.38931         0.63328
|100>    H        5.95135       -10.91297        -1.85950
|101>    H       10.41100       -15.79448        -3.89668
|102>    H       10.34267       -14.03408        -3.66245
|103>    H        9.04679       -14.87375        -4.56752
|104>    H        8.53859       -16.60243        -0.43225
|105>    H        6.38972       -15.59001         1.51995
|106>    H        9.06094       -18.43526         0.85545
|107>    H        5.90295       -17.19011         3.56403
|108>    H        8.27766       -21.49923         4.68151
|109>    H       11.49910       -22.63744         1.99941
|110>    H        9.46457       -23.75680         5.25215
|111>    H       11.88665       -24.33088         3.46788
|112>    H       12.38870       -26.05051         5.03339
|113>    H        6.67062       -26.90598         7.58402
|114>    H       10.95538       -28.81887         9.27290
|115> *
|116>
|117>                          ****END OF INPUT****

CARTESIAN COORDINATES (ANGSTROEM)
---------------------------------
  C      0.780840   -0.618610   -3.780280
  C      0.595190    0.755350   -3.740050
  F      0.746030    1.462810   -4.863760
  C      0.259020    1.414590   -2.556150
  F      0.083530    2.740310   -2.566010
  C      0.108480    0.711370   -1.371540
  C      0.302570   -0.655660   -1.407570
  C      0.631480   -1.327410   -2.599270
  C      0.726550   -2.759740   -2.319170
  C      0.617310   -3.765910   -3.241530
  C      0.599560   -3.551490   -4.635530
  N      0.607150   -3.419500   -5.775130
  C      0.399600   -5.117810   -2.893550
  N      0.138930   -6.212000   -2.667760
  C      0.679300   -2.918600   -0.882320
  C      0.228650   -1.629130   -0.292630
  O     -0.079770   -1.420140    0.855500
  C      1.043240   -3.956390   -0.076730
  C      1.858820   -5.067920   -0.395440
  C      1.922170   -6.245290    0.317870
  C      2.874390   -7.112580   -0.297410
  C      3.424290   -6.344530   -1.413960
  C      2.834830   -5.140760   -1.488590
  F      4.398150   -6.796000   -2.209010
  C      3.222990   -8.392690    0.069950
  C      4.160140   -9.260100   -0.553270
  C      4.222870  -10.444160    0.158480
  C      3.287160  -10.348690    1.286830
  C      2.703140   -9.144980    1.221750
  F      1.791610   -8.655710    2.065220
  C      5.028540  -11.577070   -0.077370
  C      5.886330  -11.704730   -1.133940
  C      6.706660  -12.836870   -1.320670
  O      6.679490  -13.825530   -0.406920
  C      7.555040  -14.784920   -0.771940
  C      8.181080  -14.413650   -1.986190
  C      7.632640  -13.162730   -2.333850
  C      7.951450  -12.330020   -3.528510
  F      7.263160  -11.187860   -3.591450
  F      9.251740  -11.974440   -3.576740
  F      7.700050  -12.971450   -4.687200
  O      9.082910  -15.234480   -2.516440
  C      9.748150  -14.946250   -3.734670
  C      7.789230  -15.944630   -0.019900
  C      7.150150  -16.263020    1.147380
  C      7.419980  -17.418920    1.904250
  C      8.369290  -18.401770    1.672750
  C      8.293310  -19.374460    2.700090
  C      7.214120  -18.917060    3.588150
  C      6.697830  -17.767080    3.133390
  F      6.840790  -19.578120    4.687200
  C      9.063320  -20.507650    2.857690
  C      8.983850  -21.499910    3.874060
  C      9.949010  -22.462600    3.644340
  C     10.693130  -22.085700    2.439640
  C     10.158920  -20.941510    1.987390
  F     10.552170  -20.258950    0.905540
  C     10.144810  -23.624870    4.419560
  C     11.141780  -24.535840    4.223450
  C     11.363350  -25.690400    5.005330
  C     10.516760  -26.407310    5.804900
  C     11.112100  -27.317030    6.821870
  O     12.270280  -27.650820    6.906410
  C      9.995820  -27.674320    7.724900
  C      8.799010  -27.135480    7.221220
  C      7.613000  -27.310200    7.916070
  C      7.654000  -28.030930    9.100560
  C      8.843920  -28.575920    9.586080
  C     10.034590  -28.400280    8.899130
  F      8.834450  -29.270710   10.729030
  F      6.523760  -28.202060    9.793520
  C      9.079390  -26.463850    5.949360
  C      8.138060  -26.184810    4.993010
  C      8.443720  -25.764120    3.682930
  N      8.637470  -25.448870    2.596860
  C      6.750770  -26.361520    5.178200
  N      5.613160  -26.470250    5.281070
  H      1.041750   -1.085210   -4.716420
  H     -0.151540    1.219890   -0.456850
  H      0.725610   -3.874370    0.958050
  H      1.313960   -6.498020    1.164130
  H      3.070870   -4.349630   -2.172930
  H      4.721990   -9.013850   -1.431770
  H      3.120040  -11.119990    2.012940
  H      4.956670  -12.389310    0.633280
  H      5.951350  -10.912970   -1.859500
  H     10.411000  -15.794480   -3.896680
  H     10.342670  -14.034080   -3.662450
  H      9.046790  -14.873750   -4.567520
  H      8.538590  -16.602430   -0.432250
  H      6.389720  -15.590010    1.519950
  H      9.060940  -18.435260    0.855450
  H      5.902950  -17.190110    3.564030
  H      8.277660  -21.499230    4.681510
  H     11.499100  -22.637440    1.999410
  H      9.464570  -23.756800    5.252150
  H     11.886650  -24.330880    3.467880
  H     12.388700  -26.050510    5.033390
  H      6.670620  -26.905980    7.584020
  H     10.955380  -28.818870    9.272900

 Total Charge           Charge          ....    0
 Multiplicity           Mult            ....    1
 Number of Electrons    NEL             ....  530
 Basis Dimension        Dim             .... 1193

ORBITAL ENERGIES
----------------

  NO   OCC          E(Eh)            E(eV)
   0   2.0000     -24.826904      -675.5744
   1   2.0000     -24.818566      -675.3475
   2   2.0000     -24.818312      -675.3406
   3   2.0000     -24.806640      -675.0230
   4   2.0000     -24.806329      -675.0145
   5   2.0000     -24.804548      -674.9661
   6   2.0000     -24.802033      -674.8976
   7   2.0000     -24.801556      -674.8847
   8   2.0000     -24.800032      -674.8432
   9   2.0000     -24.797674      -674.7790
  10   2.0000     -24.792028      -674.6254
  11   2.0000     -19.325271      -525.8674
  12   2.0000     -19.284806      -524.7663
  13   2.0000     -19.226546      -523.1809
  14   2.0000     -19.219152      -522.9797
  15   2.0000     -14.425032      -392.5251
  16   2.0000     -14.419216      -392.3668
  17   2.0000     -14.418111      -392.3367
  18   2.0000     -14.417305      -392.3148
  19   2.0000     -10.546770      -286.9922
  20   2.0000     -10.392999      -282.8079
  21   2.0000     -10.392071      -282.7826
  22   2.0000     -10.387557      -282.6598
  23   2.0000     -10.386806      -282.6394
  24   2.0000     -10.380349      -282.4637
  25   2.0000     -10.378178      -282.4046
  26   2.0000     -10.378020      -282.4003
  27   2.0000     -10.371564      -282.2246
  28   2.0000     -10.370224      -282.1881
  29   2.0000     -10.365697      -282.0650
  30   2.0000     -10.364102      -282.0215
  31   2.0000     -10.356998      -281.8283
  32   2.0000     -10.355583      -281.7897
  33   2.0000     -10.355257      -281.7809
  34   2.0000     -10.351645      -281.6826
  35   2.0000     -10.346942      -281.5546
  36   2.0000     -10.346337      -281.5381
  37   2.0000     -10.342480      -281.4332
  38   2.0000     -10.326688      -281.0035
  39   2.0000     -10.325954      -280.9835
  40   2.0000     -10.324673      -280.9486
  41   2.0000     -10.324421      -280.9418
  42   2.0000     -10.323989      -280.9300
  43   2.0000     -10.321343      -280.8580
  44   2.0000     -10.320640      -280.8389
  45   2.0000     -10.318710      -280.7864
  46   2.0000     -10.318327      -280.7759
  47   2.0000     -10.317851      -280.7630
  48   2.0000     -10.315642      -280.7029
  49   2.0000     -10.315295      -280.6934
  50   2.0000     -10.315098      -280.6881
  51   2.0000     -10.313859      -280.6544
  52   2.0000     -10.312206      -280.6094
  53   2.0000     -10.310084      -280.5517
  54   2.0000     -10.309653      -280.5399
  55   2.0000     -10.309646      -280.5397
  56   2.0000     -10.309206      -280.5278
  57   2.0000     -10.307489      -280.4810
  58   2.0000     -10.307228      -280.4739
  59   2.0000     -10.306891      -280.4648
  60   2.0000     -10.306428      -280.4522
  61   2.0000     -10.306400      -280.4514
  62   2.0000     -10.306310      -280.4490
  63   2.0000     -10.303419      -280.3703
  64   2.0000     -10.300489      -280.2906
  65   2.0000     -10.298428      -280.2345
  66   2.0000     -10.294434      -280.1258
  67   2.0000     -10.293492      -280.1002
  68   2.0000     -10.293122      -280.0901
  69   2.0000     -10.291798      -280.0541
  70   2.0000     -10.288735      -279.9707
  71   2.0000     -10.285939      -279.8946
  72   2.0000     -10.280541      -279.7477
  73   2.0000     -10.279751      -279.7263
  74   2.0000     -10.279682      -279.7244
  75   2.0000     -10.275538      -279.6116
  76   2.0000     -10.266631      -279.3692
  77   2.0000      -1.413022       -38.4503
  78   2.0000      -1.330655       -36.2090
  79   2.0000      -1.325861       -36.0785
  80   2.0000      -1.318061       -35.8663
  81   2.0000      -1.316575       -35.8258
  82   2.0000      -1.315365       -35.7929
  83   2.0000      -1.313321       -35.7373
  84   2.0000      -1.310890       -35.6711
  85   2.0000      -1.310617       -35.6637
  86   2.0000      -1.309372       -35.6298
  87   2.0000      -1.304651       -35.5013
  88   2.0000      -1.247116       -33.9357
  89   2.0000      -1.188713       -32.3465
  90   2.0000      -1.142245       -31.0821
  91   2.0000      -1.134962       -30.8839
  92   2.0000      -1.029434       -28.0123
  93   2.0000      -1.022990       -27.8370
  94   2.0000      -1.009282       -27.4640
  95   2.0000      -1.005633       -27.3647
  96   2.0000      -1.003941       -27.3186
  97   2.0000      -0.999731       -27.2041
  98   2.0000      -0.996606       -27.1190
  99   2.0000      -0.994249       -27.0549
 100   2.0000      -0.986024       -26.8311
 101   2.0000      -0.976519       -26.5724
 102   2.0000      -0.963959       -26.2306
 103   2.0000      -0.959345       -26.1051
 104   2.0000      -0.951899       -25.9025
 105   2.0000      -0.942222       -25.6392
 106   2.0000      -0.921280       -25.0693
 107   2.0000      -0.914239       -24.8777
 108   2.0000      -0.910911       -24.7872
 109   2.0000      -0.902795       -24.5663
 110   2.0000      -0.896334       -24.3905
 111   2.0000      -0.881338       -23.9824
 112   2.0000      -0.879056       -23.9203
 113   2.0000      -0.875887       -23.8341
 114   2.0000      -0.867028       -23.5930
 115   2.0000      -0.858957       -23.3734
 116   2.0000      -0.845470       -23.0064
 117   2.0000      -0.834448       -22.7065
 118   2.0000      -0.826962       -22.5028
 119   2.0000      -0.816027       -22.2052
 120   2.0000      -0.814050       -22.1514
 121   2.0000      -0.811643       -22.0859
 122   2.0000      -0.805968       -21.9315
 123   2.0000      -0.797551       -21.7025
 124   2.0000      -0.784860       -21.3571
 125   2.0000      -0.779100       -21.2004
 126   2.0000      -0.775972       -21.1153
 127   2.0000      -0.769771       -20.9465
 128   2.0000      -0.759514       -20.6674
 129   2.0000      -0.742554       -20.2059
 130   2.0000      -0.738582       -20.0978
 131   2.0000      -0.734031       -19.9740
 132   2.0000      -0.730965       -19.8906
 133   2.0000      -0.715859       -19.4795
 134   2.0000      -0.712795       -19.3961
 135   2.0000      -0.709804       -19.3148
 136   2.0000      -0.708469       -19.2784
 137   2.0000      -0.695003       -18.9120
 138   2.0000      -0.694415       -18.8960
 139   2.0000      -0.693336       -18.8666
 140   2.0000      -0.684898       -18.6370
 141   2.0000      -0.682010       -18.5584
 142   2.0000      -0.680865       -18.5273
 143   2.0000      -0.678751       -18.4698
 144   2.0000      -0.674859       -18.3638
 145   2.0000      -0.672937       -18.3115
 146   2.0000      -0.667140       -18.1538
 147   2.0000      -0.658716       -17.9246
 148   2.0000      -0.653352       -17.7786
 149   2.0000      -0.651002       -17.7147
 150   2.0000      -0.648335       -17.6421
 151   2.0000      -0.644603       -17.5405
 152   2.0000      -0.643459       -17.5094
 153   2.0000      -0.639571       -17.4036
 154   2.0000      -0.638364       -17.3708
 155   2.0000      -0.630319       -17.1519
 156   2.0000      -0.622506       -16.9393
 157   2.0000      -0.617547       -16.8043
 158   2.0000      -0.616440       -16.7742
 159   2.0000      -0.612558       -16.6685
 160   2.0000      -0.611473       -16.6390
 161   2.0000      -0.603108       -16.4114
 162   2.0000      -0.602104       -16.3841
 163   2.0000      -0.601687       -16.3727
 164   2.0000      -0.595510       -16.2047
 165   2.0000      -0.595290       -16.1987
 166   2.0000      -0.592051       -16.1105
 167   2.0000      -0.590515       -16.0687
 168   2.0000      -0.586890       -15.9701
 169   2.0000      -0.578579       -15.7439
 170   2.0000      -0.574886       -15.6435
 171   2.0000      -0.574269       -15.6267
 172   2.0000      -0.570561       -15.5258
 173   2.0000      -0.567542       -15.4436
 174   2.0000      -0.566729       -15.4215
 175   2.0000      -0.566340       -15.4109
 176   2.0000      -0.565135       -15.3781
 177   2.0000      -0.564402       -15.3582
 178   2.0000      -0.562321       -15.3015
 179   2.0000      -0.561678       -15.2840
 180   2.0000      -0.558044       -15.1852
 181   2.0000      -0.557901       -15.1812
 182   2.0000      -0.557054       -15.1582
 183   2.0000      -0.555133       -15.1059
 184   2.0000      -0.554938       -15.1006
 185   2.0000      -0.553434       -15.0597
 186   2.0000      -0.550695       -14.9852
 187   2.0000      -0.546739       -14.8775
 188   2.0000      -0.544614       -14.8197
 189   2.0000      -0.542983       -14.7753
 190   2.0000      -0.539510       -14.6808
 191   2.0000      -0.538392       -14.6504
 192   2.0000      -0.535139       -14.5619
 193   2.0000      -0.534848       -14.5540
 194   2.0000      -0.532157       -14.4807
 195   2.0000      -0.529188       -14.3999
 196   2.0000      -0.526632       -14.3304
 197   2.0000      -0.526552       -14.3282
 198   2.0000      -0.525517       -14.3000
 199   2.0000      -0.524000       -14.2588
 200   2.0000      -0.513984       -13.9862
 201   2.0000      -0.508146       -13.8274
 202   2.0000      -0.507466       -13.8088
 203   2.0000      -0.506789       -13.7904
 204   2.0000      -0.502600       -13.6765
 205   2.0000      -0.501607       -13.6494
 206   2.0000      -0.501404       -13.6439
 207   2.0000      -0.496918       -13.5218
 208   2.0000      -0.495307       -13.4780
 209   2.0000      -0.493526       -13.4295
 210   2.0000      -0.491846       -13.3838
 211   2.0000      -0.489256       -13.3133
 212   2.0000      -0.488165       -13.2837
 213   2.0000      -0.485619       -13.2144
 214   2.0000      -0.485029       -13.1983
 215   2.0000      -0.482283       -13.1236
 216   2.0000      -0.480956       -13.0875
 217   2.0000      -0.478714       -13.0265
 218   2.0000      -0.473340       -12.8802
 219   2.0000      -0.469635       -12.7794
 220   2.0000      -0.466956       -12.7065
 221   2.0000      -0.465431       -12.6650
 222   2.0000      -0.463091       -12.6014
 223   2.0000      -0.462177       -12.5765
 224   2.0000      -0.460816       -12.5394
 225   2.0000      -0.459613       -12.5067
 226   2.0000      -0.459058       -12.4916
 227   2.0000      -0.457494       -12.4490
 228   2.0000      -0.454731       -12.3738
 229   2.0000      -0.454582       -12.3698
 230   2.0000      -0.450973       -12.2716
 231   2.0000      -0.448798       -12.2124
 232   2.0000      -0.448667       -12.2089
 233   2.0000      -0.447167       -12.1680
 234   2.0000      -0.443944       -12.0803
 235   2.0000      -0.438017       -11.9191
 236   2.0000      -0.435925       -11.8621
 237   2.0000      -0.434948       -11.8355
 238   2.0000      -0.432462       -11.7679
 239   2.0000      -0.429861       -11.6971
 240   2.0000      -0.428846       -11.6695
 241   2.0000      -0.427550       -11.6342
 242   2.0000      -0.423384       -11.5209
 243   2.0000      -0.420757       -11.4494
 244   2.0000      -0.415688       -11.3114
 245   2.0000      -0.411550       -11.1989
 246   2.0000      -0.410240       -11.1632
 247   2.0000      -0.394254       -10.7282
 248   2.0000      -0.380040       -10.3414
 249   2.0000      -0.373598       -10.1661
 250   2.0000      -0.360910        -9.8209
 251   2.0000      -0.355600        -9.6764
 252   2.0000      -0.352004        -9.5785
 253   2.0000      -0.347448        -9.4545
 254   2.0000      -0.345749        -9.4083
 255   2.0000      -0.338958        -9.2235
 256   2.0000      -0.326446        -8.8831
 257   2.0000      -0.320186        -8.7127
 258   2.0000      -0.318296        -8.6613
 259   2.0000      -0.313714        -8.5366
 260   2.0000      -0.308939        -8.4066
 261   2.0000      -0.295471        -8.0402
 262   2.0000      -0.285274        -7.7627
 263   2.0000      -0.272867        -7.4251
 264   2.0000      -0.239835        -6.5263
 265   0.0000      -0.135883        -3.6976
 266   0.0000      -0.115161        -3.1337
 267   0.0000      -0.085033        -2.3139
 268   0.0000      -0.080019        -2.1774
 269   0.0000      -0.061720        -1.6795

MULLIKEN ATOMIC CHARGES
-----------------------
   0 C :   -0.087247
   1 C :    0.237216
   2 F :   -0.163148
   3 C :    0.232250
   4 F :   -0.166947
   5 C :   -0.099051
   6 C :    0.006345
   7 C :    0.032268
   8 C :    0.246606
   9 C :   -0.330892
  10 C :   -0.183084
  11 N :    0.163809
  12 C :   -0.193628
  13 N :    0.180228
  14 C :   -0.121160
  15 C :    0.137813
  16 O :   -0.128923
  17 C :    0.042146
  18 C :    0.053963
  19 C :   -0.027561
  20 C :    0.006386
  21 C :    0.261133
  22 C :   -0.067839
  23 F :   -0.170888
  24 C :    0.017358
  25 C :   -0.082131
  26 C :    0.105951
  27 C :   -0.073968
  28 C :    0.266354
  29 F :   -0.169615
  30 C :    0.007956
  31 C :   -0.034130
  32 C :    0.140600
  33 O :   -0.191600
  34 C :    0.115004
  35 C :    0.164527
  36 C :   -0.159520
  37 C :    0.517329
  38 F :   -0.138946
  39 F :   -0.161671
  40 F :   -0.160494
  41 O :   -0.287005
  42 C :    0.172701
  43 C :   -0.011788
  44 C :   -0.010825
  45 C :    0.119106
  46 C :   -0.099681
  47 C :    0.025614
  48 C :    0.263097
  49 C :   -0.080110
  50 F :   -0.171534
  51 C :   -0.002215
  52 C :   -0.065292
  53 C :    0.088671
  54 C :   -0.064729
  55 C :    0.255057
  56 F :   -0.176704
  57 C :    0.036761
  58 C :    0.005970
  59 C :    0.048235
  60 C :   -0.125087
  61 C :    0.130846
  62 O :   -0.138734
  63 C :    0.013802
  64 C :    0.022556
  65 C :   -0.091091
  66 C :    0.236041
  67 C :    0.234110
  68 C :   -0.103178
  69 F :   -0.167998
  70 F :   -0.164911
  71 C :    0.262317
  72 C :   -0.331272
  73 C :   -0.199489
  74 N :    0.178532
  75 C :   -0.182261
  76 N :    0.156999
  77 H :    0.018051
  78 H :    0.014011
  79 H :    0.024748
  80 H :    0.001506
  81 H :   -0.000831
  82 H :   -0.007372
  83 H :   -0.010695
  84 H :   -0.001911
  85 H :    0.018980
  86 H :    0.046583
  87 H :    0.041192
  88 H :    0.041698
  89 H :    0.017996
  90 H :   -0.013583
  91 H :   -0.014404
  92 H :   -0.016286
  93 H :   -0.007788
  94 H :   -0.014506
  95 H :    0.003514
  96 H :    0.002725
  97 H :    0.028682
  98 H :    0.017023
  99 H :    0.011356
Sum of atomic charges:   -0.0000000

LOEWDIN ATOMIC CHARGES
----------------------
   0 C :   -0.020422
   1 C :    0.075584
   2 F :   -0.041192
   3 C :    0.070241
   4 F :   -0.043699
   5 C :   -0.003331
   6 C :   -0.047484
   7 C :   -0.012289
   8 C :    0.062750
   9 C :   -0.126698
  10 C :   -0.021253
  11 N :   -0.041269
  12 C :   -0.020497
  13 N :   -0.037511
  14 C :   -0.086620
  15 C :    0.083275
  16 O :   -0.131354
  17 C :    0.075513
  18 C :   -0.024799
  19 C :    0.005945
  20 C :   -0.003998
  21 C :    0.082255
  22 C :   -0.053904
  23 F :   -0.047663
  24 C :    0.021136
  25 C :   -0.053389
  26 C :    0.006378
  27 C :   -0.051694
  28 C :    0.082502
  29 F :   -0.045195
  30 C :   -0.000382
  31 C :   -0.017905
  32 C :    0.065527
  33 O :    0.032448
  34 C :    0.004480
  35 C :    0.044806
  36 C :   -0.154223
  37 C :    0.173138
  38 F :   -0.039200
  39 F :   -0.061700
  40 F :   -0.059969
  41 O :   -0.076448
  42 C :    0.079188
  43 C :    0.002600
  44 C :   -0.025606
  45 C :    0.011480
  46 C :   -0.070464
  47 C :    0.016043
  48 C :    0.083750
  49 C :   -0.056178
  50 F :   -0.047529
  51 C :   -0.014437
  52 C :   -0.019990
  53 C :   -0.014624
  54 C :   -0.052735
  55 C :    0.079458
  56 F :   -0.053156
  57 C :    0.046263
  58 C :   -0.041161
  59 C :    0.067698
  60 C :   -0.097812
  61 C :    0.082863
  62 O :   -0.138245
  63 C :   -0.047266
  64 C :   -0.012424
  65 C :   -0.021065
  66 C :    0.073992
  67 C :    0.068745
  68 C :   -0.004639
  69 F :   -0.045204
  70 F :   -0.042899
  71 C :    0.063214
  72 C :   -0.138027
  73 C :   -0.017396
  74 N :   -0.035807
  75 C :   -0.022376
  76 N :   -0.048403
  77 H :    0.051598
  78 H :    0.053091
  79 H :    0.051764
  80 H :    0.030920
  81 H :    0.031399
  82 H :    0.023952
  83 H :    0.033072
  84 H :    0.033767
  85 H :    0.038702
  86 H :    0.034192
  87 H :    0.019678
  88 H :    0.020171
  89 H :    0.045991
  90 H :    0.030283
  91 H :    0.020391
  92 H :    0.030954
  93 H :    0.026375
  94 H :    0.030901
  95 H :    0.036444
  96 H :    0.035168
  97 H :    0.048298
  98 H :    0.051016
  99 H :    0.052138

  Mayer bond orders larger than 0.100000
B(  0-C ,  1-C ) :   1.3353 B(  0-C ,  5-C ) :   0.1042 B(  0-C ,  7-C ) :   1.3195
B(  0-C , 77-H ) :   0.9952 B(  1-C ,  2-F ) :   1.1436 B(  1-C ,  3-C ) :   1.2892
B(  3-C ,  4-F ) :   1.1332 B(  3-C ,  5-C ) :   1.3227 B(  5-C ,  6-C ) :   1.3228
B(  5-C , 78-H ) :   1.0194 B(  6-C ,  7-C ) :   1.3422 B(  6-C , 15-C ) :   0.9284
B(  7-C ,  8-C ) :   1.0176 B(  8-C ,  9-C ) :   1.6618 B(  8-C , 14-C ) :   1.0440
B(  9-C , 10-C ) :   1.1307 B(  9-C , 12-C ) :   1.1529 B( 10-C , 11-N ) :   2.9959
B( 12-C , 13-N ) :   3.0111 B( 14-C , 15-C ) :   0.9383 B( 14-C , 17-C ) :   1.6294
B( 15-C , 16-O ) :   2.2850 B( 17-C , 18-C ) :   1.1031 B( 17-C , 79-H ) :   0.9564
B( 18-C , 19-C ) :   1.5095 B( 18-C , 22-C ) :   1.0209 B( 19-C , 20-C ) :   1.1116
B( 19-C , 80-H ) :   1.0199 B( 20-C , 21-C ) :   1.0381 B( 20-C , 24-C ) :   1.4464
B( 21-C , 22-C ) :   1.6599 B( 21-C , 23-F ) :   1.1316 B( 22-C , 81-H ) :   1.0081
B( 24-C , 25-C ) :   1.1533 B( 24-C , 28-C ) :   1.0035 B( 25-C , 26-C ) :   1.5129
B( 25-C , 82-H ) :   1.0083 B( 26-C , 27-C ) :   1.0011 B( 26-C , 30-C ) :   1.1293
B( 27-C , 28-C ) :   1.6719 B( 27-C , 83-H ) :   1.0215 B( 28-C , 29-F ) :   1.1299
B( 30-C , 31-C ) :   1.5782 B( 30-C , 84-H ) :   0.9880 B( 31-C , 32-C ) :   1.2068
B( 31-C , 85-H ) :   0.9570 B( 32-C , 33-O ) :   1.1830 B( 32-C , 34-C ) :   0.1072
B( 32-C , 36-C ) :   1.3468 B( 33-O , 34-C ) :   1.1182 B( 34-C , 35-C ) :   1.3200
B( 34-C , 43-C ) :   1.2217 B( 35-C , 36-C ) :   1.2661 B( 35-C , 41-O ) :   1.2547
B( 36-C , 37-C ) :   0.9414 B( 37-C , 38-F ) :   1.1575 B( 37-C , 39-F ) :   1.1568
B( 37-C , 40-F ) :   1.1578 B( 41-O , 42-C ) :   0.9116 B( 42-C , 86-H ) :   0.9770
B( 42-C , 87-H ) :   0.9655 B( 42-C , 88-H ) :   0.9661 B( 43-C , 44-C ) :   1.5327
B( 43-C , 89-H ) :   0.9603 B( 44-C , 45-C ) :   1.1478 B( 44-C , 90-H ) :   0.9901
B( 45-C , 46-C ) :   1.4900 B( 45-C , 49-C ) :   1.0007 B( 46-C , 47-C ) :   1.1747
B( 46-C , 91-H ) :   1.0081 B( 47-C , 48-C ) :   1.0010 B( 47-C , 51-C ) :   1.4274
B( 48-C , 49-C ) :   1.6708 B( 48-C , 50-F ) :   1.1289 B( 49-C , 92-H ) :   1.0224
B( 51-C , 52-C ) :   1.1299 B( 51-C , 55-C ) :   1.0359 B( 52-C , 53-C ) :   1.4809
B( 52-C , 93-H ) :   1.0209 B( 53-C , 54-C ) :   1.0329 B( 53-C , 57-C ) :   1.1884
B( 54-C , 55-C ) :   1.6594 B( 54-C , 94-H ) :   1.0113 B( 55-C , 56-F ) :   1.1200
B( 57-C , 58-C ) :   1.5654 B( 57-C , 95-H ) :   0.9680 B( 58-C , 59-C ) :   1.1842
B( 58-C , 96-H ) :   0.9603 B( 59-C , 60-C ) :   1.6235 B( 59-C , 97-H ) :   0.9290
B( 60-C , 61-C ) :   0.9524 B( 60-C , 71-C ) :   1.0539 B( 61-C , 62-O ) :   2.2654
B( 61-C , 63-C ) :   0.9286 B( 63-C , 64-C ) :   1.3449 B( 63-C , 68-C ) :   1.3200
B( 64-C , 65-C ) :   1.3185 B( 64-C , 71-C ) :   1.0098 B( 65-C , 66-C ) :   1.3370
B( 65-C , 68-C ) :   0.1050 B( 65-C , 98-H ) :   0.9945 B( 66-C , 67-C ) :   1.2903
B( 66-C , 70-F ) :   1.1420 B( 67-C , 68-C ) :   1.3207 B( 67-C , 69-F ) :   1.1320
B( 68-C , 99-H ) :   1.0208 B( 71-C , 72-C ) :   1.6457 B( 72-C , 73-C ) :   1.1706
B( 72-C , 75-C ) :   1.1227 B( 73-C , 74-N ) :   2.9951 B( 75-C , 76-N ) :   2.9942

-----------------------------------------------------------------------------
         ABSORPTION SPECTRUM VIA TRANSITION ELECTRIC DIPOLE MOMENTS
-----------------------------------------------------------------------------
State   Energy  Wavelength   fosc         T2         TX        TY        TZ
        (cm-1)    (nm)                  (au**2)     (au)      (au)      (au)
-----------------------------------------------------------------------------
   0    9494.4   1053.3   1.659808908  57.55290   2.69210  -6.78040   2.08128
   1   13326.4    750.4   0.058631746   1.44842   0.65507   0.23108  -0.98280
   2   16040.6    623.4   0.014664128   0.30096  -0.01413  -0.54697   0.03976
   3   16477.9    606.9   0.072375196   1.44598  -0.25041   1.01072  -0.60144
   4   17508.2    571.2   0.008901390   0.16738  -0.38311   0.04689   0.13565
   5   20162.9    496.0   0.633624346  10.34555  -0.57431   2.95909  -1.12228
   6   21046.9    475.1   0.123809762   1.93661  -1.22011   0.64955  -0.16130
   7   22864.9    437.4   0.054360785   0.78269  -0.56840   0.44125  -0.51470
   8   23759.6    420.9   0.049050713   0.67964  -0.53796   0.30675   0.54419
   9   24508.2    408.0   0.057913421   0.77793   0.00110  -0.79943   0.37261
  10   24854.6    402.3   0.143826650   1.90506   0.40691  -1.23055   0.47458
  11   25863.5    386.6   0.077910275   0.99171   0.22617  -0.88681   0.39259
  12   26021.8    384.3   0.048077266   0.60824   0.46769  -0.60046   0.17018
  13   26448.9    378.1   0.027859791   0.34677   0.35456  -0.06799   0.46523
  14   26683.8    374.8   0.187953027   2.31887  -0.46260   1.29693   0.65027
  15   27224.2    367.3   0.028165094   0.34059  -0.10263  -0.57241  -0.04905
  16   27658.3    361.6   0.434162022   5.16775  -0.64886   1.82003  -1.19759
  17   28546.7    350.3   0.091908931   1.05993   0.36768  -0.92124   0.27580
  18   28925.8    345.7   0.003501239   0.03985   0.12617   0.15287  -0.02367
  19   29687.0    336.8   0.076379637   0.84701   0.17145  -0.72618   0.53877
  20   29997.6    333.4   0.027022790   0.29656  -0.24930   0.00355   0.48415
  21   30076.9    332.5   0.017297272   0.18933   0.30020  -0.26721  -0.16677
  22   30527.3    327.6   0.007969076   0.08594   0.16283  -0.06972   0.23360
  23   31583.3    316.6   0.084653239   0.88239   0.37640  -0.35233   0.78522
  24   31987.3    312.6   0.064178803   0.66052   0.32795  -0.73042  -0.13951
  25   32593.7    306.8   0.033887072   0.34228   0.30273  -0.48963   0.10436
  26   32771.8    305.1   0.032932765   0.33083  -0.49007   0.22513  -0.19995
  27   32936.8    303.6   0.021627440   0.21617  -0.25158   0.33875   0.19526
  28   32997.8    303.1   0.032052992   0.31979  -0.11265  -0.26048  -0.48913
  29   33427.0    299.2   0.078578391   0.77389  -0.12688  -0.30506   0.81531
  30   33659.3    297.1   0.036010783   0.35221  -0.12185  -0.57882  -0.04826
  31   33860.7    295.3   0.087576875   0.85147   0.06748  -0.26312   0.88186
  32   34293.3    291.6   0.007129395   0.06844   0.00717   0.02939   0.25986
  33   34509.7    289.8   0.098355661   0.93828  -0.55257   0.77600  -0.17540
  34   34614.2    288.9   0.063008227   0.59926   0.58908  -0.43952   0.24304
  35   35176.7    284.3   0.207202830   1.93917  -0.93310   0.89037  -0.52510
  36   35445.2    282.1   0.004710218   0.04375   0.03262  -0.04948   0.20059
  37   35584.9    281.0   0.317860235   2.94067   0.16209  -1.67613  -0.32400
  38   36041.5    277.5   0.140356064   1.28205   0.09188  -0.91687  -0.65799
  39   36308.7    275.4   0.064756635   0.58715  -0.73369   0.03171  -0.21873
  40   36553.3    273.6   0.120718019   1.08723   0.53690  -0.63114  -0.63295
  41   36820.5    271.6   0.326222092   2.91675  -0.02642   0.76735  -1.52553
  42   37259.3    268.4   0.257203942   2.27258   0.23132  -1.32311  -0.68444
  43   37532.7    266.4   0.052088023   0.45688   0.29990   0.48342   0.36503
  44   37742.7    265.0   0.205256311   1.79036  -0.48745   0.44248  -1.16488
  45   38232.0    261.6   0.025141891   0.21649  -0.36994   0.28207   0.00866
  46   38443.3    260.1   0.040797292   0.34937  -0.02392   0.01105  -0.59049
  47   38636.2    258.8   0.015067941   0.12839  -0.16394  -0.23011   0.22038
  48   38833.5    257.5   0.002790209   0.02365   0.00716   0.07269   0.13535
  49   39103.5    255.7   0.033746391   0.28411  -0.25503  -0.05662   0.46461
  50   39240.7    254.8   0.006536690   0.05484   0.03045   0.23052   0.02783
  51   39436.2    253.6   0.039985203   0.33379   0.04630  -0.57504  -0.03124
  52   39786.7    251.3   0.003117834   0.02580  -0.06515  -0.11666  -0.08913
  53   39816.0    251.2   0.110910088   0.91704  -0.64788  -0.25204   0.65861
  54   39839.1    251.0   0.014639310   0.12097   0.22248   0.24765  -0.10072

FINAL SINGLE POINT ENERGY     -3837.297987787838

DIPOLE MOMENT
-------------
                                X             Y             Z
Electronic contribution:    -18.51372      28.49055      -3.83969
Nuclear contribution   :     20.65388     -26.91772       4.25696
                        -----------------------------------------
Total Dipole Moment    :      2.14016       1.57283       0.41727
                        -----------------------------------------
Magnitude (a.u.)       :      2.68853
Magnitude (Debye)      :      6.83369

Rotational constants in cm-1:     0.001980     0.000137     0.000131
Rotational constants in MHz :    59.371975     4.117738     3.914176

                             ****ORCA TERMINATED NORMALLY****
TOTAL RUN TIME: 0 days 0 hours 11 minutes 26 seconds 789 msec
