                         Program Version 4.2.0 -  RELEASE  -
|  1> # ORCA input file
|  2> # SCF done       -209.709101668382          0.000651512848
|  3> ! CAM-B3LYP def2-SVP def2/J RIJCOSX Grid4 TightSCF
|  4> %maxcore 5000
|  5> %tddft
|  6>     Mode sTDDFT
|  7>     Ethresh 5.0
|  8>     maxcore 5000
|  9> end
| 10>
| 11> %pal
| 12>   nprocs 6
| 13>   end
| 14> * xyz 0 1
| 15>    C        0.42419         0.25437        -6.15272
| 16>    C        0.88976         1.07128        -7.17177
| 17>    F        0.18370         2.15903        -7.50213
| 18>    C        2.07056         0.78824        -7.85915
| 19>    F        2.48143         1.60671        -8.83562
| 20>    C        2.81929        -0.33220        -7.53963
| 21>    C        2.35398        -1.14456        -6.52455
| 22>    C        1.16948        -0.86894        -5.82606
| 23>    C        0.96673        -1.91155        -4.81994
| 24>    C       -0.06216        -1.92254        -3.91380
| 25>    C       -1.07973        -0.94480        -3.86250
| 26>    N       -1.93999        -0.19167        -3.76236
| 27>    C       -0.28047        -2.86779        -2.88770
| 28>    N       -0.54917        -3.56305        -2.01336
| 29>    C        2.05525        -2.86849        -4.94155
| 30>    C        2.96595        -2.39098        -6.00788
| 31>    O        3.98976        -2.88364        -6.42551
| 32>    C        2.12703        -4.02265        -4.20176
| 33>    C        3.09283        -5.04417        -4.10562
| 34>    C        2.88636        -6.15119        -3.29292
| 35>    C        4.02724        -7.00007        -3.35686
| 36>    C        4.94624        -6.32558        -4.26819
| 37>    C        4.41420        -5.17712        -4.71846
| 38>    F        6.15123        -6.81835        -4.58571
| 39>    C        4.24090        -8.19469        -2.70124
| 40>    C        5.38186        -9.02801        -2.73175
| 41>    C        5.17461       -10.11942        -1.90994
| 42>    C        3.83355       -10.00068        -1.32001
| 43>    C        3.29621        -8.86861        -1.79080
| 44>    F        2.08280        -8.39313        -1.50271
| 45>    C        6.10008       -11.15428        -1.66442
| 46>    C        5.87787       -12.21373        -0.84550
| 47>    N        6.76753       -13.21134        -0.64557
| 48>    C        6.61270       -14.21306         0.39432
| 49>    C        6.78858       -13.59764         1.78300
| 50>    C        6.83041       -14.66484         2.87769
| 51>    N        7.13297       -13.99975         4.13024
| 52>    S        8.84190       -14.07678         4.31216
| 53>    N        8.94287       -15.66108         3.65148
| 54>    C        7.95711       -15.73217         2.58962
| 55>    C        8.66567       -15.44351         1.26559
| 56>    C        7.66943       -15.31038         0.11386
| 57>    N        8.33653       -14.92780        -1.11543
| 58>    S        8.34227       -13.23972        -1.29153
| 59>    C        9.13168       -15.74224        -1.84450
| 60>    C        9.91496       -15.36527        -2.91206
| 61>    C       10.58216       -16.50706        -3.41008
| 62>    C       10.13320       -17.61956        -2.55899
| 63>    C        9.26980       -17.17910        -1.62826
| 64>    F       10.52221       -18.88335        -2.72050
| 65>    C       11.48181       -16.59667        -4.45190
| 66>    C       12.21807       -17.73110        -4.89130
| 67>    C       13.03193       -17.36156        -5.94677
| 68>    C       12.80614       -15.94299        -6.22179
| 69>    C       11.90022       -15.50752        -5.33138
| 70>    F       11.41219       -14.26377        -5.23753
| 71>    C       13.95956       -18.20797        -6.58832
| 72>    C       14.73056       -17.86668        -7.66160
| 73>    C       15.65304       -18.72136        -8.30098
| 74>    C       16.30287       -19.83361        -7.83695
| 75>    C       16.87531       -20.78305        -8.82668
| 76>    O       17.00366       -20.60592       -10.01558
| 77>    C       17.20402       -22.00201        -8.05259
| 78>    C       16.96881       -21.76305        -6.68766
| 79>    C       17.17530       -22.77215        -5.76111
| 80>    C       17.62096       -24.00047        -6.22657
| 81>    C       17.86580       -24.22552        -7.58163
| 82>    C       17.65699       -23.22203        -8.51432
| 83>    F       18.30235       -25.42488        -7.98440
| 84>    F       17.81571       -24.99269        -5.35078
| 85>    C       16.53978       -20.37214        -6.51729
| 86>    C       16.60822       -19.67850        -5.33632
| 87>    C       16.43577       -18.28403        -5.22518
| 88>    N       16.33905       -17.15076        -5.07330
| 89>    C       16.93793       -20.26287        -4.09618
| 90>    N       17.17733       -20.68939        -3.05781
| 91>    H       -0.49469         0.51964        -5.65699
| 92>    H        3.73240        -0.55870        -8.06670
| 93>    H        1.28061        -4.20528        -3.54948
| 94>    H        2.00804        -6.33628        -2.70454
| 95>    H        4.85242        -4.47881        -5.40122
| 96>    H        6.26983        -8.83583        -3.30036
| 97>    H        3.37681       -10.69406        -0.64223
| 98>    H        7.05703       -11.08254        -2.16594
| 99>    H        4.94848       -12.32660        -0.30737
|100>    H        5.60329       -14.63285         0.30626
|101>    H        5.96434       -12.91569         1.99388
|102>    H        7.71004       -13.01565         1.82684
|103>    H        5.85412       -15.15414         2.94912
|104>    H        6.65850       -14.41355         4.92636
|105>    H        8.81140       -16.36833         4.36696
|106>    H        7.52386       -16.73698         2.55967
|107>    H        9.36573       -16.25271         1.05649
|108>    H        9.25059       -14.52889         1.37022
|109>    H        7.17303       -16.27153        -0.05681
|110>    H       10.02299       -14.36714        -3.28647
|111>    H        8.77156       -17.76478        -0.88180
|112>    H       12.16377       -18.71012        -4.45641
|113>    H       13.29292       -15.36415        -6.98043
|114>    H       14.01909       -19.21783        -6.20014
|115>    H       14.57549       -16.90321        -8.12562
|116>    H       15.84589       -18.51352        -9.35016
|117>    H       16.99769       -22.64767        -4.70540
|118>    H       17.84410       -23.39398        -9.56225
|119> *
|120>
|121>                          ****END OF INPUT****

CARTESIAN COORDINATES (ANGSTROEM)
---------------------------------
  C      0.424190    0.254370   -6.152720
  C      0.889760    1.071280   -7.171770
  F      0.183700    2.159030   -7.502130
  C      2.070560    0.788240   -7.859150
  F      2.481430    1.606710   -8.835620
  C      2.819290   -0.332200   -7.539630
  C      2.353980   -1.144560   -6.524550
  C      1.169480   -0.868940   -5.826060
  C      0.966730   -1.911550   -4.819940
  C     -0.062160   -1.922540   -3.913800
  C     -1.079730   -0.944800   -3.862500
  N     -1.939990   -0.191670   -3.762360
  C     -0.280470   -2.867790   -2.887700
  N     -0.549170   -3.563050   -2.013360
  C      2.055250   -2.868490   -4.941550
  C      2.965950   -2.390980   -6.007880
  O      3.989760   -2.883640   -6.425510
  C      2.127030   -4.022650   -4.201760
  C      3.092830   -5.044170   -4.105620
  C      2.886360   -6.151190   -3.292920
  C      4.027240   -7.000070   -3.356860
  C      4.946240   -6.325580   -4.268190
  C      4.414200   -5.177120   -4.718460
  F      6.151230   -6.818350   -4.585710
  C      4.240900   -8.194690   -2.701240
  C      5.381860   -9.028010   -2.731750
  C      5.174610  -10.119420   -1.909940
  C      3.833550  -10.000680   -1.320010
  C      3.296210   -8.868610   -1.790800
  F      2.082800   -8.393130   -1.502710
  C      6.100080  -11.154280   -1.664420
  C      5.877870  -12.213730   -0.845500
  N      6.767530  -13.211340   -0.645570
  C      6.612700  -14.213060    0.394320
  C      6.788580  -13.597640    1.783000
  C      6.830410  -14.664840    2.877690
  N      7.132970  -13.999750    4.130240
  S      8.841900  -14.076780    4.312160
  N      8.942870  -15.661080    3.651480
  C      7.957110  -15.732170    2.589620
  C      8.665670  -15.443510    1.265590
  C      7.669430  -15.310380    0.113860
  N      8.336530  -14.927800   -1.115430
  S      8.342270  -13.239720   -1.291530
  C      9.131680  -15.742240   -1.844500
  C      9.914960  -15.365270   -2.912060
  C     10.582160  -16.507060   -3.410080
  C     10.133200  -17.619560   -2.558990
  C      9.269800  -17.179100   -1.628260
  F     10.522210  -18.883350   -2.720500
  C     11.481810  -16.596670   -4.451900
  C     12.218070  -17.731100   -4.891300
  C     13.031930  -17.361560   -5.946770
  C     12.806140  -15.942990   -6.221790
  C     11.900220  -15.507520   -5.331380
  F     11.412190  -14.263770   -5.237530
  C     13.959560  -18.207970   -6.588320
  C     14.730560  -17.866680   -7.661600
  C     15.653040  -18.721360   -8.300980
  C     16.302870  -19.833610   -7.836950
  C     16.875310  -20.783050   -8.826680
  O     17.003660  -20.605920  -10.015580
  C     17.204020  -22.002010   -8.052590
  C     16.968810  -21.763050   -6.687660
  C     17.175300  -22.772150   -5.761110
  C     17.620960  -24.000470   -6.226570
  C     17.865800  -24.225520   -7.581630
  C     17.656990  -23.222030   -8.514320
  F     18.302350  -25.424880   -7.984400
  F     17.815710  -24.992690   -5.350780
  C     16.539780  -20.372140   -6.517290
  C     16.608220  -19.678500   -5.336320
  C     16.435770  -18.284030   -5.225180
  N     16.339050  -17.150760   -5.073300
  C     16.937930  -20.262870   -4.096180
  N     17.177330  -20.689390   -3.057810
  H     -0.494690    0.519640   -5.656990
  H      3.732400   -0.558700   -8.066700
  H      1.280610   -4.205280   -3.549480
  H      2.008040   -6.336280   -2.704540
  H      4.852420   -4.478810   -5.401220
  H      6.269830   -8.835830   -3.300360
  H      3.376810  -10.694060   -0.642230
  H      7.057030  -11.082540   -2.165940
  H      4.948480  -12.326600   -0.307370
  H      5.603290  -14.632850    0.306260
  H      5.964340  -12.915690    1.993880
  H      7.710040  -13.015650    1.826840
  H      5.854120  -15.154140    2.949120
  H      6.658500  -14.413550    4.926360
  H      8.811400  -16.368330    4.366960
  H      7.523860  -16.736980    2.559670
  H      9.365730  -16.252710    1.056490
  H      9.250590  -14.528890    1.370220
  H      7.173030  -16.271530   -0.056810
  H     10.022990  -14.367140   -3.286470
  H      8.771560  -17.764780   -0.881800
  H     12.163770  -18.710120   -4.456410
  H     13.292920  -15.364150   -6.980430
  H     14.019090  -19.217830   -6.200140
  H     14.575490  -16.903210   -8.125620
  H     15.845890  -18.513520   -9.350160
  H     16.997690  -22.647670   -4.705400
  H     17.844100  -23.393980   -9.562250

 Total Charge           Charge          ....    0
 Multiplicity           Mult            ....    1
 Number of Electrons    NEL             ....  540
 Basis Dimension        Dim             .... 1212

ORBITAL ENERGIES
----------------

  NO   OCC          E(Eh)            E(eV)
   0   2.0000     -89.028781     -2422.5963
   1   2.0000     -88.978016     -2421.2149
   2   2.0000     -24.816897      -675.3021
   3   2.0000     -24.803372      -674.9341
   4   2.0000     -24.801233      -674.8759
   5   2.0000     -24.800999      -674.8695
   6   2.0000     -24.797086      -674.7630
   7   2.0000     -24.795314      -674.7148
   8   2.0000     -24.789759      -674.5636
   9   2.0000     -24.778835      -674.2664
  10   2.0000     -19.217292      -522.9291
  11   2.0000     -19.215091      -522.8692
  12   2.0000     -14.500253      -394.5719
  13   2.0000     -14.498897      -394.5351
  14   2.0000     -14.440822      -392.9547
  15   2.0000     -14.439951      -392.9310
  16   2.0000     -14.417261      -392.3136
  17   2.0000     -14.415583      -392.2680
  18   2.0000     -14.413085      -392.2000
  19   2.0000     -14.410621      -392.1329
  20   2.0000     -10.387647      -282.6622
  21   2.0000     -10.386640      -282.6349
  22   2.0000     -10.385866      -282.6138
  23   2.0000     -10.381493      -282.4948
  24   2.0000     -10.380883      -282.4782
  25   2.0000     -10.372249      -282.2432
  26   2.0000     -10.368550      -282.1426
  27   2.0000     -10.367629      -282.1175
  28   2.0000     -10.360849      -281.9330
  29   2.0000     -10.360733      -281.9299
  30   2.0000     -10.360080      -281.9121
  31   2.0000     -10.359625      -281.8997
  32   2.0000     -10.354452      -281.7590
  33   2.0000     -10.345312      -281.5103
  34   2.0000     -10.344533      -281.4891
  35   2.0000     -10.342282      -281.4278
  36   2.0000     -10.339284      -281.3462
  37   2.0000     -10.338643      -281.3288
  38   2.0000     -10.336556      -281.2720
  39   2.0000     -10.335867      -281.2532
  40   2.0000     -10.321891      -280.8729
  41   2.0000     -10.320133      -280.8251
  42   2.0000     -10.317392      -280.7505
  43   2.0000     -10.317174      -280.7446
  44   2.0000     -10.316450      -280.7249
  45   2.0000     -10.316204      -280.7182
  46   2.0000     -10.314594      -280.6744
  47   2.0000     -10.313896      -280.6554
  48   2.0000     -10.311602      -280.5930
  49   2.0000     -10.310857      -280.5727
  50   2.0000     -10.310570      -280.5649
  51   2.0000     -10.309122      -280.5255
  52   2.0000     -10.308822      -280.5173
  53   2.0000     -10.305165      -280.4178
  54   2.0000     -10.303601      -280.3752
  55   2.0000     -10.303351      -280.3684
  56   2.0000     -10.303053      -280.3603
  57   2.0000     -10.302859      -280.3550
  58   2.0000     -10.302214      -280.3375
  59   2.0000     -10.298050      -280.2242
  60   2.0000     -10.297870      -280.2193
  61   2.0000     -10.296266      -280.1757
  62   2.0000     -10.296047      -280.1697
  63   2.0000     -10.295927      -280.1664
  64   2.0000     -10.293485      -280.1000
  65   2.0000     -10.290853      -280.0284
  66   2.0000     -10.289520      -279.9921
  67   2.0000     -10.288786      -279.9721
  68   2.0000     -10.287792      -279.9451
  69   2.0000     -10.286981      -279.9230
  70   2.0000     -10.283972      -279.8411
  71   2.0000     -10.280101      -279.7358
  72   2.0000     -10.272908      -279.5400
  73   2.0000     -10.265102      -279.3276
  74   2.0000     -10.261569      -279.2315
  75   2.0000     -10.257169      -279.1118
  76   2.0000      -8.119136      -220.9329
  77   2.0000      -8.069751      -219.5891
  78   2.0000      -6.091547      -165.7594
  79   2.0000      -6.086970      -165.6349
  80   2.0000      -6.075678      -165.3276
  81   2.0000      -6.042879      -164.4351
  82   2.0000      -6.036550      -164.2629
  83   2.0000      -6.026716      -163.9953
  84   2.0000      -1.330889       -36.2153
  85   2.0000      -1.324852       -36.0511
  86   2.0000      -1.319805       -35.9137
  87   2.0000      -1.316816       -35.8324
  88   2.0000      -1.309640       -35.6371
  89   2.0000      -1.304561       -35.4989
  90   2.0000      -1.301878       -35.4259
  91   2.0000      -1.290979       -35.1293
  92   2.0000      -1.144386       -31.1403
  93   2.0000      -1.132878       -30.8272
  94   2.0000      -1.131343       -30.7854
  95   2.0000      -1.081991       -29.4425
  96   2.0000      -1.072856       -29.1939
  97   2.0000      -1.021782       -27.8041
  98   2.0000      -1.016961       -27.6729
  99   2.0000      -1.002874       -27.2896
 100   2.0000      -1.000068       -27.2132
 101   2.0000      -0.998632       -27.1742
 102   2.0000      -0.995123       -27.0787
 103   2.0000      -0.994539       -27.0628
 104   2.0000      -0.990346       -26.9487
 105   2.0000      -0.981334       -26.7035
 106   2.0000      -0.978543       -26.6275
 107   2.0000      -0.972905       -26.4741
 108   2.0000      -0.958347       -26.0780
 109   2.0000      -0.956673       -26.0324
 110   2.0000      -0.951245       -25.8847
 111   2.0000      -0.919797       -25.0289
 112   2.0000      -0.911794       -24.8112
 113   2.0000      -0.901606       -24.5339
 114   2.0000      -0.899061       -24.4647
 115   2.0000      -0.884281       -24.0625
 116   2.0000      -0.879451       -23.9311
 117   2.0000      -0.875036       -23.8109
 118   2.0000      -0.873830       -23.7781
 119   2.0000      -0.869298       -23.6548
 120   2.0000      -0.863464       -23.4961
 121   2.0000      -0.856926       -23.3182
 122   2.0000      -0.846603       -23.0372
 123   2.0000      -0.837622       -22.7929
 124   2.0000      -0.814387       -22.1606
 125   2.0000      -0.813813       -22.1450
 126   2.0000      -0.812123       -22.0990
 127   2.0000      -0.802423       -21.8350
 128   2.0000      -0.788528       -21.4569
 129   2.0000      -0.784146       -21.3377
 130   2.0000      -0.775553       -21.1039
 131   2.0000      -0.770390       -20.9634
 132   2.0000      -0.768513       -20.9123
 133   2.0000      -0.759494       -20.6669
 134   2.0000      -0.748531       -20.3686
 135   2.0000      -0.737937       -20.0803
 136   2.0000      -0.733191       -19.9511
 137   2.0000      -0.728396       -19.8207
 138   2.0000      -0.717192       -19.5158
 139   2.0000      -0.712166       -19.3790
 140   2.0000      -0.707174       -19.2432
 141   2.0000      -0.702130       -19.1059
 142   2.0000      -0.692554       -18.8454
 143   2.0000      -0.690796       -18.7975
 144   2.0000      -0.686091       -18.6695
 145   2.0000      -0.682931       -18.5835
 146   2.0000      -0.679918       -18.5015
 147   2.0000      -0.674577       -18.3562
 148   2.0000      -0.673092       -18.3158
 149   2.0000      -0.668462       -18.1898
 150   2.0000      -0.662617       -18.0307
 151   2.0000      -0.659781       -17.9536
 152   2.0000      -0.652242       -17.7484
 153   2.0000      -0.648600       -17.6493
 154   2.0000      -0.642931       -17.4950
 155   2.0000      -0.641048       -17.4438
 156   2.0000      -0.638524       -17.3751
 157   2.0000      -0.637323       -17.3424
 158   2.0000      -0.636449       -17.3187
 159   2.0000      -0.631296       -17.1784
 160   2.0000      -0.628892       -17.1130
 161   2.0000      -0.624585       -16.9958
 162   2.0000      -0.618286       -16.8244
 163   2.0000      -0.613868       -16.7042
 164   2.0000      -0.609666       -16.5899
 165   2.0000      -0.601616       -16.3708
 166   2.0000      -0.600330       -16.3358
 167   2.0000      -0.597513       -16.2591
 168   2.0000      -0.597151       -16.2493
 169   2.0000      -0.591359       -16.0917
 170   2.0000      -0.589686       -16.0462
 171   2.0000      -0.585286       -15.9265
 172   2.0000      -0.584764       -15.9122
 173   2.0000      -0.583817       -15.8865
 174   2.0000      -0.583377       -15.8745
 175   2.0000      -0.578364       -15.7381
 176   2.0000      -0.575132       -15.6501
 177   2.0000      -0.570886       -15.5346
 178   2.0000      -0.566870       -15.4253
 179   2.0000      -0.563609       -15.3366
 180   2.0000      -0.557863       -15.1802
 181   2.0000      -0.557037       -15.1577
 182   2.0000      -0.553235       -15.0543
 183   2.0000      -0.552751       -15.0411
 184   2.0000      -0.551323       -15.0023
 185   2.0000      -0.549794       -14.9606
 186   2.0000      -0.547727       -14.9044
 187   2.0000      -0.547015       -14.8850
 188   2.0000      -0.544816       -14.8252
 189   2.0000      -0.542965       -14.7748
 190   2.0000      -0.539534       -14.6815
 191   2.0000      -0.538567       -14.6551
 192   2.0000      -0.536629       -14.6024
 193   2.0000      -0.533208       -14.5093
 194   2.0000      -0.532151       -14.4806
 195   2.0000      -0.531824       -14.4717
 196   2.0000      -0.528349       -14.3771
 197   2.0000      -0.525285       -14.2937
 198   2.0000      -0.524900       -14.2833
 199   2.0000      -0.522314       -14.2129
 200   2.0000      -0.520918       -14.1749
 201   2.0000      -0.514199       -13.9921
 202   2.0000      -0.510470       -13.8906
 203   2.0000      -0.507211       -13.8019
 204   2.0000      -0.505989       -13.7686
 205   2.0000      -0.504267       -13.7218
 206   2.0000      -0.503272       -13.6947
 207   2.0000      -0.500273       -13.6131
 208   2.0000      -0.496132       -13.5004
 209   2.0000      -0.494164       -13.4469
 210   2.0000      -0.493278       -13.4228
 211   2.0000      -0.492511       -13.4019
 212   2.0000      -0.491777       -13.3819
 213   2.0000      -0.489789       -13.3278
 214   2.0000      -0.487239       -13.2584
 215   2.0000      -0.484217       -13.1762
 216   2.0000      -0.480572       -13.0770
 217   2.0000      -0.478335       -13.0161
 218   2.0000      -0.476863       -12.9761
 219   2.0000      -0.475259       -12.9324
 220   2.0000      -0.472402       -12.8547
 221   2.0000      -0.467246       -12.7144
 222   2.0000      -0.462192       -12.5769
 223   2.0000      -0.459499       -12.5036
 224   2.0000      -0.459026       -12.4907
 225   2.0000      -0.457854       -12.4588
 226   2.0000      -0.454015       -12.3544
 227   2.0000      -0.453541       -12.3415
 228   2.0000      -0.452291       -12.3075
 229   2.0000      -0.450562       -12.2604
 230   2.0000      -0.450172       -12.2498
 231   2.0000      -0.448859       -12.2141
 232   2.0000      -0.446817       -12.1585
 233   2.0000      -0.445854       -12.1323
 234   2.0000      -0.444021       -12.0824
 235   2.0000      -0.442628       -12.0445
 236   2.0000      -0.439332       -11.9548
 237   2.0000      -0.438200       -11.9240
 238   2.0000      -0.434511       -11.8236
 239   2.0000      -0.428647       -11.6641
 240   2.0000      -0.426873       -11.6158
 241   2.0000      -0.425833       -11.5875
 242   2.0000      -0.423442       -11.5224
 243   2.0000      -0.422357       -11.4929
 244   2.0000      -0.420182       -11.4337
 245   2.0000      -0.417884       -11.3712
 246   2.0000      -0.414905       -11.2901
 247   2.0000      -0.408989       -11.1292
 248   2.0000      -0.406643       -11.0653
 249   2.0000      -0.402016       -10.9394
 250   2.0000      -0.389588       -10.6012
 251   2.0000      -0.382366       -10.4047
 252   2.0000      -0.372739       -10.1428
 253   2.0000      -0.356953        -9.7132
 254   2.0000      -0.350704        -9.5431
 255   2.0000      -0.347193        -9.4476
 256   2.0000      -0.343837        -9.3563
 257   2.0000      -0.341015        -9.2795
 258   2.0000      -0.336757        -9.1636
 259   2.0000      -0.335833        -9.1385
 260   2.0000      -0.323115        -8.7924
 261   2.0000      -0.319072        -8.6824
 262   2.0000      -0.315098        -8.5743
 263   2.0000      -0.310940        -8.4611
 264   2.0000      -0.310065        -8.4373
 265   2.0000      -0.307749        -8.3743
 266   2.0000      -0.284725        -7.7478
 267   2.0000      -0.276573        -7.5259
 268   2.0000      -0.256361        -6.9759
 269   2.0000      -0.252732        -6.8772
 270   0.0000      -0.114276        -3.1096
 271   0.0000      -0.112865        -3.0712
 272   0.0000      -0.077741        -2.1154
 273   0.0000      -0.068496        -1.8639
 274   0.0000      -0.055536        -1.5112

MULLIKEN ATOMIC CHARGES
-----------------------
   0 C :   -0.087743
   1 C :    0.233618
   2 F :   -0.166277
   3 C :    0.234352
   4 F :   -0.170085
   5 C :   -0.104099
   6 C :   -0.010174
   7 C :    0.045557
   8 C :    0.310200
   9 C :   -0.359144
  10 C :   -0.194474
  11 N :    0.156934
  12 C :   -0.190068
  13 N :    0.152333
  14 C :   -0.073326
  15 C :    0.149683
  16 O :   -0.142104
  17 C :   -0.024861
  18 C :    0.065552
  19 C :   -0.063722
  20 C :    0.007151
  21 C :    0.249986
  22 C :   -0.078120
  23 F :   -0.181744
  24 C :    0.031014
  25 C :   -0.112785
  26 C :    0.132621
  27 C :   -0.089972
  28 C :    0.264699
  29 F :   -0.163583
  30 C :   -0.064492
  31 C :    0.157529
  32 N :   -0.359624
  33 C :    0.055029
  34 C :    0.245121
  35 C :   -0.040342
  36 N :   -0.304407
  37 S :    0.229331
  38 N :   -0.305467
  39 C :   -0.030934
  40 C :    0.254375
  41 C :    0.020096
  42 N :   -0.338437
  43 S :    0.406614
  44 C :    0.220915
  45 C :   -0.150054
  46 C :    0.027795
  47 C :    0.274140
  48 C :   -0.113201
  49 F :   -0.158973
  50 C :   -0.012497
  51 C :   -0.063200
  52 C :    0.083259
  53 C :   -0.065095
  54 C :    0.252307
  55 F :   -0.179785
  56 C :    0.038407
  57 C :    0.003416
  58 C :    0.052586
  59 C :   -0.131725
  60 C :    0.132488
  61 O :   -0.140094
  62 C :    0.014699
  63 C :    0.021964
  64 C :   -0.093978
  65 C :    0.235871
  66 C :    0.234325
  67 C :   -0.105905
  68 F :   -0.169816
  69 F :   -0.166226
  70 C :    0.265215
  71 C :   -0.340222
  72 C :   -0.202143
  73 N :    0.178299
  74 C :   -0.182510
  75 N :    0.156949
  76 H :    0.013705
  77 H :    0.010394
  78 H :    0.000228
  79 H :    0.008946
  80 H :    0.001911
  81 H :   -0.014630
  82 H :   -0.023109
  83 H :   -0.004203
  84 H :    0.023591
  85 H :    0.020070
  86 H :    0.013883
  87 H :   -0.010221
  88 H :    0.003424
  89 H :    0.130109
  90 H :    0.130824
  91 H :    0.002454
  92 H :    0.019541
  93 H :   -0.011172
  94 H :    0.024615
  95 H :   -0.015768
  96 H :   -0.018762
  97 H :   -0.014367
  98 H :   -0.015625
  99 H :    0.001700
 100 H :    0.001549
 101 H :    0.028534
 102 H :    0.016704
 103 H :    0.012651
Sum of atomic charges:   -0.0000000

LOEWDIN ATOMIC CHARGES
----------------------
   0 C :   -0.018986
   1 C :    0.072373
   2 F :   -0.045168
   3 C :    0.069887
   4 F :   -0.046709
   5 C :   -0.006560
   6 C :   -0.043786
   7 C :   -0.015616
   8 C :    0.077068
   9 C :   -0.141720
  10 C :   -0.019198
  11 N :   -0.053391
  12 C :   -0.023853
  13 N :   -0.051810
  14 C :   -0.106602
  15 C :    0.086599
  16 O :   -0.134270
  17 C :    0.076756
  18 C :   -0.035831
  19 C :    0.014370
  20 C :   -0.037895
  21 C :    0.065352
  22 C :   -0.052653
  23 F :   -0.058291
  24 C :    0.032208
  25 C :   -0.093982
  26 C :    0.038137
  27 C :   -0.068170
  28 C :    0.096222
  29 F :   -0.041023
  30 C :   -0.103884
  31 C :    0.051119
  32 N :   -0.142529
  33 C :    0.021786
  34 C :   -0.035717
  35 C :   -0.011704
  36 N :   -0.223921
  37 S :    0.368495
  38 N :   -0.224147
  39 C :   -0.010602
  40 C :   -0.035308
  41 C :    0.019349
  42 N :   -0.133864
  43 S :    0.484501
  44 C :    0.048129
  45 C :   -0.152837
  46 C :    0.021462
  47 C :    0.111266
  48 C :   -0.087487
  49 F :   -0.034845
  50 C :   -0.030964
  51 C :   -0.019603
  52 C :   -0.022821
  53 C :   -0.053449
  54 C :    0.078557
  55 F :   -0.055206
  56 C :    0.048606
  57 C :   -0.045845
  58 C :    0.070897
  59 C :   -0.102329
  60 C :    0.082368
  61 O :   -0.139995
  62 C :   -0.046759
  63 C :   -0.012625
  64 C :   -0.022176
  65 C :    0.073320
  66 C :    0.068593
  67 C :   -0.005405
  68 F :   -0.046439
  69 F :   -0.044432
  70 C :    0.063498
  71 C :   -0.141032
  72 C :   -0.017768
  73 N :   -0.037430
  74 C :   -0.022049
  75 N :   -0.052546
  76 H :    0.050741
  77 H :    0.051323
  78 H :    0.047775
  79 H :    0.030228
  80 H :    0.030587
  81 H :    0.024686
  82 H :    0.025977
  83 H :    0.026934
  84 H :    0.035043
  85 H :    0.030983
  86 H :    0.030281
  87 H :    0.028396
  88 H :    0.021055
  89 H :    0.049206
  90 H :    0.049231
  91 H :    0.020656
  92 H :    0.032394
  93 H :    0.028780
  94 H :    0.031569
  95 H :    0.018449
  96 H :    0.029836
  97 H :    0.023698
  98 H :    0.030871
  99 H :    0.035720
 100 H :    0.035006
 101 H :    0.047953
 102 H :    0.050671
 103 H :    0.052266

  Mayer bond orders larger than 0.100000
B(  0-C ,  1-C ) :   1.3391 B(  0-C ,  5-C ) :   0.1060 B(  0-C ,  7-C ) :   1.3092
B(  0-C , 76-H ) :   0.9913 B(  1-C ,  2-F ) :   1.1455 B(  1-C ,  3-C ) :   1.2897
B(  3-C ,  4-F ) :   1.1303 B(  3-C ,  5-C ) :   1.3153 B(  5-C ,  6-C ) :   1.3206
B(  5-C , 77-H ) :   1.0202 B(  6-C ,  7-C ) :   1.3437 B(  6-C , 15-C ) :   0.9582
B(  7-C ,  8-C ) :   0.9977 B(  8-C ,  9-C ) :   1.6187 B(  8-C , 14-C ) :   1.0939
B(  9-C , 10-C ) :   1.1451 B(  9-C , 12-C ) :   1.1408 B( 10-C , 11-N ) :   2.9768
B( 12-C , 13-N ) :   2.9723 B( 14-C , 15-C ) :   0.9356 B( 14-C , 17-C ) :   1.4977
B( 15-C , 16-O ) :   2.2012 B( 17-C , 18-C ) :   1.2082 B( 17-C , 78-H ) :   0.9348
B( 18-C , 19-C ) :   1.4280 B( 18-C , 22-C ) :   1.0532 B( 19-C , 20-C ) :   1.1202
B( 19-C , 79-H ) :   1.0186 B( 20-C , 21-C ) :   1.0495 B( 20-C , 24-C ) :   1.4050
B( 21-C , 22-C ) :   1.6077 B( 21-C , 23-F ) :   1.1209 B( 22-C , 80-H ) :   1.0119
B( 24-C , 25-C ) :   1.1922 B( 24-C , 28-C ) :   0.9920 B( 25-C , 26-C ) :   1.4506
B( 25-C , 81-H ) :   1.0251 B( 26-C , 27-C ) :   0.9975 B( 26-C , 30-C ) :   1.2303
B( 27-C , 28-C ) :   1.6963 B( 27-C , 82-H ) :   1.0080 B( 28-C , 29-F ) :   1.1392
B( 30-C , 31-C ) :   1.5401 B( 30-C , 83-H ) :   0.9551 B( 31-C , 32-N ) :   1.1616
B( 31-C , 84-H ) :   0.9655 B( 32-N , 33-C ) :   0.9190 B( 32-N , 43-S ) :   0.9260
B( 33-C , 34-C ) :   1.1024 B( 33-C , 41-C ) :   0.9737 B( 33-C , 85-H ) :   0.9042
B( 34-C , 35-C ) :   1.0834 B( 34-C , 40-C ) :   0.1301 B( 34-C , 86-H ) :   0.9300
B( 34-C , 87-H ) :   0.8427 B( 35-C , 36-N ) :   1.0637 B( 35-C , 39-C ) :   0.9584
B( 35-C , 88-H ) :   0.9162 B( 36-N , 37-S ) :   0.9757 B( 36-N , 89-H ) :   0.9439
B( 37-S , 38-N ) :   0.9770 B( 38-N , 39-C ) :   1.0597 B( 38-N , 90-H ) :   0.9426
B( 39-C , 40-C ) :   1.0825 B( 39-C , 91-H ) :   0.9182 B( 40-C , 41-C ) :   1.0999
B( 40-C , 92-H ) :   0.9290 B( 40-C , 93-H ) :   0.8413 B( 41-C , 42-N ) :   0.9308
B( 41-C , 94-H ) :   0.9009 B( 42-N , 43-S ) :   0.9340 B( 42-N , 44-C ) :   1.1288
B( 44-C , 45-C ) :   1.4570 B( 44-C , 48-C ) :   1.0368 B( 45-C , 46-C ) :   1.1947
B( 45-C , 95-H ) :   1.0123 B( 46-C , 47-C ) :   1.0091 B( 46-C , 50-C ) :   1.4283
B( 47-C , 48-C ) :   1.6461 B( 47-C , 49-F ) :   1.1451 B( 48-C , 96-H ) :   1.0164
B( 50-C , 51-C ) :   1.1297 B( 50-C , 54-C ) :   1.0476 B( 51-C , 52-C ) :   1.4772
B( 51-C , 97-H ) :   1.0187 B( 52-C , 53-C ) :   1.0439 B( 52-C , 56-C ) :   1.1885
B( 53-C , 54-C ) :   1.6468 B( 53-C , 98-H ) :   1.0125 B( 54-C , 55-F ) :   1.1213
B( 56-C , 57-C ) :   1.5634 B( 56-C , 99-H ) :   0.9662 B( 57-C , 58-C ) :   1.1915
B( 57-C ,100-H ) :   0.9603 B( 58-C , 59-C ) :   1.6130 B( 58-C ,101-H ) :   0.9297
B( 59-C , 60-C ) :   0.9561 B( 59-C , 70-C ) :   1.0576 B( 60-C , 61-O ) :   2.2661
B( 60-C , 62-C ) :   0.9260 B( 62-C , 63-C ) :   1.3456 B( 62-C , 67-C ) :   1.3209
B( 63-C , 64-C ) :   1.3198 B( 63-C , 70-C ) :   1.0098 B( 64-C , 65-C ) :   1.3349
B( 64-C , 67-C ) :   0.1051 B( 64-C ,102-H ) :   0.9945 B( 65-C , 66-C ) :   1.2924
B( 65-C , 69-F ) :   1.1412 B( 66-C , 67-C ) :   1.3185 B( 66-C , 68-F ) :   1.1293
B( 67-C ,103-H ) :   1.0208 B( 70-C , 71-C ) :   1.6396 B( 71-C , 72-C ) :   1.1713
B( 71-C , 74-C ) :   1.1276 B( 72-C , 73-N ) :   2.9968 B( 74-C , 75-N ) :   2.9925

-----------------------------------------------------------------------------
         ABSORPTION SPECTRUM VIA TRANSITION ELECTRIC DIPOLE MOMENTS
-----------------------------------------------------------------------------
State   Energy  Wavelength   fosc         T2         TX        TY        TZ
        (cm-1)    (nm)                  (au**2)     (au)      (au)      (au)
-----------------------------------------------------------------------------
   0   13528.8    739.2   1.177535015  28.65432   3.14871  -4.32227   0.24059
   1   14875.1    672.3   0.405294370   8.96985  -1.81010  -0.31436   2.36529
   2   16947.9    590.0   0.000651514   0.01266   0.05680  -0.00797  -0.09678
   3   18391.6    543.7   0.014946948   0.26755  -0.13972   0.14671   0.47593
   4   19260.3    519.2   0.001638745   0.02801   0.00758   0.16622  -0.01802
   5   20569.9    486.1   0.001717686   0.02749  -0.13926   0.08639  -0.02521
   6   21302.4    469.4   0.131884618   2.03817   0.94728  -0.89546   0.58222
   7   23712.6    421.7   0.939453508  13.04282  -1.85826   3.01257  -0.71703
   8   25312.6    395.1   0.168705957   2.19416  -1.11429   0.79890   0.56060
   9   25496.8    392.2   0.147387593   1.90305  -0.88695  -0.28628   1.01706
  10   27361.1    365.5   0.019077445   0.22954  -0.21817  -0.22290   0.36367
  11   27443.5    364.4   0.078067672   0.93650  -0.38868   0.88316  -0.07383
  12   27713.9    360.8   0.034480472   0.40959  -0.21613   0.27757   0.53463
  13   27983.0    357.4   0.125002523   1.47062   0.14083  -1.11896   0.44577
  14   28117.5    355.7   0.188304942   2.20476   0.56305  -0.54935  -1.25935
  15   28481.8    351.1   0.006806382   0.07867   0.17316   0.08308  -0.20442
  16   28745.0    347.9   0.178952155   2.04951  -0.93278   0.61048   0.89819
  17   29078.9    343.9   0.039805872   0.45066  -0.11097  -0.32084   0.57914
  18   29565.1    338.2   0.078690058   0.87622   0.52912  -0.75641   0.15524
  19   30072.0    332.5   0.010444992   0.11435   0.10140  -0.22405   0.23209
  20   30450.4    328.4   0.045336202   0.49015  -0.19958   0.60666   0.28684
  21   30651.9    326.2   0.029066642   0.31219  -0.11799  -0.26273   0.47879
  22   30807.3    324.6   0.007254473   0.07752   0.13848  -0.02377   0.24037
  23   31223.0    320.3   0.137750336   1.45243  -0.01816  -1.00554   0.66406
  24   31688.0    315.6   0.025797874   0.26802   0.11959  -0.17267  -0.47318
  25   32222.3    310.3   0.001928508   0.01970   0.01296   0.09882  -0.09884
  26   32466.3    308.0   0.023640530   0.23972  -0.08575   0.44652  -0.18162
  27   32632.1    306.4   0.077645255   0.78333   0.22197  -0.40848  -0.75313
  28   33023.0    302.8   0.062930002   0.62736   0.00335  -0.65286   0.44847
  29   33224.5    301.0   0.004032246   0.03995   0.11706   0.12675  -0.10093
  30   34234.6    292.1   0.034389482   0.33070  -0.11417  -0.43910   0.35335
  31   34364.1    291.0   0.007916932   0.07584  -0.04975  -0.27066   0.01062
  32   34415.0    290.6   0.252386806   2.41432  -0.48338   0.78961   1.24787
  33   34738.0    287.9   0.000228255   0.00216   0.03366   0.02556  -0.01940
  34   35337.9    283.0   0.027328848   0.25460  -0.19184  -0.15187   0.44128
  35   35360.0    282.8   0.040639437   0.37837  -0.06465  -0.43206   0.43303
  36   35615.9    280.8   0.075935761   0.70190  -0.16475   0.55949   0.60144
  37   36040.5    277.5   0.018818760   0.17190   0.13005  -0.13045  -0.37144
  38   36112.4    276.9   0.811446820   7.39741  -1.37693  -1.08256   2.08075
  39   36295.1    275.5   0.279995559   2.53968  -0.33200   1.19898   0.99594
  40   36533.2    273.7   0.047006612   0.42359   0.20236  -0.51332  -0.34517
  41   36841.0    271.4   0.017815768   0.15920   0.32789  -0.21132  -0.08386
  42   37057.6    269.9   0.000199779   0.00177   0.01501  -0.03934  -0.00115
  43   37901.8    263.8   0.077643323   0.67440   0.09593  -0.04279  -0.81448
  44   37937.5    263.6   0.065400778   0.56753   0.58151  -0.37563  -0.29712
  45   37958.7    263.4   0.008718089   0.07561  -0.00018  -0.13557  -0.23923
  46   38203.1    261.8   0.080682131   0.69527  -0.07055   0.75650   0.34352
  47   38241.7    261.5   0.023342123   0.20095  -0.42049   0.06148   0.14266
  48   38524.6    259.6   0.014358459   0.12270  -0.29410   0.15231   0.11404
  49   38948.7    256.7   0.000351729   0.00297  -0.02183  -0.01345   0.04812
  50   39148.9    255.4   0.001146385   0.00964  -0.08087  -0.04543  -0.03221
  51   39474.9    253.3   0.063570571   0.53016   0.68324   0.08282  -0.23769
  52   40171.6    248.9   0.002735222   0.02242  -0.06110   0.13114  -0.03854

FINAL SINGLE POINT ENERGY     -4329.533119151325

DIPOLE MOMENT
-------------
                                X             Y             Z
Electronic contribution:      6.53691      27.68277     -48.88017
Nuclear contribution   :     -7.30671     -32.28268      51.69654
                        -----------------------------------------
Total Dipole Moment    :     -0.76980      -4.59991       2.81637
                        -----------------------------------------
Magnitude (a.u.)       :      5.44827
Magnitude (Debye)      :     13.84841

Rotational constants in cm-1:     0.001096     0.000171     0.000151
Rotational constants in MHz :    32.856562     5.137294     4.526042

                             ****ORCA TERMINATED NORMALLY****
TOTAL RUN TIME: 0 days 0 hours 11 minutes 14 seconds 663 msec
