                         Program Version 4.2.0 -  RELEASE  -
|  1> # ORCA input file
|  2> # SCF done       -157.844268787841          0.000586478671
|  3> ! CAM-B3LYP def2-SVP def2/J RIJCOSX Grid4 TightSCF
|  4> %maxcore 5000
|  5> %tddft
|  6>     Mode sTDDFT
|  7>     Ethresh 5.0
|  8>     maxcore 5000
|  9> end
| 10>
| 11> %pal
| 12>   nprocs 6
| 13>   end
| 14> * xyz 0 1
| 15>    C       -3.90318        -4.21345        -0.69842
| 16>    C       -4.97103        -5.00313        -1.10142
| 17>    F       -6.21057        -4.50635        -1.01520
| 18>    C       -4.78539        -6.29540        -1.59084
| 19>    F       -5.84498        -7.02193        -1.96917
| 20>    C       -3.51333        -6.83555        -1.68771
| 21>    C       -2.45296        -6.04879        -1.28435
| 22>    C       -2.62757        -4.74590        -0.79308
| 23>    C       -1.31115        -4.19563        -0.46163
| 24>    C       -1.10280        -2.92811         0.02024
| 25>    C       -2.13558        -1.99755         0.26410
| 26>    N       -2.92175        -1.19126         0.48672
| 27>    C        0.14011        -2.34267         0.34053
| 28>    N        1.09940        -1.77896         0.62732
| 29>    C       -0.32097        -5.21644        -0.74752
| 30>    C       -1.01756        -6.39011        -1.28014
| 31>    O       -0.56243        -7.46220        -1.65968
| 32>    C        1.03442        -5.05762        -0.52186
| 33>    C        2.10345        -5.93005        -0.73288
| 34>    N        2.03701        -7.19555        -1.24592
| 35>    C        3.27004        -7.73801        -1.29439
| 36>    C        4.18817        -6.79070        -0.79466
| 37>    C        3.46599        -5.67247        -0.44911
| 38>    C        3.48860        -9.02283        -1.76744
| 39>    C        3.63522       -10.15594        -2.18157
| 40>    C        3.70343       -11.45399        -2.65976
| 41>    N        4.86587       -12.19755        -2.68986
| 42>    C        4.56670       -13.42359        -3.19618
| 43>    C        5.09706       -14.66759        -3.52647
| 44>    C        4.02988       -15.42705        -4.02244
| 45>    N        2.87883       -14.66644        -3.99860
| 46>    C        3.18007       -13.44290        -3.49535
| 47>    C        2.63672       -12.20719        -3.15900
| 48>    C        4.07322       -16.76878        -4.48057
| 49>    C        3.01539       -17.46425        -4.96620
| 50>    C        3.05484       -18.80967        -5.41736
| 51>    N        1.94989       -19.41384        -5.90966
| 52>    C        2.23571       -20.70139        -6.26988
| 53>    C        3.59646       -20.92268        -5.98899
| 54>    C        4.10230       -19.75099        -5.46536
| 55>    C        1.28318       -21.52893        -6.81079
| 56>    C        0.31608       -22.11306        -7.28482
| 57>    C       -0.60391       -22.95895        -7.83139
| 58>    C       -1.90855       -22.77454        -8.22751
| 59>    C       -2.57752       -23.94597        -8.83926
| 60>    O       -2.10905       -25.05439        -8.98105
| 61>    C       -3.91955       -23.47714        -9.24350
| 62>    C       -4.05806       -22.12593        -8.88594
| 63>    C       -5.23853       -21.46046        -9.17725
| 64>    C       -6.24697       -22.16559        -9.81849
| 65>    C       -6.09783       -23.50670       -10.16736
| 66>    C       -4.92145       -24.18079        -9.87976
| 67>    F       -7.09716       -24.14770       -10.78660
| 68>    F       -7.39102       -21.53396       -10.10866
| 69>    C       -2.82458       -21.66720        -8.23031
| 70>    C       -2.66372       -20.39794        -7.72441
| 71>    C       -1.55307       -19.86464        -7.05875
| 72>    N       -0.74266       -19.27396        -6.49498
| 73>    C       -3.64424       -19.38312        -7.78732
| 74>    N       -4.37594       -18.49806        -7.79647
| 75>    H       -4.10487        -3.22217        -0.32814
| 76>    H       -3.36280        -7.83464        -2.06428
| 77>    H        1.34246        -4.10809        -0.10624
| 78>    H        1.15197        -7.62361        -1.52980
| 79>    H        5.24657        -6.93904        -0.71117
| 80>    H        3.84547        -4.75868        -0.03587
| 81>    H        5.76376       -11.86920        -2.37915
| 82>    H        6.10903       -15.00666        -3.43235
| 83>    H        1.97213       -14.98037        -4.29513
| 84>    H        1.62529       -11.86607        -3.24643
| 85>    H        5.04026       -17.24615        -4.42428
| 86>    H        2.04235       -16.99474        -5.03645
| 87>    H        1.01491       -19.02510        -6.00601
| 88>    H        4.12441       -21.83951        -6.16274
| 89>    H        5.11091       -19.58028        -5.14582
| 90>    H       -0.24408       -23.97238        -8.00801
| 91>    H       -5.41212       -20.42562        -8.93421
| 92>    H       -4.79782       -25.21797       -10.14746
| 93> *
| 94>
| 95>                          ****END OF INPUT****

CARTESIAN COORDINATES (ANGSTROEM)
---------------------------------
  C     -3.903180   -4.213450   -0.698420
  C     -4.971030   -5.003130   -1.101420
  F     -6.210570   -4.506350   -1.015200
  C     -4.785390   -6.295400   -1.590840
  F     -5.844980   -7.021930   -1.969170
  C     -3.513330   -6.835550   -1.687710
  C     -2.452960   -6.048790   -1.284350
  C     -2.627570   -4.745900   -0.793080
  C     -1.311150   -4.195630   -0.461630
  C     -1.102800   -2.928110    0.020240
  C     -2.135580   -1.997550    0.264100
  N     -2.921750   -1.191260    0.486720
  C      0.140110   -2.342670    0.340530
  N      1.099400   -1.778960    0.627320
  C     -0.320970   -5.216440   -0.747520
  C     -1.017560   -6.390110   -1.280140
  O     -0.562430   -7.462200   -1.659680
  C      1.034420   -5.057620   -0.521860
  C      2.103450   -5.930050   -0.732880
  N      2.037010   -7.195550   -1.245920
  C      3.270040   -7.738010   -1.294390
  C      4.188170   -6.790700   -0.794660
  C      3.465990   -5.672470   -0.449110
  C      3.488600   -9.022830   -1.767440
  C      3.635220  -10.155940   -2.181570
  C      3.703430  -11.453990   -2.659760
  N      4.865870  -12.197550   -2.689860
  C      4.566700  -13.423590   -3.196180
  C      5.097060  -14.667590   -3.526470
  C      4.029880  -15.427050   -4.022440
  N      2.878830  -14.666440   -3.998600
  C      3.180070  -13.442900   -3.495350
  C      2.636720  -12.207190   -3.159000
  C      4.073220  -16.768780   -4.480570
  C      3.015390  -17.464250   -4.966200
  C      3.054840  -18.809670   -5.417360
  N      1.949890  -19.413840   -5.909660
  C      2.235710  -20.701390   -6.269880
  C      3.596460  -20.922680   -5.988990
  C      4.102300  -19.750990   -5.465360
  C      1.283180  -21.528930   -6.810790
  C      0.316080  -22.113060   -7.284820
  C     -0.603910  -22.958950   -7.831390
  C     -1.908550  -22.774540   -8.227510
  C     -2.577520  -23.945970   -8.839260
  O     -2.109050  -25.054390   -8.981050
  C     -3.919550  -23.477140   -9.243500
  C     -4.058060  -22.125930   -8.885940
  C     -5.238530  -21.460460   -9.177250
  C     -6.246970  -22.165590   -9.818490
  C     -6.097830  -23.506700  -10.167360
  C     -4.921450  -24.180790   -9.879760
  F     -7.097160  -24.147700  -10.786600
  F     -7.391020  -21.533960  -10.108660
  C     -2.824580  -21.667200   -8.230310
  C     -2.663720  -20.397940   -7.724410
  C     -1.553070  -19.864640   -7.058750
  N     -0.742660  -19.273960   -6.494980
  C     -3.644240  -19.383120   -7.787320
  N     -4.375940  -18.498060   -7.796470
  H     -4.104870   -3.222170   -0.328140
  H     -3.362800   -7.834640   -2.064280
  H      1.342460   -4.108090   -0.106240
  H      1.151970   -7.623610   -1.529800
  H      5.246570   -6.939040   -0.711170
  H      3.845470   -4.758680   -0.035870
  H      5.763760  -11.869200   -2.379150
  H      6.109030  -15.006660   -3.432350
  H      1.972130  -14.980370   -4.295130
  H      1.625290  -11.866070   -3.246430
  H      5.040260  -17.246150   -4.424280
  H      2.042350  -16.994740   -5.036450
  H      1.014910  -19.025100   -6.006010
  H      4.124410  -21.839510   -6.162740
  H      5.110910  -19.580280   -5.145820
  H     -0.244080  -23.972380   -8.008010
  H     -5.412120  -20.425620   -8.934210
  H     -4.797820  -25.217970  -10.147460

 Total Charge           Charge          ....    0
 Multiplicity           Mult            ....    1
 Number of Electrons    NEL             ....  402
 Basis Dimension        Dim             ....  930

ORBITAL ENERGIES
----------------

  NO   OCC          E(Eh)            E(eV)
   0   2.0000     -24.801918      -674.8945
   1   2.0000     -24.801022      -674.8701
   2   2.0000     -24.800336      -674.8514
   3   2.0000     -24.799498      -674.8287
   4   2.0000     -19.230753      -523.2954
   5   2.0000     -19.218290      -522.9563
   6   2.0000     -14.472484      -393.8163
   7   2.0000     -14.467478      -393.6801
   8   2.0000     -14.465962      -393.6388
   9   2.0000     -14.463164      -393.5627
  10   2.0000     -14.431092      -392.6900
  11   2.0000     -14.419075      -392.3630
  12   2.0000     -14.417142      -392.3104
  13   2.0000     -14.413334      -392.2068
  14   2.0000     -10.386830      -282.6400
  15   2.0000     -10.386221      -282.6234
  16   2.0000     -10.385868      -282.6138
  17   2.0000     -10.385471      -282.6030
  18   2.0000     -10.379873      -282.4507
  19   2.0000     -10.368006      -282.1278
  20   2.0000     -10.350576      -281.6535
  21   2.0000     -10.346686      -281.5476
  22   2.0000     -10.343529      -281.4617
  23   2.0000     -10.343415      -281.4586
  24   2.0000     -10.341677      -281.4113
  25   2.0000     -10.341094      -281.3955
  26   2.0000     -10.330030      -281.0944
  27   2.0000     -10.329622      -281.0833
  28   2.0000     -10.325044      -280.9587
  29   2.0000     -10.322992      -280.9029
  30   2.0000     -10.322240      -280.8824
  31   2.0000     -10.322072      -280.8779
  32   2.0000     -10.320159      -280.8258
  33   2.0000     -10.318800      -280.7888
  34   2.0000     -10.318149      -280.7711
  35   2.0000     -10.318003      -280.7671
  36   2.0000     -10.316710      -280.7319
  37   2.0000     -10.315914      -280.7103
  38   2.0000     -10.309461      -280.5347
  39   2.0000     -10.309400      -280.5330
  40   2.0000     -10.308743      -280.5152
  41   2.0000     -10.307528      -280.4821
  42   2.0000     -10.306074      -280.4425
  43   2.0000     -10.305332      -280.4223
  44   2.0000     -10.305127      -280.4168
  45   2.0000     -10.302623      -280.3486
  46   2.0000     -10.302505      -280.3454
  47   2.0000     -10.298926      -280.2480
  48   2.0000     -10.297838      -280.2184
  49   2.0000     -10.297558      -280.2108
  50   2.0000     -10.297383      -280.2060
  51   2.0000     -10.293190      -280.0919
  52   2.0000     -10.291291      -280.0403
  53   2.0000     -10.290259      -280.0122
  54   2.0000     -10.288418      -279.9621
  55   2.0000     -10.284164      -279.8463
  56   2.0000     -10.281250      -279.7670
  57   2.0000     -10.280537      -279.7476
  58   2.0000     -10.278331      -279.6876
  59   2.0000     -10.274313      -279.5783
  60   2.0000      -1.324535       -36.0424
  61   2.0000      -1.323729       -36.0205
  62   2.0000      -1.309362       -35.6295
  63   2.0000      -1.308536       -35.6071
  64   2.0000      -1.143681       -31.1211
  65   2.0000      -1.133049       -30.8318
  66   2.0000      -1.102369       -29.9970
  67   2.0000      -1.096123       -29.8270
  68   2.0000      -1.092196       -29.7202
  69   2.0000      -1.065871       -29.0038
  70   2.0000      -1.029104       -28.0033
  71   2.0000      -1.021455       -27.7952
  72   2.0000      -1.010170       -27.4881
  73   2.0000      -1.003686       -27.3117
  74   2.0000      -1.000840       -27.2342
  75   2.0000      -0.993665       -27.0390
  76   2.0000      -0.959817       -26.1179
  77   2.0000      -0.958058       -26.0701
  78   2.0000      -0.921993       -25.0887
  79   2.0000      -0.913866       -24.8675
  80   2.0000      -0.913594       -24.8601
  81   2.0000      -0.902496       -24.5582
  82   2.0000      -0.901282       -24.5251
  83   2.0000      -0.893859       -24.3231
  84   2.0000      -0.888563       -24.1790
  85   2.0000      -0.883861       -24.0511
  86   2.0000      -0.878898       -23.9160
  87   2.0000      -0.875867       -23.8336
  88   2.0000      -0.874738       -23.8028
  89   2.0000      -0.873207       -23.7612
  90   2.0000      -0.863887       -23.5076
  91   2.0000      -0.841812       -22.9069
  92   2.0000      -0.827189       -22.5089
  93   2.0000      -0.808210       -21.9925
  94   2.0000      -0.793873       -21.6024
  95   2.0000      -0.779730       -21.2175
  96   2.0000      -0.775927       -21.1141
  97   2.0000      -0.773097       -21.0370
  98   2.0000      -0.751272       -20.4431
  99   2.0000      -0.734463       -19.9857
 100   2.0000      -0.728314       -19.8184
 101   2.0000      -0.711960       -19.3734
 102   2.0000      -0.710855       -19.3433
 103   2.0000      -0.704508       -19.1706
 104   2.0000      -0.704135       -19.1605
 105   2.0000      -0.701499       -19.0888
 106   2.0000      -0.695159       -18.9162
 107   2.0000      -0.690307       -18.7842
 108   2.0000      -0.687973       -18.7207
 109   2.0000      -0.686002       -18.6671
 110   2.0000      -0.685613       -18.6565
 111   2.0000      -0.677453       -18.4344
 112   2.0000      -0.662668       -18.0321
 113   2.0000      -0.661363       -17.9966
 114   2.0000      -0.656201       -17.8561
 115   2.0000      -0.650940       -17.7130
 116   2.0000      -0.644094       -17.5267
 117   2.0000      -0.642508       -17.4835
 118   2.0000      -0.632983       -17.2243
 119   2.0000      -0.626502       -17.0480
 120   2.0000      -0.617778       -16.8106
 121   2.0000      -0.606985       -16.5169
 122   2.0000      -0.605860       -16.4863
 123   2.0000      -0.602100       -16.3840
 124   2.0000      -0.594587       -16.1795
 125   2.0000      -0.589741       -16.0477
 126   2.0000      -0.589130       -16.0310
 127   2.0000      -0.589064       -16.0292
 128   2.0000      -0.572107       -15.5678
 129   2.0000      -0.568290       -15.4639
 130   2.0000      -0.565203       -15.3800
 131   2.0000      -0.553436       -15.0598
 132   2.0000      -0.553091       -15.0504
 133   2.0000      -0.551612       -15.0101
 134   2.0000      -0.549574       -14.9547
 135   2.0000      -0.548886       -14.9360
 136   2.0000      -0.547975       -14.9112
 137   2.0000      -0.547043       -14.8858
 138   2.0000      -0.546807       -14.8794
 139   2.0000      -0.544596       -14.8192
 140   2.0000      -0.540094       -14.6967
 141   2.0000      -0.535553       -14.5731
 142   2.0000      -0.533608       -14.5202
 143   2.0000      -0.532776       -14.4976
 144   2.0000      -0.530231       -14.4283
 145   2.0000      -0.529380       -14.4052
 146   2.0000      -0.528204       -14.3732
 147   2.0000      -0.527950       -14.3663
 148   2.0000      -0.527729       -14.3602
 149   2.0000      -0.512730       -13.9521
 150   2.0000      -0.510279       -13.8854
 151   2.0000      -0.503225       -13.6935
 152   2.0000      -0.503034       -13.6883
 153   2.0000      -0.499693       -13.5973
 154   2.0000      -0.498488       -13.5646
 155   2.0000      -0.497760       -13.5447
 156   2.0000      -0.497297       -13.5321
 157   2.0000      -0.494766       -13.4633
 158   2.0000      -0.489391       -13.3170
 159   2.0000      -0.487978       -13.2785
 160   2.0000      -0.486074       -13.2268
 161   2.0000      -0.485842       -13.2204
 162   2.0000      -0.477598       -12.9961
 163   2.0000      -0.471630       -12.8337
 164   2.0000      -0.462530       -12.5861
 165   2.0000      -0.459799       -12.5118
 166   2.0000      -0.458146       -12.4668
 167   2.0000      -0.457518       -12.4497
 168   2.0000      -0.457313       -12.4441
 169   2.0000      -0.452941       -12.3252
 170   2.0000      -0.450645       -12.2627
 171   2.0000      -0.449044       -12.2191
 172   2.0000      -0.444836       -12.1046
 173   2.0000      -0.442778       -12.0486
 174   2.0000      -0.442144       -12.0313
 175   2.0000      -0.437321       -11.9001
 176   2.0000      -0.430285       -11.7086
 177   2.0000      -0.426323       -11.6008
 178   2.0000      -0.426140       -11.5959
 179   2.0000      -0.417798       -11.3689
 180   2.0000      -0.414314       -11.2741
 181   2.0000      -0.407745       -11.0953
 182   2.0000      -0.407416       -11.0864
 183   2.0000      -0.394986       -10.7481
 184   2.0000      -0.373929       -10.1751
 185   2.0000      -0.371229       -10.1017
 186   2.0000      -0.360504        -9.8098
 187   2.0000      -0.357454        -9.7268
 188   2.0000      -0.355979        -9.6867
 189   2.0000      -0.351372        -9.5613
 190   2.0000      -0.348246        -9.4763
 191   2.0000      -0.347279        -9.4499
 192   2.0000      -0.343431        -9.3452
 193   2.0000      -0.340415        -9.2632
 194   2.0000      -0.332374        -9.0444
 195   2.0000      -0.318360        -8.6630
 196   2.0000      -0.315368        -8.5816
 197   2.0000      -0.302190        -8.2230
 198   2.0000      -0.290440        -7.9033
 199   2.0000      -0.265025        -7.2117
 200   2.0000      -0.228522        -6.2184
 201   0.0000      -0.100930        -2.7464
 202   0.0000      -0.088325        -2.4034
 203   0.0000      -0.069133        -1.8812
 204   0.0000      -0.064440        -1.7535
 205   0.0000      -0.035437        -0.9643

MULLIKEN ATOMIC CHARGES
-----------------------
   0 C :   -0.087057
   1 C :    0.234499
   2 F :   -0.165861
   3 C :    0.233307
   4 F :   -0.169468
   5 C :   -0.102010
   6 C :   -0.005548
   7 C :    0.042019
   8 C :    0.315347
   9 C :   -0.364740
  10 C :   -0.192215
  11 N :    0.153584
  12 C :   -0.177671
  13 N :    0.145392
  14 C :   -0.098546
  15 C :    0.170936
  16 O :   -0.214963
  17 C :    0.029772
  18 C :    0.002461
  19 N :   -0.021556
  20 C :    0.014318
  21 C :   -0.003266
  22 C :    0.015089
  23 C :    0.035155
  24 C :    0.004169
  25 C :   -0.007532
  26 N :   -0.030496
  27 C :    0.115008
  28 C :   -0.163395
  29 C :    0.083258
  30 N :   -0.033793
  31 C :    0.115482
  32 C :   -0.130604
  33 C :    0.035612
  34 C :   -0.005902
  35 C :    0.099731
  36 N :   -0.029627
  37 C :   -0.037781
  38 C :    0.036490
  39 C :   -0.044571
  40 C :    0.159409
  41 C :   -0.063767
  42 C :   -0.059276
  43 C :   -0.140125
  44 C :    0.128045
  45 O :   -0.147462
  46 C :    0.006481
  47 C :    0.022586
  48 C :   -0.091609
  49 C :    0.234294
  50 C :    0.233426
  51 C :   -0.101452
  52 F :   -0.169557
  53 F :   -0.166189
  54 C :    0.355726
  55 C :   -0.385013
  56 C :   -0.121683
  57 N :    0.116634
  58 C :   -0.211954
  59 N :    0.155045
  60 H :    0.016564
  61 H :    0.007345
  62 H :   -0.010335
  63 H :    0.144632
  64 H :   -0.019122
  65 H :    0.001632
  66 H :    0.126811
  67 H :   -0.032055
  68 H :    0.128375
  69 H :   -0.025069
  70 H :   -0.014578
  71 H :   -0.036730
  72 H :    0.119264
  73 H :   -0.016557
  74 H :   -0.019449
  75 H :    0.054082
  76 H :    0.015631
  77 H :    0.010974
Sum of atomic charges:   -0.0000000

LOEWDIN ATOMIC CHARGES
----------------------
   0 C :   -0.017855
   1 C :    0.073775
   2 F :   -0.044262
   3 C :    0.068838
   4 F :   -0.046956
   5 C :   -0.006388
   6 C :   -0.044168
   7 C :   -0.012723
   8 C :    0.077861
   9 C :   -0.145044
  10 C :   -0.019793
  11 N :   -0.053541
  12 C :   -0.022164
  13 N :   -0.053573
  14 C :   -0.129364
  15 C :    0.098063
  16 O :   -0.165896
  17 C :    0.064919
  18 C :   -0.033544
  19 N :    0.118497
  20 C :    0.014622
  21 C :   -0.051344
  22 C :   -0.005999
  23 C :   -0.053941
  24 C :   -0.016809
  25 C :   -0.024464
  26 N :    0.078589
  27 C :   -0.019037
  28 C :   -0.084310
  29 C :   -0.000447
  30 N :    0.070671
  31 C :   -0.018018
  32 C :   -0.064609
  33 C :   -0.005866
  34 C :   -0.059461
  35 C :    0.021335
  36 N :    0.118733
  37 C :   -0.049362
  38 C :   -0.008455
  39 C :   -0.065028
  40 C :    0.023830
  41 C :   -0.061848
  42 C :    0.057278
  43 C :   -0.113674
  44 C :    0.081185
  45 O :   -0.145009
  46 C :   -0.044615
  47 C :   -0.013820
  48 C :   -0.020328
  49 C :    0.072749
  50 C :    0.070651
  51 C :   -0.005351
  52 F :   -0.046086
  53 F :   -0.045007
  54 C :    0.079861
  55 C :   -0.152639
  56 C :    0.037317
  57 N :   -0.070949
  58 C :   -0.020471
  59 N :   -0.055400
  60 H :    0.051687
  61 H :    0.050504
  62 H :    0.052155
  63 H :    0.070679
  64 H :    0.031893
  65 H :    0.036703
  66 H :    0.094622
  67 H :    0.026403
  68 H :    0.089204
  69 H :    0.032130
  70 H :    0.037881
  71 H :    0.023601
  72 H :    0.062917
  73 H :    0.033293
  74 H :    0.025733
  75 H :    0.066304
  76 H :    0.050844
  77 H :    0.052291

  Mayer bond orders larger than 0.100000
B(  0-C ,  1-C ) :   1.3288 B(  0-C ,  5-C ) :   0.1045 B(  0-C ,  7-C ) :   1.3212
B(  0-C , 60-H ) :   0.9900 B(  1-C ,  2-F ) :   1.1448 B(  1-C ,  3-C ) :   1.2973
B(  3-C ,  4-F ) :   1.1309 B(  3-C ,  5-C ) :   1.3112 B(  5-C ,  6-C ) :   1.3209
B(  5-C , 61-H ) :   1.0198 B(  6-C ,  7-C ) :   1.3418 B(  6-C , 15-C ) :   0.9870
B(  7-C ,  8-C ) :   0.9916 B(  8-C ,  9-C ) :   1.6141 B(  8-C , 14-C ) :   1.1135
B(  9-C , 10-C ) :   1.1463 B(  9-C , 12-C ) :   1.1424 B( 10-C , 11-N ) :   2.9740
B( 12-C , 13-N ) :   2.9563 B( 14-C , 15-C ) :   0.9960 B( 14-C , 17-C ) :   1.4038
B( 15-C , 16-O ) :   2.0491 B( 16-O , 63-H ) :   0.1444 B( 17-C , 18-C ) :   1.3005
B( 17-C , 62-H ) :   0.9263 B( 18-C , 19-N ) :   1.2149 B( 18-C , 20-C ) :   0.1038
B( 18-C , 22-C ) :   1.2549 B( 19-N , 20-C ) :   1.3418 B( 19-N , 63-H ) :   0.8563
B( 20-C , 21-C ) :   1.3115 B( 20-C , 23-C ) :   0.8253 B( 21-C , 22-C ) :   1.4208
B( 21-C , 64-H ) :   1.0177 B( 22-C , 65-H ) :   1.0053 B( 23-C , 24-C ) :   2.2219
B( 24-C , 25-C ) :   0.8500 B( 25-C , 26-N ) :   1.2050 B( 25-C , 32-C ) :   1.4071
B( 26-N , 27-C ) :   1.1674 B( 26-N , 66-H ) :   0.9389 B( 27-C , 28-C ) :   1.2446
B( 27-C , 31-C ) :   1.3087 B( 28-C , 29-C ) :   1.3591 B( 28-C , 67-H ) :   1.0410
B( 29-C , 30-N ) :   1.2001 B( 29-C , 33-C ) :   1.1591 B( 30-N , 31-C ) :   1.1669
B( 30-N , 68-H ) :   0.9308 B( 31-C , 32-C ) :   1.2558 B( 32-C , 69-H ) :   1.0431
B( 33-C , 34-C ) :   1.6275 B( 33-C , 70-H ) :   0.9651 B( 34-C , 35-C ) :   1.1174
B( 34-C , 71-H ) :   0.9574 B( 35-C , 36-N ) :   1.2874 B( 35-C , 39-C ) :   1.3146
B( 36-N , 37-C ) :   1.2300 B( 36-N , 72-H ) :   0.8752 B( 37-C , 38-C ) :   1.3045
B( 37-C , 40-C ) :   0.9489 B( 38-C , 39-C ) :   1.4206 B( 38-C , 73-H ) :   1.0112
B( 39-C , 74-H ) :   1.0029 B( 40-C , 41-C ) :   1.9289 B( 41-C , 42-C ) :   1.0293
B( 42-C , 43-C ) :   1.5409 B( 42-C , 75-H ) :   0.9408 B( 43-C , 44-C ) :   0.9636
B( 43-C , 54-C ) :   1.0816 B( 44-C , 45-O ) :   2.2457 B( 44-C , 46-C ) :   0.9338
B( 46-C , 47-C ) :   1.3419 B( 46-C , 51-C ) :   1.3311 B( 47-C , 48-C ) :   1.3168
B( 47-C , 54-C ) :   1.0109 B( 48-C , 49-C ) :   1.3349 B( 48-C , 51-C ) :   0.1043
B( 48-C , 76-H ) :   0.9870 B( 49-C , 50-C ) :   1.2977 B( 49-C , 53-F ) :   1.1464
B( 50-C , 51-C ) :   1.3093 B( 50-C , 52-F ) :   1.1305 B( 51-C , 77-H ) :   1.0201
B( 54-C , 55-C ) :   1.5715 B( 55-C , 56-C ) :   1.2065 B( 55-C , 58-C ) :   1.1308
B( 56-C , 57-N ) :   2.8776 B( 57-N , 72-H ) :   0.1456 B( 58-C , 59-N ) :   2.9771

-----------------------------------------------------------------------------
         ABSORPTION SPECTRUM VIA TRANSITION ELECTRIC DIPOLE MOMENTS
-----------------------------------------------------------------------------
State   Energy  Wavelength   fosc         T2         TX        TY        TZ
        (cm-1)    (nm)                  (au**2)     (au)      (au)      (au)
-----------------------------------------------------------------------------
   0   14372.8    695.8   1.333481997  30.54359   2.00524   4.53600   2.43870
   1   18117.0    552.0   1.214297292  22.06554   3.29143  -3.28970  -0.64026
   2   21672.0    461.4   0.045991356   0.69864  -0.47964   0.66305   0.17013
   3   23136.3    432.2   0.201430959   2.86621   0.72254  -1.50742  -0.26799
   4   23308.3    429.0   0.563233423   7.95523  -2.41057  -1.11817  -0.94556
   5   26191.0    381.8   0.118978576   1.49552  -1.20037   0.22935   0.04517
   6   28768.8    347.6   0.708449509   8.10706   0.31129   2.67368   0.92823
   7   29287.7    341.4   0.026429592   0.29709   0.48599   0.21208   0.12616
   8   29955.8    333.8   0.005959672   0.06550   0.23898  -0.08791   0.02565
   9   30295.6    330.1   0.055870398   0.60712  -0.48520  -0.48291  -0.37215
  10   31318.6    319.3   0.160440317   1.68650  -0.13246  -1.19299  -0.49571
  11   31361.4    318.9   0.014347814   0.15061   0.12322  -0.36214  -0.06548
  12   31406.4    318.4   0.022174750   0.23244   0.11882  -0.45917  -0.08654
  13   31700.2    315.5   0.275730333   2.86351   1.35439   0.80675   0.61506
  14   32469.0    308.0   0.009921842   0.10060  -0.01531  -0.10715  -0.29814
  15   33023.7    302.8   0.000295969   0.00295   0.04428  -0.02955   0.01079
  16   33340.1    299.9   0.227013516   2.24161  -1.40387  -0.35119  -0.38399
  17   33390.6    299.5   0.000176909   0.00174  -0.01908  -0.02630   0.02623
  18   34375.7    290.9   0.008286842   0.07936   0.26854  -0.07748   0.03529
  19   35355.4    282.8   0.039234150   0.36533  -0.18998  -0.53330  -0.21171
  20   35604.8    280.9   0.043754938   0.40457  -0.43181  -0.41532  -0.21359
  21   35689.4    280.2   0.000152264   0.00140  -0.02857  -0.01587   0.01835
  22   35802.5    279.3   0.074901510   0.68874  -0.47797  -0.63206  -0.24654
  23   36029.8    277.5   0.177626002   1.62301  -0.90193  -0.70030  -0.56489
  24   36267.7    275.7   0.435253540   3.95092  -0.99517  -1.57988  -0.68156
  25   36898.2    271.0   0.087563486   0.78126  -0.14611   0.83760   0.24153
  26   37089.7    269.6   0.172810686   1.53388  -0.66483  -0.89522  -0.53894
  27   37522.8    266.5   0.273385573   2.39859  -0.41260  -1.34479  -0.64799
  28   38150.1    262.1   0.075654243   0.65285  -0.18334   0.77417   0.14104
  29   38526.2    259.6   0.077327738   0.66078   0.74687   0.28746   0.14257
  30   38920.6    256.9   0.056779099   0.48027  -0.66658  -0.04553  -0.18403
  31   39172.6    255.3   0.119419614   1.00362  -0.02159   0.92115   0.39324
  32   39618.3    252.4   0.023436535   0.19475  -0.34850   0.26972  -0.02351
  33   39820.4    251.1   0.059154688   0.48906   0.48936  -0.49728  -0.04795
  34   39862.4    250.9   0.059609385   0.49230  -0.49342   0.49713   0.04115

FINAL SINGLE POINT ENERGY     -2747.992345525844

DIPOLE MOMENT
-------------
                                X             Y             Z
Electronic contribution:    -55.38178       1.49994     -12.06682
Nuclear contribution   :     58.65726      -4.07738      11.83567
                        -----------------------------------------
Total Dipole Moment    :      3.27548      -2.57744      -0.23115
                        -----------------------------------------
Magnitude (a.u.)       :      4.17437
Magnitude (Debye)      :     10.61041

Rotational constants in cm-1:     0.001558     0.000299     0.000252
Rotational constants in MHz :    46.702698     8.969015     7.544313

                             ****ORCA TERMINATED NORMALLY****
TOTAL RUN TIME: 0 days 0 hours 6 minutes 6 seconds 321 msec
