                         Program Version 4.2.0 -  RELEASE  -
|  1> # ORCA input file
|  2> # SCF done       -179.626374622850          0.000941623647
|  3> ! CAM-B3LYP def2-SVP def2/J RIJCOSX Grid4 TightSCF
|  4> %maxcore 5000
|  5> %tddft
|  6>     Mode sTDDFT
|  7>     Ethresh 5.0
|  8>     maxcore 5000
|  9> end
| 10>
| 11> %pal
| 12>   nprocs 6
| 13>   end
| 14> * xyz 0 1
| 15>    C        8.68353        -8.94393         6.69944
| 16>    C        9.29173        -9.39127         7.86335
| 17>    F        8.66141        -9.21965         9.03096
| 18>    C       10.53874       -10.01629         7.84394
| 19>    F       11.09138       -10.42446         8.99270
| 20>    C       11.21007       -10.22150         6.64865
| 21>    C       10.60066        -9.78703         5.48864
| 22>    C        9.34914        -9.14616         5.50228
| 23>    C        9.00364        -8.76417         4.13160
| 24>    C        8.12743        -7.76422         3.79200
| 25>    C        7.26855        -7.12455         4.70697
| 26>    N        6.53340        -6.59038         5.40848
| 27>    C        8.06824        -7.19917         2.50222
| 28>    N        8.03223        -6.68334         1.47729
| 29>    C        9.95884        -9.39933         3.25901
| 30>    C       11.07817        -9.90302         4.09020
| 31>    O       12.13377       -10.34766         3.70180
| 32>    C        9.96399        -9.65866         1.91324
| 33>    C        8.91192        -9.69875         0.99140
| 34>    C        9.04043        -9.76422        -0.41368
| 35>    C        7.78579        -9.86192        -1.07740
| 36>    C        7.74360        -9.91331        -2.48197
| 37>    C        8.91492        -9.89168        -3.18842
| 38>    C       10.15431        -9.81159        -2.53124
| 39>    C       10.22556        -9.73478        -1.16622
| 40>    C        6.70356        -9.93918        -0.17960
| 41>    S        7.24411        -9.83889         1.44902
| 42>    C        5.35931       -10.21659        -0.52321
| 43>    C        4.35769       -10.48361         0.34513
| 44>    C        3.08851       -11.02295        -0.05210
| 45>    C        2.83773       -12.14728        -0.81562
| 46>    C        1.43059       -12.42151        -0.92811
| 47>    C        0.79914       -13.40980        -1.67977
| 48>    C       -0.58665       -13.47527        -1.67750
| 49>    C       -1.35672       -12.56060        -0.93895
| 50>    C       -0.74352       -11.56813        -0.20884
| 51>    C        0.64404       -11.50050        -0.21002
| 52>    S        1.62532       -10.32688         0.60995
| 53>    C       -1.23381       -14.48083        -2.43360
| 54>    N       -1.75627       -15.29711        -3.04495
| 55>    C        3.84216       -13.07147        -1.28585
| 56>    C        3.92140       -14.43730        -0.97017
| 57>    C        5.10335       -15.05378        -1.48212
| 58>    C        5.34697       -16.41240        -1.22018
| 59>    C        4.45293       -17.12285        -0.46632
| 60>    C        3.30413       -16.50937         0.06543
| 61>    C        3.03628       -15.19059        -0.17097
| 62>    C        5.92047       -14.15562        -2.19682
| 63>    S        5.17840       -12.59037        -2.24824
| 64>    C        7.22626       -14.33728        -2.66664
| 65>    C        7.94318       -13.38683        -3.34275
| 66>    C        9.29174       -13.49552        -3.71794
| 67>    C       10.27260       -14.30248        -3.19901
| 68>    C       11.47672       -14.59016        -4.01363
| 69>    O       11.82042       -14.03387        -5.03108
| 70>    C       12.13695       -15.73234        -3.33751
| 71>    C       11.46107       -16.01460        -2.13741
| 72>    C       11.87101       -17.07095        -1.34126
| 73>    C       12.95619       -17.82301        -1.76800
| 74>    C       13.62974       -17.52892        -2.95368
| 75>    C       13.22395       -16.47316        -3.75539
| 76>    F       14.67507       -18.27747        -3.32366
| 77>    F       13.35850       -18.85869        -1.02371
| 78>    C       10.38298       -15.03710        -1.96415
| 79>    C        9.79556       -14.73147        -0.76029
| 80>    C        8.94923       -13.62925        -0.54156
| 81>    N        8.27847       -12.73595        -0.27223
| 82>    C       10.01948       -15.45324         0.42947
| 83>    N       10.14056       -16.02109         1.41984
| 84>    H        7.71890        -8.46708         6.76192
| 85>    H       12.17425       -10.70393         6.63278
| 86>    H       10.93097        -9.97065         1.52922
| 87>    H        6.79432        -9.96203        -2.99303
| 88>    H        8.89630        -9.93032        -4.26730
| 89>    H       11.05968        -9.80418        -3.11900
| 90>    H       11.18016        -9.65783        -0.66991
| 91>    H        5.14196       -10.22928        -1.58074
| 92>    H        4.49949       -10.30768         1.40435
| 93>    H        1.37824       -14.11396        -2.25814
| 94>    H       -2.43260       -12.64148        -0.95737
| 95>    H       -1.32258       -10.85231         0.35254
| 96>    H        6.23168       -16.88604        -1.61702
| 97>    H        4.63008       -18.16804        -0.26436
| 98>    H        2.63034       -17.09469         0.67188
| 99>    H        2.16084       -14.72017         0.24888
|100>    H        7.67910       -15.30093        -2.47241
|101>    H        7.42252       -12.49529        -3.66637
|102>    H        9.60861       -12.90345        -4.57067
|103>    H       11.38124       -17.33791        -0.41897
|104>    H       13.74304       -16.24553        -4.67267
|105> *
|106>
|107>                          ****END OF INPUT****

CARTESIAN COORDINATES (ANGSTROEM)
---------------------------------
  C      8.683530   -8.943930    6.699440
  C      9.291730   -9.391270    7.863350
  F      8.661410   -9.219650    9.030960
  C     10.538740  -10.016290    7.843940
  F     11.091380  -10.424460    8.992700
  C     11.210070  -10.221500    6.648650
  C     10.600660   -9.787030    5.488640
  C      9.349140   -9.146160    5.502280
  C      9.003640   -8.764170    4.131600
  C      8.127430   -7.764220    3.792000
  C      7.268550   -7.124550    4.706970
  N      6.533400   -6.590380    5.408480
  C      8.068240   -7.199170    2.502220
  N      8.032230   -6.683340    1.477290
  C      9.958840   -9.399330    3.259010
  C     11.078170   -9.903020    4.090200
  O     12.133770  -10.347660    3.701800
  C      9.963990   -9.658660    1.913240
  C      8.911920   -9.698750    0.991400
  C      9.040430   -9.764220   -0.413680
  C      7.785790   -9.861920   -1.077400
  C      7.743600   -9.913310   -2.481970
  C      8.914920   -9.891680   -3.188420
  C     10.154310   -9.811590   -2.531240
  C     10.225560   -9.734780   -1.166220
  C      6.703560   -9.939180   -0.179600
  S      7.244110   -9.838890    1.449020
  C      5.359310  -10.216590   -0.523210
  C      4.357690  -10.483610    0.345130
  C      3.088510  -11.022950   -0.052100
  C      2.837730  -12.147280   -0.815620
  C      1.430590  -12.421510   -0.928110
  C      0.799140  -13.409800   -1.679770
  C     -0.586650  -13.475270   -1.677500
  C     -1.356720  -12.560600   -0.938950
  C     -0.743520  -11.568130   -0.208840
  C      0.644040  -11.500500   -0.210020
  S      1.625320  -10.326880    0.609950
  C     -1.233810  -14.480830   -2.433600
  N     -1.756270  -15.297110   -3.044950
  C      3.842160  -13.071470   -1.285850
  C      3.921400  -14.437300   -0.970170
  C      5.103350  -15.053780   -1.482120
  C      5.346970  -16.412400   -1.220180
  C      4.452930  -17.122850   -0.466320
  C      3.304130  -16.509370    0.065430
  C      3.036280  -15.190590   -0.170970
  C      5.920470  -14.155620   -2.196820
  S      5.178400  -12.590370   -2.248240
  C      7.226260  -14.337280   -2.666640
  C      7.943180  -13.386830   -3.342750
  C      9.291740  -13.495520   -3.717940
  C     10.272600  -14.302480   -3.199010
  C     11.476720  -14.590160   -4.013630
  O     11.820420  -14.033870   -5.031080
  C     12.136950  -15.732340   -3.337510
  C     11.461070  -16.014600   -2.137410
  C     11.871010  -17.070950   -1.341260
  C     12.956190  -17.823010   -1.768000
  C     13.629740  -17.528920   -2.953680
  C     13.223950  -16.473160   -3.755390
  F     14.675070  -18.277470   -3.323660
  F     13.358500  -18.858690   -1.023710
  C     10.382980  -15.037100   -1.964150
  C      9.795560  -14.731470   -0.760290
  C      8.949230  -13.629250   -0.541560
  N      8.278470  -12.735950   -0.272230
  C     10.019480  -15.453240    0.429470
  N     10.140560  -16.021090    1.419840
  H      7.718900   -8.467080    6.761920
  H     12.174250  -10.703930    6.632780
  H     10.930970   -9.970650    1.529220
  H      6.794320   -9.962030   -2.993030
  H      8.896300   -9.930320   -4.267300
  H     11.059680   -9.804180   -3.119000
  H     11.180160   -9.657830   -0.669910
  H      5.141960  -10.229280   -1.580740
  H      4.499490  -10.307680    1.404350
  H      1.378240  -14.113960   -2.258140
  H     -2.432600  -12.641480   -0.957370
  H     -1.322580  -10.852310    0.352540
  H      6.231680  -16.886040   -1.617020
  H      4.630080  -18.168040   -0.264360
  H      2.630340  -17.094690    0.671880
  H      2.160840  -14.720170    0.248880
  H      7.679100  -15.300930   -2.472410
  H      7.422520  -12.495290   -3.666370
  H      9.608610  -12.903450   -4.570670
  H     11.381240  -17.337910   -0.418970
  H     13.743040  -16.245530   -4.672670

 Total Charge           Charge          ....    0
 Multiplicity           Mult            ....    1
 Number of Electrons    NEL             ....  486
 Basis Dimension        Dim             .... 1083

ORBITAL ENERGIES
----------------

  NO   OCC          E(Eh)            E(eV)
   0   2.0000     -88.993379     -2421.6330
   1   2.0000     -88.984857     -2421.4011
   2   2.0000     -88.978667     -2421.2326
   3   2.0000     -24.804495      -674.9646
   4   2.0000     -24.803888      -674.9481
   5   2.0000     -24.798475      -674.8008
   6   2.0000     -24.798348      -674.7973
   7   2.0000     -19.220347      -523.0122
   8   2.0000     -19.214619      -522.8564
   9   2.0000     -14.424945      -392.5227
  10   2.0000     -14.420218      -392.3941
  11   2.0000     -14.415395      -392.2628
  12   2.0000     -14.413446      -392.2098
  13   2.0000     -14.409777      -392.1100
  14   2.0000     -10.389929      -282.7243
  15   2.0000     -10.389443      -282.7111
  16   2.0000     -10.383931      -282.5611
  17   2.0000     -10.383111      -282.5388
  18   2.0000     -10.372182      -282.2414
  19   2.0000     -10.366588      -282.0892
  20   2.0000     -10.350526      -281.6521
  21   2.0000     -10.347414      -281.5674
  22   2.0000     -10.342985      -281.4469
  23   2.0000     -10.342079      -281.4223
  24   2.0000     -10.339994      -281.3655
  25   2.0000     -10.339772      -281.3595
  26   2.0000     -10.331972      -281.1473
  27   2.0000     -10.331294      -281.1288
  28   2.0000     -10.327540      -281.0267
  29   2.0000     -10.325758      -280.9781
  30   2.0000     -10.323473      -280.9160
  31   2.0000     -10.321638      -280.8661
  32   2.0000     -10.320882      -280.8455
  33   2.0000     -10.320833      -280.8442
  34   2.0000     -10.320811      -280.8435
  35   2.0000     -10.320681      -280.8400
  36   2.0000     -10.319856      -280.8176
  37   2.0000     -10.319651      -280.8120
  38   2.0000     -10.318227      -280.7732
  39   2.0000     -10.315456      -280.6978
  40   2.0000     -10.314703      -280.6773
  41   2.0000     -10.314565      -280.6736
  42   2.0000     -10.312655      -280.6216
  43   2.0000     -10.312557      -280.6189
  44   2.0000     -10.312402      -280.6147
  45   2.0000     -10.311322      -280.5853
  46   2.0000     -10.311035      -280.5775
  47   2.0000     -10.309152      -280.5263
  48   2.0000     -10.308278      -280.5025
  49   2.0000     -10.307758      -280.4883
  50   2.0000     -10.307377      -280.4780
  51   2.0000     -10.306337      -280.4497
  52   2.0000     -10.306203      -280.4460
  53   2.0000     -10.306056      -280.4420
  54   2.0000     -10.304296      -280.3941
  55   2.0000     -10.302423      -280.3432
  56   2.0000     -10.299924      -280.2752
  57   2.0000     -10.299384      -280.2605
  58   2.0000     -10.298010      -280.2231
  59   2.0000     -10.294735      -280.1340
  60   2.0000     -10.294588      -280.1300
  61   2.0000     -10.293911      -280.1116
  62   2.0000     -10.293570      -280.1023
  63   2.0000     -10.293556      -280.1019
  64   2.0000     -10.292778      -280.0807
  65   2.0000     -10.290454      -280.0175
  66   2.0000     -10.289674      -279.9963
  67   2.0000     -10.289331      -279.9869
  68   2.0000     -10.289083      -279.9802
  69   2.0000      -8.087873      -220.0822
  70   2.0000      -8.079455      -219.8531
  71   2.0000      -8.074746      -219.7250
  72   2.0000      -6.056674      -164.8105
  73   2.0000      -6.052505      -164.6970
  74   2.0000      -6.051085      -164.6584
  75   2.0000      -6.048372      -164.5846
  76   2.0000      -6.044291      -164.4735
  77   2.0000      -6.044285      -164.4734
  78   2.0000      -6.042349      -164.4207
  79   2.0000      -6.040110      -164.3597
  80   2.0000      -6.036204      -164.2534
  81   2.0000      -1.328127       -36.1402
  82   2.0000      -1.322082       -35.9757
  83   2.0000      -1.312897       -35.7257
  84   2.0000      -1.306858       -35.5614
  85   2.0000      -1.135913       -30.9098
  86   2.0000      -1.130087       -30.7512
  87   2.0000      -1.032216       -28.0880
  88   2.0000      -1.027030       -27.9469
  89   2.0000      -1.022304       -27.8183
  90   2.0000      -1.015373       -27.6297
  91   2.0000      -1.013814       -27.5873
  92   2.0000      -1.008171       -27.4337
  93   2.0000      -1.000619       -27.2282
  94   2.0000      -1.000522       -27.2256
  95   2.0000      -0.996847       -27.1256
  96   2.0000      -0.992869       -27.0173
  97   2.0000      -0.964856       -26.2551
  98   2.0000      -0.963729       -26.2244
  99   2.0000      -0.956970       -26.0405
 100   2.0000      -0.950969       -25.8772
 101   2.0000      -0.947062       -25.7709
 102   2.0000      -0.932533       -25.3755
 103   2.0000      -0.926713       -25.2171
 104   2.0000      -0.910752       -24.7828
 105   2.0000      -0.903529       -24.5863
 106   2.0000      -0.902029       -24.5455
 107   2.0000      -0.891434       -24.2571
 108   2.0000      -0.880653       -23.9638
 109   2.0000      -0.878578       -23.9073
 110   2.0000      -0.872487       -23.7416
 111   2.0000      -0.864368       -23.5207
 112   2.0000      -0.856731       -23.3128
 113   2.0000      -0.853884       -23.2354
 114   2.0000      -0.850248       -23.1364
 115   2.0000      -0.844940       -22.9920
 116   2.0000      -0.841441       -22.8968
 117   2.0000      -0.817302       -22.2399
 118   2.0000      -0.813247       -22.1296
 119   2.0000      -0.791592       -21.5403
 120   2.0000      -0.781647       -21.2697
 121   2.0000      -0.773536       -21.0490
 122   2.0000      -0.770311       -20.9612
 123   2.0000      -0.753904       -20.5148
 124   2.0000      -0.747566       -20.3423
 125   2.0000      -0.731214       -19.8973
 126   2.0000      -0.726764       -19.7763
 127   2.0000      -0.725655       -19.7461
 128   2.0000      -0.721686       -19.6381
 129   2.0000      -0.719123       -19.5683
 130   2.0000      -0.712550       -19.3895
 131   2.0000      -0.705571       -19.1996
 132   2.0000      -0.697123       -18.9697
 133   2.0000      -0.690752       -18.7963
 134   2.0000      -0.685771       -18.6608
 135   2.0000      -0.683321       -18.5941
 136   2.0000      -0.678060       -18.4509
 137   2.0000      -0.672977       -18.3126
 138   2.0000      -0.664064       -18.0701
 139   2.0000      -0.656305       -17.8590
 140   2.0000      -0.650276       -17.6949
 141   2.0000      -0.647524       -17.6200
 142   2.0000      -0.644806       -17.5461
 143   2.0000      -0.639529       -17.4025
 144   2.0000      -0.636253       -17.3133
 145   2.0000      -0.627404       -17.0725
 146   2.0000      -0.617829       -16.8120
 147   2.0000      -0.611581       -16.6420
 148   2.0000      -0.608114       -16.5476
 149   2.0000      -0.606276       -16.4976
 150   2.0000      -0.602876       -16.4051
 151   2.0000      -0.601807       -16.3760
 152   2.0000      -0.592925       -16.1343
 153   2.0000      -0.591542       -16.0967
 154   2.0000      -0.587083       -15.9753
 155   2.0000      -0.586619       -15.9627
 156   2.0000      -0.574253       -15.6262
 157   2.0000      -0.572279       -15.5725
 158   2.0000      -0.571375       -15.5479
 159   2.0000      -0.567139       -15.4326
 160   2.0000      -0.566451       -15.4139
 161   2.0000      -0.562397       -15.3036
 162   2.0000      -0.555926       -15.1275
 163   2.0000      -0.552913       -15.0455
 164   2.0000      -0.550641       -14.9837
 165   2.0000      -0.550210       -14.9720
 166   2.0000      -0.549086       -14.9414
 167   2.0000      -0.547094       -14.8872
 168   2.0000      -0.545702       -14.8493
 169   2.0000      -0.543113       -14.7788
 170   2.0000      -0.539682       -14.6855
 171   2.0000      -0.538205       -14.6453
 172   2.0000      -0.535376       -14.5683
 173   2.0000      -0.533417       -14.5150
 174   2.0000      -0.531945       -14.4750
 175   2.0000      -0.529482       -14.4079
 176   2.0000      -0.527768       -14.3613
 177   2.0000      -0.526267       -14.3205
 178   2.0000      -0.523989       -14.2585
 179   2.0000      -0.519336       -14.1318
 180   2.0000      -0.516679       -14.0595
 181   2.0000      -0.512944       -13.9579
 182   2.0000      -0.511282       -13.9127
 183   2.0000      -0.504141       -13.7184
 184   2.0000      -0.501975       -13.6594
 185   2.0000      -0.499186       -13.5835
 186   2.0000      -0.498549       -13.5662
 187   2.0000      -0.495767       -13.4905
 188   2.0000      -0.492405       -13.3990
 189   2.0000      -0.490039       -13.3346
 190   2.0000      -0.487010       -13.2522
 191   2.0000      -0.484578       -13.1860
 192   2.0000      -0.480172       -13.0661
 193   2.0000      -0.472619       -12.8606
 194   2.0000      -0.470408       -12.8005
 195   2.0000      -0.466110       -12.6835
 196   2.0000      -0.464393       -12.6368
 197   2.0000      -0.459544       -12.5048
 198   2.0000      -0.458746       -12.4831
 199   2.0000      -0.457205       -12.4412
 200   2.0000      -0.456521       -12.4226
 201   2.0000      -0.455639       -12.3986
 202   2.0000      -0.453091       -12.3292
 203   2.0000      -0.451026       -12.2731
 204   2.0000      -0.448854       -12.2139
 205   2.0000      -0.448471       -12.2035
 206   2.0000      -0.447664       -12.1816
 207   2.0000      -0.445129       -12.1126
 208   2.0000      -0.444332       -12.0909
 209   2.0000      -0.442190       -12.0326
 210   2.0000      -0.439952       -11.9717
 211   2.0000      -0.437330       -11.9004
 212   2.0000      -0.434707       -11.8290
 213   2.0000      -0.434285       -11.8175
 214   2.0000      -0.432108       -11.7583
 215   2.0000      -0.431399       -11.7390
 216   2.0000      -0.428940       -11.6721
 217   2.0000      -0.426652       -11.6098
 218   2.0000      -0.422109       -11.4862
 219   2.0000      -0.419421       -11.4130
 220   2.0000      -0.415457       -11.3052
 221   2.0000      -0.414630       -11.2827
 222   2.0000      -0.412394       -11.2218
 223   2.0000      -0.408104       -11.1051
 224   2.0000      -0.399625       -10.8744
 225   2.0000      -0.390535       -10.6270
 226   2.0000      -0.383472       -10.4348
 227   2.0000      -0.374390       -10.1877
 228   2.0000      -0.361537        -9.8379
 229   2.0000      -0.354004        -9.6330
 230   2.0000      -0.349420        -9.5082
 231   2.0000      -0.344328        -9.3696
 232   2.0000      -0.344057        -9.3623
 233   2.0000      -0.337074        -9.1722
 234   2.0000      -0.334309        -9.0970
 235   2.0000      -0.329934        -8.9780
 236   2.0000      -0.327437        -8.9100
 237   2.0000      -0.320406        -8.7187
 238   2.0000      -0.317171        -8.6306
 239   2.0000      -0.312172        -8.4946
 240   2.0000      -0.309721        -8.4279
 241   2.0000      -0.260937        -7.1005
 242   2.0000      -0.254451        -6.9240
 243   0.0000      -0.108181        -2.9438
 244   0.0000      -0.105518        -2.8713
 245   0.0000      -0.071539        -1.9467
 246   0.0000      -0.064847        -1.7646
 247   0.0000      -0.046912        -1.2765

MULLIKEN ATOMIC CHARGES
-----------------------
   0 C :   -0.087656
   1 C :    0.234315
   2 F :   -0.167232
   3 C :    0.230520
   4 F :   -0.169841
   5 C :   -0.097889
   6 C :    0.009275
   7 C :    0.025094
   8 C :    0.249749
   9 C :   -0.327672
  10 C :   -0.179023
  11 N :    0.151809
  12 C :   -0.217937
  13 N :    0.174398
  14 C :   -0.138070
  15 C :    0.136467
  16 O :   -0.143918
  17 C :    0.014311
  18 C :   -0.108728
  19 C :    0.158518
  20 C :    0.132967
  21 C :   -0.042415
  22 C :    0.015682
  23 C :    0.037776
  24 C :   -0.029580
  25 C :   -0.046609
  26 S :    0.195062
  27 C :   -0.002646
  28 C :   -0.001225
  29 C :   -0.140768
  30 C :    0.108818
  31 C :    0.076429
  32 C :   -0.044289
  33 C :   -0.097356
  34 C :    0.040159
  35 C :    0.009275
  36 C :   -0.069303
  37 S :    0.161365
  38 C :   -0.144068
  39 N :    0.108848
  40 C :   -0.174524
  41 C :    0.132500
  42 C :    0.107998
  43 C :   -0.036082
  44 C :    0.038221
  45 C :    0.030221
  46 C :   -0.036301
  47 C :   -0.104599
  48 S :    0.165656
  49 C :    0.039540
  50 C :   -0.013865
  51 C :    0.060985
  52 C :   -0.144852
  53 C :    0.131304
  54 O :   -0.143008
  55 C :    0.012104
  56 C :    0.022070
  57 C :   -0.087249
  58 C :    0.233372
  59 C :    0.231944
  60 C :   -0.102102
  61 F :   -0.168160
  62 F :   -0.165405
  63 C :    0.260151
  64 C :   -0.354467
  65 C :   -0.179979
  66 N :    0.160990
  67 C :   -0.184215
  68 N :    0.156515
  69 H :    0.015311
  70 H :    0.011642
  71 H :    0.022742
  72 H :   -0.020032
  73 H :   -0.004658
  74 H :   -0.001156
  75 H :   -0.013945
  76 H :    0.023425
  77 H :    0.030294
  78 H :    0.008408
  79 H :    0.004597
  80 H :   -0.007158
  81 H :   -0.022869
  82 H :   -0.001742
  83 H :   -0.002953
  84 H :   -0.003496
  85 H :    0.016781
  86 H :   -0.006747
  87 H :    0.019777
  88 H :    0.015505
  89 H :    0.012900
Sum of atomic charges:   -0.0000000

LOEWDIN ATOMIC CHARGES
----------------------
   0 C :   -0.022024
   1 C :    0.073052
   2 F :   -0.045050
   3 C :    0.068445
   4 F :   -0.046663
   5 C :   -0.005004
   6 C :   -0.045409
   7 C :   -0.011787
   8 C :    0.061531
   9 C :   -0.149598
  10 C :   -0.022636
  11 N :   -0.053557
  12 C :   -0.038058
  13 N :   -0.048958
  14 C :   -0.112628
  15 C :    0.082477
  16 O :   -0.144346
  17 C :    0.052204
  18 C :   -0.180916
  19 C :   -0.003648
  20 C :   -0.032238
  21 C :   -0.011565
  22 C :   -0.023937
  23 C :   -0.006232
  24 C :   -0.010040
  25 C :   -0.135250
  26 S :    0.539091
  27 C :   -0.028506
  28 C :   -0.045340
  29 C :   -0.139877
  30 C :   -0.079945
  31 C :   -0.043272
  32 C :    0.018495
  33 C :   -0.071484
  34 C :    0.008764
  35 C :   -0.028621
  36 C :   -0.144443
  37 S :    0.432478
  38 C :   -0.030780
  39 N :   -0.054379
  40 C :   -0.150478
  41 C :   -0.048994
  42 C :   -0.022041
  43 C :   -0.018272
  44 C :   -0.005131
  45 C :   -0.019681
  46 C :   -0.009495
  47 C :   -0.194567
  48 S :    0.550060
  49 C :    0.028305
  50 C :   -0.066565
  51 C :    0.071075
  52 C :   -0.112282
  53 C :    0.080886
  54 O :   -0.144719
  55 C :   -0.045720
  56 C :   -0.014116
  57 C :   -0.021215
  58 C :    0.073037
  59 C :    0.069425
  60 C :   -0.005669
  61 F :   -0.045023
  62 F :   -0.043490
  63 C :    0.067031
  64 C :   -0.151444
  65 C :   -0.005321
  66 N :   -0.053420
  67 C :   -0.024417
  68 N :   -0.053709
  69 H :    0.050495
  70 H :    0.052241
  71 H :    0.049705
  72 H :    0.024171
  73 H :    0.030851
  74 H :    0.035104
  75 H :    0.032928
  76 H :    0.022076
  77 H :    0.033412
  78 H :    0.043435
  79 H :    0.042423
  80 H :    0.037625
  81 H :    0.029415
  82 H :    0.034698
  83 H :    0.034164
  84 H :    0.034152
  85 H :    0.038991
  86 H :    0.022310
  87 H :    0.044432
  88 H :    0.050643
  89 H :    0.052327

  Mayer bond orders larger than 0.100000
B(  0-C ,  1-C ) :   1.3318 B(  0-C ,  5-C ) :   0.1046 B(  0-C ,  7-C ) :   1.3243
B(  0-C , 69-H ) :   0.9939 B(  1-C ,  2-F ) :   1.1388 B(  1-C ,  3-C ) :   1.2959
B(  3-C ,  4-F ) :   1.1297 B(  3-C ,  5-C ) :   1.3179 B(  5-C ,  6-C ) :   1.3282
B(  5-C , 70-H ) :   1.0186 B(  6-C ,  7-C ) :   1.3432 B(  6-C , 15-C ) :   0.9293
B(  7-C ,  8-C ) :   1.0136 B(  8-C ,  9-C ) :   1.6362 B(  8-C , 14-C ) :   1.0619
B(  9-C , 10-C ) :   1.1304 B(  9-C , 12-C ) :   1.1597 B( 10-C , 11-N ) :   2.9935
B( 12-C , 13-N ) :   3.0247 B( 14-C , 15-C ) :   0.9611 B( 14-C , 17-C ) :   1.5711
B( 15-C , 16-O ) :   2.2552 B( 17-C , 18-C ) :   1.2282 B( 17-C , 71-H ) :   0.9344
B( 18-C , 19-C ) :   1.2602 B( 18-C , 26-S ) :   1.1251 B( 19-C , 20-C ) :   1.2381
B( 19-C , 24-C ) :   1.2392 B( 20-C , 21-C ) :   1.2217 B( 20-C , 25-C ) :   1.2881
B( 21-C , 22-C ) :   1.5193 B( 21-C , 72-H ) :   0.9876 B( 22-C , 23-C ) :   1.2321
B( 22-C , 73-H ) :   0.9856 B( 23-C , 24-C ) :   1.5194 B( 23-C , 74-H ) :   0.9865
B( 24-C , 75-H ) :   0.9910 B( 25-C , 26-S ) :   1.2036 B( 25-C , 27-C ) :   1.1842
B( 27-C , 28-C ) :   1.7141 B( 27-C , 76-H ) :   0.9477 B( 28-C , 29-C ) :   1.0659
B( 28-C , 77-H ) :   0.9518 B( 29-C , 30-C ) :   1.5816 B( 29-C , 37-S ) :   1.0878
B( 30-C , 31-C ) :   1.1353 B( 30-C , 40-C ) :   1.0206 B( 31-C , 32-C ) :   1.3074
B( 31-C , 36-C ) :   1.3115 B( 32-C , 33-C ) :   1.4206 B( 32-C , 78-H ) :   0.9919
B( 33-C , 34-C ) :   1.3236 B( 33-C , 38-C ) :   1.0578 B( 34-C , 35-C ) :   1.4337
B( 34-C , 79-H ) :   0.9921 B( 35-C , 36-C ) :   1.3371 B( 35-C , 80-H ) :   0.9942
B( 36-C , 37-S ) :   1.0707 B( 38-C , 39-N ) :   3.0559 B( 40-C , 41-C ) :   1.3522
B( 40-C , 47-C ) :   0.1013 B( 40-C , 48-S ) :   1.2314 B( 41-C , 42-C ) :   1.2277
B( 41-C , 46-C ) :   1.2043 B( 42-C , 43-C ) :   1.2366 B( 42-C , 47-C ) :   1.2648
B( 43-C , 44-C ) :   1.5301 B( 43-C , 81-H ) :   0.9929 B( 44-C , 45-C ) :   1.2250
B( 44-C , 82-H ) :   0.9853 B( 45-C , 46-C ) :   1.5455 B( 45-C , 83-H ) :   0.9865
B( 46-C , 84-H ) :   0.9875 B( 47-C , 48-S ) :   1.1183 B( 47-C , 49-C ) :   1.2756
B( 49-C , 50-C ) :   1.5378 B( 49-C , 85-H ) :   0.9594 B( 50-C , 51-C ) :   1.2311
B( 50-C , 86-H ) :   0.9484 B( 51-C , 52-C ) :   1.5770 B( 51-C , 87-H ) :   0.9345
B( 52-C , 53-C ) :   0.9623 B( 52-C , 63-C ) :   1.0693 B( 53-C , 54-O ) :   2.2666
B( 53-C , 55-C ) :   0.9244 B( 55-C , 56-C ) :   1.3436 B( 55-C , 60-C ) :   1.3251
B( 56-C , 57-C ) :   1.3229 B( 56-C , 63-C ) :   1.0096 B( 57-C , 58-C ) :   1.3340
B( 57-C , 60-C ) :   0.1039 B( 57-C , 88-H ) :   0.9945 B( 58-C , 59-C ) :   1.2930
B( 58-C , 62-F ) :   1.1420 B( 59-C , 60-C ) :   1.3179 B( 59-C , 61-F ) :   1.1320
B( 60-C , 89-H ) :   1.0197 B( 63-C , 64-C ) :   1.6251 B( 64-C , 65-C ) :   1.1724
B( 64-C , 67-C ) :   1.1278 B( 65-C , 66-N ) :   2.9701 B( 67-C , 68-N ) :   2.9939

-----------------------------------------------------------------------------
         ABSORPTION SPECTRUM VIA TRANSITION ELECTRIC DIPOLE MOMENTS
-----------------------------------------------------------------------------
State   Energy  Wavelength   fosc         T2         TX        TY        TZ
        (cm-1)    (nm)                  (au**2)     (au)      (au)      (au)
-----------------------------------------------------------------------------
   0   14616.0    684.2   0.263866247   5.94336   1.34575  -1.43020  -1.44460
   1   16347.9    611.7   0.574956877  11.57842   2.59558   0.97457   1.97271
   2   16876.0    592.6   0.267726693   5.22275   2.17987   0.28297   0.62516
   3   17881.2    559.2   0.038786212   0.71409   0.13761   0.10511   0.82711
   4   23503.4    425.5   0.099416838   1.39253   0.88300  -0.24793  -0.74255
   5   24289.0    411.7   0.273502144   3.70703  -1.92436  -0.06146   0.00874
   6   25757.7    388.2   0.019862834   0.25387  -0.20682  -0.41609   0.19484
   7   27303.9    366.2   0.209823397   2.52991   1.36208  -0.25622   0.78038
   8   27702.7    361.0   0.149953972   1.78202   0.90506  -0.80033  -0.56776
   9   28306.6    353.3   0.063814632   0.74218  -0.59376  -0.29328   0.55102
  10   28813.2    347.1   0.010760603   0.12295  -0.07057  -0.34339  -0.00699
  11   29144.1    343.1   0.028088211   0.31728   0.00100   0.50509  -0.24932
  12   29496.6    339.0   0.202523840   2.26037   1.43917   0.05615  -0.43130
  13   29690.8    336.8   0.011227494   0.12449  -0.23743  -0.11579   0.23390
  14   29894.0    334.5   0.062089778   0.68377  -0.32721   0.29180  -0.70111
  15   30470.0    328.2   0.061878704   0.66857  -0.59665   0.54743   0.11355
  16   30724.6    325.5   0.169360479   1.81468  -1.13367   0.01597   0.72748
  17   30821.8    324.4   0.067771552   0.72388   0.39230  -0.05938  -0.75263
  18   30854.8    324.1   0.107516886   1.14717  -0.75559   0.19332   0.73409
  19   31065.2    321.9   0.049534082   0.52493  -0.61291   0.37989   0.07044
  20   31436.4    318.1   0.122421514   1.28204   0.45972  -0.00028  -1.03474
  21   31688.8    315.6   0.154600666   1.60613  -1.10247   0.08928   0.61865
  22   31888.7    313.6   0.036021807   0.37188  -0.44390  -0.39627   0.13343
  23   32225.0    310.3   0.020012356   0.20445  -0.36695   0.22726   0.13471
  24   32306.9    309.5   0.013621259   0.13880  -0.27877  -0.22406   0.10434
  25   32403.6    308.6   0.080381921   0.81666   0.63925  -0.53907  -0.34267
  26   32827.7    304.6   0.038025652   0.38134   0.20109  -0.24202   0.53134
  27   33101.4    302.1   0.108613884   1.08023  -0.32123  -0.08944   0.98440
  28   33268.9    300.6   0.042229843   0.41788  -0.00348   0.42514  -0.48695
  29   33733.3    296.4   0.093865842   0.91606  -0.55898  -0.51964  -0.57756
  30   34518.7    289.7   0.001360844   0.01298   0.00766  -0.08866   0.07113
  31   34840.0    287.0   0.076642611   0.72422   0.78050   0.33838  -0.02316
  32   35098.3    284.9   0.003138450   0.02944  -0.01782  -0.14198   0.09467
  33   35398.6    282.5   0.044432087   0.41323   0.13856   0.17640  -0.60242
  34   35664.0    280.4   0.009402559   0.08679   0.14609   0.09535  -0.23740
  35   35733.8    279.8   0.009456951   0.08713   0.18803  -0.21695  -0.06857
  36   36203.0    276.2   0.022047492   0.20049  -0.03523  -0.05129  -0.44342
  37   36433.9    274.5   0.505309935   4.56591   1.47515  -0.58229  -1.43206
  38   36731.0    272.2   0.488549561   4.37876   1.31063  -1.10165   1.20306
  39   36817.8    271.6   0.057238891   0.51181   0.45382  -0.44577   0.32733
  40   37608.3    265.9   0.017624970   0.15428   0.21292  -0.17947  -0.27702
  41   37867.7    264.1   0.023430336   0.20370  -0.32032   0.30955   0.07263
  42   38323.1    260.9   0.021629694   0.18581   0.39817  -0.01839  -0.16410
  43   38600.8    259.1   0.034975662   0.29829  -0.14685  -0.50216   0.15672
  44   39115.2    255.7   0.018634989   0.15684  -0.30801  -0.17757  -0.17448
  45   39342.0    254.2   0.003570048   0.02987   0.15153   0.08193   0.01415
  46   39729.6    251.7   0.008630248   0.07151   0.20404   0.13863  -0.10326
  47   39820.4    251.1   0.015198791   0.12565   0.04877  -0.17711   0.30316
  48   40038.5    249.8   0.027666119   0.22748   0.31540  -0.00234  -0.35777
  49   40175.6    248.9   0.013828455   0.11331  -0.12583   0.29432  -0.10419
  50   40259.2    248.4   0.027013901   0.22090  -0.09902   0.37783  -0.26141

FINAL SINGLE POINT ENERGY     -4122.499826697405

DIPOLE MOMENT
-------------
                                X             Y             Z
Electronic contribution:     29.91456       0.96365      31.44117
Nuclear contribution   :    -30.96665      -1.80564     -32.87812
                        -----------------------------------------
Total Dipole Moment    :     -1.05208      -0.84199      -1.43695
                        -----------------------------------------
Magnitude (a.u.)       :      1.96994
Magnitude (Debye)      :      5.00718

Rotational constants in cm-1:     0.000863     0.000834     0.000517
Rotational constants in MHz :    25.858310    24.990020    15.507871

                             ****ORCA TERMINATED NORMALLY****
TOTAL RUN TIME: 0 days 0 hours 10 minutes 27 seconds 373 msec
