                         Program Version 4.2.0 -  RELEASE  -
|  1> # ORCA input file
|  2> # SCF done       -170.828834148241          0.000302017706
|  3> ! CAM-B3LYP def2-SVP def2/J RIJCOSX Grid4 TightSCF
|  4> %maxcore 5000
|  5> %tddft
|  6>     Mode sTDDFT
|  7>     Ethresh 5.0
|  8>     maxcore 5000
|  9> end
| 10>
| 11> %pal
| 12>   nprocs 6
| 13>   end
| 14> * xyz 0 1
| 15>    C        1.98771        -8.30445        -2.53920
| 16>    C        2.72413        -7.72372        -1.57583
| 17>    O        2.22091        -7.45263        -0.31212
| 18>    C        0.92070        -7.83883        -0.14010
| 19>    C        0.15445        -8.45149        -1.17807
| 20>    C       -1.11023        -8.75126        -0.79699
| 21>    S       -1.39521        -8.28374         0.83746
| 22>    C        0.21425        -7.68474         1.00541
| 23>    O        0.68107        -8.69525        -2.41946
| 24>    C        4.07263        -7.28249        -1.81621
| 25>    C        4.81784        -6.60709        -0.92935
| 26>    C        6.15888        -6.10081        -1.19812
| 27>    C        7.12119        -6.24978        -0.19185
| 28>    C        8.42376        -5.88916        -0.45135
| 29>    C        8.79295        -5.38727        -1.70493
| 30>    C       10.24935        -5.11874        -1.68117
| 31>    O       10.96797        -4.69232        -2.55019
| 32>    N       10.66726        -5.47703        -0.40759
| 33>    C        9.63522        -5.94468         0.39622
| 34>    O        9.76246        -6.31304         1.53710
| 35>    C       12.03103        -5.33083         0.05297
| 36>    C       12.24936        -3.97128         0.70786
| 37>    C        7.85797        -5.20180        -2.69559
| 38>    C        6.51763        -5.52097        -2.43745
| 39>    C        5.52650        -5.20719        -3.45424
| 40>    C        4.32617        -4.66674        -3.17650
| 41>    C        3.25570        -4.47584        -4.09500
| 42>    N        2.06291        -3.93332        -3.66019
| 43>    C        1.16352        -3.99075        -4.67584
| 44>    C       -0.15851        -3.72820        -5.02942
| 45>    C       -0.30163        -4.16859        -6.34649
| 46>    N        0.90151        -4.67511        -6.79440
| 47>    C        1.81103        -4.57740        -5.78918
| 48>    C        3.12369        -4.87596        -5.42580
| 49>    C       -1.50923        -4.19354        -7.09764
| 50>    C       -1.67847        -4.73509        -8.31939
| 51>    C       -2.93584        -4.77719        -9.04355
| 52>    C       -2.86765        -4.55613       -10.42843
| 53>    C       -4.02723        -4.44598       -11.15633
| 54>    C       -5.27645        -4.55267       -10.53253
| 55>    C       -6.32084        -4.35566       -11.56081
| 56>    O       -7.52188        -4.36883       -11.45508
| 57>    N       -5.63098        -4.14932       -12.74932
| 58>    C       -4.25238        -4.18720       -12.59565
| 59>    O       -3.45282        -4.04253       -13.48701
| 60>    C       -6.28307        -3.87580       -14.01139
| 61>    C       -6.39907        -2.37573       -14.25888
| 62>    C       -5.36744        -4.81919        -9.18722
| 63>    C       -4.19623        -4.97581        -8.42869
| 64>    C       -4.38166        -5.40181        -7.05275
| 65>    C       -3.56993        -6.22303        -6.36259
| 66>    C       -3.80169        -6.59002        -4.99437
| 67>    C       -3.01883        -7.45721        -4.29685
| 68>    O       -3.15399        -7.66360        -2.93311
| 69>    C       -4.17011        -6.97792        -2.33536
| 70>    C       -5.02108        -6.10663        -3.07531
| 71>    C       -5.97714        -5.53066        -2.30693
| 72>    S       -5.85173        -6.04192        -0.66322
| 73>    C       -4.49574        -7.04562        -1.02129
| 74>    O       -4.84839        -5.88977        -4.40930
| 75>    C       -1.92152        -8.25138        -4.82034
| 76>    C       -1.85582        -8.82829        -6.01554
| 77>    H        2.37934        -8.50290        -3.52116
| 78>    H       -1.88597        -9.19772        -1.38255
| 79>    H        0.54170        -7.26020         1.93106
| 80>    H        4.44878        -7.49272        -2.80574
| 81>    H        4.44250        -6.46836         0.07576
| 82>    H        6.84875        -6.66975         0.76462
| 83>    H       12.68206        -5.44390        -0.81728
| 84>    H       12.22372        -6.13289         0.76970
| 85>    H       12.03834        -3.17477        -0.00212
| 86>    H       13.28055        -3.88224         1.03763
| 87>    H       11.59473        -3.86097         1.56936
| 88>    H        8.14313        -4.78606        -3.65015
| 89>    H        5.81259        -5.39133        -4.48003
| 90>    H        4.10618        -4.39761        -2.15045
| 91>    H        1.90504        -3.57739        -2.73330
| 92>    H       -0.93519        -3.29429        -4.43218
| 93>    H        1.06339        -5.04232        -7.71498
| 94>    H        3.88754        -5.33037        -6.02333
| 95>    H       -2.36148        -3.76408        -6.59085
| 96>    H       -0.82225        -5.09857        -8.87387
| 97>    H       -1.90907        -4.43877       -10.91164
| 98>    H       -7.27392        -4.33432       -13.96923
| 99>    H       -5.68859        -4.34452       -14.79973
|100>    H       -6.98334        -1.90834       -13.46944
|101>    H       -6.88959        -2.19596       -15.21128
|102>    H       -5.41023        -1.92361       -14.28299
|103>    H       -6.33363        -4.93732        -8.72016
|104>    H       -5.31374        -5.09785        -6.59511
|105>    H       -2.66325        -6.60215        -6.80329
|106>    H       -6.73941        -4.84270        -2.60666
|107>    H       -4.02181        -7.61358        -0.24799
|108>    H       -1.13661        -8.42198        -4.09427
|109>    H       -2.65225        -8.76822        -6.73672
|110>    H       -0.99534        -9.41046        -6.29630
|111> *
|112>
|113>                          ****END OF INPUT****

CARTESIAN COORDINATES (ANGSTROEM)
---------------------------------
  C      1.987710   -8.304450   -2.539200
  C      2.724130   -7.723720   -1.575830
  O      2.220910   -7.452630   -0.312120
  C      0.920700   -7.838830   -0.140100
  C      0.154450   -8.451490   -1.178070
  C     -1.110230   -8.751260   -0.796990
  S     -1.395210   -8.283740    0.837460
  C      0.214250   -7.684740    1.005410
  O      0.681070   -8.695250   -2.419460
  C      4.072630   -7.282490   -1.816210
  C      4.817840   -6.607090   -0.929350
  C      6.158880   -6.100810   -1.198120
  C      7.121190   -6.249780   -0.191850
  C      8.423760   -5.889160   -0.451350
  C      8.792950   -5.387270   -1.704930
  C     10.249350   -5.118740   -1.681170
  O     10.967970   -4.692320   -2.550190
  N     10.667260   -5.477030   -0.407590
  C      9.635220   -5.944680    0.396220
  O      9.762460   -6.313040    1.537100
  C     12.031030   -5.330830    0.052970
  C     12.249360   -3.971280    0.707860
  C      7.857970   -5.201800   -2.695590
  C      6.517630   -5.520970   -2.437450
  C      5.526500   -5.207190   -3.454240
  C      4.326170   -4.666740   -3.176500
  C      3.255700   -4.475840   -4.095000
  N      2.062910   -3.933320   -3.660190
  C      1.163520   -3.990750   -4.675840
  C     -0.158510   -3.728200   -5.029420
  C     -0.301630   -4.168590   -6.346490
  N      0.901510   -4.675110   -6.794400
  C      1.811030   -4.577400   -5.789180
  C      3.123690   -4.875960   -5.425800
  C     -1.509230   -4.193540   -7.097640
  C     -1.678470   -4.735090   -8.319390
  C     -2.935840   -4.777190   -9.043550
  C     -2.867650   -4.556130  -10.428430
  C     -4.027230   -4.445980  -11.156330
  C     -5.276450   -4.552670  -10.532530
  C     -6.320840   -4.355660  -11.560810
  O     -7.521880   -4.368830  -11.455080
  N     -5.630980   -4.149320  -12.749320
  C     -4.252380   -4.187200  -12.595650
  O     -3.452820   -4.042530  -13.487010
  C     -6.283070   -3.875800  -14.011390
  C     -6.399070   -2.375730  -14.258880
  C     -5.367440   -4.819190   -9.187220
  C     -4.196230   -4.975810   -8.428690
  C     -4.381660   -5.401810   -7.052750
  C     -3.569930   -6.223030   -6.362590
  C     -3.801690   -6.590020   -4.994370
  C     -3.018830   -7.457210   -4.296850
  O     -3.153990   -7.663600   -2.933110
  C     -4.170110   -6.977920   -2.335360
  C     -5.021080   -6.106630   -3.075310
  C     -5.977140   -5.530660   -2.306930
  S     -5.851730   -6.041920   -0.663220
  C     -4.495740   -7.045620   -1.021290
  O     -4.848390   -5.889770   -4.409300
  C     -1.921520   -8.251380   -4.820340
  C     -1.855820   -8.828290   -6.015540
  H      2.379340   -8.502900   -3.521160
  H     -1.885970   -9.197720   -1.382550
  H      0.541700   -7.260200    1.931060
  H      4.448780   -7.492720   -2.805740
  H      4.442500   -6.468360    0.075760
  H      6.848750   -6.669750    0.764620
  H     12.682060   -5.443900   -0.817280
  H     12.223720   -6.132890    0.769700
  H     12.038340   -3.174770   -0.002120
  H     13.280550   -3.882240    1.037630
  H     11.594730   -3.860970    1.569360
  H      8.143130   -4.786060   -3.650150
  H      5.812590   -5.391330   -4.480030
  H      4.106180   -4.397610   -2.150450
  H      1.905040   -3.577390   -2.733300
  H     -0.935190   -3.294290   -4.432180
  H      1.063390   -5.042320   -7.714980
  H      3.887540   -5.330370   -6.023330
  H     -2.361480   -3.764080   -6.590850
  H     -0.822250   -5.098570   -8.873870
  H     -1.909070   -4.438770  -10.911640
  H     -7.273920   -4.334320  -13.969230
  H     -5.688590   -4.344520  -14.799730
  H     -6.983340   -1.908340  -13.469440
  H     -6.889590   -2.195960  -15.211280
  H     -5.410230   -1.923610  -14.282990
  H     -6.333630   -4.937320   -8.720160
  H     -5.313740   -5.097850   -6.595110
  H     -2.663250   -6.602150   -6.803290
  H     -6.739410   -4.842700   -2.606660
  H     -4.021810   -7.613580   -0.247990
  H     -1.136610   -8.421980   -4.094270
  H     -2.652250   -8.768220   -6.736720
  H     -0.995340   -9.410460   -6.296300

 Total Charge           Charge          ....    0
 Multiplicity           Mult            ....    1
 Number of Electrons    NEL             ....  446
 Basis Dimension        Dim             .... 1046

ORBITAL ENERGIES
----------------

  NO   OCC          E(Eh)            E(eV)
   0   2.0000     -88.961725     -2420.7716
   1   2.0000     -88.956410     -2420.6270
   2   2.0000     -19.280776      -524.6566
   3   2.0000     -19.274421      -524.4837
   4   2.0000     -19.274336      -524.4814
   5   2.0000     -19.270643      -524.3809
   6   2.0000     -19.203318      -522.5488
   7   2.0000     -19.203288      -522.5480
   8   2.0000     -19.201616      -522.5025
   9   2.0000     -19.201125      -522.4892
  10   2.0000     -14.457551      -393.4100
  11   2.0000     -14.454875      -393.3371
  12   2.0000     -14.444357      -393.0509
  13   2.0000     -14.442440      -392.9988
  14   2.0000     -10.383063      -282.5375
  15   2.0000     -10.382958      -282.5347
  16   2.0000     -10.381204      -282.4869
  17   2.0000     -10.380994      -282.4812
  18   2.0000     -10.343901      -281.4718
  19   2.0000     -10.342985      -281.4469
  20   2.0000     -10.342585      -281.4360
  21   2.0000     -10.341837      -281.4157
  22   2.0000     -10.340828      -281.3882
  23   2.0000     -10.339647      -281.3561
  24   2.0000     -10.339386      -281.3490
  25   2.0000     -10.339091      -281.3410
  26   2.0000     -10.304138      -280.3899
  27   2.0000     -10.302086      -280.3340
  28   2.0000     -10.299288      -280.2579
  29   2.0000     -10.297687      -280.2143
  30   2.0000     -10.296194      -280.1737
  31   2.0000     -10.295450      -280.1534
  32   2.0000     -10.295367      -280.1512
  33   2.0000     -10.294930      -280.1393
  34   2.0000     -10.294288      -280.1218
  35   2.0000     -10.293447      -280.0989
  36   2.0000     -10.292733      -280.0795
  37   2.0000     -10.292522      -280.0738
  38   2.0000     -10.292057      -280.0611
  39   2.0000     -10.289528      -279.9923
  40   2.0000     -10.288594      -279.9669
  41   2.0000     -10.287944      -279.9492
  42   2.0000     -10.285913      -279.8939
  43   2.0000     -10.285763      -279.8898
  44   2.0000     -10.285677      -279.8875
  45   2.0000     -10.284947      -279.8676
  46   2.0000     -10.284580      -279.8576
  47   2.0000     -10.282968      -279.8138
  48   2.0000     -10.282959      -279.8135
  49   2.0000     -10.282675      -279.8058
  50   2.0000     -10.281889      -279.7844
  51   2.0000     -10.280294      -279.7410
  52   2.0000     -10.277694      -279.6703
  53   2.0000     -10.277414      -279.6626
  54   2.0000     -10.275136      -279.6007
  55   2.0000     -10.273876      -279.5664
  56   2.0000     -10.273301      -279.5507
  57   2.0000     -10.272887      -279.5395
  58   2.0000     -10.264429      -279.3093
  59   2.0000     -10.263541      -279.2852
  60   2.0000     -10.253695      -279.0172
  61   2.0000     -10.252177      -278.9759
  62   2.0000      -8.057152      -219.2462
  63   2.0000      -8.052196      -219.1114
  64   2.0000      -6.026644      -163.9933
  65   2.0000      -6.022531      -163.8814
  66   2.0000      -6.021729      -163.8596
  67   2.0000      -6.018887      -163.7822
  68   2.0000      -6.017535      -163.7455
  69   2.0000      -6.013843      -163.6450
  70   2.0000      -1.201475       -32.6938
  71   2.0000      -1.197344       -32.5814
  72   2.0000      -1.164589       -31.6901
  73   2.0000      -1.160116       -31.5684
  74   2.0000      -1.148975       -31.2652
  75   2.0000      -1.146932       -31.2096
  76   2.0000      -1.125336       -30.6220
  77   2.0000      -1.123248       -30.5651
  78   2.0000      -1.088208       -29.6116
  79   2.0000      -1.051779       -28.6204
  80   2.0000      -1.039843       -28.2956
  81   2.0000      -1.037816       -28.2404
  82   2.0000      -0.987540       -26.8723
  83   2.0000      -0.984869       -26.7996
  84   2.0000      -0.974449       -26.5161
  85   2.0000      -0.971479       -26.4353
  86   2.0000      -0.922212       -25.0947
  87   2.0000      -0.922088       -25.0913
  88   2.0000      -0.909559       -24.7504
  89   2.0000      -0.903803       -24.5937
  90   2.0000      -0.890294       -24.2261
  91   2.0000      -0.885670       -24.1003
  92   2.0000      -0.875405       -23.8210
  93   2.0000      -0.868122       -23.6228
  94   2.0000      -0.861652       -23.4467
  95   2.0000      -0.859159       -23.3789
  96   2.0000      -0.850735       -23.1497
  97   2.0000      -0.843672       -22.9575
  98   2.0000      -0.836137       -22.7525
  99   2.0000      -0.830658       -22.6033
 100   2.0000      -0.827506       -22.5176
 101   2.0000      -0.819857       -22.3094
 102   2.0000      -0.814514       -22.1640
 103   2.0000      -0.808187       -21.9919
 104   2.0000      -0.800061       -21.7708
 105   2.0000      -0.784862       -21.3572
 106   2.0000      -0.762154       -20.7393
 107   2.0000      -0.756085       -20.5741
 108   2.0000      -0.754290       -20.5253
 109   2.0000      -0.738124       -20.0854
 110   2.0000      -0.732748       -19.9391
 111   2.0000      -0.728105       -19.8127
 112   2.0000      -0.718568       -19.5532
 113   2.0000      -0.707000       -19.2384
 114   2.0000      -0.699111       -19.0238
 115   2.0000      -0.692255       -18.8372
 116   2.0000      -0.691968       -18.8294
 117   2.0000      -0.689240       -18.7552
 118   2.0000      -0.688537       -18.7361
 119   2.0000      -0.685453       -18.6521
 120   2.0000      -0.682019       -18.5587
 121   2.0000      -0.679204       -18.4821
 122   2.0000      -0.675070       -18.3696
 123   2.0000      -0.666163       -18.1272
 124   2.0000      -0.655586       -17.8394
 125   2.0000      -0.650216       -17.6933
 126   2.0000      -0.647859       -17.6291
 127   2.0000      -0.639037       -17.3891
 128   2.0000      -0.625892       -17.0314
 129   2.0000      -0.620096       -16.8737
 130   2.0000      -0.612813       -16.6755
 131   2.0000      -0.598133       -16.2760
 132   2.0000      -0.594051       -16.1649
 133   2.0000      -0.591588       -16.0979
 134   2.0000      -0.588416       -16.0116
 135   2.0000      -0.582909       -15.8618
 136   2.0000      -0.579055       -15.7569
 137   2.0000      -0.576905       -15.6984
 138   2.0000      -0.572220       -15.5709
 139   2.0000      -0.566998       -15.4288
 140   2.0000      -0.565260       -15.3815
 141   2.0000      -0.561626       -15.2826
 142   2.0000      -0.560774       -15.2594
 143   2.0000      -0.556989       -15.1564
 144   2.0000      -0.551839       -15.0163
 145   2.0000      -0.547812       -14.9067
 146   2.0000      -0.546597       -14.8737
 147   2.0000      -0.544064       -14.8047
 148   2.0000      -0.536665       -14.6034
 149   2.0000      -0.535396       -14.5689
 150   2.0000      -0.533145       -14.5076
 151   2.0000      -0.531285       -14.4570
 152   2.0000      -0.529135       -14.3985
 153   2.0000      -0.525029       -14.2868
 154   2.0000      -0.523440       -14.2435
 155   2.0000      -0.522113       -14.2074
 156   2.0000      -0.519601       -14.1391
 157   2.0000      -0.519291       -14.1306
 158   2.0000      -0.515470       -14.0267
 159   2.0000      -0.514895       -14.0110
 160   2.0000      -0.511802       -13.9268
 161   2.0000      -0.509323       -13.8594
 162   2.0000      -0.507493       -13.8096
 163   2.0000      -0.503093       -13.6899
 164   2.0000      -0.502268       -13.6674
 165   2.0000      -0.500291       -13.6136
 166   2.0000      -0.498960       -13.5774
 167   2.0000      -0.498553       -13.5663
 168   2.0000      -0.494482       -13.4555
 169   2.0000      -0.486250       -13.2315
 170   2.0000      -0.482551       -13.1309
 171   2.0000      -0.480002       -13.0615
 172   2.0000      -0.476675       -12.9710
 173   2.0000      -0.475914       -12.9503
 174   2.0000      -0.473191       -12.8762
 175   2.0000      -0.472531       -12.8582
 176   2.0000      -0.472254       -12.8507
 177   2.0000      -0.470605       -12.8058
 178   2.0000      -0.468519       -12.7490
 179   2.0000      -0.466581       -12.6963
 180   2.0000      -0.462140       -12.5755
 181   2.0000      -0.461165       -12.5489
 182   2.0000      -0.457888       -12.4598
 183   2.0000      -0.451612       -12.2890
 184   2.0000      -0.450619       -12.2620
 185   2.0000      -0.449778       -12.2391
 186   2.0000      -0.445929       -12.1343
 187   2.0000      -0.442999       -12.0546
 188   2.0000      -0.442406       -12.0385
 189   2.0000      -0.441756       -12.0208
 190   2.0000      -0.439874       -11.9696
 191   2.0000      -0.435768       -11.8578
 192   2.0000      -0.434439       -11.8217
 193   2.0000      -0.433712       -11.8019
 194   2.0000      -0.430775       -11.7220
 195   2.0000      -0.422763       -11.5040
 196   2.0000      -0.420314       -11.4373
 197   2.0000      -0.418769       -11.3953
 198   2.0000      -0.412849       -11.2342
 199   2.0000      -0.399675       -10.8757
 200   2.0000      -0.392272       -10.6743
 201   2.0000      -0.382601       -10.4111
 202   2.0000      -0.377153       -10.2629
 203   2.0000      -0.370727       -10.0880
 204   2.0000      -0.357344        -9.7238
 205   2.0000      -0.355170        -9.6647
 206   2.0000      -0.350809        -9.5460
 207   2.0000      -0.347959        -9.4684
 208   2.0000      -0.338748        -9.2178
 209   2.0000      -0.336335        -9.1521
 210   2.0000      -0.335154        -9.1200
 211   2.0000      -0.333500        -9.0750
 212   2.0000      -0.331938        -9.0325
 213   2.0000      -0.327373        -8.9083
 214   2.0000      -0.314801        -8.5662
 215   2.0000      -0.307541        -8.3686
 216   2.0000      -0.303582        -8.2609
 217   2.0000      -0.296610        -8.0712
 218   2.0000      -0.288248        -7.8436
 219   2.0000      -0.284300        -7.7362
 220   2.0000      -0.259212        -7.0535
 221   2.0000      -0.249274        -6.7831
 222   2.0000      -0.221880        -6.0377
 223   0.0000      -0.061444        -1.6720
 224   0.0000      -0.050354        -1.3702
 225   0.0000      -0.021848        -0.5945
 226   0.0000      -0.013301        -0.3619
 227   0.0000      -0.005240        -0.1426

MULLIKEN ATOMIC CHARGES
-----------------------
   0 C :    0.104026
   1 C :    0.160826
   2 O :   -0.265431
   3 C :    0.235820
   4 C :    0.198272
   5 C :   -0.151975
   6 S :    0.094873
   7 C :   -0.174965
   8 O :   -0.250648
   9 C :    0.036507
  10 C :   -0.068731
  11 C :    0.080305
  12 C :   -0.081138
  13 C :    0.011778
  14 C :    0.013947
  15 C :    0.186891
  16 O :   -0.161889
  17 N :   -0.303202
  18 C :    0.185184
  19 O :   -0.161070
  20 C :    0.133066
  21 C :   -0.008815
  22 C :   -0.084616
  23 C :    0.082126
  24 C :   -0.095939
  25 C :    0.075820
  26 C :    0.076414
  27 N :   -0.027630
  28 C :    0.110953
  29 C :   -0.165836
  30 C :    0.049246
  31 N :   -0.033051
  32 C :    0.109743
  33 C :   -0.179527
  34 C :    0.096510
  35 C :   -0.092092
  36 C :    0.084817
  37 C :   -0.094976
  38 C :    0.017367
  39 C :    0.013359
  40 C :    0.187623
  41 O :   -0.163136
  42 N :   -0.304996
  43 C :    0.185761
  44 O :   -0.164387
  45 C :    0.137135
  46 C :   -0.008659
  47 C :   -0.092394
  48 C :    0.092972
  49 C :   -0.051608
  50 C :   -0.027291
  51 C :    0.150194
  52 C :    0.138592
  53 O :   -0.263816
  54 C :    0.227707
  55 C :    0.229021
  56 C :   -0.180285
  57 S :    0.107014
  58 C :   -0.177373
  59 O :   -0.265042
  60 C :   -0.044890
  61 C :   -0.017064
  62 H :    0.014667
  63 H :    0.033938
  64 H :    0.023544
  65 H :    0.002599
  66 H :    0.011909
  67 H :   -0.012590
  68 H :    0.030798
  69 H :    0.029727
  70 H :    0.024819
  71 H :    0.020380
  72 H :    0.027171
  73 H :   -0.013520
  74 H :   -0.002513
  75 H :   -0.016209
  76 H :    0.121501
  77 H :   -0.034095
  78 H :    0.121387
  79 H :   -0.040508
  80 H :   -0.003001
  81 H :   -0.031838
  82 H :   -0.018362
  83 H :    0.029821
  84 H :    0.026995
  85 H :    0.023947
  86 H :    0.018872
  87 H :    0.028291
  88 H :   -0.012203
  89 H :    0.005203
  90 H :    0.019249
  91 H :    0.024050
  92 H :    0.010242
  93 H :    0.021837
  94 H :    0.035857
  95 H :    0.026642
Sum of atomic charges:   -0.0000000

LOEWDIN ATOMIC CHARGES
----------------------
   0 C :    0.026018
   1 C :    0.010684
   2 O :   -0.067935
   3 C :   -0.002267
   4 C :   -0.009365
   5 C :   -0.198696
   6 S :    0.435145
   7 C :   -0.212472
   8 O :   -0.053783
   9 C :   -0.013524
  10 C :   -0.032123
  11 C :   -0.010600
  12 C :    0.016715
  13 C :   -0.056854
  14 C :   -0.053442
  15 C :    0.087782
  16 O :   -0.163040
  17 N :   -0.038147
  18 C :    0.088111
  19 O :   -0.162986
  20 C :    0.043683
  21 C :   -0.060332
  22 C :    0.013996
  23 C :   -0.005157
  24 C :   -0.045516
  25 C :   -0.010755
  26 C :   -0.008079
  27 N :    0.074276
  28 C :   -0.029098
  29 C :   -0.084005
  30 C :   -0.008223
  31 N :    0.066644
  32 C :   -0.017562
  33 C :   -0.097624
  34 C :   -0.002068
  35 C :   -0.065323
  36 C :   -0.002920
  37 C :    0.011293
  38 C :   -0.054700
  39 C :   -0.059173
  40 C :    0.088572
  41 O :   -0.163675
  42 N :   -0.038557
  43 C :    0.087863
  44 O :   -0.165369
  45 C :    0.043846
  46 C :   -0.060298
  47 C :    0.017538
  48 C :   -0.010077
  49 C :   -0.029849
  50 C :   -0.021256
  51 C :    0.023289
  52 C :    0.023116
  53 O :   -0.055309
  54 C :   -0.008203
  55 C :   -0.006277
  56 C :   -0.212040
  57 S :    0.433303
  58 C :   -0.212663
  59 O :   -0.061317
  60 C :   -0.028814
  61 C :   -0.031630
  62 H :    0.034326
  63 H :    0.027010
  64 H :    0.028722
  65 H :    0.036663
  66 H :    0.031690
  67 H :    0.038015
  68 H :    0.031618
  69 H :    0.031375
  70 H :    0.027531
  71 H :    0.029234
  72 H :    0.027906
  73 H :    0.037559
  74 H :    0.027239
  75 H :    0.029380
  76 H :    0.089412
  77 H :    0.025750
  78 H :    0.086132
  79 H :    0.021638
  80 H :    0.039393
  81 H :    0.017367
  82 H :    0.035168
  83 H :    0.031452
  84 H :    0.030620
  85 H :    0.027258
  86 H :    0.028813
  87 H :    0.028077
  88 H :    0.037596
  89 H :    0.030713
  90 H :    0.036502
  91 H :    0.028744
  92 H :    0.016730
  93 H :    0.036048
  94 H :    0.025754
  95 H :    0.027791

  Mayer bond orders larger than 0.100000
B(  0-C ,  1-C ) :   1.6611 B(  0-C ,  8-O ) :   1.0390 B(  0-C , 10-C ) :   0.1028
B(  0-C , 62-H ) :   0.9819 B(  1-C ,  2-O ) :   1.0475 B(  1-C ,  9-C ) :   1.1315
B(  2-O ,  3-C ) :   1.0560 B(  3-C ,  4-C ) :   1.1983 B(  3-C ,  7-C ) :   1.5841
B(  4-C ,  5-C ) :   1.5968 B(  4-C ,  8-O ) :   1.0275 B(  5-C ,  6-S ) :   1.1394
B(  5-C , 63-H ) :   0.9615 B(  6-S ,  7-C ) :   1.1363 B(  7-C , 64-H ) :   0.9725
B(  9-C , 10-C ) :   1.7752 B(  9-C , 65-H ) :   0.9549 B( 10-C , 11-C ) :   1.0027
B( 10-C , 66-H ) :   0.9599 B( 11-C , 12-C ) :   1.3172 B( 11-C , 23-C ) :   1.3637
B( 12-C , 13-C ) :   1.3842 B( 12-C , 67-H ) :   1.0146 B( 13-C , 14-C ) :   1.3528
B( 13-C , 18-C ) :   0.8825 B( 14-C , 15-C ) :   0.8781 B( 14-C , 22-C ) :   1.3906
B( 15-C , 16-O ) :   2.2251 B( 15-C , 17-N ) :   1.0637 B( 17-N , 18-C ) :   1.0592
B( 17-N , 20-C ) :   0.9212 B( 18-C , 19-O ) :   2.2263 B( 20-C , 21-C ) :   1.1243
B( 20-C , 68-H ) :   0.9420 B( 20-C , 69-H ) :   0.9430 B( 21-C , 70-H ) :   0.9696
B( 21-C , 71-H ) :   0.9702 B( 21-C , 72-H ) :   0.9696 B( 22-C , 23-C ) :   1.3077
B( 22-C , 73-H ) :   1.0148 B( 23-C , 24-C ) :   1.0237 B( 24-C , 25-C ) :   1.7644
B( 24-C , 74-H ) :   0.9624 B( 25-C , 26-C ) :   1.1154 B( 25-C , 75-H ) :   0.9514
B( 26-C , 27-N ) :   1.1782 B( 26-C , 33-C ) :   1.4166 B( 27-N , 28-C ) :   1.1681
B( 27-N , 76-H ) :   0.9363 B( 28-C , 29-C ) :   1.2319 B( 28-C , 32-C ) :   1.3253
B( 29-C , 30-C ) :   1.3786 B( 29-C , 77-H ) :   1.0409 B( 30-C , 31-N ) :   1.1954
B( 30-C , 34-C ) :   1.1699 B( 31-N , 32-C ) :   1.1654 B( 31-N , 78-H ) :   0.9331
B( 32-C , 33-C ) :   1.2524 B( 33-C , 79-H ) :   1.0318 B( 34-C , 35-C ) :   1.6917
B( 34-C , 80-H ) :   0.9431 B( 35-C , 36-C ) :   1.0521 B( 35-C , 81-H ) :   0.9628
B( 36-C , 37-C ) :   1.3023 B( 36-C , 48-C ) :   1.3450 B( 37-C , 38-C ) :   1.3925
B( 37-C , 82-H ) :   1.0133 B( 38-C , 39-C ) :   1.3489 B( 38-C , 43-C ) :   0.8800
B( 39-C , 40-C ) :   0.8822 B( 39-C , 47-C ) :   1.3837 B( 40-C , 41-O ) :   2.2251
B( 40-C , 42-N ) :   1.0576 B( 42-N , 43-C ) :   1.0637 B( 42-N , 45-C ) :   0.9227
B( 43-C , 44-O ) :   2.2225 B( 45-C , 46-C ) :   1.1226 B( 45-C , 83-H ) :   0.9414
B( 45-C , 84-H ) :   0.9437 B( 46-C , 85-H ) :   0.9693 B( 46-C , 86-H ) :   0.9705
B( 46-C , 87-H ) :   0.9698 B( 47-C , 48-C ) :   1.3046 B( 47-C , 88-H ) :   1.0144
B( 48-C , 49-C ) :   1.0211 B( 49-C , 50-C ) :   1.7412 B( 49-C , 89-H ) :   0.9681
B( 50-C , 51-C ) :   1.1663 B( 50-C , 90-H ) :   0.9367 B( 51-C , 52-C ) :   1.5615
B( 51-C , 59-O ) :   1.0526 B( 52-C , 53-O ) :   1.0296 B( 52-C , 60-C ) :   1.0723
B( 53-O , 54-C ) :   1.0384 B( 54-C , 55-C ) :   1.2064 B( 54-C , 58-C ) :   1.5656
B( 55-C , 56-C ) :   1.5735 B( 55-C , 59-O ) :   1.0564 B( 56-C , 57-S ) :   1.1387
B( 56-C , 91-H ) :   0.9738 B( 57-S , 58-C ) :   1.1431 B( 58-C , 92-H ) :   0.9729
B( 60-C , 61-C ) :   1.9520 B( 60-C , 93-H ) :   0.9385 B( 61-C , 94-H ) :   0.9592
B( 61-C , 95-H ) :   0.9487

-----------------------------------------------------------------------------
         ABSORPTION SPECTRUM VIA TRANSITION ELECTRIC DIPOLE MOMENTS
-----------------------------------------------------------------------------
State   Energy  Wavelength   fosc         T2         TX        TY        TZ
        (cm-1)    (nm)                  (au**2)     (au)      (au)      (au)
-----------------------------------------------------------------------------
   0   19123.2    522.9   0.577387004   9.93989  -2.73327  -0.08715  -1.56893
   1   22068.6    453.1   0.166834352   2.48878  -0.08106   1.12035  -1.10772
   2   25115.3    398.2   0.178256244   2.33659  -0.35856   0.74703  -1.28451
   3   27055.1    369.6   0.045633517   0.55528  -0.04856  -0.51537   0.53602
   4   28231.1    354.2   1.563272965  18.22983   3.38106  -0.28945   2.59124
   5   30037.3    332.9   0.093681759   1.02676   0.93506   0.38556  -0.06145
   6   30946.8    323.1   0.023585455   0.25090   0.02285  -0.29162   0.40662
   7   31676.3    315.7   0.077570410   0.80619  -0.74666  -0.42146  -0.26657
   8   32389.0    308.7   0.004761110   0.04839   0.09331   0.03490  -0.19614
   9   32940.9    303.6   0.000683816   0.00683   0.01578  -0.05613  -0.05860
  10   33053.4    302.5   0.095960652   0.95577  -0.54679  -0.06575   0.80775
  11   33504.1    298.5   0.029291049   0.28781  -0.18306   0.37482  -0.33736
  12   34210.3    292.3   0.066240330   0.63744  -0.34731   0.69653  -0.17792
  13   34800.8    287.3   0.041150716   0.38928  -0.18224   0.46436  -0.37475
  14   35545.8    281.3   0.005486206   0.05081  -0.05241  -0.20654   0.07351
  15   36178.0    276.4   0.216169729   1.96710   1.26741   0.35899   0.48157
  16   36562.8    273.5   0.008207630   0.07390  -0.25677   0.07442  -0.04931
  17   37320.5    267.9   0.035773681   0.31557   0.42126  -0.36773  -0.05367
  18   37612.9    265.9   0.102637044   0.89834  -0.23820   0.04972  -0.91604
  19   37710.1    265.2   0.014019283   0.12239  -0.14505  -0.12647   0.29216
  20   38089.6    262.5   0.005096574   0.04405  -0.13136   0.11539  -0.11610
  21   38707.4    258.3   0.005236145   0.04453   0.01313   0.01109  -0.21033
  22   38718.6    258.3   0.098209577   0.83504  -0.70346  -0.05393   0.58076
  23   39097.2    255.8   0.263843855   2.22166  -0.96855   0.27506  -1.09905
  24   39347.4    254.1   0.109340145   0.91483  -0.76022  -0.58035   0.00932
  25   39906.6    250.6   0.004210231   0.03473  -0.04111  -0.04962   0.17487
  26   40285.4    248.2   0.008505403   0.06951   0.11431  -0.01106   0.23731

FINAL SINGLE POINT ENERGY     -3463.159975071984

DIPOLE MOMENT
-------------
                                X             Y             Z
Electronic contribution:    -19.72759     -12.52322      24.18089
Nuclear contribution   :     19.47811      12.31552     -23.40670
                        -----------------------------------------
Total Dipole Moment    :     -0.24948      -0.20771       0.77420
                        -----------------------------------------
Magnitude (a.u.)       :      0.83950
Magnitude (Debye)      :      2.13384

Rotational constants in cm-1:     0.001692     0.000478     0.000388
Rotational constants in MHz :    50.710138    14.327574    11.623242

                             ****ORCA TERMINATED NORMALLY****
TOTAL RUN TIME: 0 days 0 hours 7 minutes 59 seconds 400 msec
