                         Program Version 4.2.0 -  RELEASE  -
|  1> # ORCA input file
|  2> # SCF done       -198.950862975830          0.000199571114
|  3> ! CAM-B3LYP def2-SVP def2/J RIJCOSX Grid4 TightSCF
|  4> %maxcore 5000
|  5> %tddft
|  6>     Mode sTDDFT
|  7>     Ethresh 5.0
|  8>     maxcore 5000
|  9> end
| 10>
| 11> %pal
| 12>   nprocs 6
| 13>   end
| 14> * xyz 0 1
| 15>    C        2.91475         2.26325        -0.16534
| 16>    C        4.26928         2.14466        -0.44001
| 17>    C        4.82289         0.92542        -0.80294
| 18>    C        4.03499        -0.21097        -0.91022
| 19>    C        2.68147        -0.10448        -0.63805
| 20>    C        2.11615         1.13439        -0.25863
| 21>    C        0.69016         0.94911        -0.01534
| 22>    C       -0.20845         1.93863         0.28565
| 23>    C        0.12496         3.30568         0.39058
| 24>    N        0.32407         4.43169         0.49157
| 25>    C       -1.59073         1.75394         0.49916
| 26>    N       -2.72225         1.68824         0.68347
| 27>    C        0.42690        -0.47798        -0.12990
| 28>    C        1.61520        -1.09164        -0.70076
| 29>    C        1.64946        -2.26788        -1.40464
| 30>    C        0.50496        -3.01998        -1.74722
| 31>    N       -0.39036        -3.62016        -2.14256
| 32>    C        2.82097        -2.80569        -1.97503
| 33>    N        3.74886        -3.29767        -2.43840
| 34>    C       -0.70438        -1.12166         0.30472
| 35>    C       -0.82667        -2.49179         0.61527
| 36>    C       -2.01767        -3.19542         0.65445
| 37>    C       -1.74451        -4.55231         0.97468
| 38>    C       -0.30607        -4.60729         1.21534
| 39>    C        0.25341        -3.40535         0.99553
| 40>    F        0.33478        -5.71065         1.61827
| 41>    C       -2.62228        -5.61868         0.99418
| 42>    C       -2.34058        -6.98641         1.21057
| 43>    C       -3.50364        -7.72528         1.05356
| 44>    C       -4.59485        -6.79201         0.74848
| 45>    C       -4.06595        -5.56118         0.72190
| 46>    F       -4.72720        -4.42420         0.49174
| 47>    C       -3.59786        -9.12428         1.14506
| 48>    C       -4.72624        -9.85158         0.88405
| 49>    C       -4.81389       -11.25422         0.94547
| 50>    N       -5.97740       -11.91056         0.59169
| 51>    C       -5.78404       -13.24659         0.72745
| 52>    C       -6.38376       -14.48387         0.58172
| 53>    C       -5.41786       -15.43550         0.96956
| 54>    N       -4.26064       -14.77917         1.34253
| 55>    C       -4.45030       -13.44268         1.19873
| 56>    C       -3.84657       -12.20590         1.33137
| 57>    C       -5.50804       -16.83937         1.01868
| 58>    C       -6.59521       -17.56322         0.61510
| 59>    C       -6.70610       -18.96331         0.67368
| 60>    C       -7.79341       -19.69885         0.22745
| 61>    C       -7.55961       -21.07302         0.46399
| 62>    C       -6.23601       -21.13233         1.09791
| 63>    C       -5.72021       -19.90122         1.22137
| 64>    F       -5.65460       -22.27322         1.48520
| 65>    C       -8.37940       -22.14738         0.17566
| 66>    C       -8.15923       -23.52271         0.44646
| 67>    C       -9.24566       -24.25518        -0.00490
| 68>    C      -10.20719       -23.32429        -0.59663
| 69>    C       -9.68623       -22.09266        -0.48069
| 70>    F      -10.25231       -20.95226        -0.89524
| 71>    C       -9.37259       -25.65341         0.08808
| 72>    C      -10.46576       -26.37089        -0.31127
| 73>    C      -10.63671       -27.76314        -0.16599
| 74>    C       -9.68763       -28.74538        -0.02261
| 75>    C       -9.94919       -30.04882         0.57573
| 76>    C      -11.16615       -30.63813         0.79832
| 77>    C      -12.42331       -30.10628         0.44150
| 78>    N      -13.48468       -29.75155         0.18278
| 79>    C      -11.33214       -31.90857         1.39008
| 80>    N      -11.54457       -32.93285         1.86280
| 81>    C       -8.65354       -30.62612         0.91261
| 82>    C       -7.63600       -29.79378         0.39521
| 83>    C       -6.30078       -30.09988         0.59824
| 84>    C       -5.98599       -31.24370         1.31666
| 85>    C       -6.98332       -32.06837         1.81671
| 86>    C       -8.32387       -31.77037         1.62162
| 87>    C       -8.26330       -28.69388        -0.32302
| 88>    C       -7.65964       -27.94244        -1.29698
| 89>    C       -6.28716       -28.01966        -1.61048
| 90>    N       -5.17618       -28.02948        -1.89901
| 91>    C       -8.34222       -27.06320        -2.16267
| 92>    N       -8.84472       -26.37018        -2.92698
| 93>    H        2.50437         3.21849         0.11745
| 94>    H        4.90045         3.01704        -0.36656
| 95>    H        5.88084         0.85708        -1.00514
| 96>    H        4.47596        -1.15445        -1.18869
| 97>    H       -1.58998        -0.52745         0.48715
| 98>    H       -2.98127        -2.79806         0.40223
| 99>    H        1.28226        -3.13851         1.14118
|100>    H       -1.37215        -7.38980         1.43207
|101>    H       -5.62233        -7.05156         0.58880
|102>    H       -2.69109        -9.64531         1.41878
|103>    H       -5.62628        -9.33122         0.58591
|104>    H       -6.81282       -11.45391         0.26765
|105>    H       -7.37792       -14.70212         0.25025
|106>    H       -3.41975       -15.23724         1.64990
|107>    H       -2.85212       -11.98629         1.66128
|108>    H       -4.64093       -17.36154         1.39974
|109>    H       -7.44941       -17.03875         0.21012
|110>    H       -8.67526       -19.29192        -0.22668
|111>    H       -4.77073       -19.64331         1.64646
|112>    H       -7.28827       -23.92673         0.92491
|113>    H      -11.14287       -23.58752        -1.04708
|114>    H       -8.54304       -26.16890         0.55743
|115>    H      -11.32889       -25.83013        -0.67204
|116>    H      -11.66898       -28.08038        -0.09028
|117>    H       -5.51744       -29.46233         0.22166
|118>    H       -4.94996       -31.49199         1.48912
|119>    H       -6.71560       -32.95481         2.37112
|120>    H       -9.08374       -32.41971         2.02369
|121> *
|122>
|123>                          ****END OF INPUT****

CARTESIAN COORDINATES (ANGSTROEM)
---------------------------------
  C      2.914750    2.263250   -0.165340
  C      4.269280    2.144660   -0.440010
  C      4.822890    0.925420   -0.802940
  C      4.034990   -0.210970   -0.910220
  C      2.681470   -0.104480   -0.638050
  C      2.116150    1.134390   -0.258630
  C      0.690160    0.949110   -0.015340
  C     -0.208450    1.938630    0.285650
  C      0.124960    3.305680    0.390580
  N      0.324070    4.431690    0.491570
  C     -1.590730    1.753940    0.499160
  N     -2.722250    1.688240    0.683470
  C      0.426900   -0.477980   -0.129900
  C      1.615200   -1.091640   -0.700760
  C      1.649460   -2.267880   -1.404640
  C      0.504960   -3.019980   -1.747220
  N     -0.390360   -3.620160   -2.142560
  C      2.820970   -2.805690   -1.975030
  N      3.748860   -3.297670   -2.438400
  C     -0.704380   -1.121660    0.304720
  C     -0.826670   -2.491790    0.615270
  C     -2.017670   -3.195420    0.654450
  C     -1.744510   -4.552310    0.974680
  C     -0.306070   -4.607290    1.215340
  C      0.253410   -3.405350    0.995530
  F      0.334780   -5.710650    1.618270
  C     -2.622280   -5.618680    0.994180
  C     -2.340580   -6.986410    1.210570
  C     -3.503640   -7.725280    1.053560
  C     -4.594850   -6.792010    0.748480
  C     -4.065950   -5.561180    0.721900
  F     -4.727200   -4.424200    0.491740
  C     -3.597860   -9.124280    1.145060
  C     -4.726240   -9.851580    0.884050
  C     -4.813890  -11.254220    0.945470
  N     -5.977400  -11.910560    0.591690
  C     -5.784040  -13.246590    0.727450
  C     -6.383760  -14.483870    0.581720
  C     -5.417860  -15.435500    0.969560
  N     -4.260640  -14.779170    1.342530
  C     -4.450300  -13.442680    1.198730
  C     -3.846570  -12.205900    1.331370
  C     -5.508040  -16.839370    1.018680
  C     -6.595210  -17.563220    0.615100
  C     -6.706100  -18.963310    0.673680
  C     -7.793410  -19.698850    0.227450
  C     -7.559610  -21.073020    0.463990
  C     -6.236010  -21.132330    1.097910
  C     -5.720210  -19.901220    1.221370
  F     -5.654600  -22.273220    1.485200
  C     -8.379400  -22.147380    0.175660
  C     -8.159230  -23.522710    0.446460
  C     -9.245660  -24.255180   -0.004900
  C    -10.207190  -23.324290   -0.596630
  C     -9.686230  -22.092660   -0.480690
  F    -10.252310  -20.952260   -0.895240
  C     -9.372590  -25.653410    0.088080
  C    -10.465760  -26.370890   -0.311270
  C    -10.636710  -27.763140   -0.165990
  C     -9.687630  -28.745380   -0.022610
  C     -9.949190  -30.048820    0.575730
  C    -11.166150  -30.638130    0.798320
  C    -12.423310  -30.106280    0.441500
  N    -13.484680  -29.751550    0.182780
  C    -11.332140  -31.908570    1.390080
  N    -11.544570  -32.932850    1.862800
  C     -8.653540  -30.626120    0.912610
  C     -7.636000  -29.793780    0.395210
  C     -6.300780  -30.099880    0.598240
  C     -5.985990  -31.243700    1.316660
  C     -6.983320  -32.068370    1.816710
  C     -8.323870  -31.770370    1.621620
  C     -8.263300  -28.693880   -0.323020
  C     -7.659640  -27.942440   -1.296980
  C     -6.287160  -28.019660   -1.610480
  N     -5.176180  -28.029480   -1.899010
  C     -8.342220  -27.063200   -2.162670
  N     -8.844720  -26.370180   -2.926980
  H      2.504370    3.218490    0.117450
  H      4.900450    3.017040   -0.366560
  H      5.880840    0.857080   -1.005140
  H      4.475960   -1.154450   -1.188690
  H     -1.589980   -0.527450    0.487150
  H     -2.981270   -2.798060    0.402230
  H      1.282260   -3.138510    1.141180
  H     -1.372150   -7.389800    1.432070
  H     -5.622330   -7.051560    0.588800
  H     -2.691090   -9.645310    1.418780
  H     -5.626280   -9.331220    0.585910
  H     -6.812820  -11.453910    0.267650
  H     -7.377920  -14.702120    0.250250
  H     -3.419750  -15.237240    1.649900
  H     -2.852120  -11.986290    1.661280
  H     -4.640930  -17.361540    1.399740
  H     -7.449410  -17.038750    0.210120
  H     -8.675260  -19.291920   -0.226680
  H     -4.770730  -19.643310    1.646460
  H     -7.288270  -23.926730    0.924910
  H    -11.142870  -23.587520   -1.047080
  H     -8.543040  -26.168900    0.557430
  H    -11.328890  -25.830130   -0.672040
  H    -11.668980  -28.080380   -0.090280
  H     -5.517440  -29.462330    0.221660
  H     -4.949960  -31.491990    1.489120
  H     -6.715600  -32.954810    2.371120
  H     -9.083740  -32.419710    2.023690

 Total Charge           Charge          ....    0
 Multiplicity           Mult            ....    1
 Number of Electrons    NEL             ....  518
 Basis Dimension        Dim             .... 1232

ORBITAL ENERGIES
----------------

  NO   OCC          E(Eh)            E(eV)
   0   2.0000     -24.803380      -674.9343
   1   2.0000     -24.802266      -674.9040
   2   2.0000     -24.793633      -674.6690
   3   2.0000     -24.793457      -674.6643
   4   2.0000     -14.485317      -394.1655
   5   2.0000     -14.485187      -394.1620
   6   2.0000     -14.420424      -392.3997
   7   2.0000     -14.420200      -392.3936
   8   2.0000     -14.419541      -392.3757
   9   2.0000     -14.419366      -392.3709
  10   2.0000     -14.418323      -392.3425
  11   2.0000     -14.417958      -392.3326
  12   2.0000     -14.417468      -392.3193
  13   2.0000     -14.413065      -392.1994
  14   2.0000     -10.370998      -282.2092
  15   2.0000     -10.370686      -282.2007
  16   2.0000     -10.359517      -281.8968
  17   2.0000     -10.359166      -281.8872
  18   2.0000     -10.348828      -281.6059
  19   2.0000     -10.348746      -281.6037
  20   2.0000     -10.348267      -281.5907
  21   2.0000     -10.347739      -281.5763
  22   2.0000     -10.346230      -281.5352
  23   2.0000     -10.345718      -281.5213
  24   2.0000     -10.345640      -281.5192
  25   2.0000     -10.342556      -281.4352
  26   2.0000     -10.336232      -281.2632
  27   2.0000     -10.335622      -281.2466
  28   2.0000     -10.325081      -280.9597
  29   2.0000     -10.324604      -280.9468
  30   2.0000     -10.322499      -280.8895
  31   2.0000     -10.322414      -280.8872
  32   2.0000     -10.322144      -280.8798
  33   2.0000     -10.321416      -280.8600
  34   2.0000     -10.321084      -280.8510
  35   2.0000     -10.320741      -280.8416
  36   2.0000     -10.320633      -280.8387
  37   2.0000     -10.320384      -280.8319
  38   2.0000     -10.319284      -280.8020
  39   2.0000     -10.319246      -280.8010
  40   2.0000     -10.318716      -280.7865
  41   2.0000     -10.316063      -280.7143
  42   2.0000     -10.315608      -280.7020
  43   2.0000     -10.314275      -280.6657
  44   2.0000     -10.313707      -280.6502
  45   2.0000     -10.312717      -280.6233
  46   2.0000     -10.311556      -280.5917
  47   2.0000     -10.311224      -280.5827
  48   2.0000     -10.310369      -280.5594
  49   2.0000     -10.310053      -280.5508
  50   2.0000     -10.309973      -280.5486
  51   2.0000     -10.309518      -280.5363
  52   2.0000     -10.307504      -280.4814
  53   2.0000     -10.307347      -280.4772
  54   2.0000     -10.306530      -280.4549
  55   2.0000     -10.300030      -280.2781
  56   2.0000     -10.299659      -280.2680
  57   2.0000     -10.299470      -280.2628
  58   2.0000     -10.299104      -280.2529
  59   2.0000     -10.299056      -280.2516
  60   2.0000     -10.298721      -280.2424
  61   2.0000     -10.298631      -280.2400
  62   2.0000     -10.298096      -280.2254
  63   2.0000     -10.298008      -280.2230
  64   2.0000     -10.297889      -280.2198
  65   2.0000     -10.296807      -280.1904
  66   2.0000     -10.296374      -280.1786
  67   2.0000     -10.296101      -280.1712
  68   2.0000     -10.293874      -280.1106
  69   2.0000     -10.292927      -280.0848
  70   2.0000     -10.289217      -279.9838
  71   2.0000     -10.287926      -279.9487
  72   2.0000     -10.286875      -279.9201
  73   2.0000     -10.284494      -279.8553
  74   2.0000     -10.278024      -279.6793
  75   2.0000     -10.277705      -279.6706
  76   2.0000     -10.272363      -279.5252
  77   2.0000     -10.270993      -279.4879
  78   2.0000      -1.315926       -35.8082
  79   2.0000      -1.315618       -35.7998
  80   2.0000      -1.306107       -35.5410
  81   2.0000      -1.305771       -35.5318
  82   2.0000      -1.118063       -30.4241
  83   2.0000      -1.081416       -29.4268
  84   2.0000      -1.034218       -28.1425
  85   2.0000      -1.033684       -28.1280
  86   2.0000      -1.016287       -27.6546
  87   2.0000      -1.015654       -27.6373
  88   2.0000      -1.005780       -27.3687
  89   2.0000      -1.004693       -27.3391
  90   2.0000      -1.000442       -27.2234
  91   2.0000      -0.999795       -27.2058
  92   2.0000      -0.997276       -27.1373
  93   2.0000      -0.997221       -27.1358
  94   2.0000      -0.996933       -27.1279
  95   2.0000      -0.993931       -27.0462
  96   2.0000      -0.981317       -26.7030
  97   2.0000      -0.980329       -26.6761
  98   2.0000      -0.958997       -26.0956
  99   2.0000      -0.955613       -26.0035
 100   2.0000      -0.938356       -25.5340
 101   2.0000      -0.937343       -25.5064
 102   2.0000      -0.927582       -25.2408
 103   2.0000      -0.924588       -25.1593
 104   2.0000      -0.920784       -25.0558
 105   2.0000      -0.898018       -24.4363
 106   2.0000      -0.893172       -24.3044
 107   2.0000      -0.892438       -24.2845
 108   2.0000      -0.891093       -24.2479
 109   2.0000      -0.886957       -24.1353
 110   2.0000      -0.873679       -23.7740
 111   2.0000      -0.865095       -23.5404
 112   2.0000      -0.864028       -23.5114
 113   2.0000      -0.857709       -23.3394
 114   2.0000      -0.849597       -23.1187
 115   2.0000      -0.835796       -22.7432
 116   2.0000      -0.822425       -22.3793
 117   2.0000      -0.820532       -22.3278
 118   2.0000      -0.817780       -22.2529
 119   2.0000      -0.803403       -21.8617
 120   2.0000      -0.796827       -21.6828
 121   2.0000      -0.790085       -21.4993
 122   2.0000      -0.788745       -21.4628
 123   2.0000      -0.778663       -21.1885
 124   2.0000      -0.767778       -20.8923
 125   2.0000      -0.751965       -20.4620
 126   2.0000      -0.742591       -20.2069
 127   2.0000      -0.724497       -19.7146
 128   2.0000      -0.721819       -19.6417
 129   2.0000      -0.714904       -19.4535
 130   2.0000      -0.713366       -19.4117
 131   2.0000      -0.713016       -19.4022
 132   2.0000      -0.712199       -19.3799
 133   2.0000      -0.709562       -19.3082
 134   2.0000      -0.705293       -19.1920
 135   2.0000      -0.700830       -19.0705
 136   2.0000      -0.683750       -18.6058
 137   2.0000      -0.681775       -18.5520
 138   2.0000      -0.679129       -18.4800
 139   2.0000      -0.674511       -18.3544
 140   2.0000      -0.671248       -18.2656
 141   2.0000      -0.670478       -18.2446
 142   2.0000      -0.665637       -18.1129
 143   2.0000      -0.664590       -18.0844
 144   2.0000      -0.663278       -18.0487
 145   2.0000      -0.661581       -18.0025
 146   2.0000      -0.651366       -17.7246
 147   2.0000      -0.646125       -17.5819
 148   2.0000      -0.643113       -17.5000
 149   2.0000      -0.641553       -17.4576
 150   2.0000      -0.634395       -17.2628
 151   2.0000      -0.633067       -17.2266
 152   2.0000      -0.625172       -17.0118
 153   2.0000      -0.619850       -16.8670
 154   2.0000      -0.616720       -16.7818
 155   2.0000      -0.599302       -16.3078
 156   2.0000      -0.590699       -16.0737
 157   2.0000      -0.589154       -16.0317
 158   2.0000      -0.584617       -15.9082
 159   2.0000      -0.583687       -15.8829
 160   2.0000      -0.582504       -15.8507
 161   2.0000      -0.577443       -15.7130
 162   2.0000      -0.571649       -15.5554
 163   2.0000      -0.570982       -15.5372
 164   2.0000      -0.568464       -15.4687
 165   2.0000      -0.566160       -15.4060
 166   2.0000      -0.562360       -15.3026
 167   2.0000      -0.561392       -15.2762
 168   2.0000      -0.559970       -15.2375
 169   2.0000      -0.559899       -15.2356
 170   2.0000      -0.558527       -15.1983
 171   2.0000      -0.556518       -15.1436
 172   2.0000      -0.555125       -15.1057
 173   2.0000      -0.553309       -15.0563
 174   2.0000      -0.548360       -14.9216
 175   2.0000      -0.544774       -14.8240
 176   2.0000      -0.542294       -14.7566
 177   2.0000      -0.542212       -14.7543
 178   2.0000      -0.537881       -14.6365
 179   2.0000      -0.537321       -14.6212
 180   2.0000      -0.535205       -14.5637
 181   2.0000      -0.531528       -14.4636
 182   2.0000      -0.531000       -14.4492
 183   2.0000      -0.529575       -14.4105
 184   2.0000      -0.521396       -14.1879
 185   2.0000      -0.521281       -14.1848
 186   2.0000      -0.514406       -13.9977
 187   2.0000      -0.512189       -13.9374
 188   2.0000      -0.506893       -13.7933
 189   2.0000      -0.506058       -13.7705
 190   2.0000      -0.504863       -13.7380
 191   2.0000      -0.504130       -13.7181
 192   2.0000      -0.503034       -13.6882
 193   2.0000      -0.495493       -13.4831
 194   2.0000      -0.494392       -13.4531
 195   2.0000      -0.488483       -13.2923
 196   2.0000      -0.487286       -13.2597
 197   2.0000      -0.486035       -13.2257
 198   2.0000      -0.481667       -13.1068
 199   2.0000      -0.479638       -13.0516
 200   2.0000      -0.477987       -13.0067
 201   2.0000      -0.476214       -12.9584
 202   2.0000      -0.475990       -12.9523
 203   2.0000      -0.472283       -12.8515
 204   2.0000      -0.471049       -12.8179
 205   2.0000      -0.469870       -12.7858
 206   2.0000      -0.468733       -12.7549
 207   2.0000      -0.465643       -12.6708
 208   2.0000      -0.462243       -12.5783
 209   2.0000      -0.458038       -12.4638
 210   2.0000      -0.457415       -12.4469
 211   2.0000      -0.456217       -12.4143
 212   2.0000      -0.454335       -12.3631
 213   2.0000      -0.452389       -12.3101
 214   2.0000      -0.452195       -12.3048
 215   2.0000      -0.451590       -12.2884
 216   2.0000      -0.451520       -12.2865
 217   2.0000      -0.450466       -12.2578
 218   2.0000      -0.449782       -12.2392
 219   2.0000      -0.446556       -12.1514
 220   2.0000      -0.445876       -12.1329
 221   2.0000      -0.444966       -12.1081
 222   2.0000      -0.443948       -12.0804
 223   2.0000      -0.443082       -12.0569
 224   2.0000      -0.436048       -11.8655
 225   2.0000      -0.433683       -11.8011
 226   2.0000      -0.430179       -11.7058
 227   2.0000      -0.430067       -11.7027
 228   2.0000      -0.428355       -11.6561
 229   2.0000      -0.427308       -11.6276
 230   2.0000      -0.426254       -11.5990
 231   2.0000      -0.425914       -11.5897
 232   2.0000      -0.424146       -11.5416
 233   2.0000      -0.424051       -11.5390
 234   2.0000      -0.419447       -11.4137
 235   2.0000      -0.413125       -11.2417
 236   2.0000      -0.411790       -11.2054
 237   2.0000      -0.410272       -11.1641
 238   2.0000      -0.409918       -11.1544
 239   2.0000      -0.409377       -11.1397
 240   2.0000      -0.400861       -10.9080
 241   2.0000      -0.387466       -10.5435
 242   2.0000      -0.383093       -10.4245
 243   2.0000      -0.382763       -10.4155
 244   2.0000      -0.369639       -10.0584
 245   2.0000      -0.357010        -9.7147
 246   2.0000      -0.343124        -9.3369
 247   2.0000      -0.333013        -9.0618
 248   2.0000      -0.331819        -9.0292
 249   2.0000      -0.325611        -8.8603
 250   2.0000      -0.320070        -8.7096
 251   2.0000      -0.318522        -8.6674
 252   2.0000      -0.307791        -8.3754
 253   2.0000      -0.306415        -8.3380
 254   2.0000      -0.305761        -8.3202
 255   2.0000      -0.290045        -7.8925
 256   2.0000      -0.279298        -7.6001
 257   2.0000      -0.266166        -7.2427
 258   2.0000      -0.230803        -6.2805
 259   0.0000      -0.134844        -3.6693
 260   0.0000      -0.117812        -3.2058
 261   0.0000      -0.086286        -2.3480
 262   0.0000      -0.085477        -2.3260
 263   0.0000      -0.081646        -2.2217

MULLIKEN ATOMIC CHARGES
-----------------------
   0 C :   -0.033557
   1 C :    0.045472
   2 C :    0.046372
   3 C :   -0.034354
   4 C :    0.008008
   5 C :    0.012791
   6 C :    0.303511
   7 C :   -0.348111
   8 C :   -0.187421
   9 N :    0.157966
  10 C :   -0.179076
  11 N :    0.156349
  12 C :   -0.066376
  13 C :    0.228097
  14 C :   -0.352237
  15 C :   -0.179427
  16 N :    0.179903
  17 C :   -0.186723
  18 N :    0.163872
  19 C :    0.037601
  20 C :    0.014601
  21 C :   -0.019756
  22 C :    0.011988
  23 C :    0.257718
  24 C :   -0.071413
  25 F :   -0.175527
  26 C :    0.027437
  27 C :   -0.096402
  28 C :    0.130471
  29 C :   -0.081976
  30 C :    0.263756
  31 F :   -0.167040
  32 C :   -0.017130
  33 C :    0.019252
  34 C :    0.108048
  35 N :   -0.033177
  36 C :    0.129201
  37 C :   -0.162096
  38 C :    0.108905
  39 N :   -0.033669
  40 C :    0.128066
  41 C :   -0.159056
  42 C :    0.017610
  43 C :   -0.017369
  44 C :    0.130678
  45 C :   -0.099293
  46 C :    0.027707
  47 C :    0.259813
  48 C :   -0.080188
  49 F :   -0.172308
  50 C :    0.000301
  51 C :   -0.064186
  52 C :    0.081384
  53 C :   -0.061299
  54 C :    0.253222
  55 F :   -0.177566
  56 C :    0.044736
  57 C :   -0.014614
  58 C :    0.046769
  59 C :   -0.064376
  60 C :    0.298489
  61 C :   -0.349521
  62 C :   -0.179828
  63 N :    0.156108
  64 C :   -0.191442
  65 N :    0.159702
  66 C :    0.017198
  67 C :   -0.000882
  68 C :   -0.032229
  69 C :    0.045026
  70 C :    0.046459
  71 C :   -0.034342
  72 C :    0.227031
  73 C :   -0.336969
  74 C :   -0.183687
  75 N :    0.162636
  76 C :   -0.196344
  77 N :    0.182426
  78 H :    0.004633
  79 H :    0.003624
  80 H :    0.004512
  81 H :    0.004055
  82 H :    0.019705
  83 H :    0.005157
  84 H :   -0.003311
  85 H :   -0.013781
  86 H :   -0.017736
  87 H :   -0.014462
  88 H :   -0.022986
  89 H :    0.128266
  90 H :   -0.022151
  91 H :    0.127849
  92 H :   -0.021548
  93 H :   -0.024296
  94 H :   -0.014609
  95 H :   -0.013793
  96 H :   -0.019559
  97 H :   -0.008619
  98 H :   -0.011560
  99 H :    0.008840
 100 H :    0.006117
 101 H :    0.022314
 102 H :    0.004850
 103 H :    0.003561
 104 H :    0.003222
 105 H :    0.006002
Sum of atomic charges:   -0.0000000

LOEWDIN ATOMIC CHARGES
----------------------
   0 C :    0.004730
   1 C :   -0.000186
   2 C :    0.003444
   3 C :   -0.000239
   4 C :   -0.010418
   5 C :   -0.014361
   6 C :    0.077505
   7 C :   -0.132098
   8 C :   -0.018544
   9 N :   -0.047915
  10 C :   -0.020915
  11 N :   -0.044835
  12 C :   -0.058684
  13 C :    0.063649
  14 C :   -0.124252
  15 C :   -0.019291
  16 N :   -0.043889
  17 C :   -0.019063
  18 N :   -0.046718
  19 C :    0.067974
  20 C :   -0.036722
  21 C :    0.018992
  22 C :   -0.022714
  23 C :    0.084363
  24 C :   -0.062390
  25 F :   -0.051459
  26 C :    0.025329
  27 C :   -0.070558
  28 C :    0.019791
  29 C :   -0.060617
  30 C :    0.091827
  31 F :   -0.043485
  32 C :   -0.018375
  33 C :   -0.007811
  34 C :    0.005191
  35 N :    0.073347
  36 C :   -0.005338
  37 C :   -0.077969
  38 C :    0.008065
  39 N :    0.072623
  40 C :   -0.007027
  41 C :   -0.074655
  42 C :   -0.013119
  43 C :   -0.015774
  44 C :    0.013119
  45 C :   -0.068218
  46 C :    0.015821
  47 C :    0.089034
  48 C :   -0.060417
  49 F :   -0.048497
  50 C :   -0.019276
  51 C :   -0.016884
  52 C :   -0.017506
  53 C :   -0.053019
  54 C :    0.080189
  55 F :   -0.053233
  56 C :    0.046174
  57 C :   -0.036884
  58 C :    0.058452
  59 C :   -0.059951
  60 C :    0.078071
  61 C :   -0.134863
  62 C :   -0.022384
  63 N :   -0.045292
  64 C :   -0.018896
  65 N :   -0.048881
  66 C :   -0.013257
  67 C :   -0.011208
  68 C :    0.000222
  69 C :    0.003171
  70 C :    0.000748
  71 C :    0.004582
  72 C :    0.063344
  73 C :   -0.133705
  74 C :   -0.020858
  75 N :   -0.048586
  76 C :   -0.018851
  77 N :   -0.036045
  78 H :    0.041119
  79 H :    0.037242
  80 H :    0.037371
  81 H :    0.040462
  82 H :    0.050318
  83 H :    0.032092
  84 H :    0.030560
  85 H :    0.024662
  86 H :    0.028287
  87 H :    0.034284
  88 H :    0.030375
  89 H :    0.093509
  90 H :    0.028668
  91 H :    0.093282
  92 H :    0.029012
  93 H :    0.029683
  94 H :    0.034295
  95 H :    0.024344
  96 H :    0.027901
  97 H :    0.026094
  98 H :    0.032254
  99 H :    0.036793
 100 H :    0.038177
 101 H :    0.049176
 102 H :    0.040451
 103 H :    0.037159
 104 H :    0.037301
 105 H :    0.041502

  Mayer bond orders larger than 0.100000
B(  0-C ,  1-C ) :   1.3685 B(  0-C ,  5-C ) :   1.3839 B(  0-C , 78-H ) :   0.9834
B(  1-C ,  2-C ) :   1.3788 B(  1-C , 79-H ) :   0.9867 B(  2-C ,  3-C ) :   1.3615
B(  2-C , 80-H ) :   0.9866 B(  3-C ,  4-C ) :   1.3846 B(  3-C , 81-H ) :   0.9873
B(  4-C ,  5-C ) :   1.3121 B(  4-C , 13-C ) :   1.0106 B(  5-C ,  6-C ) :   0.9956
B(  6-C ,  7-C ) :   1.6332 B(  6-C , 12-C ) :   1.0616 B(  7-C ,  8-C ) :   1.1476
B(  7-C , 10-C ) :   1.1381 B(  8-C ,  9-N ) :   2.9745 B( 10-C , 11-N ) :   2.9659
B( 12-C , 13-C ) :   1.0401 B( 12-C , 19-C ) :   1.5423 B( 13-C , 14-C ) :   1.6360
B( 14-C , 15-C ) :   1.1515 B( 14-C , 17-C ) :   1.1497 B( 15-C , 16-N ) :   3.0002
B( 17-C , 18-N ) :   2.9908 B( 19-C , 20-C ) :   1.1607 B( 19-C , 82-H ) :   0.9418
B( 20-C , 21-C ) :   1.4584 B( 20-C , 24-C ) :   1.0340 B( 21-C , 22-C ) :   1.1404
B( 21-C , 83-H ) :   1.0179 B( 22-C , 23-C ) :   1.0512 B( 22-C , 26-C ) :   1.4002
B( 23-C , 24-C ) :   1.6296 B( 23-C , 25-F ) :   1.1312 B( 24-C , 84-H ) :   1.0134
B( 26-C , 27-C ) :   1.1846 B( 26-C , 30-C ) :   1.0045 B( 27-C , 28-C ) :   1.4354
B( 27-C , 85-H ) :   1.0243 B( 28-C , 29-C ) :   1.0007 B( 28-C , 32-C ) :   1.2006
B( 29-C , 30-C ) :   1.6859 B( 29-C , 86-H ) :   1.0109 B( 30-C , 31-F ) :   1.1352
B( 32-C , 33-C ) :   1.5464 B( 32-C , 87-H ) :   0.9820 B( 33-C , 34-C ) :   1.1548
B( 33-C , 88-H ) :   0.9658 B( 34-C , 35-N ) :   1.1623 B( 34-C , 41-C ) :   1.3537
B( 35-N , 36-C ) :   1.1766 B( 35-N , 89-H ) :   0.9348 B( 36-C , 37-C ) :   1.2929
B( 36-C , 40-C ) :   1.2627 B( 37-C , 38-C ) :   1.3588 B( 37-C , 90-H ) :   1.0315
B( 38-C , 39-N ) :   1.1655 B( 38-C , 42-C ) :   1.1480 B( 39-N , 40-C ) :   1.1723
B( 39-N , 91-H ) :   0.9350 B( 40-C , 41-C ) :   1.2976 B( 41-C , 92-H ) :   1.0315
B( 42-C , 43-C ) :   1.5568 B( 42-C , 93-H ) :   0.9663 B( 43-C , 44-C ) :   1.1917
B( 43-C , 94-H ) :   0.9818 B( 44-C , 45-C ) :   1.4463 B( 44-C , 48-C ) :   1.0049
B( 45-C , 46-C ) :   1.1704 B( 45-C , 95-H ) :   1.0243 B( 46-C , 47-C ) :   1.0079
B( 46-C , 50-C ) :   1.4112 B( 47-C , 48-C ) :   1.6825 B( 47-C , 49-F ) :   1.1293
B( 48-C , 96-H ) :   1.0112 B( 50-C , 51-C ) :   1.1391 B( 50-C , 54-C ) :   1.0404
B( 51-C , 52-C ) :   1.4581 B( 51-C , 97-H ) :   1.0197 B( 52-C , 53-C ) :   1.0381
B( 52-C , 56-C ) :   1.2027 B( 53-C , 54-C ) :   1.6531 B( 53-C , 98-H ) :   1.0118
B( 54-C , 55-F ) :   1.1233 B( 56-C , 57-C ) :   1.5496 B( 56-C , 99-H ) :   0.9662
B( 57-C , 58-C ) :   1.2214 B( 57-C ,100-H ) :   0.9561 B( 58-C , 59-C ) :   1.5618
B( 58-C ,101-H ) :   0.9231 B( 59-C , 60-C ) :   1.0693 B( 59-C , 72-C ) :   1.0295
B( 60-C , 61-C ) :   1.6274 B( 60-C , 66-C ) :   0.9944 B( 61-C , 62-C ) :   1.1369
B( 61-C , 64-C ) :   1.1504 B( 62-C , 63-N ) :   2.9695 B( 64-C , 65-N ) :   2.9757
B( 66-C , 67-C ) :   1.3141 B( 66-C , 71-C ) :   1.3802 B( 67-C , 68-C ) :   1.3833
B( 67-C , 72-C ) :   1.0038 B( 68-C , 69-C ) :   1.3656 B( 68-C ,102-H ) :   0.9873
B( 69-C , 70-C ) :   1.3777 B( 69-C ,103-H ) :   0.9870 B( 70-C , 71-C ) :   1.3699
B( 70-C ,104-H ) :   0.9860 B( 71-C ,105-H ) :   0.9838 B( 72-C , 73-C ) :   1.6460
B( 73-C , 74-C ) :   1.1402 B( 73-C , 76-C ) :   1.1573 B( 74-C , 75-N ) :   2.9925
B( 76-C , 77-N ) :   3.0053

-----------------------------------------------------------------------------
         ABSORPTION SPECTRUM VIA TRANSITION ELECTRIC DIPOLE MOMENTS
-----------------------------------------------------------------------------
State   Energy  Wavelength   fosc         T2         TX        TY        TZ
        (cm-1)    (nm)                  (au**2)     (au)      (au)      (au)
-----------------------------------------------------------------------------
   0    8476.7   1179.7   2.603755161 101.12309  -3.62438  -9.37902  -0.14480
   1   12550.6    796.8   0.028025694   0.73513   0.50032  -0.28581  -0.63492
   2   15780.2    633.7   0.035091173   0.73209  -0.04242  -0.81592  -0.25409
   3   16953.7    589.8   0.040901758   0.79424   0.58925   0.62053  -0.24893
   4   18281.3    547.0   0.004822081   0.08684   0.23072   0.15855  -0.09202
   5   19613.9    509.8   0.554379020   9.30503   0.62588   2.98548  -0.01526
   6   19994.9    500.1   0.064848543   1.06772   0.97196   0.12009  -0.32954
   7   20547.6    486.7   0.081135370   1.29995  -0.63543   0.68745   0.65083
   8   21414.5    467.0   0.099668029   1.53223  -0.37252  -1.17616   0.10047
   9   22248.9    449.5   0.042646981   0.63104  -0.14965  -0.50120   0.59787
  10   22758.9    439.4   0.092100080   1.33225  -0.60447  -0.97583  -0.12093
  11   23319.5    428.8   0.001726174   0.02437   0.06174   0.14332  -0.00417
  12   24143.5    414.2   0.062331069   0.84992   0.32517   0.86200   0.03389
  13   25152.3    397.6   0.067374230   0.88184   0.70493  -0.20968  -0.58391
  14   25357.2    394.4   0.003297857   0.04282   0.18037  -0.08083  -0.06124
  15   25598.8    390.6   0.063478034   0.81636  -0.10460  -0.88571   0.14468
  16   26404.3    378.7   0.480245132   5.98776   1.50857   1.92665   0.00028
  17   26687.5    374.7   0.010363154   0.12784   0.10446   0.27299  -0.20591
  18   27209.2    367.5   0.058939022   0.71312  -0.37855  -0.72579   0.20746
  19   27345.7    365.7   0.213732715   2.57311  -0.44347  -1.50547   0.33166
  20   27865.7    358.9   0.026681765   0.31522  -0.23123   0.51100   0.02523
  21   29053.3    344.2   0.024557024   0.27826  -0.43406  -0.29938   0.01496
  22   29240.6    342.0   0.064152129   0.72227   0.01019  -0.82864  -0.18847
  23   29393.0    340.2   0.138833864   1.55499   0.40679   1.17566   0.08563
  24   29564.7    338.2   0.020444762   0.22766   0.26127   0.37811  -0.12819
  25   29752.6    336.1   0.004740290   0.05245   0.11488  -0.02428  -0.19663
  26   30815.8    324.5   0.051575704   0.55100   0.56730   0.47470   0.06184
  27   31092.0    321.6   0.269143487   2.84978   0.85002  -1.36371  -0.51725
  28   31304.3    319.4   0.188462380   1.98196   0.72888   1.16895  -0.29028
  29   31700.6    315.5   0.073174330   0.75992  -0.34808   0.65604   0.45648
  30   31970.7    312.8   0.513552734   5.28821  -1.75520  -1.00498   1.09430
  31   32417.4    308.5   0.088689396   0.90068   0.69707  -0.56001  -0.31807
  32   32607.0    306.7   0.180327877   1.82065  -0.64809   1.06513   0.51588
  33   32844.4    304.5   0.017055540   0.17095   0.11146  -0.39641  -0.03731
  34   33582.6    297.8   0.020632493   0.20226   0.21763   0.39075   0.04705
  35   33886.4    295.1   0.037646223   0.36574   0.19481   0.47771   0.31556
  36   34173.3    292.6   0.118969467   1.14610   0.90833  -0.28782   0.48806
  37   34289.3    291.6   0.106511701   1.02262  -0.85487  -0.54013   0.00842
  38   34587.6    289.1   0.078525077   0.74742  -0.83761   0.09204   0.19327
  39   34690.1    288.3   0.019536537   0.18540  -0.28683   0.08834   0.30876
  40   34884.5    286.7   0.039992450   0.37742   0.24313   0.55128  -0.11998
  41   35236.3    283.8   0.187688021   1.75357  -0.11800   1.13847  -0.66598
  42   35602.3    280.9   0.285348169   2.63859  -1.14052  -1.15663   0.00446
  43   35883.5    278.7   0.109925408   1.00851   0.92264  -0.06793   0.39068
  44   36364.7    275.0   0.210273071   1.90361  -1.31114   0.04798  -0.42687
  45   36767.2    272.0   0.018912986   0.16935  -0.36235  -0.13884   0.13701
  46   36935.9    270.7   0.000670982   0.00598  -0.03792   0.06633  -0.01196
  47   37422.8    267.2   0.017191806   0.15124  -0.02078   0.29992  -0.24669
  48   37790.7    264.6   0.003667383   0.03195  -0.17304   0.01604   0.04179
  49   38307.9    261.0   0.111098041   0.95476  -0.62491   0.59847  -0.45396
  50   38433.6    260.2   0.002394115   0.02051   0.07031  -0.08628  -0.09012
  51   38638.1    258.8   0.044256864   0.37709  -0.02552   0.60405   0.10749
  52   38838.6    257.5   0.006475836   0.05489   0.07148   0.11861   0.18898
  53   38851.7    257.4   0.007379085   0.06253   0.16129   0.04392   0.18596
  54   39137.4    255.5   0.046747143   0.39322   0.61947   0.06395   0.07343
  55   39214.4    255.0   0.037031517   0.31089   0.51116   0.22252  -0.00895
  56   39529.2    253.0   0.107302922   0.89365  -0.93736   0.04655  -0.11331
  57   39967.5    250.2   0.025295024   0.20835  -0.01394  -0.44164   0.11454
  58   40206.2    248.7   0.092946646   0.76106   0.72091   0.45374   0.18832

FINAL SINGLE POINT ENERGY     -3397.897942444643

DIPOLE MOMENT
-------------
                                X             Y             Z
Electronic contribution:     -4.37267      14.94438      -5.01644
Nuclear contribution   :      6.23791     -14.86355       7.66425
                        -----------------------------------------
Total Dipole Moment    :      1.86524       0.08084       2.64781
                        -----------------------------------------
Magnitude (a.u.)       :      3.23984
Magnitude (Debye)      :      8.23501

Rotational constants in cm-1:     0.003280     0.000105     0.000103
Rotational constants in MHz :    98.342036     3.143523     3.086410

                             ****ORCA TERMINATED NORMALLY****
TOTAL RUN TIME: 0 days 0 hours 17 minutes 16 seconds 120 msec
