                         Program Version 4.2.0 -  RELEASE  -
|  1> # ORCA input file
|  2> # SCF done       -206.020616731883          0.000262952234
|  3> ! CAM-B3LYP def2-SVP def2/J RIJCOSX Grid4 TightSCF
|  4> %maxcore 5000
|  5> %tddft
|  6>     Mode sTDDFT
|  7>     Ethresh 5.0
|  8>     maxcore 5000
|  9> end
| 10>
| 11> %pal
| 12>   nprocs 6
| 13>   end
| 14> * xyz 0 1
| 15>    C        0.89606         4.16304        -0.93516
| 16>    C       -0.46210         4.30409        -1.00394
| 17>    F       -0.98754         5.32218        -1.70885
| 18>    C       -1.34299         3.42226        -0.36289
| 19>    C       -0.82838         2.38031         0.35717
| 20>    C        0.56443         2.18723         0.46144
| 21>    C        1.44367         3.09812        -0.19393
| 22>    C        2.84513         2.93561        -0.09023
| 23>    C        3.34625         1.89572         0.64433
| 24>    C        2.46271         0.97239         1.27400
| 25>    C        1.10675         1.10934         1.19635
| 26>    C        3.25360        -0.07403         1.94588
| 27>    O        2.85450        -0.99740         2.61823
| 28>    C        4.67105         0.20590         1.57817
| 29>    C        4.72104         1.51238         0.96007
| 30>    C        5.79385         2.36592         0.91488
| 31>    C        7.06019         2.07258         1.45462
| 32>    N        8.10081         1.88888         1.90453
| 33>    C        5.72919         3.68287         0.41327
| 34>    N        5.73333         4.76154         0.02181
| 35>    C        5.60217        -0.76488         1.80430
| 36>    C        6.88935        -0.91172         1.25045
| 37>    C        7.42878        -0.33380         0.10871
| 38>    C        8.73860        -0.73252        -0.11482
| 39>    C        9.21446        -1.63334         0.86332
| 40>    S        8.03453        -2.00303         2.03003
| 41>    C       10.56539        -1.93389         0.57352
| 42>    C       10.94870        -1.22418        -0.58033
| 43>    C        9.81247        -0.44438        -1.04777
| 44>    C        9.76892         0.40825        -2.11165
| 45>    C       10.88268         0.62610        -2.94919
| 46>    N       11.78528         0.79965        -3.63479
| 47>    C        8.59525         1.12288        -2.43228
| 48>    N        7.63256         1.69277        -2.68401
| 49>    C       12.27728        -1.43296        -0.93682
| 50>    C       12.91538        -2.29895        -0.06057
| 51>    S       11.84823        -2.86336         1.21499
| 52>    C       14.26649        -2.71817        -0.09100
| 53>    C       15.26497        -2.33691        -0.99569
| 54>    O       14.97467        -1.49529        -2.00574
| 55>    C       16.01846        -1.13355        -2.88624
| 56>    C       16.50722        -2.91541        -0.70596
| 57>    C       16.48452        -3.74090         0.40038
| 58>    S       14.89693        -3.81133         1.10232
| 59>    C       17.55792        -4.46237         0.97527
| 60>    C       17.49778        -5.32655         2.05611
| 61>    C       18.74738        -5.84959         2.37456
| 62>    C       19.77298        -5.37974         1.53324
| 63>    S       19.18871        -4.30064         0.34243
| 64>    C       20.99890        -5.95409         1.94510
| 65>    C       20.74501        -6.79148         3.05243
| 66>    C       19.32460        -6.76561         3.34693
| 67>    C       18.67404        -7.48094         4.30871
| 68>    C       19.37078        -8.35769         5.16736
| 69>    N       19.95339        -9.06139         5.86033
| 70>    C       17.27922        -7.39069         4.49932
| 71>    N       16.14620        -7.30966         4.65387
| 72>    C       21.88620        -7.42026         3.52896
| 73>    C       23.01807        -7.08083         2.80105
| 74>    S       22.64585        -5.93310         1.51732
| 75>    C       24.35363        -7.48592         3.00671
| 76>    C       24.81701        -8.54486         3.72891
| 77>    C       26.23355        -8.52672         4.19670
| 78>    O       27.10617        -7.77998         3.81759
| 79>    C       26.30704        -9.55894         5.24635
| 80>    C       27.33873        -9.85799         6.08908
| 81>    C       27.16550       -10.87262         7.05697
| 82>    C       25.91670       -11.55583         7.13804
| 83>    C       25.74712       -12.55747         8.11335
| 84>    C       26.78166       -12.85512         8.95628
| 85>    C       28.01745       -12.19675         8.89124
| 86>    C       28.19851       -11.22043         7.95155
| 87>    F       26.62286       -13.81198         9.88767
| 88>    C       24.86764       -11.23076         6.24662
| 89>    C       25.06452       -10.25349         5.30952
| 90>    C       24.18725        -9.73272         4.26409
| 91>    C       23.11753       -10.40773         3.73498
| 92>    C       22.41914        -9.99569         2.58408
| 93>    N       21.83746        -9.70671         1.63700
| 94>    C       22.64984       -11.64513         4.22548
| 95>    N       22.23301       -12.65371         4.57962
| 96>    H        1.54448         4.86337        -1.43797
| 97>    H       -2.40545         3.58455        -0.45178
| 98>    H       -1.48678         1.68743         0.85920
| 99>    H        3.48736         3.63315        -0.60403
|100>    H        0.45505         0.40416         1.69004
|101>    H        5.27008        -1.56378         2.46101
|102>    H        6.86668         0.31160        -0.54143
|103>    H       12.77641        -0.98920        -1.77664
|104>    H       15.56609        -0.45799        -3.60969
|105>    H       16.42153        -2.00837        -3.40433
|106>    H       16.82346        -0.61654        -2.35640
|107>    H       17.40546        -2.74968        -1.27281
|108>    H       16.57905        -5.54736         2.56929
|109>    H       21.91583        -8.05932         4.39242
|110>    H       25.12345        -6.83495         2.60357
|111>    H       28.27536        -9.32524         6.02071
|112>    H       24.81021       -13.08672         8.18967
|113>    H       28.79683       -12.47402         9.58316
|114>    H       29.14137       -10.69904         7.88276
|115>    H       23.92855       -11.75337         6.33692
|116> *
|117>
|118>                          ****END OF INPUT****

CARTESIAN COORDINATES (ANGSTROEM)
---------------------------------
  C      0.896060    4.163040   -0.935160
  C     -0.462100    4.304090   -1.003940
  F     -0.987540    5.322180   -1.708850
  C     -1.342990    3.422260   -0.362890
  C     -0.828380    2.380310    0.357170
  C      0.564430    2.187230    0.461440
  C      1.443670    3.098120   -0.193930
  C      2.845130    2.935610   -0.090230
  C      3.346250    1.895720    0.644330
  C      2.462710    0.972390    1.274000
  C      1.106750    1.109340    1.196350
  C      3.253600   -0.074030    1.945880
  O      2.854500   -0.997400    2.618230
  C      4.671050    0.205900    1.578170
  C      4.721040    1.512380    0.960070
  C      5.793850    2.365920    0.914880
  C      7.060190    2.072580    1.454620
  N      8.100810    1.888880    1.904530
  C      5.729190    3.682870    0.413270
  N      5.733330    4.761540    0.021810
  C      5.602170   -0.764880    1.804300
  C      6.889350   -0.911720    1.250450
  C      7.428780   -0.333800    0.108710
  C      8.738600   -0.732520   -0.114820
  C      9.214460   -1.633340    0.863320
  S      8.034530   -2.003030    2.030030
  C     10.565390   -1.933890    0.573520
  C     10.948700   -1.224180   -0.580330
  C      9.812470   -0.444380   -1.047770
  C      9.768920    0.408250   -2.111650
  C     10.882680    0.626100   -2.949190
  N     11.785280    0.799650   -3.634790
  C      8.595250    1.122880   -2.432280
  N      7.632560    1.692770   -2.684010
  C     12.277280   -1.432960   -0.936820
  C     12.915380   -2.298950   -0.060570
  S     11.848230   -2.863360    1.214990
  C     14.266490   -2.718170   -0.091000
  C     15.264970   -2.336910   -0.995690
  O     14.974670   -1.495290   -2.005740
  C     16.018460   -1.133550   -2.886240
  C     16.507220   -2.915410   -0.705960
  C     16.484520   -3.740900    0.400380
  S     14.896930   -3.811330    1.102320
  C     17.557920   -4.462370    0.975270
  C     17.497780   -5.326550    2.056110
  C     18.747380   -5.849590    2.374560
  C     19.772980   -5.379740    1.533240
  S     19.188710   -4.300640    0.342430
  C     20.998900   -5.954090    1.945100
  C     20.745010   -6.791480    3.052430
  C     19.324600   -6.765610    3.346930
  C     18.674040   -7.480940    4.308710
  C     19.370780   -8.357690    5.167360
  N     19.953390   -9.061390    5.860330
  C     17.279220   -7.390690    4.499320
  N     16.146200   -7.309660    4.653870
  C     21.886200   -7.420260    3.528960
  C     23.018070   -7.080830    2.801050
  S     22.645850   -5.933100    1.517320
  C     24.353630   -7.485920    3.006710
  C     24.817010   -8.544860    3.728910
  C     26.233550   -8.526720    4.196700
  O     27.106170   -7.779980    3.817590
  C     26.307040   -9.558940    5.246350
  C     27.338730   -9.857990    6.089080
  C     27.165500  -10.872620    7.056970
  C     25.916700  -11.555830    7.138040
  C     25.747120  -12.557470    8.113350
  C     26.781660  -12.855120    8.956280
  C     28.017450  -12.196750    8.891240
  C     28.198510  -11.220430    7.951550
  F     26.622860  -13.811980    9.887670
  C     24.867640  -11.230760    6.246620
  C     25.064520  -10.253490    5.309520
  C     24.187250   -9.732720    4.264090
  C     23.117530  -10.407730    3.734980
  C     22.419140   -9.995690    2.584080
  N     21.837460   -9.706710    1.637000
  C     22.649840  -11.645130    4.225480
  N     22.233010  -12.653710    4.579620
  H      1.544480    4.863370   -1.437970
  H     -2.405450    3.584550   -0.451780
  H     -1.486780    1.687430    0.859200
  H      3.487360    3.633150   -0.604030
  H      0.455050    0.404160    1.690040
  H      5.270080   -1.563780    2.461010
  H      6.866680    0.311600   -0.541430
  H     12.776410   -0.989200   -1.776640
  H     15.566090   -0.457990   -3.609690
  H     16.421530   -2.008370   -3.404330
  H     16.823460   -0.616540   -2.356400
  H     17.405460   -2.749680   -1.272810
  H     16.579050   -5.547360    2.569290
  H     21.915830   -8.059320    4.392420
  H     25.123450   -6.834950    2.603570
  H     28.275360   -9.325240    6.020710
  H     24.810210  -13.086720    8.189670
  H     28.796830  -12.474020    9.583160
  H     29.141370  -10.699040    7.882760
  H     23.928550  -11.753370    6.336920

 Total Charge           Charge          ....    0
 Multiplicity           Mult            ....    1
 Number of Electrons    NEL             ....  576
 Basis Dimension        Dim             .... 1254

ORBITAL ENERGIES
----------------

  NO   OCC          E(Eh)            E(eV)
   0   2.0000     -89.003333     -2421.9038
   1   2.0000     -89.001602     -2421.8567
   2   2.0000     -88.993082     -2421.6249
   3   2.0000     -88.991784     -2421.5895
   4   2.0000     -88.982486     -2421.3365
   5   2.0000     -24.786670      -674.4796
   6   2.0000     -24.782799      -674.3742
   7   2.0000     -19.274630      -524.4893
   8   2.0000     -19.217190      -522.9263
   9   2.0000     -19.210902      -522.7552
  10   2.0000     -14.438987      -392.9048
  11   2.0000     -14.438502      -392.8916
  12   2.0000     -14.431653      -392.7052
  13   2.0000     -14.431566      -392.7029
  14   2.0000     -14.421385      -392.4258
  15   2.0000     -14.415854      -392.2753
  16   2.0000     -14.415289      -392.2600
  17   2.0000     -14.410473      -392.1289
  18   2.0000     -10.374535      -282.3054
  19   2.0000     -10.370798      -282.2038
  20   2.0000     -10.369115      -282.1580
  21   2.0000     -10.366462      -282.0858
  22   2.0000     -10.365773      -282.0670
  23   2.0000     -10.362521      -281.9785
  24   2.0000     -10.362512      -281.9783
  25   2.0000     -10.361163      -281.9416
  26   2.0000     -10.353035      -281.7204
  27   2.0000     -10.349757      -281.6312
  28   2.0000     -10.346863      -281.5525
  29   2.0000     -10.345638      -281.5191
  30   2.0000     -10.343721      -281.4670
  31   2.0000     -10.343213      -281.4531
  32   2.0000     -10.342666      -281.4383
  33   2.0000     -10.342546      -281.4350
  34   2.0000     -10.340364      -281.3756
  35   2.0000     -10.339628      -281.3556
  36   2.0000     -10.338941      -281.3369
  37   2.0000     -10.338453      -281.3236
  38   2.0000     -10.337804      -281.3060
  39   2.0000     -10.334827      -281.2249
  40   2.0000     -10.332505      -281.1618
  41   2.0000     -10.332077      -281.1501
  42   2.0000     -10.331854      -281.1440
  43   2.0000     -10.330817      -281.1158
  44   2.0000     -10.329011      -281.0667
  45   2.0000     -10.324009      -280.9306
  46   2.0000     -10.323630      -280.9202
  47   2.0000     -10.322524      -280.8902
  48   2.0000     -10.322217      -280.8818
  49   2.0000     -10.318477      -280.7800
  50   2.0000     -10.318224      -280.7731
  51   2.0000     -10.317670      -280.7581
  52   2.0000     -10.316614      -280.7293
  53   2.0000     -10.313578      -280.6467
  54   2.0000     -10.313124      -280.6344
  55   2.0000     -10.312964      -280.6300
  56   2.0000     -10.311177      -280.5814
  57   2.0000     -10.307858      -280.4911
  58   2.0000     -10.307633      -280.4849
  59   2.0000     -10.307624      -280.4847
  60   2.0000     -10.304172      -280.3908
  61   2.0000     -10.303707      -280.3781
  62   2.0000     -10.303684      -280.3775
  63   2.0000     -10.302938      -280.3572
  64   2.0000     -10.302871      -280.3554
  65   2.0000     -10.302649      -280.3493
  66   2.0000     -10.302177      -280.3365
  67   2.0000     -10.299741      -280.2702
  68   2.0000     -10.299080      -280.2522
  69   2.0000     -10.298115      -280.2259
  70   2.0000     -10.297081      -280.1978
  71   2.0000     -10.297047      -280.1969
  72   2.0000     -10.295910      -280.1660
  73   2.0000     -10.295769      -280.1621
  74   2.0000     -10.294910      -280.1387
  75   2.0000     -10.294672      -280.1323
  76   2.0000     -10.292357      -280.0693
  77   2.0000     -10.291632      -280.0495
  78   2.0000     -10.289993      -280.0050
  79   2.0000     -10.286899      -279.9208
  80   2.0000     -10.285833      -279.8918
  81   2.0000      -8.097832      -220.3532
  82   2.0000      -8.096293      -220.3113
  83   2.0000      -8.087859      -220.0818
  84   2.0000      -8.086629      -220.0484
  85   2.0000      -8.077900      -219.8108
  86   2.0000      -6.067136      -165.0952
  87   2.0000      -6.065453      -165.0494
  88   2.0000      -6.062998      -164.9826
  89   2.0000      -6.061304      -164.9365
  90   2.0000      -6.060052      -164.9024
  91   2.0000      -6.058765      -164.8674
  92   2.0000      -6.057021      -164.8199
  93   2.0000      -6.055941      -164.7905
  94   2.0000      -6.052868      -164.7069
  95   2.0000      -6.051762      -164.6768
  96   2.0000      -6.050322      -164.6376
  97   2.0000      -6.048805      -164.5963
  98   2.0000      -6.047379      -164.5575
  99   2.0000      -6.043310      -164.4468
 100   2.0000      -6.039538      -164.3442
 101   2.0000      -1.301784       -35.4233
 102   2.0000      -1.297807       -35.3151
 103   2.0000      -1.179737       -32.1023
 104   2.0000      -1.132831       -30.8259
 105   2.0000      -1.126476       -30.6530
 106   2.0000      -1.056943       -28.7609
 107   2.0000      -1.047598       -28.5066
 108   2.0000      -1.030993       -28.0547
 109   2.0000      -1.024212       -27.8702
 110   2.0000      -1.023246       -27.8440
 111   2.0000      -1.019010       -27.7287
 112   2.0000      -1.016548       -27.6617
 113   2.0000      -1.015828       -27.6421
 114   2.0000      -1.009179       -27.4612
 115   2.0000      -1.005825       -27.3699
 116   2.0000      -1.003522       -27.3072
 117   2.0000      -0.998169       -27.1616
 118   2.0000      -0.996383       -27.1130
 119   2.0000      -0.994208       -27.0538
 120   2.0000      -0.989966       -26.9384
 121   2.0000      -0.978945       -26.6385
 122   2.0000      -0.973609       -26.4932
 123   2.0000      -0.968769       -26.3615
 124   2.0000      -0.960142       -26.1268
 125   2.0000      -0.934466       -25.4281
 126   2.0000      -0.928106       -25.2551
 127   2.0000      -0.924976       -25.1699
 128   2.0000      -0.917725       -24.9726
 129   2.0000      -0.904986       -24.6259
 130   2.0000      -0.898287       -24.4436
 131   2.0000      -0.889265       -24.1981
 132   2.0000      -0.886669       -24.1275
 133   2.0000      -0.884171       -24.0595
 134   2.0000      -0.882553       -24.0155
 135   2.0000      -0.876165       -23.8417
 136   2.0000      -0.872233       -23.7347
 137   2.0000      -0.868409       -23.6306
 138   2.0000      -0.863019       -23.4839
 139   2.0000      -0.854842       -23.2614
 140   2.0000      -0.853838       -23.2341
 141   2.0000      -0.836804       -22.7706
 142   2.0000      -0.831922       -22.6378
 143   2.0000      -0.825271       -22.4568
 144   2.0000      -0.815229       -22.1835
 145   2.0000      -0.806525       -21.9467
 146   2.0000      -0.795007       -21.6332
 147   2.0000      -0.785577       -21.3766
 148   2.0000      -0.778656       -21.1883
 149   2.0000      -0.770738       -20.9728
 150   2.0000      -0.762903       -20.7596
 151   2.0000      -0.757350       -20.6085
 152   2.0000      -0.743963       -20.2443
 153   2.0000      -0.732776       -19.9398
 154   2.0000      -0.723470       -19.6866
 155   2.0000      -0.715687       -19.4748
 156   2.0000      -0.711057       -19.3488
 157   2.0000      -0.709224       -19.2990
 158   2.0000      -0.707460       -19.2510
 159   2.0000      -0.706173       -19.2159
 160   2.0000      -0.696529       -18.9535
 161   2.0000      -0.694602       -18.9011
 162   2.0000      -0.685064       -18.6415
 163   2.0000      -0.683267       -18.5926
 164   2.0000      -0.681621       -18.5478
 165   2.0000      -0.675353       -18.3773
 166   2.0000      -0.667999       -18.1772
 167   2.0000      -0.660232       -17.9658
 168   2.0000      -0.656940       -17.8762
 169   2.0000      -0.643482       -17.5100
 170   2.0000      -0.639258       -17.3951
 171   2.0000      -0.638569       -17.3764
 172   2.0000      -0.635194       -17.2845
 173   2.0000      -0.631081       -17.1726
 174   2.0000      -0.630434       -17.1550
 175   2.0000      -0.628350       -17.0983
 176   2.0000      -0.626052       -17.0357
 177   2.0000      -0.621775       -16.9194
 178   2.0000      -0.617195       -16.7947
 179   2.0000      -0.611368       -16.6362
 180   2.0000      -0.607265       -16.5245
 181   2.0000      -0.602363       -16.3911
 182   2.0000      -0.595361       -16.2006
 183   2.0000      -0.586368       -15.9559
 184   2.0000      -0.579119       -15.7586
 185   2.0000      -0.578491       -15.7415
 186   2.0000      -0.573863       -15.6156
 187   2.0000      -0.568650       -15.4737
 188   2.0000      -0.565575       -15.3901
 189   2.0000      -0.562198       -15.2982
 190   2.0000      -0.559230       -15.2174
 191   2.0000      -0.559098       -15.2138
 192   2.0000      -0.557848       -15.1798
 193   2.0000      -0.555332       -15.1113
 194   2.0000      -0.551092       -14.9960
 195   2.0000      -0.549554       -14.9541
 196   2.0000      -0.547748       -14.9050
 197   2.0000      -0.547351       -14.8942
 198   2.0000      -0.543942       -14.8014
 199   2.0000      -0.538671       -14.6580
 200   2.0000      -0.537364       -14.6224
 201   2.0000      -0.532713       -14.4959
 202   2.0000      -0.531754       -14.4698
 203   2.0000      -0.528697       -14.3866
 204   2.0000      -0.524857       -14.2821
 205   2.0000      -0.521521       -14.1913
 206   2.0000      -0.520534       -14.1645
 207   2.0000      -0.520344       -14.1593
 208   2.0000      -0.517210       -14.0740
 209   2.0000      -0.516157       -14.0454
 210   2.0000      -0.513501       -13.9731
 211   2.0000      -0.512762       -13.9530
 212   2.0000      -0.511556       -13.9201
 213   2.0000      -0.507816       -13.8184
 214   2.0000      -0.506846       -13.7920
 215   2.0000      -0.504286       -13.7223
 216   2.0000      -0.500340       -13.6149
 217   2.0000      -0.497297       -13.5321
 218   2.0000      -0.496702       -13.5159
 219   2.0000      -0.496158       -13.5011
 220   2.0000      -0.491228       -13.3670
 221   2.0000      -0.490307       -13.3419
 222   2.0000      -0.488187       -13.2842
 223   2.0000      -0.485110       -13.2005
 224   2.0000      -0.483839       -13.1659
 225   2.0000      -0.481283       -13.0964
 226   2.0000      -0.480239       -13.0680
 227   2.0000      -0.475091       -12.9279
 228   2.0000      -0.474774       -12.9193
 229   2.0000      -0.469754       -12.7827
 230   2.0000      -0.469076       -12.7642
 231   2.0000      -0.466839       -12.7033
 232   2.0000      -0.465365       -12.6632
 233   2.0000      -0.463433       -12.6107
 234   2.0000      -0.462938       -12.5972
 235   2.0000      -0.459066       -12.4918
 236   2.0000      -0.458590       -12.4789
 237   2.0000      -0.456909       -12.4331
 238   2.0000      -0.454082       -12.3562
 239   2.0000      -0.453882       -12.3508
 240   2.0000      -0.452295       -12.3076
 241   2.0000      -0.449745       -12.2382
 242   2.0000      -0.448556       -12.2058
 243   2.0000      -0.448254       -12.1976
 244   2.0000      -0.447931       -12.1888
 245   2.0000      -0.446684       -12.1549
 246   2.0000      -0.443533       -12.0692
 247   2.0000      -0.441758       -12.0209
 248   2.0000      -0.440843       -11.9959
 249   2.0000      -0.440302       -11.9812
 250   2.0000      -0.438970       -11.9450
 251   2.0000      -0.436356       -11.8739
 252   2.0000      -0.435702       -11.8561
 253   2.0000      -0.433085       -11.7848
 254   2.0000      -0.432730       -11.7752
 255   2.0000      -0.431082       -11.7303
 256   2.0000      -0.430574       -11.7165
 257   2.0000      -0.428207       -11.6521
 258   2.0000      -0.427345       -11.6286
 259   2.0000      -0.425605       -11.5813
 260   2.0000      -0.425201       -11.5703
 261   2.0000      -0.422726       -11.5030
 262   2.0000      -0.420148       -11.4328
 263   2.0000      -0.416870       -11.3436
 264   2.0000      -0.413776       -11.2594
 265   2.0000      -0.407532       -11.0895
 266   2.0000      -0.404818       -11.0156
 267   2.0000      -0.398739       -10.8502
 268   2.0000      -0.388676       -10.5764
 269   2.0000      -0.382832       -10.4174
 270   2.0000      -0.378521       -10.3001
 271   2.0000      -0.373987       -10.1767
 272   2.0000      -0.362491        -9.8639
 273   2.0000      -0.359694        -9.7878
 274   2.0000      -0.349691        -9.5156
 275   2.0000      -0.344599        -9.3770
 276   2.0000      -0.338193        -9.2027
 277   2.0000      -0.335613        -9.1325
 278   2.0000      -0.332528        -9.0485
 279   2.0000      -0.329144        -8.9565
 280   2.0000      -0.323040        -8.7904
 281   2.0000      -0.316555        -8.6139
 282   2.0000      -0.312207        -8.4956
 283   2.0000      -0.305401        -8.3104
 284   2.0000      -0.299684        -8.1548
 285   2.0000      -0.294729        -8.0200
 286   2.0000      -0.276183        -7.5153
 287   2.0000      -0.242273        -6.5926
 288   0.0000      -0.121047        -3.2939
 289   0.0000      -0.109064        -2.9678
 290   0.0000      -0.094566        -2.5733
 291   0.0000      -0.088121        -2.3979
 292   0.0000      -0.062160        -1.6914

MULLIKEN ATOMIC CHARGES
-----------------------
   0 C :   -0.094584
   1 C :    0.301458
   2 F :   -0.190995
   3 C :   -0.032078
   4 C :   -0.009432
   5 C :    0.098545
   6 C :    0.099910
   7 C :   -0.080191
   8 C :    0.031342
   9 C :    0.012726
  10 C :   -0.079608
  11 C :    0.135423
  12 O :   -0.147614
  13 C :   -0.142069
  14 C :    0.275770
  15 C :   -0.338009
  16 C :   -0.201767
  17 N :    0.166764
  18 C :   -0.169027
  19 N :    0.157353
  20 C :    0.080476
  21 C :   -0.112828
  22 C :   -0.000494
  23 C :   -0.009224
  24 C :   -0.067771
  25 S :    0.210739
  26 C :   -0.107912
  27 C :    0.031770
  28 C :    0.308439
  29 C :   -0.288248
  30 C :   -0.183612
  31 N :    0.168075
  32 C :   -0.187358
  33 N :    0.170349
  34 C :   -0.066329
  35 C :   -0.051351
  36 S :    0.187187
  37 C :   -0.114520
  38 C :    0.239325
  39 O :   -0.305206
  40 C :    0.173174
  41 C :   -0.129229
  42 C :   -0.022930
  43 S :    0.146741
  44 C :   -0.027944
  45 C :   -0.066773
  46 C :    0.028509
  47 C :   -0.108767
  48 S :    0.191717
  49 C :   -0.068815
  50 C :   -0.007844
  51 C :    0.301980
  52 C :   -0.282700
  53 C :   -0.183459
  54 N :    0.173927
  55 C :   -0.189294
  56 N :    0.177883
  57 C :    0.000049
  58 C :   -0.113790
  59 S :    0.215319
  60 C :    0.083773
  61 C :   -0.141203
  62 C :    0.137880
  63 O :   -0.145921
  64 C :    0.013361
  65 C :   -0.077473
  66 C :    0.097819
  67 C :    0.098210
  68 C :   -0.094229
  69 C :    0.303183
  70 C :   -0.031287
  71 C :   -0.006425
  72 F :   -0.189559
  73 C :   -0.078526
  74 C :    0.030682
  75 C :    0.271030
  76 C :   -0.335564
  77 C :   -0.202535
  78 N :    0.166296
  79 C :   -0.168768
  80 N :    0.164230
  81 H :   -0.000298
  82 H :    0.003924
  83 H :   -0.009484
  84 H :    0.000641
  85 H :   -0.011994
  86 H :    0.020575
  87 H :    0.025356
  88 H :    0.015832
  89 H :    0.060450
  90 H :    0.029201
  91 H :    0.029451
  92 H :   -0.013435
  93 H :    0.017713
  94 H :    0.026629
  95 H :    0.021203
  96 H :   -0.011284
  97 H :   -0.000251
  98 H :    0.004490
  99 H :   -0.008974
 100 H :    0.002102
Sum of atomic charges:   -0.0000000

LOEWDIN ATOMIC CHARGES
----------------------
   0 C :   -0.041186
   1 C :    0.092932
   2 F :   -0.065049
   3 C :   -0.037506
   4 C :    0.004224
   5 C :   -0.019000
   6 C :    0.003658
   7 C :    0.013121
   8 C :   -0.016717
   9 C :   -0.059869
  10 C :    0.033888
  11 C :    0.082113
  12 O :   -0.148464
  13 C :   -0.097345
  14 C :    0.066150
  15 C :   -0.138997
  16 C :   -0.015260
  17 N :   -0.048575
  18 C :   -0.018560
  19 N :   -0.048920
  20 C :    0.043822
  21 C :   -0.185244
  22 C :    0.012878
  23 C :   -0.071561
  24 C :   -0.151568
  25 S :    0.496356
  26 C :   -0.194924
  27 C :   -0.052712
  28 C :    0.084440
  29 C :   -0.098769
  30 C :   -0.013905
  31 N :   -0.035123
  32 C :   -0.013535
  33 N :   -0.032405
  34 C :   -0.031593
  35 C :   -0.162643
  36 S :    0.468717
  37 C :   -0.223959
  38 C :    0.032221
  39 O :   -0.083420
  40 C :    0.084068
  41 C :   -0.095833
  42 C :   -0.174750
  43 S :    0.449051
  44 C :   -0.168859
  45 C :   -0.034197
  46 C :   -0.053480
  47 C :   -0.186347
  48 S :    0.479773
  49 C :   -0.157668
  50 C :   -0.067829
  51 C :    0.081577
  52 C :   -0.094346
  53 C :   -0.013034
  54 N :   -0.028785
  55 C :   -0.016832
  56 N :   -0.027049
  57 C :    0.010432
  58 C :   -0.181595
  59 S :    0.498810
  60 C :    0.042809
  61 C :   -0.091211
  62 C :    0.082851
  63 O :   -0.146098
  64 C :   -0.060564
  65 C :    0.035142
  66 C :   -0.018538
  67 C :    0.004053
  68 C :   -0.040769
  69 C :    0.093963
  70 C :   -0.036170
  71 C :    0.004732
  72 F :   -0.063648
  73 C :    0.014564
  74 C :   -0.017536
  75 C :    0.065199
  76 C :   -0.136164
  77 C :   -0.015482
  78 N :   -0.047587
  79 C :   -0.019106
  80 N :   -0.045193
  81 H :    0.043870
  82 H :    0.041778
  83 H :    0.035455
  84 H :    0.040658
  85 H :    0.039441
  86 H :    0.045428
  87 H :    0.042974
  88 H :    0.039335
  89 H :    0.038639
  90 H :    0.018954
  91 H :    0.018907
  92 H :    0.027732
  93 H :    0.038359
  94 H :    0.043044
  95 H :    0.045958
  96 H :    0.039870
  97 H :    0.044164
  98 H :    0.042299
  99 H :    0.035808
 100 H :    0.041262

  Mayer bond orders larger than 0.100000
B(  0-C ,  1-C ) :   1.4419 B(  0-C ,  6-C ) :   1.2030 B(  0-C , 81-H ) :   1.0064
B(  1-C ,  2-F ) :   1.0878 B(  1-C ,  3-C ) :   1.2542 B(  3-C ,  4-C ) :   1.4618
B(  3-C , 82-H ) :   0.9929 B(  4-C ,  5-C ) :   1.2354 B(  4-C , 83-H ) :   0.9967
B(  5-C ,  6-C ) :   1.2553 B(  5-C , 10-C ) :   1.1916 B(  6-C ,  7-C ) :   1.2050
B(  7-C ,  8-C ) :   1.4657 B(  7-C , 84-H ) :   0.9945 B(  8-C ,  9-C ) :   1.2183
B(  8-C , 14-C ) :   0.9929 B(  9-C , 10-C ) :   1.4740 B(  9-C , 11-C ) :   0.9218
B( 10-C , 85-H ) :   1.0147 B( 11-C , 12-O ) :   2.2626 B( 11-C , 13-C ) :   0.9460
B( 13-C , 14-C ) :   1.0453 B( 13-C , 20-C ) :   1.6453 B( 14-C , 15-C ) :   1.6419
B( 15-C , 16-C ) :   1.1751 B( 15-C , 18-C ) :   1.1285 B( 16-C , 17-N ) :   2.9942
B( 18-C , 19-N ) :   2.9902 B( 20-C , 21-C ) :   1.1528 B( 20-C , 86-H ) :   0.9274
B( 21-C , 22-C ) :   1.3852 B( 21-C , 25-S ) :   1.0778 B( 22-C , 23-C ) :   1.3661
B( 22-C , 87-H ) :   0.9795 B( 23-C , 24-C ) :   1.3933 B( 23-C , 28-C ) :   1.0017
B( 24-C , 25-S ) :   1.1599 B( 24-C , 26-C ) :   1.2100 B( 26-C , 27-C ) :   1.4296
B( 26-C , 36-S ) :   1.1049 B( 27-C , 28-C ) :   0.9913 B( 27-C , 34-C ) :   1.2732
B( 28-C , 29-C ) :   1.7156 B( 29-C , 30-C ) :   1.1341 B( 29-C , 32-C ) :   1.1335
B( 30-C , 31-N ) :   2.9905 B( 32-C , 33-N ) :   2.9841 B( 34-C , 35-C ) :   1.4589
B( 34-C , 88-H ) :   0.9963 B( 35-C , 36-S ) :   1.1057 B( 35-C , 37-C ) :   1.1530
B( 37-C , 38-C ) :   1.4647 B( 37-C , 42-C ) :   0.1174 B( 37-C , 43-S ) :   1.1008
B( 38-C , 39-O ) :   1.1772 B( 38-C , 41-C ) :   1.2254 B( 39-O , 40-C ) :   0.9396
B( 40-C , 89-H ) :   0.9786 B( 40-C , 90-H ) :   0.9712 B( 40-C , 91-H ) :   0.9708
B( 41-C , 42-C ) :   1.4457 B( 41-C , 92-H ) :   0.9972 B( 42-C , 43-S ) :   1.1364
B( 42-C , 44-C ) :   1.1788 B( 44-C , 45-C ) :   1.4401 B( 44-C , 48-S ) :   1.1127
B( 45-C , 46-C ) :   1.3081 B( 45-C , 93-H ) :   0.9892 B( 46-C , 47-C ) :   1.4381
B( 46-C , 51-C ) :   0.9910 B( 47-C , 48-S ) :   1.1092 B( 47-C , 49-C ) :   1.2046
B( 49-C , 50-C ) :   1.4031 B( 49-C , 59-S ) :   1.1553 B( 50-C , 51-C ) :   1.0018
B( 50-C , 57-C ) :   1.3624 B( 51-C , 52-C ) :   1.7208 B( 52-C , 53-C ) :   1.1346
B( 52-C , 55-C ) :   1.1320 B( 53-C , 54-N ) :   2.9822 B( 55-C , 56-N ) :   2.9922
B( 57-C , 58-C ) :   1.3942 B( 57-C , 94-H ) :   0.9794 B( 58-C , 59-S ) :   1.0853
B( 58-C , 60-C ) :   1.1405 B( 60-C , 61-C ) :   1.6618 B( 60-C , 95-H ) :   0.9299
B( 61-C , 62-C ) :   0.9418 B( 61-C , 75-C ) :   1.0386 B( 62-C , 63-O ) :   2.2659
B( 62-C , 64-C ) :   0.9210 B( 64-C , 65-C ) :   1.4717 B( 64-C , 74-C ) :   1.2165
B( 65-C , 66-C ) :   1.1927 B( 65-C , 96-H ) :   1.0145 B( 66-C , 67-C ) :   1.2540
B( 66-C , 71-C ) :   1.2360 B( 67-C , 68-C ) :   1.2027 B( 67-C , 73-C ) :   1.2052
B( 68-C , 69-C ) :   1.4410 B( 68-C , 97-H ) :   1.0064 B( 69-C , 70-C ) :   1.2550
B( 69-C , 72-F ) :   1.0895 B( 70-C , 71-C ) :   1.4607 B( 70-C , 98-H ) :   0.9926
B( 71-C , 99-H ) :   0.9965 B( 73-C , 74-C ) :   1.4638 B( 73-C ,100-H ) :   0.9947
B( 74-C , 75-C ) :   0.9950 B( 75-C , 76-C ) :   1.6516 B( 76-C , 77-C ) :   1.1732
B( 76-C , 79-C ) :   1.1282 B( 77-C , 78-N ) :   2.9957 B( 79-C , 80-N ) :   2.9931

-----------------------------------------------------------------------------
         ABSORPTION SPECTRUM VIA TRANSITION ELECTRIC DIPOLE MOMENTS
-----------------------------------------------------------------------------
State   Energy  Wavelength   fosc         T2         TX        TY        TZ
        (cm-1)    (nm)                  (au**2)     (au)      (au)      (au)
-----------------------------------------------------------------------------
   0   10931.6    914.8   0.714416715  21.51508  -4.09440   2.09266  -0.60970
   1   12129.3    824.4   0.018820546   0.51082   0.04476  -0.34305   0.62541
   2   17699.9    565.0   1.434473443  26.68071  -4.38906   2.68399  -0.46157
   3   19094.6    523.7   0.057872482   0.99778   0.21835   0.22590  -0.94820
   4   19805.3    504.9   0.129305918   2.14938   0.76675  -1.02231   0.71857
   5   22246.6    449.5   0.019296120   0.28555   0.24585   0.41175   0.23573
   6   24862.6    402.2   0.376419188   4.98427  -2.06580   0.63128  -0.56412
   7   25508.9    392.0   0.091831633   1.18516  -0.97420   0.06529  -0.48149
   8   26140.3    382.6   0.010563828   0.13304  -0.09850  -0.30926  -0.16643
   9   26615.4    375.7   0.265276580   3.28127   1.44016  -0.88118   0.65629
  10   27045.9    369.7   0.042167851   0.51328   0.64980   0.28952   0.08495
  11   27534.7    363.2   0.005545940   0.06631   0.11900  -0.09377   0.20822
  12   27797.5    359.7   0.053999669   0.63953  -0.37315   0.11035  -0.69865
  13   27999.0    357.2   0.106099483   1.24752  -1.04727   0.02020   0.38774
  14   28296.1    353.4   0.094337081   1.09757   0.57963  -0.86977   0.07145
  15   28752.8    347.8   0.094684193   1.08411  -0.15705  -0.72932   0.72632
  16   28972.1    345.2   0.012958752   0.14725  -0.28650  -0.23112   0.10842
  17   29370.2    340.5   0.014777475   0.16564   0.33874  -0.22479   0.01911
  18   29469.3    339.3   0.039208777   0.43802  -0.13022  -0.05106   0.64688
  19   30085.2    332.4   0.155774994   1.70459   1.26001   0.03109   0.34060
  20   30288.6    330.2   0.124860818   1.35713  -0.34315  -0.36934   1.05022
  21   30536.7    327.5   0.415558680   4.48008   2.09710  -0.28012   0.06163
  22   30685.0    325.9   0.144124720   1.54628  -0.07066   0.60099  -1.08632
  23   30750.9    325.2   0.344281068   3.68580  -0.24425  -1.11076   1.54672
  24   31255.5    319.9   0.018228273   0.19200   0.23776   0.33741  -0.14703
  25   31469.2    317.8   0.073114764   0.76488   0.22290   0.45056  -0.71567
  26   31905.4    313.4   0.096351225   0.99419   0.87305  -0.45450   0.15935
  27   32694.4    305.9   0.236045974   2.37683  -0.46558   1.05146  -1.02688
  28   33029.3    302.8   0.042074675   0.41937   0.59283  -0.14991  -0.21317
  29   33227.5    301.0   0.195060292   1.93262   0.93642  -0.67618   0.77364
  30   33765.3    296.2   0.063149842   0.61571  -0.13998   0.24836  -0.73105
  31   33951.1    294.5   0.435707767   4.22490   1.70775  -0.30353   1.10288
  32   34103.2    293.2   0.050873835   0.49111   0.27200  -0.03921   0.64466
  33   34264.0    291.9   0.240081107   2.30672   0.91027   0.65473  -1.02443
  34   34446.7    290.3   0.298723882   2.85494   1.65140   0.27633  -0.22684
  35   34666.8    288.5   0.101199102   0.96103  -0.60525   0.43987  -0.63342
  36   34905.1    286.5   0.209797087   1.97873  -1.38525   0.14451   0.19732
  37   35030.0    285.5   0.224551213   2.11033  -1.00427   0.44427  -0.95100
  38   35350.2    282.9   0.009401931   0.08756  -0.16931  -0.05856   0.23551
  39   35419.9    282.3   0.022052069   0.20496   0.38201   0.07167  -0.23216
  40   35537.8    281.4   0.186977090   1.73210  -0.73438   0.68553  -0.85020
  41   35707.8    280.1   0.216397905   1.99511  -0.68902   0.49814  -1.12792
  42   35731.0    279.9   0.087702870   0.80806  -0.56584  -0.48977   0.49801
  43   36063.6    277.3   0.075233097   0.68678   0.81102   0.16832  -0.02618
  44   36144.7    276.7   0.007276165   0.06627   0.08753  -0.02035  -0.24124
  45   36216.7    276.1   0.106651635   0.96947  -0.92517   0.18842  -0.27935
  46   36537.7    273.7   0.006720991   0.06056  -0.22191   0.08557  -0.06318
  47   36794.5    271.8   0.014133769   0.12646   0.10653   0.14185  -0.30820
  48   36999.6    270.3   0.027656230   0.24608  -0.28722   0.39071   0.10451
  49   37344.1    267.8   0.060398327   0.53245  -0.10658  -0.46334   0.55354
  50   37728.9    265.0   0.050615186   0.44165   0.65353  -0.11970  -0.01515
  51   38522.0    259.6   0.088611298   0.75728  -0.76669  -0.22924  -0.34193
  52   38616.6    259.0   0.037051951   0.31587  -0.22157  -0.41291   0.31029
  53   38729.8    258.2   0.060953315   0.51812  -0.46623  -0.52946   0.14289
  54   39057.8    256.0   0.011604327   0.09781  -0.29352  -0.10327  -0.03149
  55   39180.9    255.2   0.007971475   0.06698   0.25715   0.02737   0.01014
  56   39353.1    254.1   0.104096702   0.87083  -0.46290  -0.69701   0.41320
  57   39555.3    252.8   0.036383881   0.30282  -0.54487  -0.00158   0.07704
  58   39916.6    250.5   0.036183423   0.29842  -0.20447  -0.34446   0.37143
  59   39941.4    250.4   0.016824298   0.13867   0.19680   0.20131   0.24375
  60   40209.5    248.7   0.009711227   0.07951   0.08751   0.15031   0.22194

FINAL SINGLE POINT ENERGY     -5262.167761719536

DIPOLE MOMENT
-------------
                                X             Y             Z
Electronic contribution:     -1.70510      -5.36763       5.32346
Nuclear contribution   :      3.74401       5.23055      -5.58776
                        -----------------------------------------
Total Dipole Moment    :      2.03891      -0.13708      -0.26430
                        -----------------------------------------
Magnitude (a.u.)       :      2.06053
Magnitude (Debye)      :      5.23745

Rotational constants in cm-1:     0.002270     0.000143     0.000137
Rotational constants in MHz :    68.048065     4.279293     4.095678

                             ****ORCA TERMINATED NORMALLY****
TOTAL RUN TIME: 0 days 0 hours 19 minutes 53 seconds 359 msec
