                         Program Version 4.2.0 -  RELEASE  -
|  1> # ORCA input file
|  2> # SCF done       -209.770825602974          0.000873762037
|  3> ! CAM-B3LYP def2-SVP def2/J RIJCOSX Grid4 TightSCF
|  4> %maxcore 5000
|  5> %tddft
|  6>     Mode sTDDFT
|  7>     Ethresh 5.0
|  8>     maxcore 5000
|  9> end
| 10>
| 11> %pal
| 12>   nprocs 6
| 13>   end
| 14> * xyz 0 1
| 15>    C       -4.50387         3.19151         3.63670
| 16>    C       -4.59865         4.17904         2.66731
| 17>    C       -5.21842         3.93279         1.45029
| 18>    C       -5.77409         2.69317         1.17165
| 19>    C       -5.69108         1.70193         2.13522
| 20>    C       -5.04618         1.94422         3.36905
| 21>    C       -5.07425         0.72303         4.16370
| 22>    C       -4.64862         0.60131         5.45952
| 23>    C       -4.12659         1.66754         6.22327
| 24>    N       -3.69453         2.48545         6.90260
| 25>    C       -4.69789        -0.57644         6.23481
| 26>    N       -4.70787        -1.49415         6.92510
| 27>    C       -5.62241        -0.32410         3.30727
| 28>    C       -6.19573         0.33810         2.14014
| 29>    C       -7.22510        -0.11924         1.36139
| 30>    C       -7.88311        -1.35221         1.54412
| 31>    N       -8.48365        -2.32391         1.66138
| 32>    C       -7.82888         0.63431         0.33189
| 33>    N       -8.36623         1.19437        -0.51304
| 34>    C       -5.50672        -1.66460         3.55933
| 35>    C       -5.61629        -2.72072         2.63093
| 36>    C       -5.45809        -2.69335         1.25026
| 37>    C       -5.59748        -3.94917         0.68139
| 38>    C       -5.86188        -4.95969         1.63433
| 39>    S       -5.90895        -4.35428         3.22311
| 40>    C       -6.00873        -6.18603         0.94813
| 41>    C       -5.83631        -5.95845        -0.43127
| 42>    C       -5.58377        -4.54156        -0.64264
| 43>    C       -5.40951        -3.89246        -1.83016
| 44>    C       -5.42607        -4.57117        -3.06620
| 45>    N       -5.43370        -5.12968        -4.06749
| 46>    C       -5.20712        -2.49714        -1.87981
| 47>    N       -5.04283        -1.36240        -1.89997
| 48>    C       -5.96351        -7.11357        -1.19466
| 49>    C       -6.23778        -8.22709        -0.41461
| 50>    S       -6.33681        -7.82513         1.29723
| 51>    C       -6.42914        -9.56555        -0.85757
| 52>    C       -6.77504       -10.58817        -0.00264
| 53>    C       -6.97440       -11.90984        -0.38352
| 54>    C       -6.81213       -12.33116        -1.77597
| 55>    C       -6.47985       -11.49643        -2.78565
| 56>    S       -6.19384        -9.81889        -2.58287
| 57>    C       -7.08533       -13.72621        -1.77942
| 58>    C       -7.40682       -14.15820        -0.48868
| 59>    C       -7.67590       -15.54583        -0.46171
| 60>    C       -7.55800       -16.10726        -1.69362
| 61>    S       -7.11764       -14.99099        -2.93806
| 62>    C       -7.34824       -13.02615         0.40279
| 63>    C       -7.61814       -12.96022         1.78276
| 64>    C       -8.05246       -13.98086         2.57597
| 65>    C       -8.33530       -13.84144         3.95136
| 66>    C       -8.21679       -12.71498         4.76220
| 67>    C       -8.61608       -12.96282         6.06635
| 68>    C       -9.04673       -14.29034         6.27595
| 69>    S       -8.94804       -15.22558         4.84772
| 70>    C       -9.43479       -14.43227         7.62316
| 71>    C       -9.25202       -13.18755         8.27473
| 72>    C       -8.72485       -12.23242         7.32121
| 73>    C       -8.37986       -10.93289         7.55764
| 74>    C       -8.52162       -10.35915         8.83854
| 75>    N       -8.64885        -9.91238         9.88696
| 76>    C       -7.87017       -10.09957         6.54122
| 77>    N       -7.46456        -9.43000         5.70282
| 78>    C       -9.59331       -13.22384         9.61640
| 79>    C      -10.03304       -14.48094        10.01710
| 80>    S      -10.04649       -15.62395         8.67137
| 81>    C      -10.51168       -14.91181        11.26803
| 82>    C      -10.33793       -14.31309        12.48904
| 83>    C      -11.20687       -14.54055        13.63780
| 84>    C      -12.09995       -15.56377        13.81915
| 85>    C      -12.32293       -16.63203        12.92557
| 86>    N      -12.56000       -17.53018        12.24992
| 87>    C      -12.90791       -15.71352        14.96654
| 88>    N      -13.59012       -15.90384        15.86985
| 89>    C      -10.95723       -13.45352        14.57599
| 90>    C       -9.87322       -12.68132        14.10163
| 91>    C       -9.44837       -11.55758        14.79001
| 92>    C      -10.10621       -11.21321        15.96149
| 93>    C      -11.16081       -11.97847        16.43847
| 94>    C      -11.59829       -13.10266        15.75361
| 95>    C       -9.37263       -13.29390        12.88063
| 96>    C       -8.10682       -13.12888        12.38329
| 97>    C       -7.16859       -12.21328        12.90574
| 98>    N       -6.35789       -11.49791        13.28965
| 99>    C       -7.54110       -13.91725        11.36168
|100>    N       -7.01460       -14.54539        10.55731
|101>    H       -4.01075         3.39999         4.57167
|102>    H       -4.17649         5.15260         2.86416
|103>    H       -5.26842         4.71420         0.70770
|104>    H       -6.24279         2.50785         0.21892
|105>    H       -5.23945        -1.96627         4.56313
|106>    H       -5.21089        -1.80030         0.70526
|107>    H       -5.86856        -7.15709        -2.26477
|108>    H       -6.89858       -10.32090         1.03865
|109>    H       -6.37288       -11.83092        -3.80539
|110>    H       -7.93816       -16.12021         0.40711
|111>    H       -7.70501       -17.13579        -1.95948
|112>    H       -7.47847       -11.99095         2.24017
|113>    H       -8.21630       -14.95944         2.15343
|114>    H       -7.85645       -11.76746         4.40789
|115>    H       -9.57245       -12.37267        10.27272
|116>    H      -11.14638       -15.78708        11.23044
|117>    H       -8.63779       -10.95012        14.42160
|118>    H       -9.79261       -10.33601        16.50625
|119>    H      -11.65587       -11.69385        17.35431
|120>    H      -12.42468       -13.67881        16.13572
|121> *
|122>
|123>                          ****END OF INPUT****

CARTESIAN COORDINATES (ANGSTROEM)
---------------------------------
  C     -4.503870    3.191510    3.636700
  C     -4.598650    4.179040    2.667310
  C     -5.218420    3.932790    1.450290
  C     -5.774090    2.693170    1.171650
  C     -5.691080    1.701930    2.135220
  C     -5.046180    1.944220    3.369050
  C     -5.074250    0.723030    4.163700
  C     -4.648620    0.601310    5.459520
  C     -4.126590    1.667540    6.223270
  N     -3.694530    2.485450    6.902600
  C     -4.697890   -0.576440    6.234810
  N     -4.707870   -1.494150    6.925100
  C     -5.622410   -0.324100    3.307270
  C     -6.195730    0.338100    2.140140
  C     -7.225100   -0.119240    1.361390
  C     -7.883110   -1.352210    1.544120
  N     -8.483650   -2.323910    1.661380
  C     -7.828880    0.634310    0.331890
  N     -8.366230    1.194370   -0.513040
  C     -5.506720   -1.664600    3.559330
  C     -5.616290   -2.720720    2.630930
  C     -5.458090   -2.693350    1.250260
  C     -5.597480   -3.949170    0.681390
  C     -5.861880   -4.959690    1.634330
  S     -5.908950   -4.354280    3.223110
  C     -6.008730   -6.186030    0.948130
  C     -5.836310   -5.958450   -0.431270
  C     -5.583770   -4.541560   -0.642640
  C     -5.409510   -3.892460   -1.830160
  C     -5.426070   -4.571170   -3.066200
  N     -5.433700   -5.129680   -4.067490
  C     -5.207120   -2.497140   -1.879810
  N     -5.042830   -1.362400   -1.899970
  C     -5.963510   -7.113570   -1.194660
  C     -6.237780   -8.227090   -0.414610
  S     -6.336810   -7.825130    1.297230
  C     -6.429140   -9.565550   -0.857570
  C     -6.775040  -10.588170   -0.002640
  C     -6.974400  -11.909840   -0.383520
  C     -6.812130  -12.331160   -1.775970
  C     -6.479850  -11.496430   -2.785650
  S     -6.193840   -9.818890   -2.582870
  C     -7.085330  -13.726210   -1.779420
  C     -7.406820  -14.158200   -0.488680
  C     -7.675900  -15.545830   -0.461710
  C     -7.558000  -16.107260   -1.693620
  S     -7.117640  -14.990990   -2.938060
  C     -7.348240  -13.026150    0.402790
  C     -7.618140  -12.960220    1.782760
  C     -8.052460  -13.980860    2.575970
  C     -8.335300  -13.841440    3.951360
  C     -8.216790  -12.714980    4.762200
  C     -8.616080  -12.962820    6.066350
  C     -9.046730  -14.290340    6.275950
  S     -8.948040  -15.225580    4.847720
  C     -9.434790  -14.432270    7.623160
  C     -9.252020  -13.187550    8.274730
  C     -8.724850  -12.232420    7.321210
  C     -8.379860  -10.932890    7.557640
  C     -8.521620  -10.359150    8.838540
  N     -8.648850   -9.912380    9.886960
  C     -7.870170  -10.099570    6.541220
  N     -7.464560   -9.430000    5.702820
  C     -9.593310  -13.223840    9.616400
  C    -10.033040  -14.480940   10.017100
  S    -10.046490  -15.623950    8.671370
  C    -10.511680  -14.911810   11.268030
  C    -10.337930  -14.313090   12.489040
  C    -11.206870  -14.540550   13.637800
  C    -12.099950  -15.563770   13.819150
  C    -12.322930  -16.632030   12.925570
  N    -12.560000  -17.530180   12.249920
  C    -12.907910  -15.713520   14.966540
  N    -13.590120  -15.903840   15.869850
  C    -10.957230  -13.453520   14.575990
  C     -9.873220  -12.681320   14.101630
  C     -9.448370  -11.557580   14.790010
  C    -10.106210  -11.213210   15.961490
  C    -11.160810  -11.978470   16.438470
  C    -11.598290  -13.102660   15.753610
  C     -9.372630  -13.293900   12.880630
  C     -8.106820  -13.128880   12.383290
  C     -7.168590  -12.213280   12.905740
  N     -6.357890  -11.497910   13.289650
  C     -7.541100  -13.917250   11.361680
  N     -7.014600  -14.545390   10.557310
  H     -4.010750    3.399990    4.571670
  H     -4.176490    5.152600    2.864160
  H     -5.268420    4.714200    0.707700
  H     -6.242790    2.507850    0.218920
  H     -5.239450   -1.966270    4.563130
  H     -5.210890   -1.800300    0.705260
  H     -5.868560   -7.157090   -2.264770
  H     -6.898580  -10.320900    1.038650
  H     -6.372880  -11.830920   -3.805390
  H     -7.938160  -16.120210    0.407110
  H     -7.705010  -17.135790   -1.959480
  H     -7.478470  -11.990950    2.240170
  H     -8.216300  -14.959440    2.153430
  H     -7.856450  -11.767460    4.407890
  H     -9.572450  -12.372670   10.272720
  H    -11.146380  -15.787080   11.230440
  H     -8.637790  -10.950120   14.421600
  H     -9.792610  -10.336010   16.506250
  H    -11.655870  -11.693850   17.354310
  H    -12.424680  -13.678810   16.135720

 Total Charge           Charge          ....    0
 Multiplicity           Mult            ....    1
 Number of Electrons    NEL             ....  608
 Basis Dimension        Dim             .... 1328

ORBITAL ENERGIES
----------------

  NO   OCC          E(Eh)            E(eV)
   0   2.0000     -89.006107     -2421.9793
   1   2.0000     -89.005865     -2421.9727
   2   2.0000     -88.999134     -2421.7896
   3   2.0000     -88.995234     -2421.6834
   4   2.0000     -88.995184     -2421.6821
   5   2.0000     -88.972067     -2421.0530
   6   2.0000     -14.443380      -393.0243
   7   2.0000     -14.442392      -392.9975
   8   2.0000     -14.440289      -392.9402
   9   2.0000     -14.438183      -392.8829
  10   2.0000     -14.427418      -392.5900
  11   2.0000     -14.427179      -392.5835
  12   2.0000     -14.422912      -392.4674
  13   2.0000     -14.422672      -392.4609
  14   2.0000     -14.422472      -392.4554
  15   2.0000     -14.421861      -392.4388
  16   2.0000     -14.417404      -392.3175
  17   2.0000     -14.417036      -392.3075
  18   2.0000     -10.378582      -282.4156
  19   2.0000     -10.372695      -282.2554
  20   2.0000     -10.365543      -282.0608
  21   2.0000     -10.360514      -281.9239
  22   2.0000     -10.356014      -281.8015
  23   2.0000     -10.354537      -281.7613
  24   2.0000     -10.354218      -281.7526
  25   2.0000     -10.353016      -281.7199
  26   2.0000     -10.352731      -281.7121
  27   2.0000     -10.350580      -281.6536
  28   2.0000     -10.349439      -281.6225
  29   2.0000     -10.348694      -281.6023
  30   2.0000     -10.347847      -281.5792
  31   2.0000     -10.347224      -281.5623
  32   2.0000     -10.347166      -281.5607
  33   2.0000     -10.346980      -281.5557
  34   2.0000     -10.346453      -281.5413
  35   2.0000     -10.345982      -281.5285
  36   2.0000     -10.343389      -281.4579
  37   2.0000     -10.342340      -281.4294
  38   2.0000     -10.341224      -281.3990
  39   2.0000     -10.338533      -281.3258
  40   2.0000     -10.338354      -281.3209
  41   2.0000     -10.338135      -281.3150
  42   2.0000     -10.335453      -281.2420
  43   2.0000     -10.334211      -281.2082
  44   2.0000     -10.331986      -281.1476
  45   2.0000     -10.330957      -281.1196
  46   2.0000     -10.329159      -281.0707
  47   2.0000     -10.328917      -281.0641
  48   2.0000     -10.326249      -280.9915
  49   2.0000     -10.325229      -280.9638
  50   2.0000     -10.324960      -280.9565
  51   2.0000     -10.324897      -280.9547
  52   2.0000     -10.323331      -280.9121
  53   2.0000     -10.323052      -280.9045
  54   2.0000     -10.322444      -280.8880
  55   2.0000     -10.320411      -280.8327
  56   2.0000     -10.319322      -280.8030
  57   2.0000     -10.318889      -280.7912
  58   2.0000     -10.318461      -280.7796
  59   2.0000     -10.318395      -280.7778
  60   2.0000     -10.318023      -280.7677
  61   2.0000     -10.317391      -280.7505
  62   2.0000     -10.316402      -280.7236
  63   2.0000     -10.316314      -280.7212
  64   2.0000     -10.315808      -280.7074
  65   2.0000     -10.315685      -280.7041
  66   2.0000     -10.311293      -280.5846
  67   2.0000     -10.310917      -280.5743
  68   2.0000     -10.310665      -280.5674
  69   2.0000     -10.310221      -280.5554
  70   2.0000     -10.306943      -280.4662
  71   2.0000     -10.305773      -280.4343
  72   2.0000     -10.304174      -280.3908
  73   2.0000     -10.303583      -280.3747
  74   2.0000     -10.303426      -280.3705
  75   2.0000     -10.302446      -280.3438
  76   2.0000     -10.302287      -280.3395
  77   2.0000     -10.301781      -280.3257
  78   2.0000     -10.298577      -280.2385
  79   2.0000     -10.298221      -280.2289
  80   2.0000     -10.298131      -280.2264
  81   2.0000     -10.297334      -280.2047
  82   2.0000     -10.296749      -280.1888
  83   2.0000     -10.295556      -280.1563
  84   2.0000     -10.292070      -280.0615
  85   2.0000     -10.290506      -280.0189
  86   2.0000      -8.100405      -220.4232
  87   2.0000      -8.100217      -220.4181
  88   2.0000      -8.093817      -220.2440
  89   2.0000      -8.090337      -220.1493
  90   2.0000      -8.089888      -220.1370
  91   2.0000      -8.067541      -219.5290
  92   2.0000      -6.069559      -165.1611
  93   2.0000      -6.069517      -165.1599
  94   2.0000      -6.065393      -165.0477
  95   2.0000      -6.065351      -165.0466
  96   2.0000      -6.062985      -164.9822
  97   2.0000      -6.062902      -164.9799
  98   2.0000      -6.062470      -164.9682
  99   2.0000      -6.059971      -164.9002
 100   2.0000      -6.059072      -164.8757
 101   2.0000      -6.058839      -164.8694
 102   2.0000      -6.056243      -164.7988
 103   2.0000      -6.055340      -164.7742
 104   2.0000      -6.055009      -164.7652
 105   2.0000      -6.052256      -164.6903
 106   2.0000      -6.052169      -164.6879
 107   2.0000      -6.036935      -164.2734
 108   2.0000      -6.032686      -164.1577
 109   2.0000      -6.029646      -164.0750
 110   2.0000      -1.061328       -28.8802
 111   2.0000      -1.053944       -28.6793
 112   2.0000      -1.041270       -28.3344
 113   2.0000      -1.035345       -28.1732
 114   2.0000      -1.034955       -28.1626
 115   2.0000      -1.030314       -28.0363
 116   2.0000      -1.026147       -27.9229
 117   2.0000      -1.022711       -27.8294
 118   2.0000      -1.020355       -27.7653
 119   2.0000      -1.017642       -27.6914
 120   2.0000      -1.016738       -27.6669
 121   2.0000      -1.015136       -27.6232
 122   2.0000      -1.012112       -27.5410
 123   2.0000      -1.007092       -27.4044
 124   2.0000      -1.005937       -27.3729
 125   2.0000      -1.002980       -27.2925
 126   2.0000      -1.002508       -27.2796
 127   2.0000      -0.998052       -27.1584
 128   2.0000      -0.996523       -27.1168
 129   2.0000      -0.990321       -26.9480
 130   2.0000      -0.972635       -26.4667
 131   2.0000      -0.970022       -26.3956
 132   2.0000      -0.962076       -26.1794
 133   2.0000      -0.956545       -26.0289
 134   2.0000      -0.947103       -25.7720
 135   2.0000      -0.944751       -25.7080
 136   2.0000      -0.938908       -25.5490
 137   2.0000      -0.933883       -25.4122
 138   2.0000      -0.928205       -25.2577
 139   2.0000      -0.912463       -24.8294
 140   2.0000      -0.902940       -24.5702
 141   2.0000      -0.898942       -24.4615
 142   2.0000      -0.894436       -24.3388
 143   2.0000      -0.892556       -24.2877
 144   2.0000      -0.888097       -24.1663
 145   2.0000      -0.880017       -23.9465
 146   2.0000      -0.874068       -23.7846
 147   2.0000      -0.870167       -23.6785
 148   2.0000      -0.869188       -23.6518
 149   2.0000      -0.864293       -23.5186
 150   2.0000      -0.863779       -23.5046
 151   2.0000      -0.854256       -23.2455
 152   2.0000      -0.839233       -22.8367
 153   2.0000      -0.824340       -22.4314
 154   2.0000      -0.819122       -22.2894
 155   2.0000      -0.810605       -22.0577
 156   2.0000      -0.796517       -21.6743
 157   2.0000      -0.794716       -21.6253
 158   2.0000      -0.790364       -21.5069
 159   2.0000      -0.787279       -21.4229
 160   2.0000      -0.782554       -21.2944
 161   2.0000      -0.770472       -20.9656
 162   2.0000      -0.749012       -20.3817
 163   2.0000      -0.745175       -20.2772
 164   2.0000      -0.725715       -19.7477
 165   2.0000      -0.722909       -19.6714
 166   2.0000      -0.719210       -19.5707
 167   2.0000      -0.718225       -19.5439
 168   2.0000      -0.715549       -19.4711
 169   2.0000      -0.713926       -19.4269
 170   2.0000      -0.712434       -19.3863
 171   2.0000      -0.703782       -19.1509
 172   2.0000      -0.697147       -18.9703
 173   2.0000      -0.693324       -18.8663
 174   2.0000      -0.688205       -18.7270
 175   2.0000      -0.678473       -18.4622
 176   2.0000      -0.672294       -18.2941
 177   2.0000      -0.670344       -18.2410
 178   2.0000      -0.668544       -18.1920
 179   2.0000      -0.666403       -18.1337
 180   2.0000      -0.664815       -18.0905
 181   2.0000      -0.658834       -17.9278
 182   2.0000      -0.654994       -17.8233
 183   2.0000      -0.647505       -17.6195
 184   2.0000      -0.645039       -17.5524
 185   2.0000      -0.643040       -17.4980
 186   2.0000      -0.635752       -17.2997
 187   2.0000      -0.632090       -17.2001
 188   2.0000      -0.626021       -17.0349
 189   2.0000      -0.622755       -16.9460
 190   2.0000      -0.615873       -16.7587
 191   2.0000      -0.610469       -16.6117
 192   2.0000      -0.596532       -16.2325
 193   2.0000      -0.591311       -16.0904
 194   2.0000      -0.590439       -16.0667
 195   2.0000      -0.589940       -16.0531
 196   2.0000      -0.585413       -15.9299
 197   2.0000      -0.584305       -15.8997
 198   2.0000      -0.576753       -15.6942
 199   2.0000      -0.571954       -15.5637
 200   2.0000      -0.566496       -15.4151
 201   2.0000      -0.563215       -15.3259
 202   2.0000      -0.558876       -15.2078
 203   2.0000      -0.556267       -15.1368
 204   2.0000      -0.551630       -15.0106
 205   2.0000      -0.548251       -14.9187
 206   2.0000      -0.545845       -14.8532
 207   2.0000      -0.542998       -14.7757
 208   2.0000      -0.541409       -14.7325
 209   2.0000      -0.537453       -14.6248
 210   2.0000      -0.536250       -14.5921
 211   2.0000      -0.535756       -14.5787
 212   2.0000      -0.533166       -14.5082
 213   2.0000      -0.531433       -14.4610
 214   2.0000      -0.526895       -14.3375
 215   2.0000      -0.523797       -14.2532
 216   2.0000      -0.522301       -14.2125
 217   2.0000      -0.519425       -14.1343
 218   2.0000      -0.516123       -14.0444
 219   2.0000      -0.514513       -14.0006
 220   2.0000      -0.513885       -13.9835
 221   2.0000      -0.512839       -13.9550
 222   2.0000      -0.511815       -13.9272
 223   2.0000      -0.507063       -13.7979
 224   2.0000      -0.505824       -13.7642
 225   2.0000      -0.504157       -13.7188
 226   2.0000      -0.503346       -13.6967
 227   2.0000      -0.501543       -13.6477
 228   2.0000      -0.496378       -13.5071
 229   2.0000      -0.493928       -13.4405
 230   2.0000      -0.488049       -13.2805
 231   2.0000      -0.485552       -13.2125
 232   2.0000      -0.482402       -13.1268
 233   2.0000      -0.479804       -13.0561
 234   2.0000      -0.479191       -13.0395
 235   2.0000      -0.473496       -12.8845
 236   2.0000      -0.471598       -12.8328
 237   2.0000      -0.471120       -12.8198
 238   2.0000      -0.469752       -12.7826
 239   2.0000      -0.467626       -12.7248
 240   2.0000      -0.467282       -12.7154
 241   2.0000      -0.466578       -12.6962
 242   2.0000      -0.464104       -12.6289
 243   2.0000      -0.462398       -12.5825
 244   2.0000      -0.461046       -12.5457
 245   2.0000      -0.459335       -12.4991
 246   2.0000      -0.457916       -12.4605
 247   2.0000      -0.457370       -12.4457
 248   2.0000      -0.457178       -12.4404
 249   2.0000      -0.454636       -12.3713
 250   2.0000      -0.454108       -12.3569
 251   2.0000      -0.453200       -12.3322
 252   2.0000      -0.452708       -12.3188
 253   2.0000      -0.452319       -12.3082
 254   2.0000      -0.451572       -12.2879
 255   2.0000      -0.450741       -12.2653
 256   2.0000      -0.450223       -12.2512
 257   2.0000      -0.449466       -12.2306
 258   2.0000      -0.449196       -12.2232
 259   2.0000      -0.448634       -12.2079
 260   2.0000      -0.448017       -12.1912
 261   2.0000      -0.446184       -12.1413
 262   2.0000      -0.445193       -12.1143
 263   2.0000      -0.444877       -12.1057
 264   2.0000      -0.440680       -11.9915
 265   2.0000      -0.439063       -11.9475
 266   2.0000      -0.436902       -11.8887
 267   2.0000      -0.436464       -11.8768
 268   2.0000      -0.435490       -11.8503
 269   2.0000      -0.434874       -11.8335
 270   2.0000      -0.434693       -11.8286
 271   2.0000      -0.432182       -11.7603
 272   2.0000      -0.431672       -11.7464
 273   2.0000      -0.430469       -11.7137
 274   2.0000      -0.429836       -11.6964
 275   2.0000      -0.429080       -11.6759
 276   2.0000      -0.426262       -11.5992
 277   2.0000      -0.422712       -11.5026
 278   2.0000      -0.418580       -11.3901
 279   2.0000      -0.416677       -11.3384
 280   2.0000      -0.415010       -11.2930
 281   2.0000      -0.413489       -11.2516
 282   2.0000      -0.410849       -11.1798
 283   2.0000      -0.409948       -11.1552
 284   2.0000      -0.398760       -10.8508
 285   2.0000      -0.389494       -10.5987
 286   2.0000      -0.386859       -10.5270
 287   2.0000      -0.383816       -10.4442
 288   2.0000      -0.378313       -10.2944
 289   2.0000      -0.363625        -9.8947
 290   2.0000      -0.356514        -9.7012
 291   2.0000      -0.354872        -9.6565
 292   2.0000      -0.349441        -9.5088
 293   2.0000      -0.337625        -9.1872
 294   2.0000      -0.335131        -9.1194
 295   2.0000      -0.334881        -9.1126
 296   2.0000      -0.331996        -9.0341
 297   2.0000      -0.329216        -8.9584
 298   2.0000      -0.319060        -8.6821
 299   2.0000      -0.311311        -8.4712
 300   2.0000      -0.298922        -8.1341
 301   2.0000      -0.285297        -7.7633
 302   2.0000      -0.269354        -7.3295
 303   2.0000      -0.234853        -6.3907
 304   0.0000      -0.126576        -3.4443
 305   0.0000      -0.117338        -3.1929
 306   0.0000      -0.101062        -2.7500
 307   0.0000      -0.096081        -2.6145
 308   0.0000      -0.091492        -2.4896

MULLIKEN ATOMIC CHARGES
-----------------------
   0 C :   -0.033174
   1 C :    0.049344
   2 C :    0.044968
   3 C :   -0.024290
   4 C :   -0.004226
   5 C :    0.015810
   6 C :    0.296725
   7 C :   -0.348425
   8 C :   -0.185814
   9 N :    0.161395
  10 C :   -0.177764
  11 N :    0.154839
  12 C :   -0.071513
  13 C :    0.233795
  14 C :   -0.338779
  15 C :   -0.196141
  16 N :    0.177552
  17 C :   -0.178647
  18 N :    0.171842
  19 C :    0.084629
  20 C :   -0.149805
  21 C :    0.004980
  22 C :   -0.011863
  23 C :   -0.059585
  24 S :    0.246208
  25 C :   -0.101474
  26 C :    0.028880
  27 C :    0.304828
  28 C :   -0.282440
  29 C :   -0.187416
  30 N :    0.177302
  31 C :   -0.183660
  32 N :    0.171337
  33 C :   -0.058918
  34 C :   -0.060565
  35 S :    0.197549
  36 C :   -0.019269
  37 C :   -0.090084
  38 C :    0.059850
  39 C :    0.062173
  40 C :   -0.116862
  41 S :    0.143735
  42 C :   -0.113178
  43 C :    0.054009
  44 C :   -0.008975
  45 C :   -0.064323
  46 S :    0.141136
  47 C :    0.102215
  48 C :   -0.011688
  49 C :    0.038207
  50 C :   -0.059872
  51 C :   -0.051819
  52 C :    0.025612
  53 C :   -0.116477
  54 S :    0.195472
  55 C :   -0.058337
  56 C :   -0.015446
  57 C :    0.310303
  58 C :   -0.292663
  59 C :   -0.182769
  60 N :    0.171392
  61 C :   -0.170917
  62 N :    0.154286
  63 C :    0.001792
  64 C :   -0.143715
  65 S :    0.224849
  66 C :    0.087522
  67 C :   -0.080062
  68 C :    0.298441
  69 C :   -0.351651
  70 C :   -0.175242
  71 N :    0.147100
  72 C :   -0.187324
  73 N :    0.157476
  74 C :    0.018376
  75 C :   -0.005630
  76 C :   -0.026655
  77 C :    0.047447
  78 C :    0.047563
  79 C :   -0.036833
  80 C :    0.236312
  81 C :   -0.341405
  82 C :   -0.179989
  83 N :    0.170045
  84 C :   -0.199874
  85 N :    0.178529
  86 H :    0.006737
  87 H :    0.005069
  88 H :    0.008272
  89 H :    0.012851
  90 H :    0.016511
  91 H :    0.030592
  92 H :    0.025412
  93 H :   -0.000603
  94 H :    0.043556
  95 H :   -0.009779
  96 H :    0.030809
  97 H :   -0.034853
  98 H :   -0.046202
  99 H :    0.002889
 100 H :    0.030880
 101 H :    0.010047
 102 H :    0.013081
 103 H :    0.005564
 104 H :    0.003524
 105 H :    0.005372
Sum of atomic charges:   -0.0000000

LOEWDIN ATOMIC CHARGES
----------------------
   0 C :    0.005311
   1 C :    0.003471
   2 C :    0.006404
   3 C :    0.005682
   4 C :   -0.010456
   5 C :   -0.013490
   6 C :    0.077942
   7 C :   -0.133394
   8 C :   -0.019112
   9 N :   -0.044504
  10 C :   -0.021750
  11 N :   -0.043757
  12 C :   -0.056559
  13 C :    0.066208
  14 C :   -0.128865
  15 C :   -0.017685
  16 N :   -0.043257
  17 C :   -0.020328
  18 N :   -0.038796
  19 C :    0.036379
  20 C :   -0.182855
  21 C :    0.007933
  22 C :   -0.066657
  23 C :   -0.152208
  24 S :    0.522067
  25 C :   -0.183178
  26 C :   -0.052610
  27 C :    0.081145
  28 C :   -0.095158
  29 C :   -0.016780
  30 N :   -0.026528
  31 C :   -0.013222
  32 N :   -0.029385
  33 C :   -0.039650
  34 C :   -0.169819
  35 S :    0.496158
  36 C :   -0.179915
  37 C :   -0.025763
  38 C :   -0.011587
  39 C :   -0.049361
  40 C :   -0.134461
  41 S :    0.472814
  42 C :   -0.198034
  43 C :   -0.037171
  44 C :   -0.066063
  45 C :   -0.160830
  46 S :    0.434328
  47 C :   -0.048142
  48 C :    0.005484
  49 C :   -0.066298
  50 C :   -0.138092
  51 C :   -0.039081
  52 C :   -0.045500
  53 C :   -0.205450
  54 S :    0.478203
  55 C :   -0.143162
  56 C :   -0.073745
  57 C :    0.084433
  58 C :   -0.101195
  59 C :   -0.014122
  60 N :   -0.030405
  61 C :   -0.010412
  62 N :   -0.042107
  63 C :    0.012746
  64 C :   -0.186637
  65 S :    0.506392
  66 C :    0.034994
  67 C :   -0.064457
  68 C :    0.079412
  69 C :   -0.138683
  70 C :   -0.020930
  71 N :   -0.050144
  72 C :   -0.019342
  73 N :   -0.049002
  74 C :   -0.013828
  75 C :   -0.010154
  76 C :    0.004729
  77 C :    0.005351
  78 C :    0.001674
  79 C :    0.004460
  80 C :    0.066294
  81 C :   -0.132492
  82 C :   -0.020553
  83 N :   -0.041448
  84 C :   -0.017420
  85 N :   -0.044473
  86 H :    0.041846
  87 H :    0.038240
  88 H :    0.038900
  89 H :    0.043409
  90 H :    0.046320
  91 H :    0.043023
  92 H :    0.036542
  93 H :    0.028297
  94 H :    0.040209
  95 H :    0.029062
  96 H :    0.026032
  97 H :    0.028526
  98 H :    0.025661
  99 H :    0.036338
 100 H :    0.043233
 101 H :    0.044770
 102 H :    0.043193
 103 H :    0.038087
 104 H :    0.037465
 105 H :    0.041294

  Mayer bond orders larger than 0.100000
B(  0-C ,  1-C ) :   1.3728 B(  0-C ,  5-C ) :   1.3808 B(  0-C , 86-H ) :   0.9827
B(  1-C ,  2-C ) :   1.3769 B(  1-C , 87-H ) :   0.9853 B(  2-C ,  3-C ) :   1.3672
B(  2-C , 88-H ) :   0.9864 B(  3-C ,  4-C ) :   1.3830 B(  3-C , 89-H ) :   0.9861
B(  4-C ,  5-C ) :   1.3118 B(  4-C , 13-C ) :   1.0086 B(  5-C ,  6-C ) :   0.9970
B(  6-C ,  7-C ) :   1.6356 B(  6-C , 12-C ) :   1.0651 B(  7-C ,  8-C ) :   1.1491
B(  7-C , 10-C ) :   1.1349 B(  8-C ,  9-N ) :   2.9750 B( 10-C , 11-N ) :   2.9637
B( 12-C , 13-C ) :   1.0153 B( 12-C , 19-C ) :   1.6207 B( 13-C , 14-C ) :   1.6543
B( 14-C , 15-C ) :   1.1600 B( 14-C , 17-C ) :   1.1396 B( 15-C , 16-N ) :   3.0047
B( 17-C , 18-N ) :   2.9979 B( 19-C , 20-C ) :   1.1789 B( 19-C , 90-H ) :   0.9129
B( 20-C , 21-C ) :   1.3774 B( 20-C , 24-S ) :   1.0965 B( 21-C , 22-C ) :   1.3698
B( 21-C , 91-H ) :   0.9826 B( 22-C , 23-C ) :   1.3910 B( 22-C , 27-C ) :   1.0006
B( 23-C , 24-S ) :   1.1634 B( 23-C , 25-C ) :   1.2070 B( 25-C , 26-C ) :   1.4306
B( 25-C , 35-S ) :   1.1209 B( 26-C , 27-C ) :   0.9952 B( 26-C , 33-C ) :   1.3193
B( 27-C , 28-C ) :   1.7167 B( 28-C , 29-C ) :   1.1321 B( 28-C , 31-C ) :   1.1354
B( 29-C , 30-N ) :   2.9893 B( 31-C , 32-N ) :   2.9782 B( 33-C , 34-C ) :   1.4382
B( 33-C , 92-H ) :   0.9793 B( 34-C , 35-S ) :   1.1163 B( 34-C , 36-C ) :   1.1730
B( 36-C , 37-C ) :   1.5106 B( 36-C , 41-S ) :   1.0619 B( 37-C , 38-C ) :   1.2698
B( 37-C , 93-H ) :   0.9593 B( 38-C , 39-C ) :   1.0558 B( 38-C , 47-C ) :   1.3473
B( 39-C , 40-C ) :   1.6026 B( 39-C , 42-C ) :   1.1776 B( 40-C , 41-S ) :   1.1439
B( 40-C , 94-H ) :   0.9405 B( 42-C , 43-C ) :   1.4489 B( 42-C , 46-S ) :   1.0859
B( 43-C , 44-C ) :   1.2134 B( 43-C , 47-C ) :   1.0735 B( 44-C , 45-C ) :   1.5895
B( 44-C , 95-H ) :   0.9998 B( 45-C , 46-S ) :   1.1584 B( 45-C , 96-H ) :   0.9640
B( 47-C , 48-C ) :   1.2072 B( 48-C , 49-C ) :   1.6052 B( 48-C , 97-H ) :   0.9559
B( 49-C , 50-C ) :   1.1468 B( 49-C , 98-H ) :   0.9657 B( 50-C , 51-C ) :   1.4077
B( 50-C , 54-S ) :   1.1246 B( 51-C , 52-C ) :   1.3332 B( 51-C , 99-H ) :   0.9868
B( 52-C , 53-C ) :   1.4066 B( 52-C , 57-C ) :   0.9940 B( 53-C , 54-S ) :   1.0943
B( 53-C , 55-C ) :   1.2347 B( 55-C , 56-C ) :   1.3704 B( 55-C , 65-S ) :   1.1653
B( 56-C , 57-C ) :   1.0052 B( 56-C , 63-C ) :   1.3815 B( 57-C , 58-C ) :   1.7115
B( 58-C , 59-C ) :   1.1326 B( 58-C , 61-C ) :   1.1365 B( 59-C , 60-N ) :   2.9806
B( 61-C , 62-N ) :   2.9737 B( 63-C , 64-C ) :   1.3636 B( 63-C ,100-H ) :   0.9809
B( 64-C , 65-S ) :   1.0801 B( 64-C , 66-C ) :   1.2105 B( 66-C , 67-C ) :   1.5902
B( 66-C ,101-H ) :   0.9102 B( 67-C , 68-C ) :   1.0756 B( 67-C , 80-C ) :   1.0238
B( 68-C , 69-C ) :   1.6248 B( 68-C , 74-C ) :   0.9956 B( 69-C , 70-C ) :   1.1364
B( 69-C , 72-C ) :   1.1498 B( 70-C , 71-N ) :   2.9608 B( 72-C , 73-N ) :   2.9754
B( 74-C , 75-C ) :   1.3130 B( 74-C , 79-C ) :   1.3812 B( 75-C , 76-C ) :   1.3851
B( 75-C , 80-C ) :   1.0059 B( 76-C , 77-C ) :   1.3634 B( 76-C ,102-H ) :   0.9871
B( 77-C , 78-C ) :   1.3782 B( 77-C ,103-H ) :   0.9870 B( 78-C , 79-C ) :   1.3708
B( 78-C ,104-H ) :   0.9859 B( 79-C ,105-H ) :   0.9843 B( 80-C , 81-C ) :   1.6457
B( 81-C , 82-C ) :   1.1393 B( 81-C , 84-C ) :   1.1646 B( 82-C , 83-N ) :   2.9984
B( 84-C , 85-N ) :   3.0054

-----------------------------------------------------------------------------
         ABSORPTION SPECTRUM VIA TRANSITION ELECTRIC DIPOLE MOMENTS
-----------------------------------------------------------------------------
State   Energy  Wavelength   fosc         T2         TX        TY        TZ
        (cm-1)    (nm)                  (au**2)     (au)      (au)      (au)
-----------------------------------------------------------------------------
   0    9265.5   1079.3   0.471033716  16.73622  -1.11432  -2.75398   2.81248
   1   10592.7    944.1   0.189346507   5.88475   0.01507   1.92927   1.47053
   2   15319.8    652.8   0.740760810  15.91849   0.89040   2.21910  -3.19394
   3   16118.6    620.4   0.117495906   2.39978   0.28961   1.04185  -1.10925
   4   17432.2    573.7   0.899593737  16.98909  -0.17646   2.96256   2.86027
   5   18680.1    535.3   0.020360732   0.35883   0.20402  -0.15325   0.54196
   6   19956.3    501.1   0.194038523   3.20098  -1.17075  -0.84292   1.05821
   7   20577.1    486.0   0.082282651   1.31643   0.46658  -0.13169  -1.03990
   8   21199.1    471.7   0.082037952   1.27401  -0.51709  -0.42516  -0.90877
   9   22102.3    452.4   0.265252688   3.95092   0.16645  -1.30927  -1.48628
  10   23018.5    434.4   0.007720552   0.11042   0.31428   0.10715   0.01296
  11   23453.2    426.4   0.007204460   0.10113  -0.10744  -0.29389   0.05671
  12   23896.1    418.5   0.023901802   0.32929   0.20621   0.00819  -0.53545
  13   24319.2    411.2   0.210385534   2.84802  -0.24154  -0.96400   1.36396
  14   25298.4    395.3   0.021543201   0.28034   0.22008   0.23748  -0.41894
  15   25929.1    385.7   0.118595340   1.50576   0.46190   0.43092   1.05200
  16   26582.7    376.2   0.029543965   0.36589  -0.39143  -0.46112  -0.00585
  17   26689.4    374.7   0.014087365   0.17377   0.18918   0.34056  -0.14831
  18   27185.5    367.8   0.233470228   2.82729  -0.32842   0.86858   1.40178
  19   27866.1    358.9   0.133483495   1.57698   0.90948   0.86521  -0.03526
  20   28193.7    354.7   0.030051401   0.35090   0.11155  -0.46179  -0.35385
  21   28833.0    346.8   0.080184534   0.91554   0.43314   0.79358  -0.31330
  22   29357.5    340.6   0.096172529   1.07847  -0.30489  -0.12286   0.98510
  23   29621.7    337.6   0.328162704   3.64716  -0.36609  -1.84822   0.31176
  24   30022.8    333.1   0.406618755   4.45873  -0.22343   1.29751   1.65084
  25   30246.8    330.6   0.007487544   0.08150   0.14531  -0.24427   0.02666
  26   30332.4    329.7   0.082510144   0.89552  -0.24398  -0.63490   0.65795
  27   30501.7    327.9   0.194868046   2.10325   0.03173  -0.26799   1.42493
  28   30923.9    323.4   0.114351675   1.21737  -0.50192  -0.92720  -0.32519
  29   31171.7    320.8   0.206742852   2.18346   0.51655   0.02045  -1.38428
  30   31556.2    316.9   0.030147789   0.31452   0.28466   0.45409   0.16518
  31   31847.4    314.0   0.109784362   1.13486   0.69787   0.75397  -0.28172
  32   32011.8    312.4   0.111178149   1.14337  -0.48161  -0.28822  -0.91013
  33   32232.0    310.3   0.122203658   1.24817  -1.06400  -0.16665   0.29717
  34   32362.2    309.0   0.458969208   4.66897   0.87609   0.51154   1.90782
  35   32607.8    306.7   0.084019574   0.84827  -0.78201   0.09118   0.47793
  36   32707.3    305.7   0.514223895   5.17586   1.44331   1.51361  -0.89537
  37   32934.5    303.6   0.251684928   2.51583   0.82850  -0.41082   1.28866
  38   33615.8    297.5   0.255889831   2.50602   0.68746   1.42496  -0.05395
  39   33652.3    297.2   0.171264127   1.67543   0.14259   1.07749  -0.70293
  40   34063.5    293.6   0.183645496   1.77487   0.38737   0.79755  -0.99435
  41   34124.6    293.0   0.166382785   1.60515   0.37739   1.19720  -0.17160
  42   34323.0    291.4   0.143910612   1.38033   0.43338   0.97038   0.50087
  43   34345.4    291.2   0.180335614   1.72858   0.22262  -1.08233  -0.71244
  44   34514.0    289.7   0.039561943   0.37736   0.25469   0.38066  -0.40938
  45   34697.2    288.2   0.107975303   1.02448  -0.30043  -0.76994   0.58431
  46   34750.1    287.8   0.207749572   1.96816   0.49514  -0.52142  -1.20462
  47   35044.9    285.3   0.402638776   3.78239   0.36537   1.77587   0.70369
  48   35221.8    283.9   0.275675810   2.57669   0.19997   1.43246   0.69626
  49   35419.9    282.3   0.020801516   0.19334   0.29000  -0.24663   0.22002
  50   35460.2    282.0   0.083353770   0.77385   0.03383  -0.37626   0.79444
  51   35990.9    277.8   0.086029439   0.78692   0.18789   0.86055  -0.10525
  52   36265.3    275.7   0.001570532   0.01426  -0.02437   0.10521   0.05092
  53   36639.7    272.9   0.001839886   0.01653   0.05118   0.11583   0.02226
  54   36870.6    271.2   0.024608193   0.21972  -0.02451  -0.42673   0.19242
  55   37153.6    269.2   0.002548991   0.02259  -0.03183   0.10832   0.09920
  56   37604.7    265.9   0.000576081   0.00504  -0.02102  -0.00843   0.06731
  57   37997.3    263.2   0.003909175   0.03387  -0.15306  -0.06994   0.07449
  58   38042.0    262.9   0.000830608   0.00719   0.02953   0.07169   0.03431
  59   38120.8    262.3   0.001777464   0.01535  -0.01775  -0.07591  -0.09630
  60   38386.5    260.5   0.131252994   1.12566   0.13536   0.85671   0.61105
  61   38557.1    259.4   0.041102867   0.35095  -0.07305  -0.39645  -0.43410
  62   38640.3    258.8   0.000264158   0.00225  -0.00133   0.04481   0.01551
  63   38762.5    258.0   0.018603899   0.15800   0.01612   0.30573   0.25352
  64   38928.6    256.9   0.041500135   0.35096   0.07903  -0.33045  -0.48530
  65   39039.7    256.1   0.085266655   0.71903   0.14029   0.72405   0.41846
  66   39186.9    255.2   0.006472109   0.05437  -0.04597   0.22259   0.05208
  67   39449.1    253.5   0.025663654   0.21417  -0.03967  -0.13608   0.44054
  68   39721.5    251.8   0.062646160   0.51921  -0.00720   0.58604  -0.41918
  69   39998.2    250.0   0.006529897   0.05375   0.05848   0.22433   0.00069
  70   40169.1    248.9   0.066369374   0.54394  -0.00953   0.70139  -0.22783
  71   40303.6    248.1   0.017098481   0.13967   0.13844   0.24731  -0.24359

FINAL SINGLE POINT ENERGY     -5644.183957580457

DIPOLE MOMENT
-------------
                                X             Y             Z
Electronic contribution:      1.18112      -9.47167      -9.42118
Nuclear contribution   :     -0.62679       8.60162       5.83499
                        -----------------------------------------
Total Dipole Moment    :      0.55433      -0.87005      -3.58619
                        -----------------------------------------
Magnitude (a.u.)       :      3.73162
Magnitude (Debye)      :      9.48503

Rotational constants in cm-1:     0.000630     0.000257     0.000189
Rotational constants in MHz :    18.880009     7.717713     5.656392

                             ****ORCA TERMINATED NORMALLY****
TOTAL RUN TIME: 0 days 0 hours 15 minutes 2 seconds 617 msec
