                         Program Version 4.2.0 -  RELEASE  -
|  1> # ORCA input file
|  2> # SCF done       -193.280684980107          0.000829599581
|  3> ! CAM-B3LYP def2-SVP def2/J RIJCOSX Grid4 TightSCF
|  4> %maxcore 5000
|  5> %tddft
|  6>     Mode sTDDFT
|  7>     Ethresh 5.0
|  8>     maxcore 5000
|  9> end
| 10>
| 11> %pal
| 12>   nprocs 6
| 13>   end
| 14> * xyz 0 1
| 15>    C        1.31499         4.25525         2.41340
| 16>    C        1.78430         4.90441         3.52628
| 17>    C        3.14761         4.97361         3.88241
| 18>    N        4.24064         5.07032         4.21914
| 19>    C        0.98313         5.55434         4.48881
| 20>    N        0.39638         6.08219         5.32319
| 21>    C        2.12578         3.49130         1.47444
| 22>    C        1.26322         2.83286         0.56497
| 23>    C        1.72593         2.02512        -0.44527
| 24>    C        3.10972         1.86247        -0.56662
| 25>    C        3.96564         2.52970         0.34287
| 26>    C        3.49634         3.34342         1.36653
| 27>    S        5.63754         2.19979         0.00583
| 28>    C        5.17145         1.18308        -1.33213
| 29>    C        3.83294         1.09355        -1.51865
| 30>   Br        6.49549         0.33969        -2.35731
| 31>    C       -0.13900         3.16849         0.87788
| 32>    O       -1.11536         2.77846         0.27488
| 33>    C       -0.07462         4.12508         2.01029
| 34>    C       -1.08969         4.91061         2.48326
| 35>    C       -2.47596         4.82811         2.24569
| 36>    C       -3.27682         3.79915         1.76635
| 37>    C       -4.61902         4.15130         1.73525
| 38>    C       -4.85871         5.46927         2.18735
| 39>    S       -3.43489         6.25034         2.68564
| 40>    C       -6.24146         5.73947         2.06972
| 41>    C       -6.88333         4.59748         1.55746
| 42>    C       -5.88618         3.55699         1.34402
| 43>    C       -6.10756         2.29248         0.88650
| 44>    C       -5.08006         1.33256         0.75398
| 45>    N       -4.26968         0.52802         0.65824
| 46>    C       -7.39984         1.84824         0.53156
| 47>    N       -8.45025         1.49447         0.23843
| 48>    C       -8.25425         4.77668         1.39262
| 49>    C       -8.66403         6.04661         1.76395
| 50>    S       -7.32852         7.03139         2.34174
| 51>    C       -9.97463         6.58007         1.68972
| 52>    C      -10.35901         7.87642         1.97475
| 53>    C      -11.70940         8.15735         1.77978
| 54>    C      -12.47914         7.09797         1.33867
| 55>   Se      -11.44062         5.54204         1.12503
| 56>    C      -13.86380         7.12092         1.03898
| 57>    C      -14.66395         6.04716         0.68375
| 58>    C      -15.97903         6.43168         0.43679
| 59>    C      -16.18278         7.81402         0.59676
| 60>    S      -14.75808         8.63306         1.06747
| 61>    C      -17.53488         8.10828         0.30836
| 62>    C      -18.19509         6.90905        -0.03387
| 63>    C      -17.23975         5.81702         0.04227
| 64>    C      -17.46755         4.49580        -0.20391
| 65>    C      -16.44562         3.52862        -0.09189
| 66>    N      -15.61254         2.74662        -0.00036
| 67>    C      -18.73500         4.00965        -0.59095
| 68>    N      -19.76187         3.61721        -0.91541
| 69>    C      -19.53118         7.10698        -0.35980
| 70>    C      -19.91404         8.43658        -0.24436
| 71>    S      -18.56122         9.46189         0.23840
| 72>    C      -21.18226         8.95324        -0.58740
| 73>    C      -21.72389        10.17902        -0.34719
| 74>    C      -21.36995        11.24918         0.55962
| 75>    C      -20.83666        11.09962         1.81390
| 76>    C      -20.60202        12.17052         2.69876
| 77>    N      -20.37717        13.01383         3.44419
| 78>    C      -20.55940         9.84035         2.38380
| 79>    N      -20.35908         8.82887         2.88855
| 80>    C      -21.96247        12.47415         0.03498
| 81>    C      -22.86499        12.13039        -1.00372
| 82>    C      -22.82535        10.66995        -1.22201
| 83>    O      -23.49408        10.01215        -1.98381
| 84>    C      -23.61272        13.07131        -1.66901
| 85>    C      -23.45186        14.41168        -1.30145
| 86>    C      -22.53773        14.74422        -0.27241
| 87>    C      -21.78919        13.79225         0.40921
| 88>    S      -22.48806        16.45726         0.00930
| 89>    C      -23.68198        16.70160        -1.23819
| 90>    C      -24.09703        15.55993        -1.83688
| 91>   Br      -24.26391        18.43966        -1.63329
| 92>    H        1.04125         1.53489        -1.11939
| 93>    H        4.18867         3.83397         2.03002
| 94>    H        3.37278         0.51084        -2.29559
| 95>    H       -0.80577         5.74630         3.11281
| 96>    H       -2.88122         2.85005         1.45642
| 97>    H       -8.94132         4.03811         1.01304
| 98>    H       -9.65227         8.61499         2.31514
| 99>    H      -12.13518         9.13076         1.95863
|100>    H      -14.28235         5.04139         0.61746
|101>    H      -20.21906         6.33347        -0.65040
|102>    H      -21.78198         8.30613        -1.22143
|103>    H      -24.30008        12.78404        -2.44905
|104>    H      -21.10034        14.08866         1.18315
|105>    H      -24.82731        15.52683        -2.62459
|106> *
|107>
|108>                          ****END OF INPUT****

CARTESIAN COORDINATES (ANGSTROEM)
---------------------------------
  C      1.314990    4.255250    2.413400
  C      1.784300    4.904410    3.526280
  C      3.147610    4.973610    3.882410
  N      4.240640    5.070320    4.219140
  C      0.983130    5.554340    4.488810
  N      0.396380    6.082190    5.323190
  C      2.125780    3.491300    1.474440
  C      1.263220    2.832860    0.564970
  C      1.725930    2.025120   -0.445270
  C      3.109720    1.862470   -0.566620
  C      3.965640    2.529700    0.342870
  C      3.496340    3.343420    1.366530
  S      5.637540    2.199790    0.005830
  C      5.171450    1.183080   -1.332130
  C      3.832940    1.093550   -1.518650
  Br     6.495490    0.339690   -2.357310
  C     -0.139000    3.168490    0.877880
  O     -1.115360    2.778460    0.274880
  C     -0.074620    4.125080    2.010290
  C     -1.089690    4.910610    2.483260
  C     -2.475960    4.828110    2.245690
  C     -3.276820    3.799150    1.766350
  C     -4.619020    4.151300    1.735250
  C     -4.858710    5.469270    2.187350
  S     -3.434890    6.250340    2.685640
  C     -6.241460    5.739470    2.069720
  C     -6.883330    4.597480    1.557460
  C     -5.886180    3.556990    1.344020
  C     -6.107560    2.292480    0.886500
  C     -5.080060    1.332560    0.753980
  N     -4.269680    0.528020    0.658240
  C     -7.399840    1.848240    0.531560
  N     -8.450250    1.494470    0.238430
  C     -8.254250    4.776680    1.392620
  C     -8.664030    6.046610    1.763950
  S     -7.328520    7.031390    2.341740
  C     -9.974630    6.580070    1.689720
  C    -10.359010    7.876420    1.974750
  C    -11.709400    8.157350    1.779780
  C    -12.479140    7.097970    1.338670
  Se   -11.440620    5.542040    1.125030
  C    -13.863800    7.120920    1.038980
  C    -14.663950    6.047160    0.683750
  C    -15.979030    6.431680    0.436790
  C    -16.182780    7.814020    0.596760
  S    -14.758080    8.633060    1.067470
  C    -17.534880    8.108280    0.308360
  C    -18.195090    6.909050   -0.033870
  C    -17.239750    5.817020    0.042270
  C    -17.467550    4.495800   -0.203910
  C    -16.445620    3.528620   -0.091890
  N    -15.612540    2.746620   -0.000360
  C    -18.735000    4.009650   -0.590950
  N    -19.761870    3.617210   -0.915410
  C    -19.531180    7.106980   -0.359800
  C    -19.914040    8.436580   -0.244360
  S    -18.561220    9.461890    0.238400
  C    -21.182260    8.953240   -0.587400
  C    -21.723890   10.179020   -0.347190
  C    -21.369950   11.249180    0.559620
  C    -20.836660   11.099620    1.813900
  C    -20.602020   12.170520    2.698760
  N    -20.377170   13.013830    3.444190
  C    -20.559400    9.840350    2.383800
  N    -20.359080    8.828870    2.888550
  C    -21.962470   12.474150    0.034980
  C    -22.864990   12.130390   -1.003720
  C    -22.825350   10.669950   -1.222010
  O    -23.494080   10.012150   -1.983810
  C    -23.612720   13.071310   -1.669010
  C    -23.451860   14.411680   -1.301450
  C    -22.537730   14.744220   -0.272410
  C    -21.789190   13.792250    0.409210
  S    -22.488060   16.457260    0.009300
  C    -23.681980   16.701600   -1.238190
  C    -24.097030   15.559930   -1.836880
  Br   -24.263910   18.439660   -1.633290
  H      1.041250    1.534890   -1.119390
  H      4.188670    3.833970    2.030020
  H      3.372780    0.510840   -2.295590
  H     -0.805770    5.746300    3.112810
  H     -2.881220    2.850050    1.456420
  H     -8.941320    4.038110    1.013040
  H     -9.652270    8.614990    2.315140
  H    -12.135180    9.130760    1.958630
  H    -14.282350    5.041390    0.617460
  H    -20.219060    6.333470   -0.650400
  H    -21.781980    8.306130   -1.221430
  H    -24.300080   12.784040   -2.449050
  H    -21.100340   14.088660    1.183150
  H    -24.827310   15.526830   -2.624590

 Total Charge           Charge          ....    0
 Multiplicity           Mult            ....    1
 Number of Electrons    NEL             ....  634
 Basis Dimension        Dim             .... 1226

ORBITAL ENERGIES
----------------

  NO   OCC          E(Eh)            E(eV)
   0   2.0000    -482.889650    -13140.0954
   1   2.0000    -482.886909    -13140.0208
   2   2.0000    -453.952722    -12352.6816
   3   2.0000     -89.002300     -2421.8757
   4   2.0000     -89.002061     -2421.8692
   5   2.0000     -89.001414     -2421.8516
   6   2.0000     -89.000110     -2421.8161
   7   2.0000     -88.980473     -2421.2818
   8   2.0000     -88.977356     -2421.1970
   9   2.0000     -62.567339     -1702.5439
  10   2.0000     -62.564612     -1702.4697
  11   2.0000     -58.167629     -1582.8216
  12   2.0000     -56.401295     -1534.7573
  13   2.0000     -56.398570     -1534.6831
  14   2.0000     -56.398566     -1534.6830
  15   2.0000     -56.398541     -1534.6823
  16   2.0000     -56.395843     -1534.6089
  17   2.0000     -56.395814     -1534.6081
  18   2.0000     -52.237615     -1421.4578
  19   2.0000     -52.236777     -1421.4350
  20   2.0000     -52.235748     -1421.4070
  21   2.0000     -19.221173      -523.0347
  22   2.0000     -19.219610      -522.9922
  23   2.0000     -14.437982      -392.8775
  24   2.0000     -14.437601      -392.8671
  25   2.0000     -14.437409      -392.8619
  26   2.0000     -14.434046      -392.7704
  27   2.0000     -14.422229      -392.4488
  28   2.0000     -14.420296      -392.3962
  29   2.0000     -14.418762      -392.3545
  30   2.0000     -14.416914      -392.3042
  31   2.0000     -10.374427      -282.3025
  32   2.0000     -10.373560      -282.2789
  33   2.0000     -10.372863      -282.2600
  34   2.0000     -10.371431      -282.2210
  35   2.0000     -10.363396      -282.0023
  36   2.0000     -10.361543      -281.9519
  37   2.0000     -10.360585      -281.9258
  38   2.0000     -10.359885      -281.9068
  39   2.0000     -10.351133      -281.6686
  40   2.0000     -10.350939      -281.6634
  41   2.0000     -10.349886      -281.6347
  42   2.0000     -10.349113      -281.6137
  43   2.0000     -10.344763      -281.4953
  44   2.0000     -10.344148      -281.4786
  45   2.0000     -10.343626      -281.4644
  46   2.0000     -10.343558      -281.4625
  47   2.0000     -10.342276      -281.4276
  48   2.0000     -10.342180      -281.4250
  49   2.0000     -10.337856      -281.3074
  50   2.0000     -10.337263      -281.2912
  51   2.0000     -10.337260      -281.2911
  52   2.0000     -10.333375      -281.1854
  53   2.0000     -10.333341      -281.1845
  54   2.0000     -10.333266      -281.1825
  55   2.0000     -10.333127      -281.1787
  56   2.0000     -10.331655      -281.1386
  57   2.0000     -10.331142      -281.1247
  58   2.0000     -10.330792      -281.1151
  59   2.0000     -10.329410      -281.0775
  60   2.0000     -10.327677      -281.0304
  61   2.0000     -10.324690      -280.9491
  62   2.0000     -10.322154      -280.8801
  63   2.0000     -10.321849      -280.8718
  64   2.0000     -10.319849      -280.8174
  65   2.0000     -10.319467      -280.8070
  66   2.0000     -10.319251      -280.8011
  67   2.0000     -10.319237      -280.8007
  68   2.0000     -10.314708      -280.6775
  69   2.0000     -10.313564      -280.6463
  70   2.0000     -10.313511      -280.6449
  71   2.0000     -10.313225      -280.6371
  72   2.0000     -10.312656      -280.6216
  73   2.0000     -10.312566      -280.6192
  74   2.0000     -10.312070      -280.6057
  75   2.0000     -10.311665      -280.5947
  76   2.0000     -10.310327      -280.5583
  77   2.0000     -10.309542      -280.5369
  78   2.0000     -10.307865      -280.4913
  79   2.0000     -10.306502      -280.4542
  80   2.0000     -10.304235      -280.3925
  81   2.0000     -10.303409      -280.3700
  82   2.0000     -10.303192      -280.3641
  83   2.0000     -10.303064      -280.3606
  84   2.0000     -10.302907      -280.3564
  85   2.0000     -10.301087      -280.3068
  86   2.0000     -10.298530      -280.2372
  87   2.0000     -10.298125      -280.2262
  88   2.0000     -10.294593      -280.1301
  89   2.0000      -8.796763      -239.3721
  90   2.0000      -8.794037      -239.2979
  91   2.0000      -8.096802      -220.3252
  92   2.0000      -8.096605      -220.3198
  93   2.0000      -8.095563      -220.2915
  94   2.0000      -8.094927      -220.2742
  95   2.0000      -8.076473      -219.7720
  96   2.0000      -8.073321      -219.6862
  97   2.0000      -7.941501      -216.0992
  98   2.0000      -6.633063      -180.4948
  99   2.0000      -6.630353      -180.4211
 100   2.0000      -6.618499      -180.0985
 101   2.0000      -6.618288      -180.0928
 102   2.0000      -6.615780      -180.0245
 103   2.0000      -6.615547      -180.0182
 104   2.0000      -6.066136      -165.0680
 105   2.0000      -6.065946      -165.0628
 106   2.0000      -6.064832      -165.0325
 107   2.0000      -6.064061      -165.0115
 108   2.0000      -6.061891      -164.9525
 109   2.0000      -6.061717      -164.9477
 110   2.0000      -6.060566      -164.9164
 111   2.0000      -6.059899      -164.8982
 112   2.0000      -6.059059      -164.8754
 113   2.0000      -6.058829      -164.8691
 114   2.0000      -6.057993      -164.8464
 115   2.0000      -6.057437      -164.8312
 116   2.0000      -6.046143      -164.5239
 117   2.0000      -6.043023      -164.4390
 118   2.0000      -6.041888      -164.4081
 119   2.0000      -6.038722      -164.3220
 120   2.0000      -6.037712      -164.2945
 121   2.0000      -6.034547      -164.2084
 122   2.0000      -5.890640      -160.2925
 123   2.0000      -5.886619      -160.1830
 124   2.0000      -5.880942      -160.0286
 125   2.0000      -2.748958       -74.8029
 126   2.0000      -2.746226       -74.7286
 127   2.0000      -2.744829       -74.6906
 128   2.0000      -2.744693       -74.6869
 129   2.0000      -2.742106       -74.6165
 130   2.0000      -2.741997       -74.6135
 131   2.0000      -2.733096       -74.3713
 132   2.0000      -2.733092       -74.3712
 133   2.0000      -2.730379       -74.2974
 134   2.0000      -2.730370       -74.2971
 135   2.0000      -2.245342       -61.0989
 136   2.0000      -2.244885       -61.0864
 137   2.0000      -2.239638       -60.9437
 138   2.0000      -2.236322       -60.8534
 139   2.0000      -2.235764       -60.8382
 140   2.0000      -1.136996       -30.9392
 141   2.0000      -1.135413       -30.8962
 142   2.0000      -1.056859       -28.7586
 143   2.0000      -1.055820       -28.7303
 144   2.0000      -1.030592       -28.0438
 145   2.0000      -1.028920       -27.9983
 146   2.0000      -1.028464       -27.9859
 147   2.0000      -1.025495       -27.9051
 148   2.0000      -1.019549       -27.7433
 149   2.0000      -1.016070       -27.6487
 150   2.0000      -1.015587       -27.6355
 151   2.0000      -1.014080       -27.5945
 152   2.0000      -1.012365       -27.5478
 153   2.0000      -1.009926       -27.4815
 154   2.0000      -0.999662       -27.2022
 155   2.0000      -0.996723       -27.1222
 156   2.0000      -0.995510       -27.0892
 157   2.0000      -0.992599       -27.0100
 158   2.0000      -0.985560       -26.8184
 159   2.0000      -0.970594       -26.4112
 160   2.0000      -0.963294       -26.2126
 161   2.0000      -0.948296       -25.8044
 162   2.0000      -0.945814       -25.7369
 163   2.0000      -0.930350       -25.3161
 164   2.0000      -0.924829       -25.1659
 165   2.0000      -0.914048       -24.8725
 166   2.0000      -0.910656       -24.7802
 167   2.0000      -0.903482       -24.5850
 168   2.0000      -0.898759       -24.4565
 169   2.0000      -0.891398       -24.2562
 170   2.0000      -0.887912       -24.1613
 171   2.0000      -0.884980       -24.0815
 172   2.0000      -0.881983       -24.0000
 173   2.0000      -0.875458       -23.8224
 174   2.0000      -0.868835       -23.6422
 175   2.0000      -0.866470       -23.5778
 176   2.0000      -0.865301       -23.5460
 177   2.0000      -0.851312       -23.1654
 178   2.0000      -0.839628       -22.8474
 179   2.0000      -0.834356       -22.7040
 180   2.0000      -0.831278       -22.6202
 181   2.0000      -0.813534       -22.1374
 182   2.0000      -0.802414       -21.8348
 183   2.0000      -0.791790       -21.5457
 184   2.0000      -0.786009       -21.3884
 185   2.0000      -0.778002       -21.1705
 186   2.0000      -0.769026       -20.9263
 187   2.0000      -0.762899       -20.7595
 188   2.0000      -0.759864       -20.6769
 189   2.0000      -0.739838       -20.1320
 190   2.0000      -0.725914       -19.7531
 191   2.0000      -0.716743       -19.5036
 192   2.0000      -0.710660       -19.3380
 193   2.0000      -0.707492       -19.2518
 194   2.0000      -0.699107       -19.0237
 195   2.0000      -0.697355       -18.9760
 196   2.0000      -0.695404       -18.9229
 197   2.0000      -0.692779       -18.8515
 198   2.0000      -0.689506       -18.7624
 199   2.0000      -0.685693       -18.6587
 200   2.0000      -0.677289       -18.4300
 201   2.0000      -0.666455       -18.1352
 202   2.0000      -0.661828       -18.0093
 203   2.0000      -0.652042       -17.7430
 204   2.0000      -0.645375       -17.5615
 205   2.0000      -0.641530       -17.4569
 206   2.0000      -0.638530       -17.3753
 207   2.0000      -0.635257       -17.2862
 208   2.0000      -0.629909       -17.1407
 209   2.0000      -0.629166       -17.1205
 210   2.0000      -0.627161       -17.0659
 211   2.0000      -0.624836       -17.0026
 212   2.0000      -0.622559       -16.9407
 213   2.0000      -0.612829       -16.6759
 214   2.0000      -0.603843       -16.4314
 215   2.0000      -0.602642       -16.3987
 216   2.0000      -0.595554       -16.2059
 217   2.0000      -0.590887       -16.0789
 218   2.0000      -0.586706       -15.9651
 219   2.0000      -0.580205       -15.7882
 220   2.0000      -0.561928       -15.2909
 221   2.0000      -0.558806       -15.2059
 222   2.0000      -0.558020       -15.1845
 223   2.0000      -0.556484       -15.1427
 224   2.0000      -0.555478       -15.1153
 225   2.0000      -0.550940       -14.9918
 226   2.0000      -0.547295       -14.8927
 227   2.0000      -0.545012       -14.8305
 228   2.0000      -0.542901       -14.7731
 229   2.0000      -0.541947       -14.7471
 230   2.0000      -0.538154       -14.6439
 231   2.0000      -0.533633       -14.5209
 232   2.0000      -0.526897       -14.3376
 233   2.0000      -0.524463       -14.2714
 234   2.0000      -0.520516       -14.1640
 235   2.0000      -0.519971       -14.1491
 236   2.0000      -0.517473       -14.0811
 237   2.0000      -0.516825       -14.0635
 238   2.0000      -0.515607       -14.0304
 239   2.0000      -0.513721       -13.9791
 240   2.0000      -0.513092       -13.9619
 241   2.0000      -0.512055       -13.9337
 242   2.0000      -0.510174       -13.8825
 243   2.0000      -0.508505       -13.8371
 244   2.0000      -0.505035       -13.7427
 245   2.0000      -0.502894       -13.6844
 246   2.0000      -0.500324       -13.6145
 247   2.0000      -0.499059       -13.5801
 248   2.0000      -0.496351       -13.5064
 249   2.0000      -0.495302       -13.4779
 250   2.0000      -0.492787       -13.4094
 251   2.0000      -0.491846       -13.3838
 252   2.0000      -0.489610       -13.3230
 253   2.0000      -0.486878       -13.2486
 254   2.0000      -0.479295       -13.0423
 255   2.0000      -0.476533       -12.9671
 256   2.0000      -0.474238       -12.9047
 257   2.0000      -0.471857       -12.8399
 258   2.0000      -0.467982       -12.7344
 259   2.0000      -0.466684       -12.6991
 260   2.0000      -0.465774       -12.6744
 261   2.0000      -0.463886       -12.6230
 262   2.0000      -0.462456       -12.5841
 263   2.0000      -0.461647       -12.5621
 264   2.0000      -0.459113       -12.4931
 265   2.0000      -0.455024       -12.3818
 266   2.0000      -0.453353       -12.3364
 267   2.0000      -0.452622       -12.3165
 268   2.0000      -0.451425       -12.2839
 269   2.0000      -0.450687       -12.2638
 270   2.0000      -0.450187       -12.2502
 271   2.0000      -0.448321       -12.1994
 272   2.0000      -0.447704       -12.1826
 273   2.0000      -0.446895       -12.1606
 274   2.0000      -0.446086       -12.1386
 275   2.0000      -0.445412       -12.1203
 276   2.0000      -0.445111       -12.1121
 277   2.0000      -0.444600       -12.0982
 278   2.0000      -0.442853       -12.0506
 279   2.0000      -0.441524       -12.0145
 280   2.0000      -0.440994       -12.0001
 281   2.0000      -0.434669       -11.8279
 282   2.0000      -0.433335       -11.7916
 283   2.0000      -0.432119       -11.7586
 284   2.0000      -0.430989       -11.7278
 285   2.0000      -0.429097       -11.6763
 286   2.0000      -0.426918       -11.6170
 287   2.0000      -0.425598       -11.5811
 288   2.0000      -0.423589       -11.5265
 289   2.0000      -0.416487       -11.3332
 290   2.0000      -0.415733       -11.3127
 291   2.0000      -0.410872       -11.1804
 292   2.0000      -0.410391       -11.1673
 293   2.0000      -0.404463       -11.0060
 294   2.0000      -0.397981       -10.8296
 295   2.0000      -0.392278       -10.6744
 296   2.0000      -0.388936       -10.5835
 297   2.0000      -0.381488       -10.3808
 298   2.0000      -0.378913       -10.3107
 299   2.0000      -0.376228       -10.2377
 300   2.0000      -0.368643       -10.0313
 301   2.0000      -0.361410        -9.8345
 302   2.0000      -0.360980        -9.8228
 303   2.0000      -0.356539        -9.7019
 304   2.0000      -0.347162        -9.4468
 305   2.0000      -0.343179        -9.3384
 306   2.0000      -0.337736        -9.1903
 307   2.0000      -0.332044        -9.0354
 308   2.0000      -0.331428        -9.0186
 309   2.0000      -0.330006        -8.9799
 310   2.0000      -0.320451        -8.7199
 311   2.0000      -0.317756        -8.6466
 312   2.0000      -0.310688        -8.4543
 313   2.0000      -0.299285        -8.1439
 314   2.0000      -0.295776        -8.0485
 315   2.0000      -0.280229        -7.6254
 316   2.0000      -0.252091        -6.8597
 317   0.0000      -0.123480        -3.3601
 318   0.0000      -0.115702        -3.1484
 319   0.0000      -0.093785        -2.5520
 320   0.0000      -0.091907        -2.5009
 321   0.0000      -0.068985        -1.8772

MULLIKEN ATOMIC CHARGES
-----------------------
   0 C :    0.297784
   1 C :   -0.347053
   2 C :   -0.182616
   3 N :    0.147986
   4 C :   -0.204782
   5 N :    0.159892
   6 C :    0.015975
   7 C :   -0.018201
   8 C :   -0.065903
   9 C :    0.117556
  10 C :   -0.093419
  11 C :   -0.017642
  12 S :    0.187539
  13 C :   -0.123713
  14 C :    0.039734
  15 Br:    0.025579
  16 C :    0.149164
  17 O :   -0.150634
  18 C :   -0.089273
  19 C :    0.028384
  20 C :   -0.113221
  21 C :    0.025159
  22 C :   -0.019744
  23 C :   -0.081387
  24 S :    0.206069
  25 C :   -0.108234
  26 C :    0.026762
  27 C :    0.305623
  28 C :   -0.292047
  29 C :   -0.188261
  30 N :    0.194349
  31 C :   -0.190010
  32 N :    0.176994
  33 C :   -0.063817
  34 C :   -0.024680
  35 S :    0.194567
  36 C :   -0.081524
  37 C :   -0.016847
  38 C :   -0.014814
  39 C :   -0.082073
  40 Se:    0.224290
  41 C :   -0.025502
  42 C :   -0.063670
  43 C :    0.030480
  44 C :   -0.109012
  45 S :    0.197735
  46 C :   -0.076873
  47 C :    0.023162
  48 C :    0.296764
  49 C :   -0.288021
  50 C :   -0.189266
  51 N :    0.178848
  52 C :   -0.188338
  53 N :    0.182415
  54 C :    0.001249
  55 C :   -0.083964
  56 S :    0.206457
  57 C :    0.039438
  58 C :   -0.137620
  59 C :    0.242423
  60 C :   -0.324285
  61 C :   -0.175406
  62 N :    0.155086
  63 C :   -0.211317
  64 N :    0.174914
  65 C :    0.007201
  66 C :    0.001858
  67 C :    0.138579
  68 O :   -0.139664
  69 C :   -0.070536
  70 C :    0.112452
  71 C :   -0.087138
  72 C :   -0.022296
  73 S :    0.185930
  74 C :   -0.124884
  75 C :    0.039545
  76 Br:    0.027028
  77 H :   -0.005813
  78 H :   -0.005531
  79 H :   -0.000659
  80 H :    0.019815
  81 H :    0.034579
  82 H :    0.018581
  83 H :   -0.000294
  84 H :   -0.000458
  85 H :    0.017901
  86 H :    0.019820
  87 H :    0.033828
  88 H :   -0.006635
  89 H :   -0.001613
  90 H :   -0.000804
Sum of atomic charges:   -0.0000000

LOEWDIN ATOMIC CHARGES
----------------------
   0 C :    0.075836
   1 C :   -0.142986
   2 C :   -0.018493
   3 N :   -0.052925
   4 C :   -0.025334
   5 N :   -0.053348
   6 C :   -0.021622
   7 C :   -0.050498
   8 C :    0.024084
   9 C :   -0.031806
  10 C :   -0.143609
  11 C :   -0.009292
  12 S :    0.433762
  13 C :   -0.270846
  14 C :   -0.069814
  15 Br:    0.138595
  16 C :    0.084991
  17 O :   -0.138031
  18 C :   -0.095954
  19 C :    0.041924
  20 C :   -0.177865
  21 C :    0.023364
  22 C :   -0.075759
  23 C :   -0.158424
  24 S :    0.493437
  25 C :   -0.190720
  26 C :   -0.050772
  27 C :    0.076053
  28 C :   -0.091300
  29 C :   -0.020723
  30 N :   -0.015375
  31 C :   -0.015725
  32 N :   -0.027825
  33 C :   -0.038823
  34 C :   -0.161417
  35 S :    0.481139
  36 C :   -0.162576
  37 C :   -0.051530
  38 C :   -0.051678
  39 C :   -0.162232
  40 Se:    0.419689
  41 C :   -0.161714
  42 C :   -0.037694
  43 C :   -0.050707
  44 C :   -0.189171
  45 S :    0.483935
  46 C :   -0.149804
  47 C :   -0.075644
  48 C :    0.078901
  49 C :   -0.094102
  50 C :   -0.016893
  51 N :   -0.026223
  52 C :   -0.017390
  53 N :   -0.023958
  54 C :    0.015947
  55 C :   -0.178698
  56 S :    0.512316
  57 C :    0.050478
  58 C :   -0.102793
  59 C :    0.060674
  60 C :   -0.147653
  61 C :   -0.021038
  62 N :   -0.050279
  63 C :   -0.039229
  64 N :   -0.047164
  65 C :   -0.018464
  66 C :   -0.052242
  67 C :    0.083650
  68 O :   -0.140675
  69 C :    0.023753
  70 C :   -0.032823
  71 C :   -0.143293
  72 C :   -0.012908
  73 S :    0.433029
  74 C :   -0.271331
  75 C :   -0.069654
  76 Br:    0.139091
  77 H :    0.042545
  78 H :    0.041138
  79 H :    0.039736
  80 H :    0.043625
  81 H :    0.045078
  82 H :    0.038583
  83 H :    0.029094
  84 H :    0.029150
  85 H :    0.038764
  86 H :    0.047808
  87 H :    0.055679
  88 H :    0.042394
  89 H :    0.040978
  90 H :    0.039624

  Mayer bond orders larger than 0.100000
B(  0-C ,  1-C ) :   1.6292 B(  0-C ,  6-C ) :   1.0042 B(  0-C , 18-C ) :   1.0751
B(  1-C ,  2-C ) :   1.1421 B(  1-C ,  4-C ) :   1.1416 B(  2-C ,  3-N ) :   2.9717
B(  4-C ,  5-N ) :   2.9915 B(  6-C ,  7-C ) :   1.2727 B(  6-C , 11-C ) :   1.4113
B(  7-C ,  8-C ) :   1.4257 B(  7-C , 16-C ) :   0.9476 B(  8-C ,  9-C ) :   1.2467
B(  8-C , 77-H ) :   1.0163 B(  9-C , 10-C ) :   1.3039 B(  9-C , 14-C ) :   1.1639
B( 10-C , 11-C ) :   1.3323 B( 10-C , 12-S ) :   1.0864 B( 11-C , 78-H ) :   0.9800
B( 12-S , 13-C ) :   1.0863 B( 13-C , 14-C ) :   1.6170 B( 13-C , 15-Br) :   1.0200
B( 14-C , 79-H ) :   1.0001 B( 16-C , 17-O ) :   2.1912 B( 16-C , 18-C ) :   0.9448
B( 18-C , 19-C ) :   1.5968 B( 19-C , 20-C ) :   1.2015 B( 19-C , 80-H ) :   0.9234
B( 20-C , 21-C ) :   1.4064 B( 20-C , 24-S ) :   1.0721 B( 21-C , 22-C ) :   1.3346
B( 21-C , 81-H ) :   0.9733 B( 22-C , 23-C ) :   1.3781 B( 22-C , 27-C ) :   0.9965
B( 23-C , 24-S ) :   1.1662 B( 23-C , 25-C ) :   1.2094 B( 25-C , 26-C ) :   1.4365
B( 25-C , 35-S ) :   1.1077 B( 26-C , 27-C ) :   0.9935 B( 26-C , 33-C ) :   1.3124
B( 27-C , 28-C ) :   1.7199 B( 28-C , 29-C ) :   1.1353 B( 28-C , 31-C ) :   1.1349
B( 29-C , 30-N ) :   2.9965 B( 31-C , 32-N ) :   2.9885 B( 33-C , 34-C ) :   1.4457
B( 33-C , 82-H ) :   0.9826 B( 34-C , 35-S ) :   1.1116 B( 34-C , 36-C ) :   1.1732
B( 36-C , 37-C ) :   1.5022 B( 36-C , 40-Se) :   1.0891 B( 37-C , 38-C ) :   1.2815
B( 37-C , 83-H ) :   0.9916 B( 38-C , 39-C ) :   1.5033 B( 38-C , 84-H ) :   0.9920
B( 39-C , 40-Se) :   1.0905 B( 39-C , 41-C ) :   1.1719 B( 41-C , 42-C ) :   1.4435
B( 41-C , 45-S ) :   1.1138 B( 42-C , 43-C ) :   1.3106 B( 42-C , 85-H ) :   0.9848
B( 43-C , 44-C ) :   1.4338 B( 43-C , 48-C ) :   0.9935 B( 44-C , 45-S ) :   1.1082
B( 44-C , 46-C ) :   1.2173 B( 46-C , 47-C ) :   1.3895 B( 46-C , 56-S ) :   1.1642
B( 47-C , 48-C ) :   0.9962 B( 47-C , 54-C ) :   1.3084 B( 48-C , 49-C ) :   1.7187
B( 49-C , 50-C ) :   1.1340 B( 49-C , 52-C ) :   1.1330 B( 50-C , 51-N ) :   2.9898
B( 52-C , 53-N ) :   2.9947 B( 54-C , 55-C ) :   1.3939 B( 54-C , 86-H ) :   1.0012
B( 55-C , 56-S ) :   1.0773 B( 55-C , 57-C ) :   1.1626 B( 57-C , 58-C ) :   1.6274
B( 57-C , 87-H ) :   0.9448 B( 58-C , 59-C ) :   1.0381 B( 58-C , 67-C ) :   0.9406
B( 59-C , 60-C ) :   1.6473 B( 59-C , 65-C ) :   1.0171 B( 60-C , 61-C ) :   1.1334
B( 60-C , 63-C ) :   1.1527 B( 61-C , 62-N ) :   2.9924 B( 63-C , 64-N ) :   3.0239
B( 65-C , 66-C ) :   1.2746 B( 65-C , 72-C ) :   1.4167 B( 66-C , 67-C ) :   0.9224
B( 66-C , 69-C ) :   1.4262 B( 67-C , 68-O ) :   2.2697 B( 69-C , 70-C ) :   1.2532
B( 69-C , 88-H ) :   1.0169 B( 70-C , 71-C ) :   1.3066 B( 70-C , 75-C ) :   1.1632
B( 71-C , 72-C ) :   1.3254 B( 71-C , 73-S ) :   1.0845 B( 72-C , 89-H ) :   0.9846
B( 73-S , 74-C ) :   1.0868 B( 74-C , 75-C ) :   1.6181 B( 74-C , 76-Br) :   1.0212
B( 75-C , 90-H ) :   1.0011

-----------------------------------------------------------------------------
         ABSORPTION SPECTRUM VIA TRANSITION ELECTRIC DIPOLE MOMENTS
-----------------------------------------------------------------------------
State   Energy  Wavelength   fosc         T2         TX        TY        TZ
        (cm-1)    (nm)                  (au**2)     (au)      (au)      (au)
-----------------------------------------------------------------------------
   0   11926.1    838.5   0.789784856  21.80151   4.44789  -1.36427   0.39564
   1   13148.3    760.6   0.045112630   1.12954   1.06137  -0.03950   0.03843
   2   19131.6    522.7   1.696977354  29.20111  -4.99957   2.04175  -0.19139
   3   20880.0    478.9   0.324394012   5.11467   2.04938   0.83083   0.47376
   4   21026.3    475.6   0.017434032   0.27297  -0.41578  -0.24926  -0.19483
   5   22532.6    443.8   0.135259694   1.97621  -1.36853   0.29932   0.11717
   6   25132.1    397.9   0.048275667   0.63238  -0.41288  -0.64082   0.22640
   7   25556.6    391.3   0.076204591   0.98164  -0.39119   0.16757  -0.89473
   8   26160.2    382.3   0.412506539   5.19117  -2.00743   1.07004  -0.12816
   9   27389.2    365.1   0.043063442   0.51761   0.14686  -0.02219  -0.70395
  10   27471.5    364.0   0.013306393   0.15946  -0.03338  -0.16873  -0.36038
  11   27847.0    359.1   0.036740209   0.43435  -0.43571  -0.46557  -0.16657
  12   28260.5    353.9   0.042799014   0.49857   0.04165  -0.48414  -0.51229
  13   28458.3    351.4   0.076396047   0.88377  -0.31712   0.84457  -0.26440
  14   28997.3    344.9   0.009077046   0.10305   0.01588   0.10386   0.30334
  15   29179.9    342.7   0.065611111   0.74023   0.57734  -0.63336   0.07597
  16   29432.6    339.8   0.050655514   0.56660  -0.54347  -0.49865  -0.15026
  17   29759.2    336.0   0.079542479   0.87994   0.30099   0.86254  -0.21300
  18   29950.4    333.9   0.055528698   0.61037  -0.66062  -0.33391   0.24990
  19   30383.5    329.1   0.519447567   5.62833  -1.34108   1.54989   1.19485
  20   30509.0    327.8   0.409939981   4.42351  -1.00921   1.59882  -0.92129
  21   30669.3    326.1   0.088894415   0.95422   0.06406   0.84115   0.49253
  22   31057.2    322.0   0.192827920   2.04401   0.48618  -1.32431   0.23201
  23   31302.7    319.5   0.610818490   6.42400   0.41356   2.33762   0.88797
  24   31925.6    313.2   0.191004596   1.96961  -1.36910  -0.26054  -0.16519
  25   32283.5    309.8   0.138681889   1.41421  -0.21555   0.85543   0.79749
  26   32635.6    306.4   0.107042929   1.07980   0.73106  -0.10705  -0.73068
  27   32793.7    304.9   0.064222431   0.64472   0.50245  -0.51580  -0.35527
  28   33012.8    302.9   0.181948860   1.81444  -1.08334   0.36559  -0.71216
  29   33162.4    301.5   0.164189240   1.62995  -0.39188   1.17929  -0.29266
  30   33319.6    300.1   0.015606508   0.15420  -0.37222  -0.11363  -0.05233
  31   33493.4    298.6   0.033552327   0.32979  -0.51316   0.25312  -0.04888
  32   33552.6    298.0   0.026590604   0.26090   0.41522   0.29708  -0.01525
  33   33775.6    296.1   0.028845218   0.28116   0.16854   0.49963   0.05589
  34   34060.2    293.6   0.018491374   0.17873   0.03276   0.34969   0.23531
  35   34331.6    291.3   0.309381479   2.96671  -0.00388  -0.97701  -1.41850
  36   34671.5    288.4   0.158332697   1.50340   0.29907  -1.18869   0.03102
  37   35068.2    285.2   0.187422448   1.75948  -0.35315  -1.21410  -0.40090
  38   35410.5    282.4   0.113507243   1.05528   0.48501   0.85563   0.29654
  39   35514.4    281.6   0.211512050   1.96068   0.57466  -0.50181   1.17415
  40   35729.7    279.9   0.004561256   0.04203   0.07806   0.06672  -0.17744
  41   35903.2    278.5   0.064234399   0.58899   0.19876  -0.72897  -0.13452
  42   36157.4    276.6   0.074742789   0.68053   0.43735  -0.69069   0.11047
  43   36357.6    275.0   0.119137745   1.07877   0.83132  -0.62085  -0.04710
  44   36527.5    273.8   0.017159224   0.15465  -0.02212  -0.08578   0.38315
  45   37097.4    269.6   0.061515238   0.54590  -0.65171   0.18270  -0.29630
  46   37153.6    269.2   0.009997267   0.08858  -0.12231  -0.27132  -0.00324
  47   37326.8    267.9   0.027078928   0.23883   0.11214  -0.22544  -0.41884
  48   37701.2    265.2   0.038105026   0.33274   0.15272   0.44127   0.33867
  49   37852.0    264.2   0.025085805   0.21818   0.05756   0.45722   0.07625
  50   38397.1    260.4   0.010317776   0.08846  -0.11680  -0.21024  -0.17499
  51   38842.8    257.4   0.027096431   0.22966  -0.02959   0.45790  -0.13824
  52   38905.3    257.0   0.033281936   0.28163  -0.44864  -0.26558  -0.09906
  53   38977.3    256.6   0.043550664   0.36784   0.55875  -0.23565   0.01015
  54   39413.6    253.7   0.008102949   0.06768  -0.10311  -0.14898  -0.18670
  55   39593.2    252.6   0.018334046   0.15244   0.32130   0.17932  -0.13059
  56   39708.1    251.8   0.106829898   0.88571   0.85205   0.08020   0.39151
  57   39962.5    250.2   0.000820632   0.00676   0.00828   0.06344  -0.05164
  58   40129.2    249.2   0.116877708   0.95884   0.60587   0.45636   0.61927

FINAL SINGLE POINT ENERGY    -12741.026368556586

DIPOLE MOMENT
-------------
                                X             Y             Z
Electronic contribution:     25.11687      30.86943     -39.60892
Nuclear contribution   :    -25.16490     -27.86716      37.17976
                        -----------------------------------------
Total Dipole Moment    :     -0.04803       3.00226      -2.42916
                        -----------------------------------------
Magnitude (a.u.)       :      3.86221
Magnitude (Debye)      :      9.81696

Rotational constants in cm-1:     0.001366     0.000104     0.000101
Rotational constants in MHz :    40.950216     3.122421     3.021227

                             ****ORCA TERMINATED NORMALLY****
TOTAL RUN TIME: 0 days 0 hours 9 minutes 49 seconds 25 msec
