                         Program Version 4.2.0 -  RELEASE  -
|  1> # ORCA input file
|  2> # SCF done       -208.031812021739          0.000830613842
|  3> ! CAM-B3LYP def2-SVP def2/J RIJCOSX Grid4 TightSCF
|  4> %maxcore 5000
|  5> %tddft
|  6>     Mode sTDDFT
|  7>     Ethresh 5.0
|  8>     maxcore 5000
|  9> end
| 10>
| 11> %pal
| 12>   nprocs 6
| 13>   end
| 14> * xyz 0 1
| 15>    C       -0.27049         0.59593        -1.64912
| 16>    C        0.60252         1.32995        -0.88782
| 17>    C        1.30505         0.80914         0.21914
| 18>    N        1.90374         0.43188         1.12232
| 19>    C        0.97342         2.65521        -1.18295
| 20>    N        1.31391         3.72866        -1.40818
| 21>    C       -0.48489        -0.84235        -1.51743
| 22>    C       -1.01448        -1.33667        -2.74536
| 23>    C       -1.27645        -2.66330        -2.93161
| 24>    C       -1.03216        -3.56820        -1.87411
| 25>    C       -0.52908        -3.07603        -0.63492
| 26>    C       -0.25636        -1.69765        -0.47402
| 27>    C       -0.30501        -3.98766         0.41645
| 28>    C       -0.55864        -5.32229         0.25191
| 29>    C       -1.04915        -5.80653        -0.96990
| 30>    C       -1.28108        -4.94810        -2.01017
| 31>    C       -1.22400        -0.21149        -3.67061
| 32>    O       -1.60878        -0.24252        -4.81711
| 33>    C       -0.91906         1.01438        -2.87346
| 34>    C       -1.35502         2.21267        -3.35059
| 35>    C       -1.53984         3.43875        -2.67693
| 36>    C       -1.61253         3.70219        -1.31621
| 37>    C       -1.83999         5.04656        -1.05197
| 38>    C       -1.95902         5.82310        -2.22240
| 39>    S       -1.79680         4.89373        -3.63637
| 40>    C       -2.18411         7.16900        -1.84326
| 41>    C       -2.19268         7.24865        -0.43921
| 42>    C       -1.96641         5.91837         0.10417
| 43>    C       -1.86506         5.55643         1.41505
| 44>    C       -1.99128         6.48554         2.46931
| 45>    N       -2.10240         7.23380         3.33074
| 46>    C       -1.63068         4.21591         1.78890
| 47>    N       -1.45353         3.12084         2.07948
| 48>    C       -2.42148         8.53990         0.02857
| 49>    C       -2.60251         9.44772        -1.00173
| 50>    S       -2.46984         8.67963        -2.57778
| 51>    C       -2.88339        10.84852        -0.88115
| 52>    C       -3.30669        11.65626        -1.94312
| 53>    C       -3.63360        13.02735        -1.79901
| 54>    N       -4.03340        13.62458        -2.95510
| 55>    C       -4.04255        12.82131        -3.94212
| 56>    S       -3.55031        11.18610        -3.60087
| 57>    C       -3.52950        13.69268        -0.55739
| 58>    C       -3.06397        12.89690         0.49449
| 59>    C       -2.76134        11.51882         0.35659
| 60>    N       -2.34290        10.92906         1.50979
| 61>    C       -2.31210        11.74052         2.49002
| 62>    S       -2.79693        13.37778         2.14470
| 63>    C       -3.88940        15.07519        -0.43181
| 64>    C       -4.61430        15.82105        -1.34532
| 65>    C       -4.78013        17.14046        -0.93753
| 66>    C       -4.17174        17.41349         0.30054
| 67>    S       -3.41327        16.03361         0.96259
| 68>    C       -4.37850        18.77913         0.61255
| 69>    C       -5.12927        19.36845        -0.43060
| 70>    C       -5.39882        18.35746        -1.43953
| 71>    C       -6.06871        18.50896        -2.61687
| 72>    C       -6.60104        19.74336        -3.05024
| 73>    N       -7.03005        20.73085        -3.44286
| 74>    C       -6.26580        17.43350        -3.51039
| 75>    N       -6.43316        16.56995        -4.24595
| 76>    C       -5.39513        20.71411        -0.22139
| 77>    C       -4.85194        21.17742         0.97031
| 78>    S       -3.98772        19.89399         1.83333
| 79>    C       -4.80577        22.45956         1.55328
| 80>    C       -5.48232        23.60449         1.23193
| 81>    C       -5.22626        24.89814         1.84403
| 82>    C       -4.13382        25.24801         2.59621
| 83>    C       -3.92920        26.53485         3.13711
| 84>    N       -3.70492        27.55505         3.61366
| 85>    C       -3.04321        24.40922         2.90677
| 86>    N       -2.11209        23.79868         3.19020
| 87>    C       -6.29126        25.80677         1.43769
| 88>    C       -7.14935        25.11814         0.53542
| 89>    C       -6.67401        23.73709         0.35442
| 90>    O       -7.20096        22.88781        -0.33288
| 91>    C       -8.23524        25.71819        -0.03355
| 92>    C       -8.52033        27.06496         0.28325
| 93>    C       -7.67352        27.75971         1.19466
| 94>    C       -6.55535        27.11022         1.76678
| 95>    C       -7.97124        29.10141         1.50871
| 96>    C       -9.05061        29.72877         0.94840
| 97>    C       -9.88211        29.04422         0.04947
| 98>    C       -9.62250        27.74054        -0.27618
| 99>    H       -1.66759        -3.01872        -3.87333
|100>    H        0.11431        -1.34931         0.47737
|101>    H        0.07605        -3.61065         1.35406
|102>    H       -0.38181        -6.01288         1.06278
|103>    H       -1.24309        -6.86270        -1.08269
|104>    H       -1.65975        -5.31472        -2.95310
|105>    H       -1.67011         2.19307        -4.39014
|106>    H       -1.55076         2.93552        -0.56597
|107>    H       -2.46289         8.83102         1.06157
|108>    H       -4.33085        13.10750        -4.93438
|109>    H       -2.00898        11.46076         3.47974
|110>    H       -4.98936        15.40071        -2.25910
|111>    H       -5.95988        21.34357        -0.88431
|112>    H       -4.12051        22.52341         2.39085
|113>    H       -8.86580        25.17144        -0.71883
|114>    H       -5.93791        27.66315         2.45657
|115>    H       -7.32716        29.62526         2.19971
|116>    H       -9.26938        30.75703         1.19456
|117>    H      -10.72927        29.55487        -0.38347
|118>    H      -10.25870        27.20773        -0.96766
|119> *
|120>
|121>                          ****END OF INPUT****

CARTESIAN COORDINATES (ANGSTROEM)
---------------------------------
  C     -0.270490    0.595930   -1.649120
  C      0.602520    1.329950   -0.887820
  C      1.305050    0.809140    0.219140
  N      1.903740    0.431880    1.122320
  C      0.973420    2.655210   -1.182950
  N      1.313910    3.728660   -1.408180
  C     -0.484890   -0.842350   -1.517430
  C     -1.014480   -1.336670   -2.745360
  C     -1.276450   -2.663300   -2.931610
  C     -1.032160   -3.568200   -1.874110
  C     -0.529080   -3.076030   -0.634920
  C     -0.256360   -1.697650   -0.474020
  C     -0.305010   -3.987660    0.416450
  C     -0.558640   -5.322290    0.251910
  C     -1.049150   -5.806530   -0.969900
  C     -1.281080   -4.948100   -2.010170
  C     -1.224000   -0.211490   -3.670610
  O     -1.608780   -0.242520   -4.817110
  C     -0.919060    1.014380   -2.873460
  C     -1.355020    2.212670   -3.350590
  C     -1.539840    3.438750   -2.676930
  C     -1.612530    3.702190   -1.316210
  C     -1.839990    5.046560   -1.051970
  C     -1.959020    5.823100   -2.222400
  S     -1.796800    4.893730   -3.636370
  C     -2.184110    7.169000   -1.843260
  C     -2.192680    7.248650   -0.439210
  C     -1.966410    5.918370    0.104170
  C     -1.865060    5.556430    1.415050
  C     -1.991280    6.485540    2.469310
  N     -2.102400    7.233800    3.330740
  C     -1.630680    4.215910    1.788900
  N     -1.453530    3.120840    2.079480
  C     -2.421480    8.539900    0.028570
  C     -2.602510    9.447720   -1.001730
  S     -2.469840    8.679630   -2.577780
  C     -2.883390   10.848520   -0.881150
  C     -3.306690   11.656260   -1.943120
  C     -3.633600   13.027350   -1.799010
  N     -4.033400   13.624580   -2.955100
  C     -4.042550   12.821310   -3.942120
  S     -3.550310   11.186100   -3.600870
  C     -3.529500   13.692680   -0.557390
  C     -3.063970   12.896900    0.494490
  C     -2.761340   11.518820    0.356590
  N     -2.342900   10.929060    1.509790
  C     -2.312100   11.740520    2.490020
  S     -2.796930   13.377780    2.144700
  C     -3.889400   15.075190   -0.431810
  C     -4.614300   15.821050   -1.345320
  C     -4.780130   17.140460   -0.937530
  C     -4.171740   17.413490    0.300540
  S     -3.413270   16.033610    0.962590
  C     -4.378500   18.779130    0.612550
  C     -5.129270   19.368450   -0.430600
  C     -5.398820   18.357460   -1.439530
  C     -6.068710   18.508960   -2.616870
  C     -6.601040   19.743360   -3.050240
  N     -7.030050   20.730850   -3.442860
  C     -6.265800   17.433500   -3.510390
  N     -6.433160   16.569950   -4.245950
  C     -5.395130   20.714110   -0.221390
  C     -4.851940   21.177420    0.970310
  S     -3.987720   19.893990    1.833330
  C     -4.805770   22.459560    1.553280
  C     -5.482320   23.604490    1.231930
  C     -5.226260   24.898140    1.844030
  C     -4.133820   25.248010    2.596210
  C     -3.929200   26.534850    3.137110
  N     -3.704920   27.555050    3.613660
  C     -3.043210   24.409220    2.906770
  N     -2.112090   23.798680    3.190200
  C     -6.291260   25.806770    1.437690
  C     -7.149350   25.118140    0.535420
  C     -6.674010   23.737090    0.354420
  O     -7.200960   22.887810   -0.332880
  C     -8.235240   25.718190   -0.033550
  C     -8.520330   27.064960    0.283250
  C     -7.673520   27.759710    1.194660
  C     -6.555350   27.110220    1.766780
  C     -7.971240   29.101410    1.508710
  C     -9.050610   29.728770    0.948400
  C     -9.882110   29.044220    0.049470
  C     -9.622500   27.740540   -0.276180
  H     -1.667590   -3.018720   -3.873330
  H      0.114310   -1.349310    0.477370
  H      0.076050   -3.610650    1.354060
  H     -0.381810   -6.012880    1.062780
  H     -1.243090   -6.862700   -1.082690
  H     -1.659750   -5.314720   -2.953100
  H     -1.670110    2.193070   -4.390140
  H     -1.550760    2.935520   -0.565970
  H     -2.462890    8.831020    1.061570
  H     -4.330850   13.107500   -4.934380
  H     -2.008980   11.460760    3.479740
  H     -4.989360   15.400710   -2.259100
  H     -5.959880   21.343570   -0.884310
  H     -4.120510   22.523410    2.390850
  H     -8.865800   25.171440   -0.718830
  H     -5.937910   27.663150    2.456570
  H     -7.327160   29.625260    2.199710
  H     -9.269380   30.757030    1.194560
  H    -10.729270   29.554870   -0.383470
  H    -10.258700   27.207730   -0.967660

 Total Charge           Charge          ....    0
 Multiplicity           Mult            ....    1
 Number of Electrons    NEL             ....  598
 Basis Dimension        Dim             .... 1300

ORBITAL ENERGIES
----------------

  NO   OCC          E(Eh)            E(eV)
   0   2.0000     -88.997971     -2421.7579
   1   2.0000     -88.996768     -2421.7252
   2   2.0000     -88.996417     -2421.7156
   3   2.0000     -88.996313     -2421.7128
   4   2.0000     -88.984101     -2421.3805
   5   2.0000     -88.984062     -2421.3794
   6   2.0000     -19.215991      -522.8937
   7   2.0000     -19.213623      -522.8293
   8   2.0000     -14.433166      -392.7464
   9   2.0000     -14.432989      -392.7416
  10   2.0000     -14.432943      -392.7403
  11   2.0000     -14.432314      -392.7232
  12   2.0000     -14.431628      -392.7046
  13   2.0000     -14.429314      -392.6416
  14   2.0000     -14.416878      -392.3032
  15   2.0000     -14.415488      -392.2654
  16   2.0000     -14.412170      -392.1751
  17   2.0000     -14.411751      -392.1637
  18   2.0000     -10.368046      -282.1289
  19   2.0000     -10.367696      -282.1194
  20   2.0000     -10.367530      -282.1148
  21   2.0000     -10.364958      -282.0448
  22   2.0000     -10.356944      -281.8268
  23   2.0000     -10.356908      -281.8258
  24   2.0000     -10.354840      -281.7695
  25   2.0000     -10.354334      -281.7558
  26   2.0000     -10.347554      -281.5713
  27   2.0000     -10.344235      -281.4809
  28   2.0000     -10.342262      -281.4272
  29   2.0000     -10.341159      -281.3972
  30   2.0000     -10.339752      -281.3590
  31   2.0000     -10.339182      -281.3434
  32   2.0000     -10.336646      -281.2744
  33   2.0000     -10.336436      -281.2687
  34   2.0000     -10.336244      -281.2635
  35   2.0000     -10.335794      -281.2512
  36   2.0000     -10.334890      -281.2266
  37   2.0000     -10.333687      -281.1939
  38   2.0000     -10.333406      -281.1863
  39   2.0000     -10.333172      -281.1799
  40   2.0000     -10.333152      -281.1793
  41   2.0000     -10.332367      -281.1580
  42   2.0000     -10.331726      -281.1406
  43   2.0000     -10.328584      -281.0551
  44   2.0000     -10.328517      -281.0532
  45   2.0000     -10.328156      -281.0434
  46   2.0000     -10.327509      -281.0258
  47   2.0000     -10.327096      -281.0146
  48   2.0000     -10.326581      -281.0006
  49   2.0000     -10.324247      -280.9371
  50   2.0000     -10.318708      -280.7863
  51   2.0000     -10.317923      -280.7650
  52   2.0000     -10.315419      -280.6968
  53   2.0000     -10.314186      -280.6633
  54   2.0000     -10.313462      -280.6436
  55   2.0000     -10.310004      -280.5495
  56   2.0000     -10.308632      -280.5121
  57   2.0000     -10.308332      -280.5040
  58   2.0000     -10.308269      -280.5023
  59   2.0000     -10.307033      -280.4686
  60   2.0000     -10.301907      -280.3292
  61   2.0000     -10.300587      -280.2932
  62   2.0000     -10.300445      -280.2894
  63   2.0000     -10.299309      -280.2585
  64   2.0000     -10.298112      -280.2259
  65   2.0000     -10.298053      -280.2243
  66   2.0000     -10.296277      -280.1759
  67   2.0000     -10.296098      -280.1711
  68   2.0000     -10.295816      -280.1634
  69   2.0000     -10.295747      -280.1615
  70   2.0000     -10.295494      -280.1546
  71   2.0000     -10.294952      -280.1399
  72   2.0000     -10.294846      -280.1370
  73   2.0000     -10.294204      -280.1195
  74   2.0000     -10.288086      -279.9531
  75   2.0000     -10.286184      -279.9013
  76   2.0000     -10.285174      -279.8738
  77   2.0000     -10.284785      -279.8632
  78   2.0000     -10.284691      -279.8607
  79   2.0000     -10.284286      -279.8497
  80   2.0000     -10.284277      -279.8494
  81   2.0000     -10.284092      -279.8444
  82   2.0000     -10.283682      -279.8332
  83   2.0000     -10.283678      -279.8331
  84   2.0000      -8.092190      -220.1997
  85   2.0000      -8.091199      -220.1727
  86   2.0000      -8.091103      -220.1701
  87   2.0000      -8.091080      -220.1695
  88   2.0000      -8.080235      -219.8744
  89   2.0000      -8.080210      -219.8737
  90   2.0000      -6.061481      -164.9413
  91   2.0000      -6.060371      -164.9111
  92   2.0000      -6.060335      -164.9101
  93   2.0000      -6.060207      -164.9066
  94   2.0000      -6.057191      -164.8245
  95   2.0000      -6.056176      -164.7969
  96   2.0000      -6.056075      -164.7942
  97   2.0000      -6.056069      -164.7940
  98   2.0000      -6.054597      -164.7540
  99   2.0000      -6.053688      -164.7292
 100   2.0000      -6.053638      -164.7279
 101   2.0000      -6.053516      -164.7245
 102   2.0000      -6.049641      -164.6191
 103   2.0000      -6.049636      -164.6190
 104   2.0000      -6.045332      -164.5018
 105   2.0000      -6.045293      -164.5008
 106   2.0000      -6.042022      -164.4118
 107   2.0000      -6.042007      -164.4114
 108   2.0000      -1.131659       -30.7940
 109   2.0000      -1.129112       -30.7247
 110   2.0000      -1.095845       -29.8195
 111   2.0000      -1.088109       -29.6089
 112   2.0000      -1.050547       -28.5868
 113   2.0000      -1.050328       -28.5809
 114   2.0000      -1.024461       -27.8770
 115   2.0000      -1.023476       -27.8502
 116   2.0000      -1.018149       -27.7052
 117   2.0000      -1.017193       -27.6792
 118   2.0000      -1.009822       -27.4787
 119   2.0000      -1.008207       -27.4347
 120   2.0000      -1.005737       -27.3675
 121   2.0000      -1.005618       -27.3642
 122   2.0000      -0.997736       -27.1498
 123   2.0000      -0.997147       -27.1337
 124   2.0000      -0.992089       -26.9961
 125   2.0000      -0.991606       -26.9830
 126   2.0000      -0.976566       -26.5737
 127   2.0000      -0.972198       -26.4549
 128   2.0000      -0.969328       -26.3768
 129   2.0000      -0.966567       -26.3016
 130   2.0000      -0.956778       -26.0352
 131   2.0000      -0.942358       -25.6429
 132   2.0000      -0.926619       -25.2146
 133   2.0000      -0.925393       -25.1812
 134   2.0000      -0.917338       -24.9620
 135   2.0000      -0.914848       -24.8943
 136   2.0000      -0.911922       -24.8147
 137   2.0000      -0.897430       -24.4203
 138   2.0000      -0.896228       -24.3876
 139   2.0000      -0.880243       -23.9526
 140   2.0000      -0.880160       -23.9504
 141   2.0000      -0.879623       -23.9358
 142   2.0000      -0.876472       -23.8500
 143   2.0000      -0.875083       -23.8122
 144   2.0000      -0.866395       -23.5758
 145   2.0000      -0.862554       -23.4713
 146   2.0000      -0.858623       -23.3643
 147   2.0000      -0.852861       -23.2075
 148   2.0000      -0.841955       -22.9108
 149   2.0000      -0.826977       -22.5032
 150   2.0000      -0.826466       -22.4893
 151   2.0000      -0.823074       -22.3970
 152   2.0000      -0.812185       -22.1007
 153   2.0000      -0.799211       -21.7476
 154   2.0000      -0.782171       -21.2839
 155   2.0000      -0.780219       -21.2308
 156   2.0000      -0.771468       -20.9927
 157   2.0000      -0.761529       -20.7223
 158   2.0000      -0.760430       -20.6923
 159   2.0000      -0.757520       -20.6132
 160   2.0000      -0.740972       -20.1629
 161   2.0000      -0.728336       -19.8190
 162   2.0000      -0.716931       -19.5087
 163   2.0000      -0.708788       -19.2871
 164   2.0000      -0.706145       -19.2152
 165   2.0000      -0.704940       -19.1824
 166   2.0000      -0.702788       -19.1238
 167   2.0000      -0.700005       -19.0481
 168   2.0000      -0.698011       -18.9939
 169   2.0000      -0.690836       -18.7986
 170   2.0000      -0.688778       -18.7426
 171   2.0000      -0.682952       -18.5841
 172   2.0000      -0.680248       -18.5105
 173   2.0000      -0.675561       -18.3830
 174   2.0000      -0.673487       -18.3265
 175   2.0000      -0.669836       -18.2272
 176   2.0000      -0.656668       -17.8688
 177   2.0000      -0.655727       -17.8432
 178   2.0000      -0.643190       -17.5021
 179   2.0000      -0.642623       -17.4867
 180   2.0000      -0.635537       -17.2938
 181   2.0000      -0.634028       -17.2528
 182   2.0000      -0.629161       -17.1204
 183   2.0000      -0.625189       -17.0123
 184   2.0000      -0.621086       -16.9006
 185   2.0000      -0.616855       -16.7855
 186   2.0000      -0.606401       -16.5010
 187   2.0000      -0.605581       -16.4787
 188   2.0000      -0.605174       -16.4676
 189   2.0000      -0.602228       -16.3875
 190   2.0000      -0.598084       -16.2747
 191   2.0000      -0.593852       -16.1595
 192   2.0000      -0.586304       -15.9541
 193   2.0000      -0.574609       -15.6359
 194   2.0000      -0.571357       -15.5474
 195   2.0000      -0.562506       -15.3066
 196   2.0000      -0.559627       -15.2282
 197   2.0000      -0.556742       -15.1497
 198   2.0000      -0.556226       -15.1357
 199   2.0000      -0.554179       -15.0800
 200   2.0000      -0.552306       -15.0290
 201   2.0000      -0.549024       -14.9397
 202   2.0000      -0.547206       -14.8902
 203   2.0000      -0.545101       -14.8330
 204   2.0000      -0.544743       -14.8232
 205   2.0000      -0.539144       -14.6709
 206   2.0000      -0.536471       -14.5981
 207   2.0000      -0.535530       -14.5725
 208   2.0000      -0.531094       -14.4518
 209   2.0000      -0.527038       -14.3414
 210   2.0000      -0.526505       -14.3269
 211   2.0000      -0.523116       -14.2347
 212   2.0000      -0.521455       -14.1895
 213   2.0000      -0.520167       -14.1545
 214   2.0000      -0.518384       -14.1059
 215   2.0000      -0.516858       -14.0644
 216   2.0000      -0.514232       -13.9930
 217   2.0000      -0.510940       -13.9034
 218   2.0000      -0.508467       -13.8361
 219   2.0000      -0.507973       -13.8227
 220   2.0000      -0.507414       -13.8074
 221   2.0000      -0.506559       -13.7842
 222   2.0000      -0.505504       -13.7555
 223   2.0000      -0.502517       -13.6742
 224   2.0000      -0.501298       -13.6410
 225   2.0000      -0.499273       -13.5859
 226   2.0000      -0.497610       -13.5407
 227   2.0000      -0.494718       -13.4620
 228   2.0000      -0.492174       -13.3927
 229   2.0000      -0.490070       -13.3355
 230   2.0000      -0.488787       -13.3006
 231   2.0000      -0.484280       -13.1779
 232   2.0000      -0.483628       -13.1602
 233   2.0000      -0.482434       -13.1277
 234   2.0000      -0.479241       -13.0408
 235   2.0000      -0.474756       -12.9188
 236   2.0000      -0.472742       -12.8640
 237   2.0000      -0.463677       -12.6173
 238   2.0000      -0.463395       -12.6096
 239   2.0000      -0.463254       -12.6058
 240   2.0000      -0.462637       -12.5890
 241   2.0000      -0.460376       -12.5275
 242   2.0000      -0.457387       -12.4461
 243   2.0000      -0.455073       -12.3832
 244   2.0000      -0.451205       -12.2779
 245   2.0000      -0.450577       -12.2608
 246   2.0000      -0.449787       -12.2393
 247   2.0000      -0.447976       -12.1900
 248   2.0000      -0.447837       -12.1863
 249   2.0000      -0.442951       -12.0533
 250   2.0000      -0.442819       -12.0497
 251   2.0000      -0.442331       -12.0364
 252   2.0000      -0.441152       -12.0044
 253   2.0000      -0.441069       -12.0021
 254   2.0000      -0.440377       -11.9833
 255   2.0000      -0.439999       -11.9730
 256   2.0000      -0.438874       -11.9424
 257   2.0000      -0.437655       -11.9092
 258   2.0000      -0.437320       -11.9001
 259   2.0000      -0.436744       -11.8844
 260   2.0000      -0.432220       -11.7613
 261   2.0000      -0.431694       -11.7470
 262   2.0000      -0.431224       -11.7342
 263   2.0000      -0.430353       -11.7105
 264   2.0000      -0.428094       -11.6490
 265   2.0000      -0.425730       -11.5847
 266   2.0000      -0.425174       -11.5696
 267   2.0000      -0.424642       -11.5551
 268   2.0000      -0.420640       -11.4462
 269   2.0000      -0.418428       -11.3860
 270   2.0000      -0.416342       -11.3292
 271   2.0000      -0.411242       -11.1905
 272   2.0000      -0.408260       -11.1093
 273   2.0000      -0.406629       -11.0649
 274   2.0000      -0.403408       -10.9773
 275   2.0000      -0.402069       -10.9409
 276   2.0000      -0.384641       -10.4666
 277   2.0000      -0.381920       -10.3926
 278   2.0000      -0.379747       -10.3335
 279   2.0000      -0.372264       -10.1298
 280   2.0000      -0.370467       -10.0809
 281   2.0000      -0.367856       -10.0099
 282   2.0000      -0.363272        -9.8851
 283   2.0000      -0.353864        -9.6291
 284   2.0000      -0.351322        -9.5599
 285   2.0000      -0.347968        -9.4687
 286   2.0000      -0.342024        -9.3069
 287   2.0000      -0.336334        -9.1521
 288   2.0000      -0.333596        -9.0776
 289   2.0000      -0.327097        -8.9008
 290   2.0000      -0.324857        -8.8398
 291   2.0000      -0.324711        -8.8358
 292   2.0000      -0.316520        -8.6129
 293   2.0000      -0.315182        -8.5765
 294   2.0000      -0.306256        -8.3336
 295   2.0000      -0.294162        -8.0046
 296   2.0000      -0.292096        -7.9483
 297   2.0000      -0.275606        -7.4996
 298   2.0000      -0.251837        -6.8528
 299   0.0000      -0.118350        -3.2205
 300   0.0000      -0.109530        -2.9805
 301   0.0000      -0.089742        -2.4420
 302   0.0000      -0.088386        -2.4051
 303   0.0000      -0.065745        -1.7890

MULLIKEN ATOMIC CHARGES
-----------------------
   0 C :    0.269951
   1 C :   -0.328187
   2 C :   -0.168942
   3 N :    0.156679
   4 C :   -0.203913
   5 N :    0.168017
   6 C :    0.026914
   7 C :    0.017897
   8 C :   -0.083504
   9 C :    0.096779
  10 C :    0.092664
  11 C :   -0.078213
  12 C :   -0.016138
  13 C :    0.035347
  14 C :    0.034246
  15 C :   -0.015176
  16 C :    0.135983
  17 O :   -0.145445
  18 C :   -0.142847
  19 C :    0.084669
  20 C :   -0.108034
  21 C :    0.000719
  22 C :   -0.007857
  23 C :   -0.067417
  24 S :    0.209875
  25 C :   -0.087998
  26 C :    0.043074
  27 C :    0.305808
  28 C :   -0.290249
  29 C :   -0.187016
  30 N :    0.177893
  31 C :   -0.186386
  32 N :    0.171301
  33 C :   -0.043769
  34 C :   -0.160926
  35 S :    0.160155
  36 C :    0.145141
  37 C :   -0.157929
  38 C :    0.006386
  39 N :   -0.070244
  40 C :    0.044417
  41 S :    0.096569
  42 C :    0.133271
  43 C :   -0.155045
  44 C :    0.001159
  45 N :   -0.064697
  46 C :    0.042315
  47 S :    0.099396
  48 C :   -0.160899
  49 C :   -0.037876
  50 C :    0.035551
  51 C :   -0.087659
  52 S :    0.169562
  53 C :   -0.077740
  54 C :   -0.016536
  55 C :    0.316756
  56 C :   -0.303378
  57 C :   -0.192803
  58 N :    0.195569
  59 C :   -0.186314
  60 N :    0.170136
  61 C :    0.006799
  62 C :   -0.111305
  63 S :    0.206264
  64 C :    0.029957
  65 C :   -0.093917
  66 C :    0.311667
  67 C :   -0.355749
  68 C :   -0.181171
  69 N :    0.147464
  70 C :   -0.200724
  71 N :    0.153841
  72 C :    0.048419
  73 C :   -0.004725
  74 C :    0.157650
  75 O :   -0.152115
  76 C :   -0.082006
  77 C :    0.099315
  78 C :    0.098596
  79 C :   -0.086827
  80 C :   -0.022560
  81 C :    0.037246
  82 C :    0.036393
  83 C :   -0.016965
  84 H :   -0.012609
  85 H :   -0.000698
  86 H :   -0.009742
  87 H :   -0.004047
  88 H :   -0.004906
  89 H :   -0.018299
  90 H :    0.018625
  91 H :    0.026522
  92 H :    0.023908
  93 H :    0.058443
  94 H :    0.059120
  95 H :    0.025604
  96 H :    0.038136
  97 H :    0.016000
  98 H :   -0.009562
  99 H :   -0.007751
 100 H :   -0.008989
 101 H :   -0.005107
 102 H :   -0.005299
 103 H :   -0.015950
Sum of atomic charges:   -0.0000000

LOEWDIN ATOMIC CHARGES
----------------------
   0 C :    0.066025
   1 C :   -0.137626
   2 C :   -0.018152
   3 N :   -0.046949
   4 C :   -0.015805
   5 N :   -0.047320
   6 C :   -0.022724
   7 C :   -0.057687
   8 C :    0.032416
   9 C :   -0.009369
  10 C :   -0.005124
  11 C :    0.018215
  12 C :   -0.005390
  13 C :   -0.012976
  14 C :   -0.013408
  15 C :   -0.009608
  16 C :    0.083452
  17 O :   -0.146101
  18 C :   -0.091186
  19 C :    0.040359
  20 C :   -0.180269
  21 C :    0.011397
  22 C :   -0.066240
  23 C :   -0.158939
  24 S :    0.497286
  25 C :   -0.187672
  26 C :   -0.059304
  27 C :    0.082383
  28 C :   -0.096465
  29 C :   -0.016234
  30 N :   -0.029415
  31 C :   -0.013037
  32 N :   -0.031915
  33 C :   -0.013545
  34 C :   -0.160321
  35 S :    0.472632
  36 C :   -0.049732
  37 C :   -0.172258
  38 C :   -0.021356
  39 N :   -0.075339
  40 C :   -0.088266
  41 S :    0.394534
  42 C :   -0.053004
  43 C :   -0.170865
  44 C :   -0.022453
  45 N :   -0.075107
  46 C :   -0.087629
  47 S :    0.395412
  48 C :   -0.157476
  49 C :   -0.015559
  50 C :   -0.055860
  51 C :   -0.192432
  52 S :    0.472084
  53 C :   -0.156910
  54 C :   -0.075276
  55 C :    0.076466
  56 C :   -0.093601
  57 C :   -0.022104
  58 N :   -0.017222
  59 C :   -0.014302
  60 N :   -0.031960
  61 C :    0.020855
  62 C :   -0.177211
  63 S :    0.494506
  64 C :    0.043005
  65 C :   -0.096114
  66 C :    0.077094
  67 C :   -0.144496
  68 C :   -0.017302
  69 N :   -0.055856
  70 C :   -0.024761
  71 N :   -0.056362
  72 C :   -0.026524
  73 C :   -0.055159
  74 C :    0.085556
  75 O :   -0.139351
  76 C :    0.033220
  77 C :   -0.008274
  78 C :   -0.006415
  79 C :    0.019036
  80 C :   -0.005797
  81 C :   -0.013813
  82 C :   -0.012487
  83 C :   -0.009221
  84 H :    0.039043
  85 H :    0.040239
  86 H :    0.034820
  87 H :    0.033286
  88 H :    0.032684
  89 H :    0.031503
  90 H :    0.044967
  91 H :    0.042979
  92 H :    0.039247
  93 H :    0.028797
  94 H :    0.029043
  95 H :    0.039020
  96 H :    0.044189
  97 H :    0.043142
  98 H :    0.040172
  99 H :    0.038872
 100 H :    0.034637
 101 H :    0.033024
 102 H :    0.032708
 103 H :    0.032333

  Mayer bond orders larger than 0.100000
B(  0-C ,  1-C ) :   1.6497 B(  0-C ,  6-C ) :   0.9953 B(  0-C , 18-C ) :   1.0363
B(  1-C ,  2-C ) :   1.1272 B(  1-C ,  4-C ) :   1.1717 B(  2-C ,  3-N ) :   2.9923
B(  4-C ,  5-N ) :   2.9944 B(  6-C ,  7-C ) :   1.2152 B(  6-C , 11-C ) :   1.4625
B(  7-C ,  8-C ) :   1.4730 B(  7-C , 16-C ) :   0.9243 B(  8-C ,  9-C ) :   1.1851
B(  8-C , 84-H ) :   1.0159 B(  9-C , 10-C ) :   1.2565 B(  9-C , 15-C ) :   1.2444
B( 10-C , 11-C ) :   1.2028 B( 10-C , 12-C ) :   1.2446 B( 11-C , 85-H ) :   0.9940
B( 12-C , 13-C ) :   1.4878 B( 12-C , 86-H ) :   0.9971 B( 13-C , 14-C ) :   1.2614
B( 13-C , 87-H ) :   0.9889 B( 14-C , 15-C ) :   1.4886 B( 14-C , 88-H ) :   0.9889
B( 15-C , 89-H ) :   0.9974 B( 16-C , 17-O ) :   2.2622 B( 16-C , 18-C ) :   0.9410
B( 18-C , 19-C ) :   1.6690 B( 19-C , 20-C ) :   1.1428 B( 19-C , 90-H ) :   0.9241
B( 20-C , 21-C ) :   1.3936 B( 20-C , 24-S ) :   1.0868 B( 21-C , 22-C ) :   1.3577
B( 21-C , 91-H ) :   0.9782 B( 22-C , 23-C ) :   1.4072 B( 22-C , 27-C ) :   0.9979
B( 23-C , 24-S ) :   1.1543 B( 23-C , 25-C ) :   1.1852 B( 25-C , 26-C ) :   1.4249
B( 25-C , 35-S ) :   1.1297 B( 26-C , 27-C ) :   0.9887 B( 26-C , 33-C ) :   1.2585
B( 27-C , 28-C ) :   1.7186 B( 28-C , 29-C ) :   1.1379 B( 28-C , 31-C ) :   1.1341
B( 29-C , 30-N ) :   2.9894 B( 31-C , 32-N ) :   2.9839 B( 33-C , 34-C ) :   1.4666
B( 33-C , 92-H ) :   0.9790 B( 34-C , 35-S ) :   1.0954 B( 34-C , 36-C ) :   1.0973
B( 36-C , 37-C ) :   1.3509 B( 36-C , 44-C ) :   1.3260 B( 37-C , 38-C ) :   1.2979
B( 37-C , 41-S ) :   1.0730 B( 38-C , 39-N ) :   1.3284 B( 38-C , 42-C ) :   1.3288
B( 39-N , 40-C ) :   1.7513 B( 39-N , 41-S ) :   0.1014 B( 40-C , 41-S ) :   1.1072
B( 40-C , 93-H ) :   0.9630 B( 42-C , 43-C ) :   1.3539 B( 42-C , 48-C ) :   1.0918
B( 43-C , 44-C ) :   1.2942 B( 43-C , 47-S ) :   1.0752 B( 44-C , 45-N ) :   1.3346
B( 45-N , 46-C ) :   1.7511 B( 45-N , 47-S ) :   0.1018 B( 46-C , 47-S ) :   1.1074
B( 46-C , 94-H ) :   0.9632 B( 48-C , 49-C ) :   1.4650 B( 48-C , 52-S ) :   1.1015
B( 49-C , 50-C ) :   1.2661 B( 49-C , 95-H ) :   0.9772 B( 50-C , 51-C ) :   1.4194
B( 50-C , 55-C ) :   0.9914 B( 51-C , 52-S ) :   1.1211 B( 51-C , 53-C ) :   1.1960
B( 53-C , 54-C ) :   1.3773 B( 53-C , 63-S ) :   1.1657 B( 54-C , 55-C ) :   0.9946
B( 54-C , 61-C ) :   1.3254 B( 55-C , 56-C ) :   1.7162 B( 56-C , 57-C ) :   1.1346
B( 56-C , 59-C ) :   1.1410 B( 57-C , 58-N ) :   2.9984 B( 59-C , 60-N ) :   2.9832
B( 61-C , 62-C ) :   1.3992 B( 61-C , 96-H ) :   0.9706 B( 62-C , 63-S ) :   1.0742
B( 62-C , 64-C ) :   1.2118 B( 64-C , 65-C ) :   1.5872 B( 64-C , 97-H ) :   0.9194
B( 65-C , 66-C ) :   1.0808 B( 65-C , 74-C ) :   0.9399 B( 66-C , 67-C ) :   1.6225
B( 66-C , 72-C ) :   0.9858 B( 67-C , 68-C ) :   1.1496 B( 67-C , 70-C ) :   1.1395
B( 68-C , 69-N ) :   2.9650 B( 70-C , 71-N ) :   2.9837 B( 72-C , 73-C ) :   1.2144
B( 72-C , 79-C ) :   1.4467 B( 73-C , 74-C ) :   0.9499 B( 73-C , 76-C ) :   1.4725
B( 74-C , 75-O ) :   2.1802 B( 76-C , 77-C ) :   1.1739 B( 76-C , 98-H ) :   1.0177
B( 77-C , 78-C ) :   1.2566 B( 77-C , 83-C ) :   1.2453 B( 78-C , 79-C ) :   1.2053
B( 78-C , 80-C ) :   1.2390 B( 79-C , 99-H ) :   0.9910 B( 80-C , 81-C ) :   1.4893
B( 80-C ,100-H ) :   0.9978 B( 81-C , 82-C ) :   1.2598 B( 81-C ,101-H ) :   0.9881
B( 82-C , 83-C ) :   1.4864 B( 82-C ,102-H ) :   0.9893 B( 83-C ,103-H ) :   0.9984

-----------------------------------------------------------------------------
         ABSORPTION SPECTRUM VIA TRANSITION ELECTRIC DIPOLE MOMENTS
-----------------------------------------------------------------------------
State   Energy  Wavelength   fosc         T2         TX        TY        TZ
        (cm-1)    (nm)                  (au**2)     (au)      (au)      (au)
-----------------------------------------------------------------------------
   0   13155.9    760.1   0.978861004  24.49494   1.02300  -4.80210  -0.62312
   1   14244.5    702.0   0.029704304   0.68651  -0.07098   0.79954   0.20544
   2   19542.9    511.7   1.947439353  32.80572  -1.30099   5.52997   0.72978
   3   21183.8    472.1   0.177037194   2.75128  -0.31323  -1.46063  -0.72093
   4   21697.2    460.9   0.024534272   0.37226  -0.12139  -0.51137  -0.30988
   5   23107.3    432.8   0.060302904   0.85914  -0.09772   0.81122   0.43762
   6   25305.3    395.2   0.011302229   0.14704   0.22393  -0.31042   0.02309
   7   25466.1    392.7   0.034121298   0.44110  -0.54103   0.38507  -0.01015
   8   25861.1    386.7   0.243048469   3.09401  -0.29446   1.73396  -0.02644
   9   27340.2    365.8   0.009043698   0.10890   0.12913  -0.22707   0.20164
  10   27905.7    358.3   0.006982113   0.08237   0.03276   0.14973   0.24265
  11   28186.2    354.8   0.031453038   0.36737  -0.36502   0.33780  -0.34644
  12   28381.5    352.3   0.013382288   0.15523  -0.11717   0.33723  -0.16666
  13   28514.0    350.7   0.024208659   0.27950  -0.42624   0.23768  -0.20331
  14   29106.2    343.6   0.050348892   0.56948   0.06588   0.05166  -0.74998
  15   29196.5    342.5   0.049308697   0.55599  -0.61837  -0.41631  -0.01707
  16   29384.5    340.3   0.076847022   0.86096  -0.15280  -0.52440  -0.75008
  17   29827.1    335.3   0.030593912   0.33768   0.30694   0.01432   0.49321
  18   29941.7    334.0   0.019302448   0.21223   0.44992  -0.04473  -0.08832
  19   30099.2    332.2   0.103444805   1.13143   0.00145   0.74480  -0.75941
  20   30426.8    328.7   0.116456326   1.26004   1.03000  -0.37180   0.24676
  21   30590.7    326.9   0.616434517   6.63397  -0.13411   2.36909   1.00170
  22   30945.5    323.1   0.524817594   5.58323  -0.81642   0.48633  -2.16337
  23   31027.6    322.3   0.063884849   0.67784  -0.69782   0.43548  -0.03526
  24   31688.0    315.6   0.181957894   1.89039  -0.53021   1.14440  -0.54737
  25   32021.9    312.3   0.007116877   0.07317  -0.23010  -0.13886  -0.03065
  26   32220.4    310.4   0.190665950   1.94813   0.02340  -1.27659   0.56383
  27   32428.4    308.4   0.085832273   0.87136  -0.05029  -0.92725   0.09506
  28   32623.8    306.5   0.144174913   1.45489   0.08393  -1.20309  -0.02070
  29   32755.1    305.3   0.239843852   2.41060   1.13484  -1.02504   0.26838
  30   33498.6    298.5   0.028478781   0.27988  -0.49330   0.09060  -0.16831
  31   33738.1    296.4   0.020833797   0.20329   0.17367  -0.11098   0.40102
  32   33925.2    294.8   0.203019548   1.97011  -0.23584   1.07214  -0.87465
  33   34059.9    293.6   0.184277721   1.78117   0.33710  -1.12499   0.63399
  34   34360.9    291.0   0.060894998   0.58344  -0.05899   0.70503  -0.28790
  35   34425.1    290.5   0.130562524   1.24859  -0.68712  -0.87955  -0.05345
  36   34703.3    288.2   0.173266091   1.64368   0.18678  -0.54676  -1.14449
  37   34846.4    287.0   0.346764873   3.27607  -1.48151   0.19427  -1.02149
  38   34989.6    285.8   0.236676444   2.22685  -0.83673   0.41806  -1.16274
  39   35099.4    284.9   0.092398285   0.86664  -0.64242  -0.63898  -0.21364
  40   35307.7    283.2   0.067185134   0.62644   0.28040  -0.61365  -0.41383
  41   35558.4    281.2   0.215882975   1.99872  -0.19837  -1.33172  -0.43115
  42   35690.7    280.2   0.189720399   1.74998  -0.17366   1.31123   0.02219
  43   36075.6    277.2   0.070445098   0.64285   0.35600  -0.59059   0.40905
  44   36454.4    274.3   0.130209073   1.17589  -0.47386   0.06229  -0.97338
  45   36649.9    272.9   0.036022838   0.32358  -0.20999  -0.37132   0.37630
  46   36797.5    271.8   0.022289137   0.19941  -0.08823   0.40961  -0.15441
  47   37156.9    269.1   0.035791680   0.31712  -0.48029   0.08955  -0.28003
  48   37216.0    268.7   0.046016357   0.40706   0.54430   0.30671   0.12934
  49   37715.7    265.1   0.020230318   0.17659  -0.01641   0.37940   0.17991
  50   37796.2    264.6   0.003155303   0.02748  -0.03878   0.09365  -0.13118
  51   37963.3    263.4   0.071055789   0.61619  -0.10567  -0.76091  -0.16137
  52   38228.7    261.6   0.025193730   0.21696  -0.36378  -0.04280  -0.28774
  53   38319.2    261.0   0.045030593   0.38687  -0.13656   0.59458   0.12126
  54   38546.8    259.4   0.031079848   0.26544  -0.28548  -0.36843  -0.21955
  55   39118.7    255.6   0.121624083   1.02355   0.08027  -0.89327   0.46816
  56   39203.0    255.1   0.100400355   0.84312   0.42595  -0.07246   0.81021
  57   39478.7    253.3   0.047135272   0.39306   0.40872   0.41105   0.23884
  58   39592.0    252.6   0.079387967   0.66012  -0.22474  -0.42579  -0.65446
  59   39745.2    251.6   0.135191408   1.11980   0.38833  -0.32901   0.92776
  60   39823.2    251.1   0.019497307   0.16118  -0.15161  -0.36834   0.05019
  61   39892.0    250.7   0.008931511   0.07371  -0.00871   0.05089  -0.26654
  62   39940.2    250.4   0.035618145   0.29359   0.39825  -0.22855   0.28767
  63   40069.2    249.6   0.178743440   1.46857   0.55995   0.58224   0.90334
  64   40175.0    248.9   0.013443484   0.11016   0.10377  -0.01274   0.31501

FINAL SINGLE POINT ENERGY     -5609.205290955886

DIPOLE MOMENT
-------------
                                X             Y             Z
Electronic contribution:     13.30462       3.24469      -2.74409
Nuclear contribution   :    -15.72394      -4.51600       1.71458
                        -----------------------------------------
Total Dipole Moment    :     -2.41932      -1.27131      -1.02951
                        -----------------------------------------
Magnitude (a.u.)       :      2.92048
Magnitude (Debye)      :      7.42328

Rotational constants in cm-1:     0.002754     0.000137     0.000133
Rotational constants in MHz :    82.557316     4.101231     3.972394

                             ****ORCA TERMINATED NORMALLY****
TOTAL RUN TIME: 0 days 0 hours 13 minutes 4 seconds 294 msec
