                         Program Version 4.2.0 -  RELEASE  -
|  1> # ORCA input file
|  2> # SCF done       -197.446102563858          0.000813063632
|  3> ! CAM-B3LYP def2-SVP def2/J RIJCOSX Grid4 TightSCF
|  4> %maxcore 5000
|  5> %tddft
|  6>     Mode sTDDFT
|  7>     Ethresh 5.0
|  8>     maxcore 5000
|  9> end
| 10>
| 11> %pal
| 12>   nprocs 6
| 13>   end
| 14> * xyz 0 1
| 15>    C        2.70983         8.25515        -2.16810
| 16>    C        1.50386         8.22678        -1.52847
| 17>    C        0.50862         9.21151        -1.69925
| 18>    N       -0.32690         9.98860        -1.81828
| 19>    C        1.08700         7.15740        -0.70935
| 20>    N        0.69204         6.28258        -0.08035
| 21>    C        3.10188         9.19381        -3.21162
| 22>    C        4.16016         8.61183        -3.97074
| 23>    C        4.71499         9.26050        -5.03677
| 24>    C        4.24168        10.54552        -5.38490
| 25>    C        3.19762        11.13880        -4.61730
| 26>    C        2.63208        10.43993        -3.52603
| 27>    C        2.74491        12.42679        -4.96835
| 28>    C        3.29306        13.09746        -6.02742
| 29>    C        4.31974        12.51227        -6.78361
| 30>    C        4.78322        11.26382        -6.46952
| 31>    C        4.51500         7.30635        -3.38856
| 32>    O        5.30602         6.48768        -3.80334
| 33>    C        3.73171         7.22288        -2.12531
| 34>    C        4.10860         6.38434        -1.13482
| 35>    C        3.70018         6.42591         0.24351
| 36>    C        3.50245         7.57781         0.98406
| 37>    C        3.68773         8.98958         0.61436
| 38>    O        2.88005         9.83632         0.92154
| 39>    C        4.98510         9.33663        -0.08212
| 40>    S        2.99075         7.21717         2.59370
| 41>    C        3.09177         5.53625         2.29130
| 42>    C        3.46231         5.24181         1.01022
| 43>    C        3.52846         3.89657         0.44869
| 44>    C        3.05158         3.66627        -0.81558
| 45>    C        3.08529         2.36306        -1.36977
| 46>    C        2.66129         1.83540        -2.58139
| 47>    C        2.08274         2.44119        -3.82430
| 48>    C        1.48218         3.85807        -3.66143
| 49>    N        2.40343         4.97936        -3.77365
| 50>    C        3.13188         2.39463        -4.95795
| 51>    N        2.47932         2.52149        -6.25079
| 52>    C        2.90662         0.40774        -2.51845
| 53>    C        2.60160        -0.57959        -3.38219
| 54>    C        2.93286        -1.99926        -3.08361
| 55>    C        3.63714        -2.22681        -1.78426
| 56>    C        3.91026        -1.22786        -0.92344
| 57>    C        3.54054         0.10129        -1.23436
| 58>    C        3.63267         1.29217        -0.53884
| 59>    C        4.11738         1.56791         0.75780
| 60>    C        4.06203         2.83597         1.24062
| 61>    C        3.78684        -2.57171        -4.18499
| 62>    C        3.45117        -3.63610        -4.90025
| 63>    C        4.27841        -4.20816        -5.95807
| 64>    C        5.56604        -4.66427        -5.79769
| 65>    C        6.34940        -4.77028        -4.56422
| 66>    O        5.89806        -4.47576        -3.47913
| 67>    C        7.75221        -5.29725        -4.74100
| 68>    S        6.19955        -5.27922        -7.30698
| 69>    C        4.75423        -4.93496        -8.12051
| 70>    C        3.79790        -4.36518        -7.30611
| 71>    C        2.49838        -3.88652        -7.65431
| 72>    C        1.74458        -3.98960        -8.78331
| 73>    C        0.41364        -3.40202        -8.90604
| 74>    C       -0.19786        -2.54095        -8.02868
| 75>    C       -1.48416        -1.99574        -8.23010
| 76>    N       -2.52396        -1.51820        -8.32511
| 77>    C        0.32835        -2.05701        -6.81442
| 78>    N        0.66392        -1.61494        -5.80737
| 79>    C       -0.16736        -3.86631       -10.15775
| 80>    C        0.79407        -4.67082       -10.83129
| 81>    C        2.02520        -4.74674       -10.02985
| 82>    O        3.04347        -5.32556       -10.35185
| 83>    C        0.53378        -5.25685       -12.03634
| 84>    C       -0.73142        -5.06673       -12.63516
| 85>    C       -1.70252        -4.26613       -11.96718
| 86>    C       -1.40105        -3.66844       -10.72224
| 87>    C       -2.96439        -4.08712       -12.56996
| 88>    C       -3.25464        -4.67035       -13.77337
| 89>    C       -2.29733        -5.45789       -14.43001
| 90>    C       -1.06199        -5.65120       -13.87317
| 91>    H        5.51189         8.80341        -5.60483
| 92>    H        1.85118        10.91248        -2.95075
| 93>    H        1.95285        12.87154        -4.38422
| 94>    H        2.93867        14.08329        -6.28875
| 95>    H        4.74186        13.05601        -7.61556
| 96>    H        5.57410        10.80860        -7.04791
| 97>    H        4.84684         5.62960        -1.38862
| 98>    H        4.80451        10.06692        -0.86821
| 99>    H        5.49696         8.46683        -0.47946
|100>    H        5.62381         9.81113         0.66335
|101>    H        2.83712         4.84554         3.07047
|102>    H        2.59144         4.48002        -1.34957
|103>    H        1.26353         1.78757        -4.14605
|104>    H        0.99190         3.91787        -2.68554
|105>    H        0.70628         4.00047        -4.41766
|106>    H        3.26841         4.76951        -3.28738
|107>    H        2.64889         5.14326        -4.74436
|108>    H        3.63115         1.42249        -4.94145
|109>    H        3.90639         3.15979        -4.77469
|110>    H        2.02868         3.42613        -6.33878
|111>    H        3.15852         2.44095        -6.99926
|112>    H        2.08980        -0.40084        -4.31717
|113>    H        1.98516        -2.55795        -3.07842
|114>    H        3.93737        -3.24356        -1.58600
|115>    H        4.40998        -1.42964         0.01305
|116>    H        4.52138         0.76303         1.35420
|117>    H        4.43180         3.06950         2.22789
|118>    H        4.73069        -2.07105        -4.34538
|119>    H        2.49475        -4.12047        -4.74213
|120>    H        7.72173        -6.30911        -5.14050
|121>    H        8.25913        -5.30412        -3.77989
|122>    H        8.30234        -4.67224        -5.44134
|123>    H        4.65730        -5.16171        -9.16462
|124>    H        2.04079        -3.34389        -6.83721
|125>    H        1.28379        -5.86151       -12.52447
|126>    H       -2.16096        -3.07230       -10.24337
|127>    H       -3.69802        -3.47924       -12.06106
|128>    H       -4.22433        -4.52775       -14.22627
|129>    H       -2.54348        -5.91110       -15.37864
|130>    H       -0.32069        -6.25690       -14.37379
|131> *
|132>
|133>                          ****END OF INPUT****

CARTESIAN COORDINATES (ANGSTROEM)
---------------------------------
  C      2.709830    8.255150   -2.168100
  C      1.503860    8.226780   -1.528470
  C      0.508620    9.211510   -1.699250
  N     -0.326900    9.988600   -1.818280
  C      1.087000    7.157400   -0.709350
  N      0.692040    6.282580   -0.080350
  C      3.101880    9.193810   -3.211620
  C      4.160160    8.611830   -3.970740
  C      4.714990    9.260500   -5.036770
  C      4.241680   10.545520   -5.384900
  C      3.197620   11.138800   -4.617300
  C      2.632080   10.439930   -3.526030
  C      2.744910   12.426790   -4.968350
  C      3.293060   13.097460   -6.027420
  C      4.319740   12.512270   -6.783610
  C      4.783220   11.263820   -6.469520
  C      4.515000    7.306350   -3.388560
  O      5.306020    6.487680   -3.803340
  C      3.731710    7.222880   -2.125310
  C      4.108600    6.384340   -1.134820
  C      3.700180    6.425910    0.243510
  C      3.502450    7.577810    0.984060
  C      3.687730    8.989580    0.614360
  O      2.880050    9.836320    0.921540
  C      4.985100    9.336630   -0.082120
  S      2.990750    7.217170    2.593700
  C      3.091770    5.536250    2.291300
  C      3.462310    5.241810    1.010220
  C      3.528460    3.896570    0.448690
  C      3.051580    3.666270   -0.815580
  C      3.085290    2.363060   -1.369770
  C      2.661290    1.835400   -2.581390
  C      2.082740    2.441190   -3.824300
  C      1.482180    3.858070   -3.661430
  N      2.403430    4.979360   -3.773650
  C      3.131880    2.394630   -4.957950
  N      2.479320    2.521490   -6.250790
  C      2.906620    0.407740   -2.518450
  C      2.601600   -0.579590   -3.382190
  C      2.932860   -1.999260   -3.083610
  C      3.637140   -2.226810   -1.784260
  C      3.910260   -1.227860   -0.923440
  C      3.540540    0.101290   -1.234360
  C      3.632670    1.292170   -0.538840
  C      4.117380    1.567910    0.757800
  C      4.062030    2.835970    1.240620
  C      3.786840   -2.571710   -4.184990
  C      3.451170   -3.636100   -4.900250
  C      4.278410   -4.208160   -5.958070
  C      5.566040   -4.664270   -5.797690
  C      6.349400   -4.770280   -4.564220
  O      5.898060   -4.475760   -3.479130
  C      7.752210   -5.297250   -4.741000
  S      6.199550   -5.279220   -7.306980
  C      4.754230   -4.934960   -8.120510
  C      3.797900   -4.365180   -7.306110
  C      2.498380   -3.886520   -7.654310
  C      1.744580   -3.989600   -8.783310
  C      0.413640   -3.402020   -8.906040
  C     -0.197860   -2.540950   -8.028680
  C     -1.484160   -1.995740   -8.230100
  N     -2.523960   -1.518200   -8.325110
  C      0.328350   -2.057010   -6.814420
  N      0.663920   -1.614940   -5.807370
  C     -0.167360   -3.866310  -10.157750
  C      0.794070   -4.670820  -10.831290
  C      2.025200   -4.746740  -10.029850
  O      3.043470   -5.325560  -10.351850
  C      0.533780   -5.256850  -12.036340
  C     -0.731420   -5.066730  -12.635160
  C     -1.702520   -4.266130  -11.967180
  C     -1.401050   -3.668440  -10.722240
  C     -2.964390   -4.087120  -12.569960
  C     -3.254640   -4.670350  -13.773370
  C     -2.297330   -5.457890  -14.430010
  C     -1.061990   -5.651200  -13.873170
  H      5.511890    8.803410   -5.604830
  H      1.851180   10.912480   -2.950750
  H      1.952850   12.871540   -4.384220
  H      2.938670   14.083290   -6.288750
  H      4.741860   13.056010   -7.615560
  H      5.574100   10.808600   -7.047910
  H      4.846840    5.629600   -1.388620
  H      4.804510   10.066920   -0.868210
  H      5.496960    8.466830   -0.479460
  H      5.623810    9.811130    0.663350
  H      2.837120    4.845540    3.070470
  H      2.591440    4.480020   -1.349570
  H      1.263530    1.787570   -4.146050
  H      0.991900    3.917870   -2.685540
  H      0.706280    4.000470   -4.417660
  H      3.268410    4.769510   -3.287380
  H      2.648890    5.143260   -4.744360
  H      3.631150    1.422490   -4.941450
  H      3.906390    3.159790   -4.774690
  H      2.028680    3.426130   -6.338780
  H      3.158520    2.440950   -6.999260
  H      2.089800   -0.400840   -4.317170
  H      1.985160   -2.557950   -3.078420
  H      3.937370   -3.243560   -1.586000
  H      4.409980   -1.429640    0.013050
  H      4.521380    0.763030    1.354200
  H      4.431800    3.069500    2.227890
  H      4.730690   -2.071050   -4.345380
  H      2.494750   -4.120470   -4.742130
  H      7.721730   -6.309110   -5.140500
  H      8.259130   -5.304120   -3.779890
  H      8.302340   -4.672240   -5.441340
  H      4.657300   -5.161710   -9.164620
  H      2.040790   -3.343890   -6.837210
  H      1.283790   -5.861510  -12.524470
  H     -2.160960   -3.072300  -10.243370
  H     -3.698020   -3.479240  -12.061060
  H     -4.224330   -4.527750  -14.226270
  H     -2.543480   -5.911100  -15.378640
  H     -0.320690   -6.256900  -14.373790

 Total Charge           Charge          ....    0
 Multiplicity           Mult            ....    1
 Number of Electrons    NEL             ....  530
 Basis Dimension        Dim             .... 1272

ORBITAL ENERGIES
----------------

  NO   OCC          E(Eh)            E(eV)
   0   2.0000     -88.979663     -2421.2597
   1   2.0000     -88.958484     -2420.6834
   2   2.0000     -19.226421      -523.1775
   3   2.0000     -19.210790      -522.7522
   4   2.0000     -19.204747      -522.5877
   5   2.0000     -19.199577      -522.4470
   6   2.0000     -14.425954      -392.5502
   7   2.0000     -14.417921      -392.3316
   8   2.0000     -14.402417      -391.9097
   9   2.0000     -14.400604      -391.8603
  10   2.0000     -14.372432      -391.0938
  11   2.0000     -14.369736      -391.0204
  12   2.0000     -10.376689      -282.3641
  13   2.0000     -10.366106      -282.0761
  14   2.0000     -10.360739      -281.9300
  15   2.0000     -10.359676      -281.9011
  16   2.0000     -10.347477      -281.5692
  17   2.0000     -10.346891      -281.5532
  18   2.0000     -10.331870      -281.1445
  19   2.0000     -10.329382      -281.0768
  20   2.0000     -10.327583      -281.0278
  21   2.0000     -10.324902      -280.9549
  22   2.0000     -10.320924      -280.8466
  23   2.0000     -10.318838      -280.7899
  24   2.0000     -10.307597      -280.4840
  25   2.0000     -10.306831      -280.4631
  26   2.0000     -10.305831      -280.4359
  27   2.0000     -10.305272      -280.4207
  28   2.0000     -10.304679      -280.4046
  29   2.0000     -10.304450      -280.3983
  30   2.0000     -10.302647      -280.3493
  31   2.0000     -10.302419      -280.3431
  32   2.0000     -10.302300      -280.3398
  33   2.0000     -10.302059      -280.3333
  34   2.0000     -10.301916      -280.3294
  35   2.0000     -10.301815      -280.3266
  36   2.0000     -10.297415      -280.2069
  37   2.0000     -10.296303      -280.1766
  38   2.0000     -10.293505      -280.1005
  39   2.0000     -10.292567      -280.0750
  40   2.0000     -10.292351      -280.0691
  41   2.0000     -10.292114      -280.0627
  42   2.0000     -10.291237      -280.0388
  43   2.0000     -10.290676      -280.0235
  44   2.0000     -10.290211      -280.0109
  45   2.0000     -10.289720      -279.9975
  46   2.0000     -10.289716      -279.9974
  47   2.0000     -10.289579      -279.9937
  48   2.0000     -10.289066      -279.9797
  49   2.0000     -10.288899      -279.9752
  50   2.0000     -10.284065      -279.8436
  51   2.0000     -10.281856      -279.7835
  52   2.0000     -10.281314      -279.7688
  53   2.0000     -10.280930      -279.7583
  54   2.0000     -10.280775      -279.7541
  55   2.0000     -10.279901      -279.7303
  56   2.0000     -10.279624      -279.7228
  57   2.0000     -10.278566      -279.6940
  58   2.0000     -10.276939      -279.6497
  59   2.0000     -10.273483      -279.5557
  60   2.0000     -10.273402      -279.5535
  61   2.0000     -10.268149      -279.4105
  62   2.0000     -10.267844      -279.4022
  63   2.0000     -10.267359      -279.3890
  64   2.0000     -10.263696      -279.2894
  65   2.0000     -10.258484      -279.1475
  66   2.0000     -10.258024      -279.1350
  67   2.0000     -10.255777      -279.0739
  68   2.0000     -10.254383      -279.0359
  69   2.0000     -10.254235      -279.0319
  70   2.0000     -10.254071      -279.0275
  71   2.0000     -10.252474      -278.9840
  72   2.0000     -10.248805      -278.8842
  73   2.0000     -10.248332      -278.8713
  74   2.0000     -10.246780      -278.8291
  75   2.0000     -10.244880      -278.7774
  76   2.0000      -8.075410      -219.7431
  77   2.0000      -8.053914      -219.1582
  78   2.0000      -6.044408      -164.4767
  79   2.0000      -6.039970      -164.3559
  80   2.0000      -6.038377      -164.3126
  81   2.0000      -6.023092      -163.8967
  82   2.0000      -6.018655      -163.7759
  83   2.0000      -6.016561      -163.7189
  84   2.0000      -1.140431       -31.0327
  85   2.0000      -1.124526       -30.5999
  86   2.0000      -1.123426       -30.5700
  87   2.0000      -1.119104       -30.4524
  88   2.0000      -1.024974       -27.8910
  89   2.0000      -1.007989       -27.4288
  90   2.0000      -1.006289       -27.3825
  91   2.0000      -1.004638       -27.3376
  92   2.0000      -0.998501       -27.1706
  93   2.0000      -0.989473       -26.9249
  94   2.0000      -0.987907       -26.8823
  95   2.0000      -0.978211       -26.6185
  96   2.0000      -0.976312       -26.5668
  97   2.0000      -0.969437       -26.3797
  98   2.0000      -0.964039       -26.2328
  99   2.0000      -0.957705       -26.0605
 100   2.0000      -0.937902       -25.5216
 101   2.0000      -0.931279       -25.3414
 102   2.0000      -0.930549       -25.3215
 103   2.0000      -0.917742       -24.9730
 104   2.0000      -0.913210       -24.8497
 105   2.0000      -0.904770       -24.6200
 106   2.0000      -0.895128       -24.3577
 107   2.0000      -0.890261       -24.2252
 108   2.0000      -0.885731       -24.1020
 109   2.0000      -0.878663       -23.9096
 110   2.0000      -0.876100       -23.8399
 111   2.0000      -0.871554       -23.7162
 112   2.0000      -0.859734       -23.3946
 113   2.0000      -0.856629       -23.3101
 114   2.0000      -0.846851       -23.0440
 115   2.0000      -0.833827       -22.6896
 116   2.0000      -0.833326       -22.6760
 117   2.0000      -0.825564       -22.4647
 118   2.0000      -0.822301       -22.3760
 119   2.0000      -0.819022       -22.2867
 120   2.0000      -0.816985       -22.2313
 121   2.0000      -0.812625       -22.1126
 122   2.0000      -0.804246       -21.8846
 123   2.0000      -0.784804       -21.3556
 124   2.0000      -0.775877       -21.1127
 125   2.0000      -0.770887       -20.9769
 126   2.0000      -0.768476       -20.9113
 127   2.0000      -0.751758       -20.4564
 128   2.0000      -0.741136       -20.1673
 129   2.0000      -0.725260       -19.7353
 130   2.0000      -0.721457       -19.6318
 131   2.0000      -0.720776       -19.6133
 132   2.0000      -0.713742       -19.4219
 133   2.0000      -0.708581       -19.2815
 134   2.0000      -0.705492       -19.1974
 135   2.0000      -0.699791       -19.0423
 136   2.0000      -0.696931       -18.9645
 137   2.0000      -0.691974       -18.8296
 138   2.0000      -0.682583       -18.5740
 139   2.0000      -0.679280       -18.4841
 140   2.0000      -0.670418       -18.2430
 141   2.0000      -0.667786       -18.1714
 142   2.0000      -0.664838       -18.0912
 143   2.0000      -0.658462       -17.9176
 144   2.0000      -0.651985       -17.7414
 145   2.0000      -0.642438       -17.4816
 146   2.0000      -0.637162       -17.3381
 147   2.0000      -0.634928       -17.2773
 148   2.0000      -0.632615       -17.2143
 149   2.0000      -0.620991       -16.8980
 150   2.0000      -0.618632       -16.8338
 151   2.0000      -0.611360       -16.6360
 152   2.0000      -0.607404       -16.5283
 153   2.0000      -0.602066       -16.3830
 154   2.0000      -0.601002       -16.3541
 155   2.0000      -0.590505       -16.0685
 156   2.0000      -0.586262       -15.9530
 157   2.0000      -0.579568       -15.7708
 158   2.0000      -0.578137       -15.7319
 159   2.0000      -0.574644       -15.6369
 160   2.0000      -0.571262       -15.5448
 161   2.0000      -0.567944       -15.4545
 162   2.0000      -0.555935       -15.1278
 163   2.0000      -0.554521       -15.0893
 164   2.0000      -0.552084       -15.0230
 165   2.0000      -0.550389       -14.9768
 166   2.0000      -0.549016       -14.9395
 167   2.0000      -0.547322       -14.8934
 168   2.0000      -0.545312       -14.8387
 169   2.0000      -0.542793       -14.7701
 170   2.0000      -0.541394       -14.7321
 171   2.0000      -0.539452       -14.6792
 172   2.0000      -0.539083       -14.6692
 173   2.0000      -0.536679       -14.6038
 174   2.0000      -0.533794       -14.5253
 175   2.0000      -0.531217       -14.4551
 176   2.0000      -0.527565       -14.3558
 177   2.0000      -0.526760       -14.3339
 178   2.0000      -0.522381       -14.2147
 179   2.0000      -0.519688       -14.1414
 180   2.0000      -0.518439       -14.1074
 181   2.0000      -0.516834       -14.0638
 182   2.0000      -0.515279       -14.0215
 183   2.0000      -0.514210       -13.9924
 184   2.0000      -0.512473       -13.9451
 185   2.0000      -0.511093       -13.9075
 186   2.0000      -0.506697       -13.7879
 187   2.0000      -0.506081       -13.7712
 188   2.0000      -0.503225       -13.6934
 189   2.0000      -0.502447       -13.6723
 190   2.0000      -0.498179       -13.5561
 191   2.0000      -0.498146       -13.5552
 192   2.0000      -0.493817       -13.4374
 193   2.0000      -0.493407       -13.4263
 194   2.0000      -0.490931       -13.3589
 195   2.0000      -0.486634       -13.2420
 196   2.0000      -0.485726       -13.2173
 197   2.0000      -0.484794       -13.1919
 198   2.0000      -0.484188       -13.1754
 199   2.0000      -0.481667       -13.1068
 200   2.0000      -0.479138       -13.0380
 201   2.0000      -0.475470       -12.9382
 202   2.0000      -0.471614       -12.8333
 203   2.0000      -0.469566       -12.7776
 204   2.0000      -0.469157       -12.7664
 205   2.0000      -0.465477       -12.6663
 206   2.0000      -0.463945       -12.6246
 207   2.0000      -0.461076       -12.5465
 208   2.0000      -0.457946       -12.4613
 209   2.0000      -0.456715       -12.4278
 210   2.0000      -0.454043       -12.3551
 211   2.0000      -0.451470       -12.2851
 212   2.0000      -0.447800       -12.1853
 213   2.0000      -0.446452       -12.1486
 214   2.0000      -0.444402       -12.0928
 215   2.0000      -0.442578       -12.0432
 216   2.0000      -0.439981       -11.9725
 217   2.0000      -0.437958       -11.9175
 218   2.0000      -0.437185       -11.8964
 219   2.0000      -0.435576       -11.8526
 220   2.0000      -0.434153       -11.8139
 221   2.0000      -0.431953       -11.7540
 222   2.0000      -0.430573       -11.7165
 223   2.0000      -0.429985       -11.7005
 224   2.0000      -0.426207       -11.5977
 225   2.0000      -0.424387       -11.5481
 226   2.0000      -0.423829       -11.5330
 227   2.0000      -0.422398       -11.4940
 228   2.0000      -0.421995       -11.4831
 229   2.0000      -0.418624       -11.3913
 230   2.0000      -0.414425       -11.2771
 231   2.0000      -0.413170       -11.2429
 232   2.0000      -0.410176       -11.1615
 233   2.0000      -0.409675       -11.1478
 234   2.0000      -0.407241       -11.0816
 235   2.0000      -0.406349       -11.0573
 236   2.0000      -0.400639       -10.9019
 237   2.0000      -0.398049       -10.8315
 238   2.0000      -0.392051       -10.6683
 239   2.0000      -0.388543       -10.5728
 240   2.0000      -0.384985       -10.4760
 241   2.0000      -0.381016       -10.3680
 242   2.0000      -0.376285       -10.2392
 243   2.0000      -0.369792       -10.0626
 244   2.0000      -0.368990       -10.0407
 245   2.0000      -0.361601        -9.8397
 246   2.0000      -0.349323        -9.5056
 247   2.0000      -0.347522        -9.4566
 248   2.0000      -0.345416        -9.3993
 249   2.0000      -0.331385        -9.0174
 250   2.0000      -0.329104        -8.9554
 251   2.0000      -0.326167        -8.8755
 252   2.0000      -0.323142        -8.7931
 253   2.0000      -0.322983        -8.7888
 254   2.0000      -0.313277        -8.5247
 255   2.0000      -0.309884        -8.4324
 256   2.0000      -0.308328        -8.3900
 257   2.0000      -0.302263        -8.2250
 258   2.0000      -0.300583        -8.1793
 259   2.0000      -0.294612        -8.0168
 260   2.0000      -0.292796        -7.9674
 261   2.0000      -0.288347        -7.8463
 262   2.0000      -0.282473        -7.6865
 263   2.0000      -0.274822        -7.4783
 264   2.0000      -0.208918        -5.6850
 265   0.0000      -0.095566        -2.6005
 266   0.0000      -0.076263        -2.0752
 267   0.0000      -0.063234        -1.7207
 268   0.0000      -0.052377        -1.4252
 269   0.0000      -0.048487        -1.3194

MULLIKEN ATOMIC CHARGES
-----------------------
   0 C :    0.262251
   1 C :   -0.295054
   2 C :   -0.190280
   3 N :    0.159801
   4 C :   -0.164687
   5 N :    0.165003
   6 C :    0.030485
   7 C :    0.014564
   8 C :   -0.091454
   9 C :    0.095465
  10 C :    0.093291
  11 C :   -0.079791
  12 C :   -0.018605
  13 C :    0.037026
  14 C :    0.034588
  15 C :   -0.016177
  16 C :    0.145012
  17 O :   -0.156418
  18 C :   -0.111298
  19 C :   -0.059510
  20 C :    0.110748
  21 C :   -0.228017
  22 C :   -0.000381
  23 O :   -0.181935
  24 C :    0.068811
  25 S :    0.191300
  26 C :   -0.111220
  27 C :    0.105986
  28 C :    0.081998
  29 C :   -0.149307
  30 C :    0.064398
  31 C :   -0.025135
  32 C :   -0.041935
  33 C :    0.108195
  34 N :   -0.232051
  35 C :    0.109312
  36 N :   -0.212598
  37 C :    0.082594
  38 C :   -0.134409
  39 C :    0.126653
  40 C :   -0.031473
  41 C :    0.022114
  42 C :    0.021138
  43 C :    0.022856
  44 C :   -0.000591
  45 C :   -0.024407
  46 C :    0.025213
  47 C :   -0.023166
  48 C :    0.083906
  49 C :   -0.192890
  50 C :    0.015156
  51 O :   -0.167768
  52 C :    0.016009
  53 S :    0.147632
  54 C :   -0.093760
  55 C :    0.077786
  56 C :   -0.040601
  57 C :   -0.047827
  58 C :    0.322747
  59 C :   -0.364395
  60 C :   -0.185325
  61 N :    0.152440
  62 C :   -0.173264
  63 N :    0.171577
  64 C :    0.049610
  65 C :   -0.003873
  66 C :    0.156241
  67 O :   -0.158773
  68 C :   -0.084032
  69 C :    0.100668
  70 C :    0.098384
  71 C :   -0.082107
  72 C :   -0.020651
  73 C :    0.038801
  74 C :    0.038314
  75 C :   -0.018770
  76 H :   -0.015759
  77 H :    0.000316
  78 H :   -0.009028
  79 H :   -0.006051
  80 H :   -0.007025
  81 H :   -0.019800
  82 H :    0.043201
  83 H :    0.034578
  84 H :    0.028045
  85 H :    0.047280
  86 H :    0.027139
  87 H :    0.003301
  88 H :    0.002496
  89 H :    0.020859
  90 H :    0.002201
  91 H :    0.112904
  92 H :    0.090434
  93 H :   -0.012442
  94 H :   -0.025711
  95 H :    0.077772
  96 H :    0.090361
  97 H :    0.011745
  98 H :    0.033131
  99 H :   -0.002614
 100 H :   -0.039737
 101 H :   -0.038963
 102 H :   -0.037485
 103 H :    0.008660
 104 H :    0.015200
 105 H :    0.043638
 106 H :    0.040193
 107 H :    0.042851
 108 H :    0.061778
 109 H :   -0.006775
 110 H :   -0.012957
 111 H :   -0.007610
 112 H :   -0.006329
 113 H :   -0.003338
 114 H :   -0.004050
 115 H :   -0.016545
Sum of atomic charges:   -0.0000000

LOEWDIN ATOMIC CHARGES
----------------------
   0 C :    0.064160
   1 C :   -0.114651
   2 C :   -0.013019
   3 N :   -0.049193
   4 C :   -0.009795
   5 N :   -0.043020
   6 C :   -0.018724
   7 C :   -0.057083
   8 C :    0.029227
   9 C :   -0.011011
  10 C :   -0.004896
  11 C :    0.016555
  12 C :   -0.005813
  13 C :   -0.013582
  14 C :   -0.015414
  15 C :   -0.010762
  16 C :    0.087463
  17 O :   -0.152523
  18 C :   -0.075276
  19 C :    0.059544
  20 C :   -0.055611
  21 C :   -0.208693
  22 C :    0.052953
  23 O :   -0.145850
  24 C :   -0.076904
  25 S :    0.503099
  26 C :   -0.167483
  27 C :   -0.035139
  28 C :   -0.021364
  29 C :   -0.019938
  30 C :   -0.023824
  31 C :   -0.039584
  32 C :   -0.050239
  33 C :    0.016548
  34 N :   -0.104223
  35 C :    0.019196
  36 N :   -0.119977
  37 C :   -0.022343
  38 C :    0.072400
  39 C :   -0.026131
  40 C :   -0.020844
  41 C :   -0.019079
  42 C :   -0.027333
  43 C :   -0.036857
  44 C :   -0.001766
  45 C :   -0.039326
  46 C :    0.045453
  47 C :   -0.052303
  48 C :    0.002713
  49 C :   -0.229819
  50 C :    0.062541
  51 O :   -0.143274
  52 C :   -0.087511
  53 S :    0.485579
  54 C :   -0.123241
  55 C :   -0.086383
  56 C :    0.081937
  57 C :   -0.090929
  58 C :    0.081432
  59 C :   -0.140888
  60 C :   -0.016692
  61 N :   -0.050532
  62 C :   -0.008811
  63 N :   -0.046309
  64 C :   -0.027974
  65 C :   -0.056172
  66 C :    0.090649
  67 O :   -0.143926
  68 C :    0.033032
  69 C :   -0.007600
  70 C :   -0.006063
  71 C :    0.022772
  72 C :   -0.004026
  73 C :   -0.011939
  74 C :   -0.010223
  75 C :   -0.009681
  76 H :    0.037551
  77 H :    0.041042
  78 H :    0.035111
  79 H :    0.032629
  80 H :    0.031871
  81 H :    0.030700
  82 H :    0.048360
  83 H :    0.041686
  84 H :    0.031126
  85 H :    0.052859
  86 H :    0.027243
  87 H :    0.029265
  88 H :    0.033688
  89 H :    0.023931
  90 H :    0.019929
  91 H :    0.045586
  92 H :    0.048028
  93 H :    0.014012
  94 H :   -0.006327
  95 H :    0.044247
  96 H :    0.054027
  97 H :    0.030678
  98 H :    0.060107
  99 H :    0.029173
 100 H :    0.028121
 101 H :    0.026553
 102 H :    0.022922
 103 H :    0.029905
 104 H :    0.031459
 105 H :    0.039983
 106 H :    0.042242
 107 H :    0.039058
 108 H :    0.028195
 109 H :    0.045772
 110 H :    0.038824
 111 H :    0.039557
 112 H :    0.035696
 113 H :    0.033980
 114 H :    0.033418
 115 H :    0.032109

  Mayer bond orders larger than 0.100000
B(  0-C ,  1-C ) :   1.6948 B(  0-C ,  6-C ) :   0.9952 B(  0-C , 18-C ) :   1.0072
B(  1-C ,  2-C ) :   1.1346 B(  1-C ,  4-C ) :   1.1741 B(  2-C ,  3-N ) :   2.9953
B(  4-C ,  5-N ) :   2.9546 B(  6-C ,  7-C ) :   1.2181 B(  6-C , 11-C ) :   1.4545
B(  7-C ,  8-C ) :   1.4646 B(  7-C , 16-C ) :   0.9249 B(  8-C ,  9-C ) :   1.1844
B(  8-C , 76-H ) :   1.0169 B(  9-C , 10-C ) :   1.2579 B(  9-C , 15-C ) :   1.2428
B( 10-C , 11-C ) :   1.2002 B( 10-C , 12-C ) :   1.2389 B( 11-C , 77-H ) :   0.9970
B( 12-C , 13-C ) :   1.4909 B( 12-C , 78-H ) :   0.9984 B( 13-C , 14-C ) :   1.2591
B( 13-C , 79-H ) :   0.9882 B( 14-C , 15-C ) :   1.4892 B( 14-C , 80-H ) :   0.9893
B( 15-C , 81-H ) :   0.9979 B( 16-C , 17-O ) :   2.2505 B( 16-C , 18-C ) :   0.9310
B( 18-C , 19-C ) :   1.7072 B( 19-C , 20-C ) :   1.0361 B( 19-C , 82-H ) :   0.9309
B( 20-C , 21-C ) :   1.4784 B( 20-C , 27-C ) :   1.2551 B( 21-C , 22-C ) :   0.9357
B( 21-C , 25-S ) :   1.1834 B( 22-C , 23-O ) :   2.1978 B( 22-C , 24-C ) :   1.0382
B( 24-C , 83-H ) :   0.9421 B( 24-C , 84-H ) :   0.9529 B( 24-C , 85-H ) :   0.9357
B( 25-S , 26-C ) :   1.1743 B( 26-C , 27-C ) :   1.5531 B( 26-C , 86-H ) :   0.9617
B( 27-C , 28-C ) :   0.9783 B( 28-C , 29-C ) :   1.5586 B( 28-C , 45-C ) :   1.1430
B( 29-C , 30-C ) :   1.0908 B( 29-C , 87-H ) :   0.9735 B( 30-C , 31-C ) :   1.4827
B( 30-C , 43-C ) :   1.1253 B( 31-C , 32-C ) :   1.0289 B( 31-C , 37-C ) :   1.1087
B( 32-C , 33-C ) :   1.0102 B( 32-C , 35-C ) :   1.0484 B( 32-C , 88-H ) :   0.8724
B( 33-C , 34-N ) :   1.1115 B( 33-C , 89-H ) :   0.9459 B( 33-C , 90-H ) :   0.9447
B( 34-N , 91-H ) :   0.9470 B( 34-N , 92-H ) :   0.9651 B( 35-C , 36-N ) :   1.0772
B( 35-C , 93-H ) :   0.9398 B( 35-C , 94-H ) :   0.9253 B( 36-N , 95-H ) :   0.9747
B( 36-N , 96-H ) :   0.9664 B( 37-C , 38-C ) :   1.6293 B( 37-C , 42-C ) :   1.0510
B( 38-C , 39-C ) :   0.9703 B( 38-C , 97-H ) :   0.9643 B( 39-C , 40-C ) :   0.9908
B( 39-C , 46-C ) :   0.9726 B( 39-C , 98-H ) :   0.8602 B( 40-C , 41-C ) :   1.6985
B( 40-C , 99-H ) :   0.9744 B( 41-C , 42-C ) :   1.1304 B( 41-C ,100-H ) :   0.9896
B( 42-C , 43-C ) :   1.4287 B( 43-C , 44-C ) :   1.1523 B( 44-C , 45-C ) :   1.5807
B( 44-C ,101-H ) :   0.9910 B( 45-C ,102-H ) :   0.9887 B( 46-C , 47-C ) :   1.8793
B( 46-C ,103-H ) :   0.9683 B( 47-C , 48-C ) :   1.0290 B( 47-C ,104-H ) :   0.9225
B( 48-C , 49-C ) :   1.5568 B( 48-C , 55-C ) :   1.2202 B( 49-C , 50-C ) :   0.9642
B( 49-C , 53-S ) :   1.0922 B( 50-C , 51-O ) :   2.1838 B( 50-C , 52-C ) :   1.0542
B( 52-C ,105-H ) :   0.9457 B( 52-C ,106-H ) :   0.9487 B( 52-C ,107-H ) :   0.9522
B( 53-S , 54-C ) :   1.2420 B( 54-C , 55-C ) :   1.4557 B( 54-C ,108-H ) :   0.9320
B( 55-C , 56-C ) :   1.1480 B( 56-C , 57-C ) :   1.5973 B( 56-C ,109-H ) :   0.9239
B( 57-C , 58-C ) :   1.0665 B( 57-C , 66-C ) :   0.9230 B( 58-C , 59-C ) :   1.6205
B( 58-C , 64-C ) :   0.9875 B( 59-C , 60-C ) :   1.1530 B( 59-C , 62-C ) :   1.1440
B( 60-C , 61-N ) :   2.9623 B( 62-C , 63-N ) :   2.9484 B( 64-C , 65-C ) :   1.2130
B( 64-C , 71-C ) :   1.4430 B( 65-C , 66-C ) :   0.9573 B( 65-C , 68-C ) :   1.4667
B( 66-C , 67-O ) :   2.1735 B( 68-C , 69-C ) :   1.1784 B( 68-C ,110-H ) :   1.0168
B( 69-C , 70-C ) :   1.2530 B( 69-C , 75-C ) :   1.2445 B( 70-C , 71-C ) :   1.2092
B( 70-C , 72-C ) :   1.2388 B( 71-C ,111-H ) :   0.9895 B( 72-C , 73-C ) :   1.4890
B( 72-C ,112-H ) :   0.9977 B( 73-C , 74-C ) :   1.2591 B( 73-C ,113-H ) :   0.9888
B( 74-C , 75-C ) :   1.4884 B( 74-C ,114-H ) :   0.9890 B( 75-C ,115-H ) :   0.9978

-----------------------------------------------------------------------------
         ABSORPTION SPECTRUM VIA TRANSITION ELECTRIC DIPOLE MOMENTS
-----------------------------------------------------------------------------
State   Energy  Wavelength   fosc         T2         TX        TY        TZ
        (cm-1)    (nm)                  (au**2)     (au)      (au)      (au)
-----------------------------------------------------------------------------
   0   12856.3    777.8   0.003674988   0.09411  -0.10443  -0.19345  -0.21395
   1   14029.5    712.8   0.093543095   2.19506  -0.10427   1.43693  -0.34556
   2   15090.4    662.7   0.038335446   0.83632   0.31291  -0.70712   0.48826
   3   20932.3    477.7   0.003728414   0.05864  -0.15384  -0.15785   0.10028
   4   21461.4    466.0   0.006178992   0.09478   0.03611   0.21878   0.21358
   5   23157.2    431.8   0.060455644   0.85946  -0.05113   0.78067   0.49739
   6   25721.1    388.8   0.094285346   1.20679  -0.50077   0.52734  -0.82336
   7   26228.9    381.3   0.247503541   3.10654   1.56854  -0.69386   0.40593
   8   26408.0    378.7   0.028823423   0.35932   0.16189   0.53351  -0.22017
   9   27169.5    368.1   0.079787183   0.96678  -0.43745  -0.35999  -0.80363
  10   27864.8    358.9   0.006264967   0.07402  -0.26397  -0.05131  -0.04128
  11   27929.3    358.0   0.001107121   0.01305   0.06245  -0.00052  -0.09565
  12   28006.9    357.1   0.234325234   2.75441  -1.36839   0.02332  -0.93881
  13   28314.5    353.2   0.235992830   2.74388   1.46294  -0.32273   0.70677
  14   28918.0    345.8   0.088391855   1.00628   0.03632   0.94901  -0.32302
  15   28945.9    345.5   0.006033876   0.06863  -0.17222   0.14747  -0.13122
  16   29298.3    341.3   0.020752476   0.23319  -0.43597   0.08372  -0.19002
  17   29455.8    339.5   0.160368430   1.79235  -0.31701  -0.76498  -1.05198
  18   29701.6    336.7   0.078388020   0.86885   0.85703  -0.28956   0.22471
  19   29833.4    335.2   0.073019713   0.80577   0.04012  -0.68130   0.58309
  20   30968.8    322.9   0.168969827   1.79622   0.08805   1.13123   0.71330
  21   31043.2    322.1   0.006534358   0.06930  -0.15717   0.11784  -0.17524
  22   31445.5    318.0   0.008715981   0.09125  -0.25481  -0.07322   0.14479
  23   31773.7    314.7   0.002292228   0.02375  -0.09236  -0.12268   0.01303
  24   31841.2    314.1   0.069487478   0.71844  -0.26976  -0.22586   0.77114
  25   31960.2    312.9   0.075144604   0.77404   0.19380   0.25227  -0.82027
  26   32729.3    305.5   0.001680943   0.01691   0.03331   0.06464  -0.10780
  27   32875.7    304.2   0.909770200   9.11029   1.00939   1.45709   2.44301
  28   33241.3    300.8   0.085272791   0.84452   0.52645  -0.57804   0.48294
  29   33321.1    300.1   0.098154087   0.96976   0.61128   0.51905   0.57157
  30   33493.8    298.6   0.008695532   0.08547  -0.01789  -0.21082  -0.20175
  31   33792.1    295.9   0.000255657   0.00249   0.04294  -0.02322   0.01039
  32   33909.4    294.9   0.087841568   0.85282   0.10126   0.70299   0.59023
  33   33941.3    294.6   0.027999515   0.27158  -0.01319   0.24867   0.45779
  34   34194.4    292.4   0.376280894   3.62271  -0.56213  -1.04386  -1.48898
  35   34324.4    291.3   0.162592488   1.55946   0.75588   0.53397   0.83843
  36   34508.3    289.8   0.301735501   2.87858  -0.96306  -0.74526   1.18139
  37   34873.5    286.8   0.598078536   5.64597   0.71790   1.48204  -1.71293
  38   35130.8    284.7   0.294546009   2.76020   0.62115   0.99726  -1.17467
  39   35285.5    283.4   0.181926601   1.69737   0.03692  -1.28700   0.19906
  40   35524.2    281.5   0.004039029   0.03743  -0.04745   0.08480  -0.16730
  41   36083.5    277.1   0.289688882   2.64301  -0.29096   1.23623   1.01493
  42   36258.5    275.8   0.196155566   1.78101   0.03869  -1.14671  -0.68160
  43   36322.7    275.3   0.154473616   1.40007   0.19015  -0.20614  -1.14953
  44   36393.7    274.8   0.005060071   0.04577  -0.11970   0.11814   0.13223
  45   36608.9    273.2   0.048612710   0.43716  -0.03376   0.48953   0.44315
  46   36652.3    272.8   0.275284751   2.47262   0.09967  -1.17922  -1.03543
  47   37038.2    270.0   0.000475258   0.00422   0.04042   0.00234   0.05084
  48   37436.7    267.1   0.006270562   0.05514  -0.02733  -0.22935  -0.04235
  49   37571.0    266.2   0.000272483   0.00239   0.04831   0.00696  -0.00231
  50   38111.4    262.4   0.006776036   0.05853   0.17651   0.06907  -0.15035
  51   38233.9    261.5   0.006732961   0.05797   0.06677   0.07127  -0.22008
  52   38523.9    259.6   0.014000325   0.11964  -0.20422   0.14412   0.23909
  53   38627.2    258.9   0.002306114   0.01965  -0.03842  -0.13466  -0.00683
  54   39034.6    256.2   0.137922157   1.16322   0.94238  -0.52416  -0.01975
  55   39129.2    255.6   0.023899359   0.20108   0.20944  -0.36883  -0.14552
  56   39297.8    254.5   0.004692684   0.03931   0.17495  -0.09298   0.00769
  57   39725.6    251.7   0.027982467   0.23190  -0.42060   0.18284   0.14683
  58   39984.0    250.1   0.010506430   0.08651   0.09997  -0.22952  -0.15438
  59   40039.2    249.8   0.000860228   0.00707  -0.07789   0.02684   0.01689
  60   40127.7    249.2   0.084667839   0.69462  -0.57631   0.18814  -0.57193
  61   40265.7    248.4   0.160703862   1.31391  -1.00584   0.53368   0.13188

FINAL SINGLE POINT ENERGY     -3884.368176345619

DIPOLE MOMENT
-------------
                                X             Y             Z
Electronic contribution:    -10.39942      -4.01699       9.38343
Nuclear contribution   :     12.82742       1.48212     -13.60787
                        -----------------------------------------
Total Dipole Moment    :      2.42800      -2.53487      -4.22444
                        -----------------------------------------
Magnitude (a.u.)       :      5.49242
Magnitude (Debye)      :     13.96061

Rotational constants in cm-1:     0.001199     0.000346     0.000301
Rotational constants in MHz :    35.938989    10.358224     9.031163

                             ****ORCA TERMINATED NORMALLY****
TOTAL RUN TIME: 0 days 0 hours 13 minutes 34 seconds 609 msec
