                         Program Version 4.2.0 -  RELEASE  -
|  1> # ORCA input file
|  2> # SCF done       -173.314082554212          0.000593526775
|  3> ! CAM-B3LYP def2-SVP def2/J RIJCOSX Grid4 TightSCF
|  4> %maxcore 5000
|  5> %tddft
|  6>     Mode sTDDFT
|  7>     Ethresh 5.0
|  8>     maxcore 5000
|  9> end
| 10>
| 11> %pal
| 12>   nprocs 6
| 13>   end
| 14> * xyz 0 1
| 15>    C       -1.30842         3.28901         1.07341
| 16>    S       -1.52227         2.39191         2.65869
| 17>    C       -0.04828         1.34751         2.41160
| 18>    C        0.81115         2.03004         1.34503
| 19>    C       -0.19207         2.58440         0.31721
| 20>    C        1.68429         0.99899         0.59967
| 21>    O        1.38255        -0.16829         0.50995
| 22>    N        2.73797         1.54882        -0.03500
| 23>    N        1.62022         3.11518         1.86352
| 24>    C        2.59385         2.90736         2.82840
| 25>    C        3.15771         1.73722         3.15639
| 26>    C        4.24276         1.54856         4.09837
| 27>    C        4.86897         2.60937         4.76828
| 28>    C        5.88556         2.35414         5.65695
| 29>    C        6.33953         1.03909         5.86163
| 30>    C        5.73108        -0.01994         5.20507
| 31>    C        4.68611         0.24314         4.34273
| 32>    C        7.47214         1.07375         6.75980
| 33>    C        7.71181         2.40890         7.12570
| 34>    C        6.68871         3.32830         6.49064
| 35>    C        5.84863         3.95185         7.62838
| 36>    C        4.63095         4.75423         7.18978
| 37>    C        7.35860         4.40939         5.62857
| 38>    C        8.28282         3.81751         4.57058
| 39>    C        8.74890         2.72618         7.96552
| 40>    C        9.60623         1.71549         8.43629
| 41>    C        9.35012         0.38815         8.06048
| 42>    C        8.29275         0.06130         7.23767
| 43>    C       10.70735         2.08946         9.28371
| 44>    C       11.79216         1.32531         9.56482
| 45>    C       12.89101         1.67908        10.38310
| 46>    C       13.05109         2.75026        11.22105
| 47>    C       14.22201         3.00803        11.98588
| 48>    C       14.15410         4.10128        12.78877
| 49>    C       12.91739         4.78505        12.72428
| 50>    S       11.85393         3.98843        11.57409
| 51>    C       12.53047         5.89863        13.43081
| 52>    C       13.29045         6.65517        14.35688
| 53>    C       12.62549         7.69881        14.91493
| 54>    C       11.28336         7.84002        14.47235
| 55>    S       10.91743         6.57425        13.28411
| 56>    C       10.36738         8.76106        14.87055
| 57>    N        9.08605         8.77320        14.41719
| 58>    C        8.11349         9.70407        14.71183
| 59>    C        8.30435        10.91110        15.32089
| 60>    S        6.84095        11.79571        15.48583
| 61>    C        5.94322        10.52983        14.74112
| 62>    C        6.73015         9.47705        14.37918
| 63>    N        6.31351         8.31094        13.77005
| 64>    C        5.06848         8.09049        13.23745
| 65>    C        4.61836         6.88722        12.87924
| 66>    C        3.30929         6.66520        12.22522
| 67>    S        3.56297         6.16922        10.44299
| 68>    C        2.70948         4.57402        10.65022
| 69>    C        1.69812         4.80981        11.77149
| 70>    C        2.49504         5.53994        12.86220
| 71>    C        1.21406         3.43172        12.26502
| 72>    O        1.77428         2.81908        13.14431
| 73>    N        0.15944         2.95936        11.57652
| 74>    N        0.58916         5.58130        11.24664
| 75>    C       -0.41278         6.00782        12.10198
| 76>    C       -1.16003         7.08630        11.90802
| 77>    H       -1.06528         4.32684         1.30591
| 78>    H       -2.25246         3.26481         0.53352
| 79>    H       -0.35804         0.35983         2.06976
| 80>    H        0.47037         1.26034         3.36416
| 81>    H       -0.59971         1.74212        -0.24412
| 82>    H        0.30160         3.26213        -0.38048
| 83>    H        3.02509         2.48677         0.18549
| 84>    H        3.38735         0.93891        -0.50391
| 85>    H        1.08454         3.95814         2.01695
| 86>    H        2.92840         3.83242         3.27590
| 87>    H        2.79402         0.82699         2.69889
| 88>    H        4.56168         3.62430         4.57251
| 89>    H        6.07119        -1.03338         5.35960
| 90>    H        4.20126        -0.57471         3.82784
| 91>    H        6.50669         4.59847         8.21258
| 92>    H        5.51681         3.14233         8.28389
| 93>    H        4.90348         5.53309         6.48266
| 94>    H        4.18857         5.23769         8.05843
| 95>    H        3.88304         4.10823         6.73733
| 96>    H        7.92973         5.07450         6.27971
| 97>    H        6.58871         5.00369         5.13412
| 98>    H        9.08192         3.24510         5.03607
| 99>    H        8.72899         4.61040         3.97388
|100>    H        7.72960         3.15517         3.90790
|101>    H        8.93621         3.75033         8.25643
|102>    H        9.98440        -0.39973         8.43738
|103>    H        8.10915        -0.96825         6.96680
|104>    H       10.66178         3.09684         9.67365
|105>    H       11.87432         0.35166         9.09917
|106>    H       13.73314         0.99715        10.35960
|107>    H       15.08078         2.36329        11.91278
|108>    H       14.94965         4.42907        13.43413
|109>    H       14.31137         6.40137        14.57912
|110>    H       13.04635         8.37659        15.63645
|111>    H       10.63218         9.50854        15.60119
|112>    H        8.85835         8.06474        13.73201
|113>    H        9.21896        11.34698        15.66505
|114>    H        4.88470        10.64071        14.63161
|115>    H        6.89730         7.49445        13.88149
|116>    H        4.46903         8.97754        13.09937
|117>    H        5.23652         6.00968        13.01041
|118>    H        2.73890         7.59585        12.18307
|119>    H        3.43582         3.81108        10.93027
|120>    H        2.23665         4.30531         9.70767
|121>    H        3.15591         4.81385        13.33886
|122>    H        1.82705         5.94526        13.62312
|123>    H       -0.30539         3.54029        10.89952
|124>    H       -0.23201         2.06627        11.82478
|125>    H        0.88406         6.29147        10.58546
|126>    H       -0.59125         5.34128        12.93612
|127>    H       -0.98666         7.75254        11.07996
|128>    H       -1.97804         7.32284        12.56116
|129> *
|130>
|131>                          ****END OF INPUT****

CARTESIAN COORDINATES (ANGSTROEM)
---------------------------------
  C     -1.308420    3.289010    1.073410
  S     -1.522270    2.391910    2.658690
  C     -0.048280    1.347510    2.411600
  C      0.811150    2.030040    1.345030
  C     -0.192070    2.584400    0.317210
  C      1.684290    0.998990    0.599670
  O      1.382550   -0.168290    0.509950
  N      2.737970    1.548820   -0.035000
  N      1.620220    3.115180    1.863520
  C      2.593850    2.907360    2.828400
  C      3.157710    1.737220    3.156390
  C      4.242760    1.548560    4.098370
  C      4.868970    2.609370    4.768280
  C      5.885560    2.354140    5.656950
  C      6.339530    1.039090    5.861630
  C      5.731080   -0.019940    5.205070
  C      4.686110    0.243140    4.342730
  C      7.472140    1.073750    6.759800
  C      7.711810    2.408900    7.125700
  C      6.688710    3.328300    6.490640
  C      5.848630    3.951850    7.628380
  C      4.630950    4.754230    7.189780
  C      7.358600    4.409390    5.628570
  C      8.282820    3.817510    4.570580
  C      8.748900    2.726180    7.965520
  C      9.606230    1.715490    8.436290
  C      9.350120    0.388150    8.060480
  C      8.292750    0.061300    7.237670
  C     10.707350    2.089460    9.283710
  C     11.792160    1.325310    9.564820
  C     12.891010    1.679080   10.383100
  C     13.051090    2.750260   11.221050
  C     14.222010    3.008030   11.985880
  C     14.154100    4.101280   12.788770
  C     12.917390    4.785050   12.724280
  S     11.853930    3.988430   11.574090
  C     12.530470    5.898630   13.430810
  C     13.290450    6.655170   14.356880
  C     12.625490    7.698810   14.914930
  C     11.283360    7.840020   14.472350
  S     10.917430    6.574250   13.284110
  C     10.367380    8.761060   14.870550
  N      9.086050    8.773200   14.417190
  C      8.113490    9.704070   14.711830
  C      8.304350   10.911100   15.320890
  S      6.840950   11.795710   15.485830
  C      5.943220   10.529830   14.741120
  C      6.730150    9.477050   14.379180
  N      6.313510    8.310940   13.770050
  C      5.068480    8.090490   13.237450
  C      4.618360    6.887220   12.879240
  C      3.309290    6.665200   12.225220
  S      3.562970    6.169220   10.442990
  C      2.709480    4.574020   10.650220
  C      1.698120    4.809810   11.771490
  C      2.495040    5.539940   12.862200
  C      1.214060    3.431720   12.265020
  O      1.774280    2.819080   13.144310
  N      0.159440    2.959360   11.576520
  N      0.589160    5.581300   11.246640
  C     -0.412780    6.007820   12.101980
  C     -1.160030    7.086300   11.908020
  H     -1.065280    4.326840    1.305910
  H     -2.252460    3.264810    0.533520
  H     -0.358040    0.359830    2.069760
  H      0.470370    1.260340    3.364160
  H     -0.599710    1.742120   -0.244120
  H      0.301600    3.262130   -0.380480
  H      3.025090    2.486770    0.185490
  H      3.387350    0.938910   -0.503910
  H      1.084540    3.958140    2.016950
  H      2.928400    3.832420    3.275900
  H      2.794020    0.826990    2.698890
  H      4.561680    3.624300    4.572510
  H      6.071190   -1.033380    5.359600
  H      4.201260   -0.574710    3.827840
  H      6.506690    4.598470    8.212580
  H      5.516810    3.142330    8.283890
  H      4.903480    5.533090    6.482660
  H      4.188570    5.237690    8.058430
  H      3.883040    4.108230    6.737330
  H      7.929730    5.074500    6.279710
  H      6.588710    5.003690    5.134120
  H      9.081920    3.245100    5.036070
  H      8.728990    4.610400    3.973880
  H      7.729600    3.155170    3.907900
  H      8.936210    3.750330    8.256430
  H      9.984400   -0.399730    8.437380
  H      8.109150   -0.968250    6.966800
  H     10.661780    3.096840    9.673650
  H     11.874320    0.351660    9.099170
  H     13.733140    0.997150   10.359600
  H     15.080780    2.363290   11.912780
  H     14.949650    4.429070   13.434130
  H     14.311370    6.401370   14.579120
  H     13.046350    8.376590   15.636450
  H     10.632180    9.508540   15.601190
  H      8.858350    8.064740   13.732010
  H      9.218960   11.346980   15.665050
  H      4.884700   10.640710   14.631610
  H      6.897300    7.494450   13.881490
  H      4.469030    8.977540   13.099370
  H      5.236520    6.009680   13.010410
  H      2.738900    7.595850   12.183070
  H      3.435820    3.811080   10.930270
  H      2.236650    4.305310    9.707670
  H      3.155910    4.813850   13.338860
  H      1.827050    5.945260   13.623120
  H     -0.305390    3.540290   10.899520
  H     -0.232010    2.066270   11.824780
  H      0.884060    6.291470   10.585460
  H     -0.591250    5.341280   12.936120
  H     -0.986660    7.752540   11.079960
  H     -1.978040    7.322840   12.561160

 Total Charge           Charge          ....    0
 Multiplicity           Mult            ....    1
 Number of Electrons    NEL             ....  484
 Basis Dimension        Dim             .... 1148

ORBITAL ENERGIES
----------------

  NO   OCC          E(Eh)            E(eV)
   0   2.0000     -88.945828     -2420.3390
   1   2.0000     -88.937331     -2420.1078
   2   2.0000     -88.929911     -2419.9059
   3   2.0000     -88.906371     -2419.2654
   4   2.0000     -88.898891     -2419.0618
   5   2.0000     -19.176744      -521.8257
   6   2.0000     -19.173643      -521.7414
   7   2.0000     -14.458335      -393.4313
   8   2.0000     -14.442340      -392.9960
   9   2.0000     -14.429239      -392.6396
  10   2.0000     -14.422310      -392.4510
  11   2.0000     -14.422083      -392.4448
  12   2.0000     -14.414646      -392.2425
  13   2.0000     -10.366390      -282.0838
  14   2.0000     -10.363335      -282.0007
  15   2.0000     -10.323281      -280.9108
  16   2.0000     -10.320332      -280.8305
  17   2.0000     -10.318148      -280.7711
  18   2.0000     -10.316420      -280.7241
  19   2.0000     -10.316004      -280.7127
  20   2.0000     -10.306192      -280.4457
  21   2.0000     -10.302074      -280.3337
  22   2.0000     -10.301136      -280.3081
  23   2.0000     -10.297135      -280.1993
  24   2.0000     -10.296189      -280.1735
  25   2.0000     -10.292799      -280.0813
  26   2.0000     -10.292522      -280.0738
  27   2.0000     -10.292467      -280.0723
  28   2.0000     -10.290296      -280.0132
  29   2.0000     -10.289252      -279.9848
  30   2.0000     -10.284145      -279.8458
  31   2.0000     -10.281735      -279.7802
  32   2.0000     -10.280895      -279.7574
  33   2.0000     -10.280718      -279.7526
  34   2.0000     -10.277319      -279.6601
  35   2.0000     -10.273572      -279.5581
  36   2.0000     -10.270827      -279.4834
  37   2.0000     -10.266705      -279.3712
  38   2.0000     -10.264686      -279.3163
  39   2.0000     -10.263973      -279.2969
  40   2.0000     -10.263376      -279.2807
  41   2.0000     -10.259416      -279.1729
  42   2.0000     -10.258135      -279.1380
  43   2.0000     -10.255696      -279.0717
  44   2.0000     -10.254955      -279.0515
  45   2.0000     -10.254587      -279.0415
  46   2.0000     -10.254416      -279.0369
  47   2.0000     -10.253547      -279.0132
  48   2.0000     -10.252742      -278.9913
  49   2.0000     -10.252649      -278.9888
  50   2.0000     -10.252284      -278.9788
  51   2.0000     -10.251670      -278.9621
  52   2.0000     -10.251607      -278.9604
  53   2.0000     -10.251601      -278.9602
  54   2.0000     -10.251442      -278.9559
  55   2.0000     -10.251099      -278.9466
  56   2.0000     -10.250970      -278.9431
  57   2.0000     -10.250282      -278.9244
  58   2.0000     -10.249489      -278.9028
  59   2.0000     -10.241062      -278.6735
  60   2.0000     -10.240448      -278.6567
  61   2.0000     -10.235892      -278.5328
  62   2.0000      -8.041729      -218.8266
  63   2.0000      -8.033546      -218.6039
  64   2.0000      -8.025480      -218.3844
  65   2.0000      -8.001612      -217.7349
  66   2.0000      -7.995361      -217.5648
  67   2.0000      -6.011326      -163.5765
  68   2.0000      -6.006979      -163.4582
  69   2.0000      -6.003457      -163.3624
  70   2.0000      -6.003425      -163.3615
  71   2.0000      -5.999526      -163.2554
  72   2.0000      -5.995262      -163.1394
  73   2.0000      -5.994155      -163.1093
  74   2.0000      -5.991245      -163.0301
  75   2.0000      -5.986431      -162.8991
  76   2.0000      -5.972183      -162.5114
  77   2.0000      -5.968089      -162.3999
  78   2.0000      -5.966255      -162.3501
  79   2.0000      -5.961890      -162.2313
  80   2.0000      -5.961060      -162.2087
  81   2.0000      -5.954305      -162.0249
  82   2.0000      -1.118028       -30.4231
  83   2.0000      -1.114796       -30.3352
  84   2.0000      -1.068938       -29.0873
  85   2.0000      -1.038081       -28.2476
  86   2.0000      -1.036307       -28.1993
  87   2.0000      -1.030177       -28.0326
  88   2.0000      -0.979952       -26.6659
  89   2.0000      -0.978989       -26.6396
  90   2.0000      -0.977605       -26.6020
  91   2.0000      -0.970503       -26.4087
  92   2.0000      -0.963958       -26.2306
  93   2.0000      -0.954077       -25.9618
  94   2.0000      -0.931350       -25.3433
  95   2.0000      -0.931099       -25.3365
  96   2.0000      -0.925045       -25.1718
  97   2.0000      -0.904095       -24.6017
  98   2.0000      -0.885016       -24.0825
  99   2.0000      -0.875193       -23.8152
 100   2.0000      -0.870437       -23.6858
 101   2.0000      -0.861544       -23.4438
 102   2.0000      -0.843995       -22.9663
 103   2.0000      -0.835935       -22.7469
 104   2.0000      -0.830756       -22.6060
 105   2.0000      -0.825293       -22.4574
 106   2.0000      -0.822764       -22.3885
 107   2.0000      -0.818263       -22.2661
 108   2.0000      -0.817205       -22.2373
 109   2.0000      -0.815881       -22.2013
 110   2.0000      -0.815226       -22.1834
 111   2.0000      -0.809038       -22.0150
 112   2.0000      -0.808714       -22.0062
 113   2.0000      -0.797583       -21.7033
 114   2.0000      -0.795863       -21.6565
 115   2.0000      -0.779724       -21.2174
 116   2.0000      -0.775625       -21.1058
 117   2.0000      -0.756975       -20.5983
 118   2.0000      -0.749720       -20.4009
 119   2.0000      -0.729779       -19.8583
 120   2.0000      -0.715706       -19.4753
 121   2.0000      -0.708674       -19.2840
 122   2.0000      -0.705383       -19.1944
 123   2.0000      -0.698703       -19.0127
 124   2.0000      -0.690169       -18.7804
 125   2.0000      -0.680210       -18.5094
 126   2.0000      -0.678736       -18.4694
 127   2.0000      -0.676508       -18.4087
 128   2.0000      -0.673969       -18.3396
 129   2.0000      -0.667583       -18.1659
 130   2.0000      -0.664773       -18.0894
 131   2.0000      -0.660711       -17.9789
 132   2.0000      -0.655756       -17.8440
 133   2.0000      -0.646590       -17.5946
 134   2.0000      -0.645457       -17.5638
 135   2.0000      -0.643952       -17.5228
 136   2.0000      -0.637416       -17.3450
 137   2.0000      -0.634306       -17.2604
 138   2.0000      -0.628443       -17.1008
 139   2.0000      -0.624158       -16.9842
 140   2.0000      -0.616562       -16.7775
 141   2.0000      -0.614935       -16.7332
 142   2.0000      -0.608353       -16.5541
 143   2.0000      -0.606649       -16.5078
 144   2.0000      -0.602925       -16.4064
 145   2.0000      -0.595304       -16.1990
 146   2.0000      -0.589938       -16.0530
 147   2.0000      -0.587784       -15.9944
 148   2.0000      -0.582789       -15.8585
 149   2.0000      -0.576093       -15.6763
 150   2.0000      -0.574667       -15.6375
 151   2.0000      -0.563116       -15.3232
 152   2.0000      -0.559703       -15.2303
 153   2.0000      -0.558253       -15.1908
 154   2.0000      -0.548806       -14.9338
 155   2.0000      -0.547570       -14.9001
 156   2.0000      -0.541794       -14.7430
 157   2.0000      -0.539882       -14.6909
 158   2.0000      -0.532513       -14.4904
 159   2.0000      -0.529004       -14.3949
 160   2.0000      -0.524137       -14.2625
 161   2.0000      -0.521423       -14.1886
 162   2.0000      -0.519518       -14.1368
 163   2.0000      -0.517288       -14.0761
 164   2.0000      -0.513713       -13.9788
 165   2.0000      -0.510672       -13.8961
 166   2.0000      -0.509009       -13.8508
 167   2.0000      -0.506314       -13.7775
 168   2.0000      -0.505327       -13.7507
 169   2.0000      -0.502469       -13.6729
 170   2.0000      -0.499447       -13.5907
 171   2.0000      -0.497496       -13.5375
 172   2.0000      -0.495241       -13.4762
 173   2.0000      -0.494370       -13.4525
 174   2.0000      -0.491030       -13.3616
 175   2.0000      -0.490689       -13.3523
 176   2.0000      -0.487431       -13.2637
 177   2.0000      -0.484085       -13.1726
 178   2.0000      -0.483319       -13.1518
 179   2.0000      -0.479801       -13.0560
 180   2.0000      -0.478198       -13.0124
 181   2.0000      -0.475562       -12.9407
 182   2.0000      -0.473048       -12.8723
 183   2.0000      -0.469476       -12.7751
 184   2.0000      -0.467151       -12.7118
 185   2.0000      -0.461870       -12.5681
 186   2.0000      -0.459180       -12.4949
 187   2.0000      -0.456260       -12.4155
 188   2.0000      -0.453733       -12.3467
 189   2.0000      -0.451490       -12.2857
 190   2.0000      -0.449399       -12.2288
 191   2.0000      -0.447589       -12.1795
 192   2.0000      -0.445609       -12.1256
 193   2.0000      -0.444382       -12.0922
 194   2.0000      -0.442775       -12.0485
 195   2.0000      -0.440890       -11.9972
 196   2.0000      -0.437577       -11.9071
 197   2.0000      -0.436025       -11.8648
 198   2.0000      -0.434174       -11.8145
 199   2.0000      -0.431112       -11.7312
 200   2.0000      -0.430298       -11.7090
 201   2.0000      -0.427469       -11.6320
 202   2.0000      -0.425422       -11.5763
 203   2.0000      -0.423139       -11.5142
 204   2.0000      -0.422341       -11.4925
 205   2.0000      -0.421293       -11.4640
 206   2.0000      -0.418027       -11.3751
 207   2.0000      -0.417249       -11.3539
 208   2.0000      -0.414465       -11.2782
 209   2.0000      -0.412338       -11.2203
 210   2.0000      -0.406568       -11.0633
 211   2.0000      -0.405408       -11.0317
 212   2.0000      -0.402048       -10.9403
 213   2.0000      -0.399387       -10.8679
 214   2.0000      -0.395217       -10.7544
 215   2.0000      -0.387617       -10.5476
 216   2.0000      -0.384246       -10.4559
 217   2.0000      -0.380083       -10.3426
 218   2.0000      -0.376958       -10.2576
 219   2.0000      -0.372027       -10.1234
 220   2.0000      -0.370063       -10.0699
 221   2.0000      -0.364943        -9.9306
 222   2.0000      -0.360959        -9.8222
 223   2.0000      -0.341365        -9.2890
 224   2.0000      -0.339691        -9.2435
 225   2.0000      -0.338124        -9.2008
 226   2.0000      -0.328708        -8.9446
 227   2.0000      -0.326388        -8.8815
 228   2.0000      -0.324440        -8.8284
 229   2.0000      -0.322113        -8.7651
 230   2.0000      -0.313460        -8.5297
 231   2.0000      -0.308645        -8.3987
 232   2.0000      -0.303525        -8.2593
 233   2.0000      -0.298375        -8.1192
 234   2.0000      -0.291981        -7.9452
 235   2.0000      -0.286023        -7.7831
 236   2.0000      -0.277097        -7.5402
 237   2.0000      -0.270543        -7.3619
 238   2.0000      -0.262016        -7.1298
 239   2.0000      -0.246714        -6.7134
 240   2.0000      -0.232629        -6.3302
 241   2.0000      -0.192893        -5.2489
 242   0.0000      -0.054940        -1.4950
 243   0.0000      -0.006496        -0.1768
 244   0.0000       0.016809         0.4574
 245   0.0000       0.028315         0.7705
 246   0.0000       0.039315         1.0698

MULLIKEN ATOMIC CHARGES
-----------------------
   0 C :   -0.028247
   1 S :   -0.125086
   2 C :    0.070512
   3 C :   -0.258437
   4 C :    0.086215
   5 C :    0.039443
   6 O :   -0.209148
   7 N :   -0.047472
   8 N :   -0.117033
   9 C :    0.025485
  10 C :   -0.040536
  11 C :    0.134042
  12 C :   -0.103699
  13 C :    0.015208
  14 C :    0.101411
  15 C :   -0.052699
  16 C :   -0.036115
  17 C :    0.099246
  18 C :    0.026318
  19 C :   -0.128879
  20 C :    0.078361
  21 C :    0.035740
  22 C :    0.053192
  23 C :    0.026717
  24 C :   -0.116599
  25 C :    0.126283
  26 C :   -0.021725
  27 C :   -0.048844
  28 C :   -0.023283
  29 C :    0.022117
  30 C :   -0.019827
  31 C :   -0.015310
  32 C :    0.029142
  33 C :    0.025466
  34 C :   -0.047673
  35 S :    0.047366
  36 C :   -0.041888
  37 C :    0.015186
  38 C :    0.045756
  39 C :   -0.052573
  40 S :    0.024583
  41 C :    0.037716
  42 N :   -0.062884
  43 C :    0.124342
  44 C :   -0.212618
  45 S :    0.109530
  46 C :   -0.223413
  47 C :    0.148451
  48 N :   -0.083188
  49 C :    0.073334
  50 C :    0.008443
  51 C :   -0.118612
  52 S :   -0.092889
  53 C :    0.041302
  54 C :   -0.250033
  55 C :    0.201592
  56 C :    0.041965
  57 O :   -0.208548
  58 N :   -0.053054
  59 N :   -0.157139
  60 C :    0.038681
  61 C :   -0.071901
  62 H :    0.036011
  63 H :    0.053227
  64 H :    0.065065
  65 H :    0.053797
  66 H :    0.032662
  67 H :    0.014315
  68 H :    0.131075
  69 H :    0.127694
  70 H :    0.118274
  71 H :   -0.003211
  72 H :   -0.014173
  73 H :   -0.056640
  74 H :   -0.040662
  75 H :   -0.029760
  76 H :   -0.001169
  77 H :    0.001012
  78 H :   -0.004820
  79 H :    0.006110
  80 H :    0.014254
  81 H :   -0.002450
  82 H :   -0.000600
  83 H :    0.023924
  84 H :    0.003027
  85 H :    0.017902
  86 H :   -0.042744
  87 H :   -0.033503
  88 H :   -0.042526
  89 H :   -0.013854
  90 H :   -0.023649
  91 H :   -0.023855
  92 H :   -0.019272
  93 H :   -0.020814
  94 H :   -0.018400
  95 H :   -0.016814
  96 H :    0.007192
  97 H :    0.123210
  98 H :    0.009902
  99 H :    0.011159
 100 H :    0.114224
 101 H :    0.002609
 102 H :   -0.013707
 103 H :    0.027534
 104 H :    0.064377
 105 H :    0.040697
 106 H :    0.026712
 107 H :    0.012959
 108 H :    0.132299
 109 H :    0.127631
 110 H :    0.107861
 111 H :    0.015770
 112 H :    0.001072
 113 H :    0.015274
Sum of atomic charges:   -0.0000000

LOEWDIN ATOMIC CHARGES
----------------------
   0 C :   -0.132533
   1 S :    0.189020
   2 C :   -0.124068
   3 C :   -0.041854
   4 C :   -0.028125
   5 C :    0.054864
   6 O :   -0.209362
   7 N :    0.007020
   8 N :   -0.033394
   9 C :    0.017492
  10 C :   -0.101836
  11 C :   -0.016681
  12 C :   -0.033044
  13 C :    0.005302
  14 C :   -0.025275
  15 C :   -0.020784
  16 C :   -0.029441
  17 C :   -0.020509
  18 C :    0.001638
  19 C :   -0.034196
  20 C :   -0.008619
  21 C :   -0.063943
  22 C :   -0.015393
  23 C :   -0.057012
  24 C :   -0.023116
  25 C :   -0.023477
  26 C :   -0.018708
  27 C :   -0.021575
  28 C :   -0.030148
  29 C :   -0.038774
  30 C :   -0.072815
  31 C :   -0.141493
  32 C :   -0.040001
  33 C :   -0.039482
  34 C :   -0.195964
  35 S :    0.368946
  36 C :   -0.166468
  37 C :   -0.053727
  38 C :   -0.025874
  39 C :   -0.202110
  40 S :    0.325614
  41 C :    0.014440
  42 N :    0.028836
  43 C :   -0.030631
  44 C :   -0.236384
  45 S :    0.427315
  46 C :   -0.239860
  47 C :   -0.023842
  48 N :    0.004194
  49 C :    0.024869
  50 C :   -0.106680
  51 C :   -0.105461
  52 S :    0.209864
  53 C :   -0.112999
  54 C :   -0.044580
  55 C :   -0.026287
  56 C :    0.053088
  57 O :   -0.209679
  58 N :    0.007005
  59 N :   -0.046639
  60 C :    0.015137
  61 C :   -0.135470
  62 H :    0.011304
  63 H :    0.027273
  64 H :    0.026098
  65 H :    0.026792
  66 H :    0.040300
  67 H :    0.027076
  68 H :    0.074946
  69 H :    0.080340
  70 H :    0.073451
  71 H :    0.021743
  72 H :    0.027361
  73 H :    0.016577
  74 H :    0.024868
  75 H :    0.025119
  76 H :    0.020722
  77 H :    0.025281
  78 H :    0.018339
  79 H :    0.013951
  80 H :    0.021443
  81 H :    0.019975
  82 H :    0.016520
  83 H :    0.026456
  84 H :    0.021210
  85 H :    0.024661
  86 H :    0.022538
  87 H :    0.023468
  88 H :    0.024355
  89 H :    0.009422
  90 H :    0.025462
  91 H :    0.030532
  92 H :    0.030347
  93 H :    0.028828
  94 H :    0.030148
  95 H :    0.031539
  96 H :    0.034485
  97 H :    0.070039
  98 H :    0.018558
  99 H :    0.019289
 100 H :    0.077316
 101 H :    0.027270
 102 H :    0.019284
 103 H :    0.020754
 104 H :    0.029857
 105 H :    0.023505
 106 H :    0.033670
 107 H :    0.031711
 108 H :    0.073897
 109 H :    0.080218
 110 H :    0.060104
 111 H :    0.024499
 112 H :    0.016671
 113 H :    0.024098

  Mayer bond orders larger than 0.100000
B(  0-C ,  1-S ) :   0.9946 B(  0-C ,  4-C ) :   1.0631 B(  0-C , 62-H ) :   0.9469
B(  0-C , 63-H ) :   0.9506 B(  1-S ,  2-C ) :   0.9801 B(  2-C ,  3-C ) :   1.0013
B(  2-C , 64-H ) :   0.9332 B(  2-C , 65-H ) :   0.9346 B(  3-C ,  4-C ) :   1.0366
B(  3-C ,  5-C ) :   0.8559 B(  3-C ,  8-N ) :   0.9965 B(  4-C , 66-H ) :   0.9332
B(  4-C , 67-H ) :   0.9372 B(  5-C ,  6-O ) :   2.1455 B(  5-C ,  7-N ) :   1.2993
B(  7-N , 68-H ) :   0.9276 B(  7-N , 69-H ) :   0.9414 B(  8-N ,  9-C ) :   1.1266
B(  8-N , 70-H ) :   0.9268 B(  9-C , 10-C ) :   1.7168 B(  9-C , 71-H ) :   0.9592
B( 10-C , 11-C ) :   1.0736 B( 10-C , 72-H ) :   0.9555 B( 11-C , 12-C ) :   1.3017
B( 11-C , 16-C ) :   1.3500 B( 12-C , 13-C ) :   1.4194 B( 12-C , 73-H ) :   0.9883
B( 13-C , 14-C ) :   1.3749 B( 13-C , 19-C ) :   0.9186 B( 14-C , 15-C ) :   1.3392
B( 14-C , 17-C ) :   0.9974 B( 15-C , 16-C ) :   1.3708 B( 15-C , 74-H ) :   0.9913
B( 16-C , 75-H ) :   0.9938 B( 17-C , 18-C ) :   1.3761 B( 17-C , 27-C ) :   1.3264
B( 18-C , 19-C ) :   0.9237 B( 18-C , 24-C ) :   1.3822 B( 19-C , 20-C ) :   1.0158
B( 19-C , 22-C ) :   1.0317 B( 20-C , 21-C ) :   1.1162 B( 20-C , 76-H ) :   0.9367
B( 20-C , 77-H ) :   0.9383 B( 21-C , 78-H ) :   0.9555 B( 21-C , 79-H ) :   0.9541
B( 21-C , 80-H ) :   0.9568 B( 22-C , 23-C ) :   1.1035 B( 22-C , 81-H ) :   0.9397
B( 22-C , 82-H ) :   0.9379 B( 23-C , 83-H ) :   0.9632 B( 23-C , 84-H ) :   0.9646
B( 23-C , 85-H ) :   0.9647 B( 24-C , 25-C ) :   1.2772 B( 24-C , 86-H ) :   1.0120
B( 25-C , 26-C ) :   1.3412 B( 25-C , 28-C ) :   1.0985 B( 26-C , 27-C ) :   1.4004
B( 26-C , 87-H ) :   0.9844 B( 27-C , 88-H ) :   0.9901 B( 28-C , 29-C ) :   1.6382
B( 28-C , 89-H ) :   0.9582 B( 29-C , 30-C ) :   1.1856 B( 29-C , 90-H ) :   0.9636
B( 30-C , 31-C ) :   1.5938 B( 30-C , 91-H ) :   0.9585 B( 31-C , 32-C ) :   1.1412
B( 31-C , 35-S ) :   1.0359 B( 32-C , 33-C ) :   1.6003 B( 32-C , 92-H ) :   0.9972
B( 33-C , 34-C ) :   1.1782 B( 33-C , 93-H ) :   0.9921 B( 34-C , 35-S ) :   1.0202
B( 34-C , 36-C ) :   1.5417 B( 36-C , 37-C ) :   1.1758 B( 36-C , 40-S ) :   1.0428
B( 37-C , 38-C ) :   1.6192 B( 37-C , 94-H ) :   0.9913 B( 38-C , 39-C ) :   1.1479
B( 38-C , 95-H ) :   0.9936 B( 39-C , 40-S ) :   0.9908 B( 39-C , 41-C ) :   1.5993
B( 41-C , 42-N ) :   1.1785 B( 41-C , 96-H ) :   0.9671 B( 42-N , 43-C ) :   1.1122
B( 42-N , 97-H ) :   0.9090 B( 43-C , 44-C ) :   1.5222 B( 43-C , 47-C ) :   1.2362
B( 44-C , 45-S ) :   1.1430 B( 44-C , 98-H ) :   0.9769 B( 45-S , 46-C ) :   1.1350
B( 46-C , 47-C ) :   1.5244 B( 46-C , 99-H ) :   0.9774 B( 47-C , 48-N ) :   1.1160
B( 48-N , 49-C ) :   1.1189 B( 48-N ,100-H ) :   0.9190 B( 49-C , 50-C ) :   1.7898
B( 49-C ,101-H ) :   0.9685 B( 50-C , 51-C ) :   1.0139 B( 50-C ,102-H ) :   0.9609
B( 51-C , 52-S ) :   0.9653 B( 51-C , 55-C ) :   0.9923 B( 51-C ,103-H ) :   0.9248
B( 52-S , 53-C ) :   1.0020 B( 53-C , 54-C ) :   0.9991 B( 53-C ,104-H ) :   0.9453
B( 53-C ,105-H ) :   0.9427 B( 54-C , 55-C ) :   1.0220 B( 54-C , 56-C ) :   0.8485
B( 54-C , 59-N ) :   1.0044 B( 55-C ,106-H ) :   0.9225 B( 55-C ,107-H ) :   0.9227
B( 56-C , 57-O ) :   2.1649 B( 56-C , 58-N ) :   1.3048 B( 58-N ,108-H ) :   0.9223
B( 58-N ,109-H ) :   0.9399 B( 59-N , 60-C ) :   1.1068 B( 59-N ,110-H ) :   0.9197
B( 60-C , 61-C ) :   1.9303 B( 60-C ,111-H ) :   0.9597 B( 61-C ,112-H ) :   0.9573
B( 61-C ,113-H ) :   0.9524

-----------------------------------------------------------------------------
         ABSORPTION SPECTRUM VIA TRANSITION ELECTRIC DIPOLE MOMENTS
-----------------------------------------------------------------------------
State   Energy  Wavelength   fosc         T2         TX        TY        TZ
        (cm-1)    (nm)                  (au**2)     (au)      (au)      (au)
-----------------------------------------------------------------------------
   0   16162.4    618.7   1.243218685  25.32314  -0.34534  -3.61603  -3.48256
   1   24952.2    400.8   0.112661710   1.48642  -1.04621  -0.01131  -0.62589
   2   27284.3    366.5   1.367630111  16.50178   3.66040  -1.22285   1.26803
   3   28840.3    346.7   0.205532215   2.34615  -1.25556   0.78655  -0.38866
   4   29923.1    334.2   0.036759149   0.40442  -0.52799   0.17700  -0.30711
   5   30943.9    323.2   0.091464856   0.97309  -0.88402   0.08801  -0.42878
   6   32972.9    303.3   0.036781767   0.36724  -0.28448   0.28692   0.45165
   7   33874.7    295.2   0.016129088   0.15675  -0.16951  -0.35765  -0.01026
   8   35295.7    283.3   0.020866169   0.19462  -0.27219  -0.30446  -0.16686
   9   35749.5    279.7   0.123322414   1.13566  -0.60460   0.25620  -0.83933
  10   36516.9    273.8   0.255262587   2.30127   1.21883  -0.02485   0.90283
  11   36753.7    272.1   0.020763872   0.18599  -0.26017  -0.06211  -0.33829
  12   37605.7    265.9   0.002392692   0.02095  -0.11733   0.00405  -0.08464
  13   37727.2    265.1   0.020670831   0.18038  -0.20637  -0.26807  -0.25676
  14   39568.5    252.7   0.004903036   0.04079  -0.10068   0.12085   0.12670
  15   39864.9    250.8   0.149217952   1.23227  -0.79081   0.72803  -0.27723

FINAL SINGLE POINT ENERGY     -4364.791637503564

DIPOLE MOMENT
-------------
                                X             Y             Z
Electronic contribution:     37.89521      13.18134      43.30422
Nuclear contribution   :    -37.75949     -10.97145     -43.63367
                        -----------------------------------------
Total Dipole Moment    :      0.13572       2.20989      -0.32945
                        -----------------------------------------
Magnitude (a.u.)       :      2.23843
Magnitude (Debye)      :      5.68963

Rotational constants in cm-1:     0.001135     0.000482     0.000371
Rotational constants in MHz :    34.015009    14.452688    11.134499

                             ****ORCA TERMINATED NORMALLY****
TOTAL RUN TIME: 0 days 0 hours 15 minutes 22 seconds 934 msec
