                         Program Version 4.2.0 -  RELEASE  -
|  1> # ORCA input file
|  2> # SCF done       -185.804086051455          0.000792700807
|  3> ! CAM-B3LYP def2-SVP def2/J RIJCOSX Grid4 TightSCF
|  4> %maxcore 5000
|  5> %tddft
|  6>     Mode sTDDFT
|  7>     Ethresh 5.0
|  8>     maxcore 5000
|  9> end
| 10>
| 11> %pal
| 12>   nprocs 6
| 13>   end
| 14> * xyz 0 1
| 15>    C       -8.18872        -1.55514        -4.86881
| 16>    C       -7.25372        -2.51370        -4.56613
| 17>    C       -7.29285        -3.83058        -5.06407
| 18>    N       -7.28859        -4.91519        -5.44166
| 19>    C       -6.09412        -2.27619        -3.79832
| 20>    N       -5.10295        -2.12850        -3.23752
| 21>    C       -9.28726        -1.69767        -5.81966
| 22>    C       -9.87821        -0.42428        -6.01567
| 23>    C      -10.93784        -0.22318        -6.86503
| 24>    C      -11.44599        -1.33476        -7.54707
| 25>    C      -10.85308        -2.60190        -7.34081
| 26>    C       -9.77410        -2.80387        -6.48709
| 27>    S      -11.64255        -3.83653        -8.27440
| 28>    C      -12.74357        -2.64887        -8.92043
| 29>    C      -12.53241        -1.39237        -8.46302
| 30>   Br      -14.06933        -3.18003       -10.13668
| 31>    C       -9.18256         0.56505        -5.16957
| 32>    O       -9.40362         1.76471        -5.12717
| 33>    C       -8.20664        -0.19312        -4.38862
| 34>    C       -7.56062         0.24836        -3.25304
| 35>    C       -7.49851         1.52436        -2.70150
| 36>    S       -7.99499         2.98900        -3.50008
| 37>    C       -7.44399         3.99190        -2.19005
| 38>    C       -6.81709         3.21308        -1.17768
| 39>    C       -6.90796         1.82138        -1.44073
| 40>    C       -6.42478         0.91509        -0.46689
| 41>    C       -6.67825        -0.47483        -0.50013
| 42>    N       -6.92263        -1.59370        -0.42339
| 43>    C       -5.73393         1.40280         0.63328
| 44>    C       -5.50564         2.76909         0.78350
| 45>    C       -6.05748         3.67232        -0.09377
| 46>    C       -7.77067         5.34869        -2.23777
| 47>    C       -8.07126         6.20526        -1.19177
| 48>    C       -8.50746         7.54110        -1.33279
| 49>    C       -8.98456         8.10558        -0.17969
| 50>    C       -8.94533         7.24157         0.92551
| 51>    S       -8.23915         5.70758         0.47860
| 52>    C       -9.43011         7.40286         2.22012
| 53>    C      -10.19061         8.43649         2.78899
| 54>    C      -10.61565         8.14712         4.05839
| 55>    C      -10.21419         6.87993         4.54085
| 56>    S       -9.16307         6.12021         3.37385
| 57>    C      -10.74178         6.27916         5.67161
| 58>    C      -10.61550         4.96297         6.13028
| 59>    C       -9.63526         4.02135         5.71103
| 60>    C       -9.71786         2.61241         6.02416
| 61>    N       -8.76822         1.79327         5.54726
| 62>    C       -7.76125         2.27681         4.85840
| 63>    C       -7.64323         3.67506         4.61530
| 64>    N       -8.59390         4.48843         5.03184
| 65>    C       -6.53045         4.21277         3.93477
| 66>    N       -5.60672         4.61475         3.38597
| 67>    C       -6.78660         1.39474         4.33207
| 68>    N       -5.98260         0.72368         3.86618
| 69>    C      -10.77121         2.07543         6.80844
| 70>    C      -11.62604         3.04527         7.40137
| 71>    C      -11.54703         4.44995         7.07646
| 72>    N      -12.46288         5.16810         7.71317
| 73>    S      -13.33778         4.19174         8.65045
| 74>    N      -12.60472         2.80925         8.27399
| 75>    C      -10.99787         0.67346         6.95714
| 76>    C      -10.34276        -0.37425         6.23184
| 77>    C      -10.89158        -1.59170         6.60274
| 78>    C      -10.61761        -2.89919         6.16730
| 79>    C      -11.36950        -3.91607         6.70496
| 80>    C      -11.36652        -5.31934         6.47712
| 81>    C      -12.34744        -5.90766         7.26874
| 82>    C      -12.98433        -4.87863         8.01663
| 83>    C      -12.40487        -3.65344         7.68988
| 84>    C      -12.67275        -2.35229         8.12999
| 85>    C      -11.92258        -1.32649         7.58878
| 86>    C      -11.95984         0.07330         7.78324
| 87>    C      -12.64469        -7.31927         7.29640
| 88>    C      -13.58902        -7.89697         8.03461
| 89>    H      -11.36580         0.75811        -6.99785
| 90>    H       -9.35761        -3.78907        -6.35899
| 91>    H      -13.11790        -0.54026        -8.75661
| 92>    H       -7.05075        -0.51119        -2.67471
| 93>    H       -5.36770         0.71091         1.37671
| 94>    H       -4.91586         3.12031         1.61482
| 95>    H       -5.88235         4.72708         0.03795
| 96>    H       -7.97126         5.74396        -3.22709
| 97>    H       -8.47553         8.04336        -2.28352
| 98>    H       -9.36952         9.10711        -0.10910
| 99>    H      -10.43567         9.34012         2.25930
|100>    H      -11.24204         8.79544         4.64613
|101>    H      -11.46366         6.87274         6.22060
|102>    H       -9.56375        -0.23118         5.50895
|103>    H       -9.84660        -3.08483         5.43323
|104>    H      -10.71201        -5.83443         5.79779
|105>    H      -13.78441        -5.02190         8.71933
|106>    H      -13.44728        -2.16140         8.85931
|107>    H      -12.61535         0.59698         8.45150
|108>    H      -12.02802        -7.92653         6.64567
|109>    H      -14.22766        -7.33518         8.69445
|110>    H      -13.75626        -8.95938         8.00179
|111> *
|112>
|113>                          ****END OF INPUT****

CARTESIAN COORDINATES (ANGSTROEM)
---------------------------------
  C     -8.188720   -1.555140   -4.868810
  C     -7.253720   -2.513700   -4.566130
  C     -7.292850   -3.830580   -5.064070
  N     -7.288590   -4.915190   -5.441660
  C     -6.094120   -2.276190   -3.798320
  N     -5.102950   -2.128500   -3.237520
  C     -9.287260   -1.697670   -5.819660
  C     -9.878210   -0.424280   -6.015670
  C    -10.937840   -0.223180   -6.865030
  C    -11.445990   -1.334760   -7.547070
  C    -10.853080   -2.601900   -7.340810
  C     -9.774100   -2.803870   -6.487090
  S    -11.642550   -3.836530   -8.274400
  C    -12.743570   -2.648870   -8.920430
  C    -12.532410   -1.392370   -8.463020
  Br   -14.069330   -3.180030  -10.136680
  C     -9.182560    0.565050   -5.169570
  O     -9.403620    1.764710   -5.127170
  C     -8.206640   -0.193120   -4.388620
  C     -7.560620    0.248360   -3.253040
  C     -7.498510    1.524360   -2.701500
  S     -7.994990    2.989000   -3.500080
  C     -7.443990    3.991900   -2.190050
  C     -6.817090    3.213080   -1.177680
  C     -6.907960    1.821380   -1.440730
  C     -6.424780    0.915090   -0.466890
  C     -6.678250   -0.474830   -0.500130
  N     -6.922630   -1.593700   -0.423390
  C     -5.733930    1.402800    0.633280
  C     -5.505640    2.769090    0.783500
  C     -6.057480    3.672320   -0.093770
  C     -7.770670    5.348690   -2.237770
  C     -8.071260    6.205260   -1.191770
  C     -8.507460    7.541100   -1.332790
  C     -8.984560    8.105580   -0.179690
  C     -8.945330    7.241570    0.925510
  S     -8.239150    5.707580    0.478600
  C     -9.430110    7.402860    2.220120
  C    -10.190610    8.436490    2.788990
  C    -10.615650    8.147120    4.058390
  C    -10.214190    6.879930    4.540850
  S     -9.163070    6.120210    3.373850
  C    -10.741780    6.279160    5.671610
  C    -10.615500    4.962970    6.130280
  C     -9.635260    4.021350    5.711030
  C     -9.717860    2.612410    6.024160
  N     -8.768220    1.793270    5.547260
  C     -7.761250    2.276810    4.858400
  C     -7.643230    3.675060    4.615300
  N     -8.593900    4.488430    5.031840
  C     -6.530450    4.212770    3.934770
  N     -5.606720    4.614750    3.385970
  C     -6.786600    1.394740    4.332070
  N     -5.982600    0.723680    3.866180
  C    -10.771210    2.075430    6.808440
  C    -11.626040    3.045270    7.401370
  C    -11.547030    4.449950    7.076460
  N    -12.462880    5.168100    7.713170
  S    -13.337780    4.191740    8.650450
  N    -12.604720    2.809250    8.273990
  C    -10.997870    0.673460    6.957140
  C    -10.342760   -0.374250    6.231840
  C    -10.891580   -1.591700    6.602740
  C    -10.617610   -2.899190    6.167300
  C    -11.369500   -3.916070    6.704960
  C    -11.366520   -5.319340    6.477120
  C    -12.347440   -5.907660    7.268740
  C    -12.984330   -4.878630    8.016630
  C    -12.404870   -3.653440    7.689880
  C    -12.672750   -2.352290    8.129990
  C    -11.922580   -1.326490    7.588780
  C    -11.959840    0.073300    7.783240
  C    -12.644690   -7.319270    7.296400
  C    -13.589020   -7.896970    8.034610
  H    -11.365800    0.758110   -6.997850
  H     -9.357610   -3.789070   -6.358990
  H    -13.117900   -0.540260   -8.756610
  H     -7.050750   -0.511190   -2.674710
  H     -5.367700    0.710910    1.376710
  H     -4.915860    3.120310    1.614820
  H     -5.882350    4.727080    0.037950
  H     -7.971260    5.743960   -3.227090
  H     -8.475530    8.043360   -2.283520
  H     -9.369520    9.107110   -0.109100
  H    -10.435670    9.340120    2.259300
  H    -11.242040    8.795440    4.646130
  H    -11.463660    6.872740    6.220600
  H     -9.563750   -0.231180    5.508950
  H     -9.846600   -3.084830    5.433230
  H    -10.712010   -5.834430    5.797790
  H    -13.784410   -5.021900    8.719330
  H    -13.447280   -2.161400    8.859310
  H    -12.615350    0.596980    8.451500
  H    -12.028020   -7.926530    6.645670
  H    -14.227660   -7.335180    8.694450
  H    -13.756260   -8.959380    8.001790

 Total Charge           Charge          ....    0
 Multiplicity           Mult            ....    1
 Number of Electrons    NEL             ....  556
 Basis Dimension        Dim             .... 1184

ORBITAL ENERGIES
----------------

  NO   OCC          E(Eh)            E(eV)
   0   2.0000    -482.879028    -13139.8064
   1   2.0000     -89.037220     -2422.8259
   2   2.0000     -88.973105     -2421.0813
   3   2.0000     -88.967352     -2420.9247
   4   2.0000     -88.963094     -2420.8089
   5   2.0000     -88.961773     -2420.7729
   6   2.0000     -62.556759     -1702.2559
   7   2.0000     -56.390699     -1534.4689
   8   2.0000     -56.388000     -1534.3955
   9   2.0000     -56.387963     -1534.3945
  10   2.0000     -19.210692      -522.7495
  11   2.0000     -14.462822      -393.5534
  12   2.0000     -14.455612      -393.3572
  13   2.0000     -14.450627      -393.2215
  14   2.0000     -14.449057      -393.1788
  15   2.0000     -14.433374      -392.7521
  16   2.0000     -14.430455      -392.6726
  17   2.0000     -14.400297      -391.8520
  18   2.0000     -14.396759      -391.7557
  19   2.0000     -14.396274      -391.7425
  20   2.0000     -10.377716      -282.3920
  21   2.0000     -10.373153      -282.2679
  22   2.0000     -10.358902      -281.8801
  23   2.0000     -10.350640      -281.6552
  24   2.0000     -10.346271      -281.5363
  25   2.0000     -10.343141      -281.4512
  26   2.0000     -10.338953      -281.3372
  27   2.0000     -10.338335      -281.3204
  28   2.0000     -10.330343      -281.1029
  29   2.0000     -10.329039      -281.0674
  30   2.0000     -10.327717      -281.0315
  31   2.0000     -10.327023      -281.0126
  32   2.0000     -10.325823      -280.9799
  33   2.0000     -10.325304      -280.9658
  34   2.0000     -10.325063      -280.9592
  35   2.0000     -10.323100      -280.9058
  36   2.0000     -10.318347      -280.7765
  37   2.0000     -10.316274      -280.7201
  38   2.0000     -10.313755      -280.6515
  39   2.0000     -10.310542      -280.5641
  40   2.0000     -10.310521      -280.5635
  41   2.0000     -10.310179      -280.5542
  42   2.0000     -10.307746      -280.4880
  43   2.0000     -10.307391      -280.4784
  44   2.0000     -10.306156      -280.4448
  45   2.0000     -10.305206      -280.4189
  46   2.0000     -10.305156      -280.4175
  47   2.0000     -10.303581      -280.3747
  48   2.0000     -10.303224      -280.3650
  49   2.0000     -10.302973      -280.3582
  50   2.0000     -10.300841      -280.3001
  51   2.0000     -10.299763      -280.2708
  52   2.0000     -10.299008      -280.2503
  53   2.0000     -10.298752      -280.2433
  54   2.0000     -10.298062      -280.2245
  55   2.0000     -10.297162      -280.2000
  56   2.0000     -10.296723      -280.1881
  57   2.0000     -10.296323      -280.1772
  58   2.0000     -10.294706      -280.1332
  59   2.0000     -10.292251      -280.0664
  60   2.0000     -10.290354      -280.0148
  61   2.0000     -10.289193      -279.9832
  62   2.0000     -10.288674      -279.9690
  63   2.0000     -10.287473      -279.9364
  64   2.0000     -10.282769      -279.8084
  65   2.0000     -10.282697      -279.8064
  66   2.0000     -10.282664      -279.8055
  67   2.0000     -10.281112      -279.7633
  68   2.0000     -10.279652      -279.7235
  69   2.0000     -10.278143      -279.6825
  70   2.0000     -10.275756      -279.6175
  71   2.0000     -10.270425      -279.4725
  72   2.0000     -10.269566      -279.4491
  73   2.0000     -10.268830      -279.4291
  74   2.0000     -10.267209      -279.3850
  75   2.0000     -10.266761      -279.3728
  76   2.0000     -10.264096      -279.3003
  77   2.0000     -10.258602      -279.1508
  78   2.0000      -8.786199      -239.0846
  79   2.0000      -8.128740      -221.1943
  80   2.0000      -8.066457      -219.4995
  81   2.0000      -8.063335      -219.4145
  82   2.0000      -8.059047      -219.2978
  83   2.0000      -8.055805      -219.2096
  84   2.0000      -6.622477      -180.2068
  85   2.0000      -6.607942      -179.8113
  86   2.0000      -6.607759      -179.8063
  87   2.0000      -6.099992      -165.9892
  88   2.0000      -6.092197      -165.7771
  89   2.0000      -6.091164      -165.7490
  90   2.0000      -6.035610      -164.2373
  91   2.0000      -6.033045      -164.1675
  92   2.0000      -6.031023      -164.1125
  93   2.0000      -6.029268      -164.0647
  94   2.0000      -6.028799      -164.0520
  95   2.0000      -6.028733      -164.0502
  96   2.0000      -6.025650      -163.9663
  97   2.0000      -6.024562      -163.9367
  98   2.0000      -6.024468      -163.9341
  99   2.0000      -6.021116      -163.8429
 100   2.0000      -6.020138      -163.8163
 101   2.0000      -6.017157      -163.7352
 102   2.0000      -2.738303       -74.5130
 103   2.0000      -2.734252       -74.4028
 104   2.0000      -2.734193       -74.4012
 105   2.0000      -2.722602       -74.0858
 106   2.0000      -2.722569       -74.0849
 107   2.0000      -1.136464       -30.9248
 108   2.0000      -1.125014       -30.6132
 109   2.0000      -1.118974       -30.4488
 110   2.0000      -1.045974       -28.4624
 111   2.0000      -1.016476       -27.6597
 112   2.0000      -1.014841       -27.6152
 113   2.0000      -1.012521       -27.5521
 114   2.0000      -1.008691       -27.4479
 115   2.0000      -1.006504       -27.3884
 116   2.0000      -0.998897       -27.1814
 117   2.0000      -0.994564       -27.0635
 118   2.0000      -0.990742       -26.9595
 119   2.0000      -0.987602       -26.8740
 120   2.0000      -0.981802       -26.7162
 121   2.0000      -0.978471       -26.6256
 122   2.0000      -0.975798       -26.5528
 123   2.0000      -0.974418       -26.5153
 124   2.0000      -0.959476       -26.1087
 125   2.0000      -0.943566       -25.6757
 126   2.0000      -0.933492       -25.4016
 127   2.0000      -0.917646       -24.9704
 128   2.0000      -0.908866       -24.7315
 129   2.0000      -0.906308       -24.6619
 130   2.0000      -0.897810       -24.4307
 131   2.0000      -0.894401       -24.3379
 132   2.0000      -0.883623       -24.0446
 133   2.0000      -0.876531       -23.8516
 134   2.0000      -0.874485       -23.7960
 135   2.0000      -0.866922       -23.5901
 136   2.0000      -0.862736       -23.4762
 137   2.0000      -0.859260       -23.3817
 138   2.0000      -0.850651       -23.1474
 139   2.0000      -0.846144       -23.0248
 140   2.0000      -0.843103       -22.9420
 141   2.0000      -0.835543       -22.7363
 142   2.0000      -0.829883       -22.5823
 143   2.0000      -0.819904       -22.3107
 144   2.0000      -0.816131       -22.2081
 145   2.0000      -0.803747       -21.8711
 146   2.0000      -0.798493       -21.7281
 147   2.0000      -0.792561       -21.5667
 148   2.0000      -0.777029       -21.1440
 149   2.0000      -0.758289       -20.6341
 150   2.0000      -0.751083       -20.4380
 151   2.0000      -0.747976       -20.3535
 152   2.0000      -0.743675       -20.2364
 153   2.0000      -0.735343       -20.0097
 154   2.0000      -0.731831       -19.9141
 155   2.0000      -0.720900       -19.6167
 156   2.0000      -0.707164       -19.2429
 157   2.0000      -0.701831       -19.0978
 158   2.0000      -0.696683       -18.9577
 159   2.0000      -0.691782       -18.8243
 160   2.0000      -0.684410       -18.6237
 161   2.0000      -0.681752       -18.5514
 162   2.0000      -0.678972       -18.4758
 163   2.0000      -0.672714       -18.3055
 164   2.0000      -0.669424       -18.2160
 165   2.0000      -0.660283       -17.9672
 166   2.0000      -0.655497       -17.8370
 167   2.0000      -0.648053       -17.6344
 168   2.0000      -0.646149       -17.5826
 169   2.0000      -0.641425       -17.4541
 170   2.0000      -0.636618       -17.3233
 171   2.0000      -0.632385       -17.2081
 172   2.0000      -0.626576       -17.0500
 173   2.0000      -0.623483       -16.9658
 174   2.0000      -0.615947       -16.7608
 175   2.0000      -0.613808       -16.7026
 176   2.0000      -0.611751       -16.6466
 177   2.0000      -0.602630       -16.3984
 178   2.0000      -0.594371       -16.1736
 179   2.0000      -0.592784       -16.1305
 180   2.0000      -0.583843       -15.8872
 181   2.0000      -0.581905       -15.8344
 182   2.0000      -0.580484       -15.7958
 183   2.0000      -0.579203       -15.7609
 184   2.0000      -0.576159       -15.6781
 185   2.0000      -0.567522       -15.4431
 186   2.0000      -0.563756       -15.3406
 187   2.0000      -0.556404       -15.1405
 188   2.0000      -0.554310       -15.0835
 189   2.0000      -0.553062       -15.0496
 190   2.0000      -0.544144       -14.8069
 191   2.0000      -0.539036       -14.6679
 192   2.0000      -0.538282       -14.6474
 193   2.0000      -0.534727       -14.5507
 194   2.0000      -0.531965       -14.4755
 195   2.0000      -0.530999       -14.4492
 196   2.0000      -0.526184       -14.3182
 197   2.0000      -0.524472       -14.2716
 198   2.0000      -0.518308       -14.1039
 199   2.0000      -0.515121       -14.0172
 200   2.0000      -0.513413       -13.9707
 201   2.0000      -0.511561       -13.9203
 202   2.0000      -0.509587       -13.8666
 203   2.0000      -0.506432       -13.7807
 204   2.0000      -0.503145       -13.6913
 205   2.0000      -0.502273       -13.6676
 206   2.0000      -0.499593       -13.5946
 207   2.0000      -0.498489       -13.5646
 208   2.0000      -0.497794       -13.5457
 209   2.0000      -0.492081       -13.3902
 210   2.0000      -0.489447       -13.3185
 211   2.0000      -0.487427       -13.2636
 212   2.0000      -0.484530       -13.1847
 213   2.0000      -0.483617       -13.1599
 214   2.0000      -0.480748       -13.0818
 215   2.0000      -0.479115       -13.0374
 216   2.0000      -0.478109       -13.0100
 217   2.0000      -0.476312       -12.9611
 218   2.0000      -0.473212       -12.8768
 219   2.0000      -0.468400       -12.7458
 220   2.0000      -0.465985       -12.6801
 221   2.0000      -0.465472       -12.6661
 222   2.0000      -0.461703       -12.5636
 223   2.0000      -0.460635       -12.5345
 224   2.0000      -0.458176       -12.4676
 225   2.0000      -0.456065       -12.4102
 226   2.0000      -0.453416       -12.3381
 227   2.0000      -0.450103       -12.2479
 228   2.0000      -0.449874       -12.2417
 229   2.0000      -0.445943       -12.1347
 230   2.0000      -0.443969       -12.0810
 231   2.0000      -0.443248       -12.0614
 232   2.0000      -0.442532       -12.0419
 233   2.0000      -0.438986       -11.9454
 234   2.0000      -0.438569       -11.9341
 235   2.0000      -0.434100       -11.8125
 236   2.0000      -0.433102       -11.7853
 237   2.0000      -0.430660       -11.7188
 238   2.0000      -0.428660       -11.6644
 239   2.0000      -0.426470       -11.6048
 240   2.0000      -0.425936       -11.5903
 241   2.0000      -0.422480       -11.4963
 242   2.0000      -0.421320       -11.4647
 243   2.0000      -0.417197       -11.3525
 244   2.0000      -0.416708       -11.3392
 245   2.0000      -0.413673       -11.2566
 246   2.0000      -0.411558       -11.1991
 247   2.0000      -0.411150       -11.1880
 248   2.0000      -0.408938       -11.1278
 249   2.0000      -0.407898       -11.0995
 250   2.0000      -0.403305       -10.9745
 251   2.0000      -0.397690       -10.8217
 252   2.0000      -0.395387       -10.7590
 253   2.0000      -0.390168       -10.6170
 254   2.0000      -0.383813       -10.4441
 255   2.0000      -0.381611       -10.3842
 256   2.0000      -0.380115       -10.3434
 257   2.0000      -0.376778       -10.2527
 258   2.0000      -0.376422       -10.2430
 259   2.0000      -0.369269       -10.0483
 260   2.0000      -0.368700       -10.0328
 261   2.0000      -0.357871        -9.7382
 262   2.0000      -0.352607        -9.5949
 263   2.0000      -0.348316        -9.4782
 264   2.0000      -0.346104        -9.4180
 265   2.0000      -0.345838        -9.4107
 266   2.0000      -0.334444        -9.1007
 267   2.0000      -0.332740        -9.0543
 268   2.0000      -0.324972        -8.8429
 269   2.0000      -0.320417        -8.7190
 270   2.0000      -0.316294        -8.6068
 271   2.0000      -0.306851        -8.3498
 272   2.0000      -0.294622        -8.0171
 273   2.0000      -0.283756        -7.7214
 274   2.0000      -0.269127        -7.3233
 275   2.0000      -0.267313        -7.2740
 276   2.0000      -0.245223        -6.6729
 277   2.0000      -0.211685        -5.7603
 278   0.0000      -0.132312        -3.6004
 279   0.0000      -0.098882        -2.6907
 280   0.0000      -0.095332        -2.5941
 281   0.0000      -0.066372        -1.8061
 282   0.0000      -0.053983        -1.4690

MULLIKEN ATOMIC CHARGES
-----------------------
   0 C :    0.291402
   1 C :   -0.331580
   2 C :   -0.182789
   3 N :    0.139064
   4 C :   -0.201295
   5 N :    0.160205
   6 C :    0.016637
   7 C :   -0.010143
   8 C :   -0.073518
   9 C :    0.114997
  10 C :   -0.090538
  11 C :   -0.021936
  12 S :    0.182708
  13 C :   -0.124816
  14 C :    0.038427
  15 Br:    0.016025
  16 C :    0.154679
  17 O :   -0.190300
  18 C :   -0.105231
  19 C :   -0.042299
  20 C :   -0.115901
  21 S :    0.237313
  22 C :   -0.110432
  23 C :    0.069054
  24 C :    0.181726
  25 C :   -0.120890
  26 C :   -0.186334
  27 N :    0.106269
  28 C :    0.040370
  29 C :    0.011206
  30 C :   -0.004158
  31 C :    0.005383
  32 C :   -0.031114
  33 C :    0.032580
  34 C :    0.038127
  35 C :   -0.042732
  36 S :    0.100806
  37 C :   -0.025211
  38 C :    0.036960
  39 C :    0.026597
  40 C :    0.011044
  41 S :    0.098698
  42 C :   -0.079937
  43 C :    0.096387
  44 C :   -0.043679
  45 C :   -0.062984
  46 N :    0.031899
  47 C :   -0.112803
  48 C :   -0.117980
  49 N :   -0.037433
  50 C :   -0.193227
  51 N :    0.218646
  52 C :   -0.211637
  53 N :    0.218112
  54 C :    0.216802
  55 C :   -0.022711
  56 C :   -0.003919
  57 N :   -0.274319
  58 S :    0.521452
  59 N :   -0.294741
  60 C :   -0.088734
  61 C :   -0.017306
  62 C :    0.062411
  63 C :    0.006578
  64 C :    0.054832
  65 C :   -0.021755
  66 C :    0.058661
  67 C :   -0.018659
  68 C :    0.044417
  69 C :    0.005014
  70 C :    0.069107
  71 C :   -0.022604
  72 C :    0.011570
  73 C :   -0.024654
  74 H :   -0.015362
  75 H :   -0.006988
  76 H :   -0.007171
  77 H :    0.026105
  78 H :    0.015160
  79 H :    0.015214
  80 H :    0.003556
  81 H :    0.004328
  82 H :   -0.000670
  83 H :   -0.005858
  84 H :   -0.011618
  85 H :   -0.002755
  86 H :    0.001663
  87 H :   -0.006939
  88 H :   -0.013292
  89 H :   -0.018925
  90 H :   -0.022732
  91 H :   -0.022238
  92 H :   -0.011150
  93 H :   -0.016133
  94 H :    0.007198
  95 H :    0.022741
Sum of atomic charges:   -0.0000000

LOEWDIN ATOMIC CHARGES
----------------------
   0 C :    0.072241
   1 C :   -0.140518
   2 C :   -0.016794
   3 N :   -0.061078
   4 C :   -0.024824
   5 N :   -0.048607
   6 C :   -0.015979
   7 C :   -0.049691
   8 C :    0.018107
   9 C :   -0.036485
  10 C :   -0.144553
  11 C :   -0.011765
  12 S :    0.430176
  13 C :   -0.274676
  14 C :   -0.071052
  15 Br:    0.130977
  16 C :    0.081100
  17 O :   -0.179128
  18 C :   -0.111300
  19 C :    0.046511
  20 C :   -0.192569
  21 S :    0.555367
  22 C :   -0.152835
  23 C :   -0.059529
  24 C :   -0.001234
  25 C :   -0.071523
  26 C :   -0.029203
  27 N :   -0.054438
  28 C :    0.038492
  29 C :   -0.019836
  30 C :    0.002724
  31 C :   -0.072688
  32 C :   -0.139769
  33 C :   -0.025376
  34 C :   -0.027793
  35 C :   -0.166000
  36 S :    0.422841
  37 C :   -0.183576
  38 C :   -0.031594
  39 C :   -0.025404
  40 C :   -0.135255
  41 S :    0.450491
  42 C :   -0.027661
  43 C :   -0.045806
  44 C :   -0.006622
  45 C :   -0.011366
  46 N :    0.001081
  47 C :   -0.032568
  48 C :   -0.047203
  49 N :   -0.024091
  50 C :   -0.032206
  51 N :   -0.025714
  52 C :   -0.024325
  53 N :   -0.018664
  54 C :   -0.020662
  55 C :   -0.039968
  56 C :   -0.040330
  57 N :   -0.281515
  58 S :    0.648903
  59 N :   -0.278554
  60 C :   -0.065202
  61 C :    0.056282
  62 C :   -0.070615
  63 C :    0.084469
  64 C :   -0.062796
  65 C :    0.026481
  66 C :   -0.059617
  67 C :    0.047483
  68 C :   -0.065110
  69 C :    0.084607
  70 C :   -0.066825
  71 C :    0.045930
  72 C :   -0.021273
  73 C :   -0.052023
  74 H :    0.038793
  75 H :    0.040913
  76 H :    0.037350
  77 H :    0.053098
  78 H :    0.043872
  79 H :    0.035968
  80 H :    0.028001
  81 H :    0.039139
  82 H :    0.037096
  83 H :    0.035756
  84 H :    0.032272
  85 H :    0.035915
  86 H :    0.042962
  87 H :    0.025195
  88 H :    0.039757
  89 H :    0.027387
  90 H :    0.025458
  91 H :    0.035993
  92 H :    0.023539
  93 H :    0.030278
  94 H :    0.017549
  95 H :    0.025233

  Mayer bond orders larger than 0.100000
B(  0-C ,  1-C ) :   1.6304 B(  0-C ,  6-C ) :   0.9979 B(  0-C , 18-C ) :   1.0834
B(  1-C ,  2-C ) :   1.1441 B(  1-C ,  4-C ) :   1.1433 B(  2-C ,  3-N ) :   2.9687
B(  4-C ,  5-N ) :   2.9949 B(  6-C ,  7-C ) :   1.2762 B(  6-C , 11-C ) :   1.4238
B(  7-C ,  8-C ) :   1.4282 B(  7-C , 16-C ) :   0.9545 B(  8-C ,  9-C ) :   1.2415
B(  8-C , 74-H ) :   1.0164 B(  9-C , 10-C ) :   1.3153 B(  9-C , 14-C ) :   1.1607
B( 10-C , 11-C ) :   1.3176 B( 10-C , 12-S ) :   1.0845 B( 11-C , 75-H ) :   0.9820
B( 12-S , 13-C ) :   1.0863 B( 13-C , 14-C ) :   1.6205 B( 13-C , 15-Br) :   1.0137
B( 14-C , 76-H ) :   1.0001 B( 16-C , 17-O ) :   2.1241 B( 16-C , 18-C ) :   0.9914
B( 18-C , 19-C ) :   1.4797 B( 19-C , 20-C ) :   1.3287 B( 19-C , 77-H ) :   0.9268
B( 20-C , 21-S ) :   1.1036 B( 20-C , 24-C ) :   1.2289 B( 21-S , 22-C ) :   1.1732
B( 22-C , 23-C ) :   1.1989 B( 22-C , 31-C ) :   1.2305 B( 23-C , 24-C ) :   1.2578
B( 23-C , 30-C ) :   1.2398 B( 24-C , 25-C ) :   1.2452 B( 25-C , 26-C ) :   1.0803
B( 25-C , 28-C ) :   1.4949 B( 26-C , 27-N ) :   2.9866 B( 28-C , 29-C ) :   1.2568
B( 28-C , 78-H ) :   0.9883 B( 29-C , 30-C ) :   1.4874 B( 29-C , 79-H ) :   0.9775
B( 30-C , 80-H ) :   0.9867 B( 31-C , 32-C ) :   1.5208 B( 31-C , 81-H ) :   0.9469
B( 32-C , 33-C ) :   1.1827 B( 32-C , 36-S ) :   1.0605 B( 33-C , 34-C ) :   1.5395
B( 33-C , 82-H ) :   0.9987 B( 34-C , 35-C ) :   1.2298 B( 34-C , 83-H ) :   0.9956
B( 35-C , 36-S ) :   1.0677 B( 35-C , 37-C ) :   1.4252 B( 37-C , 38-C ) :   1.2296
B( 37-C , 41-S ) :   1.0406 B( 38-C , 39-C ) :   1.5328 B( 38-C , 84-H ) :   0.9947
B( 39-C , 40-C ) :   1.1941 B( 39-C , 85-H ) :   0.9998 B( 40-C , 41-S ) :   1.0706
B( 40-C , 42-C ) :   1.4321 B( 42-C , 43-C ) :   1.3138 B( 42-C , 86-H ) :   0.9525
B( 43-C , 44-C ) :   1.1726 B( 43-C , 54-C ) :   0.1039 B( 43-C , 56-C ) :   1.1420
B( 44-C , 45-C ) :   1.0904 B( 44-C , 49-N ) :   1.4304 B( 45-C , 46-N ) :   1.4334
B( 45-C , 54-C ) :   1.2558 B( 46-N , 47-C ) :   1.7138 B( 47-C , 48-C ) :   1.2386
B( 47-C , 52-C ) :   1.1560 B( 48-C , 49-N ) :   1.5928 B( 48-C , 50-C ) :   1.1712
B( 50-C , 51-N ) :   2.9655 B( 52-C , 53-N ) :   3.0010 B( 54-C , 55-C ) :   1.1794
B( 54-C , 60-C ) :   1.1114 B( 55-C , 56-C ) :   1.1107 B( 55-C , 59-N ) :   1.5301
B( 56-C , 57-N ) :   1.5733 B( 57-N , 58-S ) :   1.2557 B( 57-N , 59-N ) :   0.1422
B( 58-S , 59-N ) :   1.2572 B( 60-C , 61-C ) :   1.1727 B( 60-C , 71-C ) :   1.4034
B( 61-C , 62-C ) :   1.3639 B( 61-C , 87-H ) :   1.0062 B( 62-C , 63-C ) :   1.1571
B( 62-C , 70-C ) :   1.1315 B( 63-C , 64-C ) :   1.4096 B( 63-C , 88-H ) :   1.0077
B( 64-C , 65-C ) :   1.1315 B( 64-C , 68-C ) :   1.1269 B( 65-C , 66-C ) :   1.4391
B( 65-C , 89-H ) :   1.0171 B( 66-C , 67-C ) :   1.2042 B( 66-C , 72-C ) :   1.0828
B( 67-C , 68-C ) :   1.3636 B( 67-C , 90-H ) :   1.0094 B( 68-C , 69-C ) :   1.1904
B( 69-C , 70-C ) :   1.3620 B( 69-C , 91-H ) :   1.0056 B( 70-C , 71-C ) :   1.1331
B( 71-C , 92-H ) :   1.0005 B( 72-C , 73-C ) :   1.9370 B( 72-C , 93-H ) :   0.9666
B( 73-C , 94-H ) :   0.9529 B( 73-C , 95-H ) :   0.9491

-----------------------------------------------------------------------------
         ABSORPTION SPECTRUM VIA TRANSITION ELECTRIC DIPOLE MOMENTS
-----------------------------------------------------------------------------
State   Energy  Wavelength   fosc         T2         TX        TY        TZ
        (cm-1)    (nm)                  (au**2)     (au)      (au)      (au)
-----------------------------------------------------------------------------
   0    3424.2   2920.4   0.177492567  17.06441  -1.10203  -1.31662   3.75719
   1    7335.7   1363.2   0.005720930   0.25674   0.02476  -0.33015  -0.38357
   2   10890.7    918.2   0.101760110   3.07608   0.33887  -0.55705  -1.62817
   3   11820.5    846.0   0.790363953  22.01231  -0.22024   3.98820   2.46131
   4   15412.6    648.8   0.040808734   0.87167  -0.05725  -0.91989  -0.14896
   5   16365.3    611.0   0.000665262   0.01338  -0.00557  -0.10731   0.04285
   6   16838.4    593.9   0.115715384   2.26238  -0.40339  -1.44721   0.07241
   7   17808.2    561.5   0.142932949   2.64233   0.42978  -1.48442  -0.50409
   8   19670.1    508.4   0.390208957   6.53078   0.58269   2.48737  -0.06530
   9   20067.9    498.3   0.234814461   3.85210  -1.11152  -1.46095   0.69445
  10   20937.0    477.6   0.025040228   0.39373   0.28476  -0.18686  -0.52700
  11   21444.1    466.3   0.048662453   0.74707  -0.07662  -0.75390   0.41573
  12   22661.6    441.3   0.031357294   0.45554  -0.28044  -0.55506  -0.26229
  13   22965.7    435.4   0.066940100   0.95958  -0.42029   0.87615  -0.12373
  14   23431.5    426.8   0.169019343   2.37472   0.83854   1.29241  -0.03545
  15   23658.1    422.7   0.167778890   2.33471   0.07293  -0.79485   1.30292
  16   23905.9    418.3   0.020875018   0.28747  -0.05041  -0.11643  -0.52094
  17   24296.2    411.6   0.032734006   0.44354  -0.23797  -0.62153  -0.02483
  18   24744.0    404.1   0.146306355   1.94656   0.85762   0.82937  -0.72332
  19   25100.0    398.4   0.027413425   0.35955   0.21070   0.52008   0.21137
  20   25795.3    387.7   0.043337413   0.55309  -0.67408  -0.09501  -0.29948
  21   26194.8    381.8   0.007712305   0.09693   0.06979  -0.30341  -0.00050
  22   26451.2    378.1   0.027154620   0.33797   0.20517   0.51192   0.18388
  23   26913.5    371.6   0.107050156   1.30946  -0.20419  -0.93104  -0.63319
  24   27475.6    364.0   0.148314883   1.77711  -0.12578  -1.27119   0.38125
  25   27783.6    359.9   0.092199936   1.09249   0.24364   0.12691   1.00848
  26   28230.2    354.2   0.243821932   2.84337   0.25467   1.66221  -0.12476
  27   28624.4    349.4   0.167555944   1.92708  -0.41834  -1.29361   0.28043
  28   29055.5    344.2   0.014657467   0.16608  -0.39874   0.04508   0.07109
  29   29330.0    340.9   0.038279027   0.42966  -0.36784  -0.09434   0.53428
  30   29529.0    338.6   0.028047133   0.31269   0.08530   0.01601  -0.55241
  31   29675.3    337.0   0.060984887   0.67655  -0.50498   0.00049  -0.64927
  32   30030.3    333.0   0.288677003   3.16467   1.24971  -1.21084   0.36983
  33   30419.0    328.7   0.060798725   0.65800   0.38863  -0.14434   0.69723
  34   30775.5    324.9   0.316239930   3.38289  -1.50125  -1.00585   0.34263
  35   31111.9    321.4   0.201402851   2.13115   0.63366  -0.86773  -0.98827
  36   31455.0    317.9   0.074675432   0.78156  -0.67648  -0.11244   0.55794
  37   31565.6    316.8   0.254345980   2.65269   0.63614  -0.75949   1.29274
  38   31769.8    314.8   0.116643482   1.20871  -0.80134  -0.68014  -0.32245
  39   31972.2    312.8   0.218629582   2.25119  -0.43489  -1.43591   0.01523
  40   32139.4    311.1   0.027249537   0.27912  -0.02388  -0.52776  -0.00493
  41   32417.0    308.5   0.134625956   1.36720   1.12626   0.27458  -0.15278
  42   32621.1    306.6   0.060129786   0.60683  -0.58177  -0.13739   0.49949
  43   32848.1    304.4   0.041183255   0.41275   0.21560  -0.49794  -0.34398
  44   32934.9    303.6   0.035456000   0.35441   0.01006  -0.35203  -0.47998
  45   33161.3    301.6   0.026262343   0.26072  -0.37235   0.16477   0.30810
  46   33269.6    300.6   0.015629157   0.15465  -0.09467  -0.38163  -0.00721
  47   33413.3    299.3   0.025616036   0.25239  -0.34130  -0.29152  -0.22566
  48   33507.5    298.4   0.028776875   0.28273   0.25678  -0.07811  -0.45901
  49   33881.2    295.1   0.031427702   0.30537   0.18148  -0.02999  -0.52109
  50   34196.6    292.4   0.068051375   0.65513  -0.33028  -0.71563  -0.18420
  51   34295.5    291.6   0.095833372   0.91993  -0.19020  -0.65270  -0.67657
  52   34579.7    289.2   0.214178482   2.03906  -1.05358   0.07597  -0.96086
  53   34690.4    288.3   0.318707626   3.02453   1.33591  -0.92190   0.62449
  54   35403.1    282.5   0.038784834   0.36066  -0.00493  -0.51165  -0.31440
  55   35899.1    278.6   0.072827881   0.66787  -0.05593   0.79578   0.17743
  56   35999.2    277.8   0.018069805   0.16525  -0.00057  -0.14444   0.37998
  57   36162.9    276.5   0.013411293   0.12209  -0.10275  -0.04354   0.33112
  58   36296.4    275.5   0.051958324   0.47127   0.45845  -0.49949   0.10770
  59   36407.7    274.7   0.121087643   1.09492  -0.42805   0.27812   0.91342
  60   36790.8    271.8   0.042588010   0.38109   0.48435   0.34811  -0.15908
  61   37003.3    270.2   0.077325304   0.68795   0.81410   0.13119  -0.08937
  62   37076.0    269.7   0.021105711   0.18741  -0.37435  -0.18373   0.11623
  63   37301.2    268.1   0.000380068   0.00335   0.02016   0.04925  -0.02285
  64   37340.5    267.8   0.063606529   0.56079  -0.72276   0.05680   0.18756
  65   37733.2    265.0   0.009397205   0.08199   0.18153  -0.14699  -0.16561
  66   37793.3    264.6   0.117345545   1.02218  -0.15946  -0.29555   0.95363
  67   38143.6    262.2   0.009142928   0.07891  -0.15251  -0.17189   0.16157
  68   38214.5    261.7   0.113730738   0.97977   0.07038  -0.98428  -0.07760
  69   38313.0    261.0   0.039401023   0.33856   0.15110  -0.55617   0.08001
  70   38411.4    260.3   0.063011807   0.54005   0.15756  -0.69969  -0.16019
  71   38530.7    259.5   0.178132058   1.52199  -0.20978   1.04138   0.62730
  72   38599.9    259.1   0.095000831   0.81025   0.73493   0.16521  -0.49278
  73   38818.2    257.6   0.007116967   0.06036   0.07308  -0.07588  -0.22194
  74   38900.9    257.1   0.000808419   0.00684   0.05238   0.06076  -0.02014
  75   38937.5    256.8   0.012383309   0.10470  -0.14844  -0.20013  -0.20643
  76   39123.5    255.6   0.013318031   0.11207  -0.25848   0.10623   0.18431
  77   39192.9    255.1   0.078243390   0.65723   0.01470   0.80877  -0.05389
  78   39247.0    254.8   0.013065574   0.10960   0.00573  -0.23827  -0.22977
  79   39486.8    253.2   0.006372445   0.05313   0.09815  -0.17730  -0.10982
  80   39550.3    252.8   0.017456847   0.14531  -0.35238  -0.12694  -0.07086
  81   39841.9    251.0   0.079421143   0.65625  -0.01554   0.36380   0.72365
  82   39976.2    250.1   0.165541438   1.36327   0.82238  -0.34782  -0.75232
  83   40163.9    249.0   0.110040771   0.90197  -0.49681   0.80823  -0.04389
  84   40258.3    248.4   0.081327947   0.66506   0.58338   0.56700  -0.05697

FINAL SINGLE POINT ENERGY     -7351.930082439799

DIPOLE MOMENT
-------------
                                X             Y             Z
Electronic contribution:    -33.88921     -25.50571    -135.96938
Nuclear contribution   :     29.91593      29.84441     138.10851
                        -----------------------------------------
Total Dipole Moment    :     -3.97328       4.33870       2.13913
                        -----------------------------------------
Magnitude (a.u.)       :      6.25996
Magnitude (Debye)      :     15.91156

Rotational constants in cm-1:     0.000759     0.000360     0.000290
Rotational constants in MHz :    22.748798    10.802764     8.686534

                             ****ORCA TERMINATED NORMALLY****
TOTAL RUN TIME: 0 days 0 hours 16 minutes 32 seconds 39 msec
