                         Program Version 4.2.0 -  RELEASE  -
|  1> # ORCA input file
|  2> # SCF done       -176.749943852611          0.000987318169
|  3> ! CAM-B3LYP def2-SVP def2/J RIJCOSX Grid4 TightSCF
|  4> %maxcore 5000
|  5> %tddft
|  6>     Mode sTDDFT
|  7>     Ethresh 5.0
|  8>     maxcore 5000
|  9> end
| 10>
| 11> %pal
| 12>   nprocs 6
| 13>   end
| 14> * xyz 0 1
| 15>    C       -5.06504        -3.20358        -0.70355
| 16>    C       -4.28848        -3.47976         0.35193
| 17>    C       -4.44307        -3.01607         1.70240
| 18>    C       -3.49938        -3.46025         2.55960
| 19>    C       -2.51850        -4.30582         1.96693
| 20>    S       -2.85844        -4.51974         0.25758
| 21>    C       -1.43936        -4.88842         2.57857
| 22>    C       -1.04478        -4.80397         3.93969
| 23>    C        0.09342        -5.47850         4.23910
| 24>    C        0.68415        -6.14487         3.13185
| 25>    S       -0.30201        -5.88297         1.68523
| 26>    C        1.83345        -6.87214         3.10896
| 27>    N        2.29618        -7.44422         1.96534
| 28>    C        3.43542        -8.14777         1.79143
| 29>    S        4.55319        -8.41128         3.09028
| 30>    C        5.59682        -9.26530         1.99131
| 31>    N        6.77921        -9.78010         2.50755
| 32>    O        7.52491       -10.37847         1.74782
| 33>    O        6.98710        -9.59174         3.69958
| 34>    C        5.10324        -9.33439         0.71287
| 35>    C        3.85780        -8.70396         0.57140
| 36>    C        3.07141        -8.62779        -0.63303
| 37>    C        3.50799        -8.90863        -1.87190
| 38>    C        2.70064        -8.82236        -3.07060
| 39>    C        1.29864        -8.81095        -3.02382
| 40>    C        0.57742        -8.69618        -4.18710
| 41>    C        1.23656        -8.62915        -5.42719
| 42>    C        2.62195        -8.65390        -5.48973
| 43>    C        3.33930        -8.74883        -4.31423
| 44>    C        0.24190        -8.60864        -6.47766
| 45>    C       -1.03112        -8.68171        -5.88949
| 46>    C       -0.92228        -8.66404        -4.37856
| 47>    C       -1.53327        -7.32787        -3.89135
| 48>    C       -1.30800        -6.98965        -2.42299
| 49>    C       -1.61810        -9.87007        -3.73129
| 50>    C       -1.09537       -11.19776        -4.26741
| 51>    C       -2.15742        -8.73379        -6.67401
| 52>    C       -2.03815        -8.70213        -8.07186
| 53>    C       -0.76110        -8.61290        -8.64063
| 54>    C        0.37412        -8.56890        -7.85789
| 55>    C       -3.23721        -8.78865        -8.87615
| 56>    C       -3.31690        -8.52802       -10.19036
| 57>    N       -4.47620        -8.65705       -10.91296
| 58>    C       -4.60549        -8.41792       -12.23646
| 59>    S       -3.24192        -7.90790       -13.18250
| 60>    C       -4.22089        -7.98114       -14.61789
| 61>    N       -3.61535        -7.63115       -15.81906
| 62>    O       -4.28805        -7.67516       -16.83630
| 63>    O       -2.43789        -7.30023       -15.76495
| 64>    C       -5.50678        -8.38205       -14.37062
| 65>    C       -5.76432        -8.61509       -13.00665
| 66>    C       -7.05777        -9.02641       -12.53663
| 67>    C       -7.58562        -8.80785       -11.30615
| 68>    C       -8.85136        -9.24512       -10.84257
| 69>    C       -9.73581       -10.11622       -11.41844
| 70>    C      -10.98472       -10.49167       -10.84529
| 71>    C      -11.69365       -11.39657       -11.56490
| 72>    C      -11.05727       -11.80525       -12.76445
| 73>    S       -9.51788       -10.97892       -12.93401
| 74>    C      -11.51095       -12.69494       -13.70541
| 75>    C      -12.74320       -13.40998       -13.69697
| 76>    C      -12.92562       -14.21761       -14.76347
| 77>    C      -11.84486       -14.20756       -15.70879
| 78>    S      -10.58739       -13.09783       -15.13994
| 79>    C      -11.74897       -14.89991       -16.85102
| 80>    H       -5.92413        -2.56473        -0.59873
| 81>    H       -4.85943        -3.60393        -1.67946
| 82>    H       -5.25824        -2.36600         1.96661
| 83>    H       -3.46214        -3.20919         3.60499
| 84>    H       -1.61894        -4.24224         4.65412
| 85>    H        0.54055        -5.52149         5.21598
| 86>    H        2.42334        -7.01486         4.00123
| 87>    H        1.72596        -7.29319         1.13938
| 88>    H        5.63136        -9.84198        -0.07288
| 89>    H        2.04651        -8.30473        -0.50643
| 90>    H        4.54453        -9.17639        -2.02315
| 91>    H        0.79267        -8.93228        -2.07916
| 92>    H        3.13126        -8.61024        -6.44064
| 93>    H        4.41929        -8.76622        -4.34760
| 94>    H       -2.60681        -7.36315        -4.09041
| 95>    H       -1.11151        -6.52496        -4.50169
| 96>    H       -1.67875        -7.77499        -1.77018
| 97>    H       -1.83809        -6.07347        -2.17310
| 98>    H       -0.25277        -6.82926        -2.22109
| 99>    H       -2.69185        -9.79932        -3.91821
|100>    H       -1.46449        -9.83684        -2.65194
|101>    H       -1.25740       -11.26996        -5.34058
|102>    H       -1.60844       -12.02621        -3.78421
|103>    H       -0.02890       -11.29439        -4.07606
|104>    H       -3.13993        -8.79963        -6.22780
|105>    H       -0.65606        -8.60267        -9.71409
|106>    H        1.35013        -8.51369        -8.31609
|107>    H       -4.13719        -9.08559        -8.35086
|108>    H       -2.47123        -8.18119       -10.76387
|109>    H       -5.27922        -9.06150       -10.44562
|110>    H       -6.24091        -8.48286       -15.14939
|111>    H       -7.66755        -9.50127       -13.29064
|112>    H       -7.04206        -8.18965       -10.60118
|113>    H       -9.16034        -8.85042        -9.88226
|114>    H      -11.31059       -10.07209        -9.90939
|115>    H      -12.65075       -11.78804       -11.27019
|116>    H      -13.45139       -13.29329       -12.89542
|117>    H      -13.79292       -14.83152       -14.93069
|118>    H      -12.53893       -15.56194       -17.15917
|119>    H      -10.89031       -14.81866       -17.49204
|120> *
|121>
|122>                          ****END OF INPUT****

CARTESIAN COORDINATES (ANGSTROEM)
---------------------------------
  C     -5.065040   -3.203580   -0.703550
  C     -4.288480   -3.479760    0.351930
  C     -4.443070   -3.016070    1.702400
  C     -3.499380   -3.460250    2.559600
  C     -2.518500   -4.305820    1.966930
  S     -2.858440   -4.519740    0.257580
  C     -1.439360   -4.888420    2.578570
  C     -1.044780   -4.803970    3.939690
  C      0.093420   -5.478500    4.239100
  C      0.684150   -6.144870    3.131850
  S     -0.302010   -5.882970    1.685230
  C      1.833450   -6.872140    3.108960
  N      2.296180   -7.444220    1.965340
  C      3.435420   -8.147770    1.791430
  S      4.553190   -8.411280    3.090280
  C      5.596820   -9.265300    1.991310
  N      6.779210   -9.780100    2.507550
  O      7.524910  -10.378470    1.747820
  O      6.987100   -9.591740    3.699580
  C      5.103240   -9.334390    0.712870
  C      3.857800   -8.703960    0.571400
  C      3.071410   -8.627790   -0.633030
  C      3.507990   -8.908630   -1.871900
  C      2.700640   -8.822360   -3.070600
  C      1.298640   -8.810950   -3.023820
  C      0.577420   -8.696180   -4.187100
  C      1.236560   -8.629150   -5.427190
  C      2.621950   -8.653900   -5.489730
  C      3.339300   -8.748830   -4.314230
  C      0.241900   -8.608640   -6.477660
  C     -1.031120   -8.681710   -5.889490
  C     -0.922280   -8.664040   -4.378560
  C     -1.533270   -7.327870   -3.891350
  C     -1.308000   -6.989650   -2.422990
  C     -1.618100   -9.870070   -3.731290
  C     -1.095370  -11.197760   -4.267410
  C     -2.157420   -8.733790   -6.674010
  C     -2.038150   -8.702130   -8.071860
  C     -0.761100   -8.612900   -8.640630
  C      0.374120   -8.568900   -7.857890
  C     -3.237210   -8.788650   -8.876150
  C     -3.316900   -8.528020  -10.190360
  N     -4.476200   -8.657050  -10.912960
  C     -4.605490   -8.417920  -12.236460
  S     -3.241920   -7.907900  -13.182500
  C     -4.220890   -7.981140  -14.617890
  N     -3.615350   -7.631150  -15.819060
  O     -4.288050   -7.675160  -16.836300
  O     -2.437890   -7.300230  -15.764950
  C     -5.506780   -8.382050  -14.370620
  C     -5.764320   -8.615090  -13.006650
  C     -7.057770   -9.026410  -12.536630
  C     -7.585620   -8.807850  -11.306150
  C     -8.851360   -9.245120  -10.842570
  C     -9.735810  -10.116220  -11.418440
  C    -10.984720  -10.491670  -10.845290
  C    -11.693650  -11.396570  -11.564900
  C    -11.057270  -11.805250  -12.764450
  S     -9.517880  -10.978920  -12.934010
  C    -11.510950  -12.694940  -13.705410
  C    -12.743200  -13.409980  -13.696970
  C    -12.925620  -14.217610  -14.763470
  C    -11.844860  -14.207560  -15.708790
  S    -10.587390  -13.097830  -15.139940
  C    -11.748970  -14.899910  -16.851020
  H     -5.924130   -2.564730   -0.598730
  H     -4.859430   -3.603930   -1.679460
  H     -5.258240   -2.366000    1.966610
  H     -3.462140   -3.209190    3.604990
  H     -1.618940   -4.242240    4.654120
  H      0.540550   -5.521490    5.215980
  H      2.423340   -7.014860    4.001230
  H      1.725960   -7.293190    1.139380
  H      5.631360   -9.841980   -0.072880
  H      2.046510   -8.304730   -0.506430
  H      4.544530   -9.176390   -2.023150
  H      0.792670   -8.932280   -2.079160
  H      3.131260   -8.610240   -6.440640
  H      4.419290   -8.766220   -4.347600
  H     -2.606810   -7.363150   -4.090410
  H     -1.111510   -6.524960   -4.501690
  H     -1.678750   -7.774990   -1.770180
  H     -1.838090   -6.073470   -2.173100
  H     -0.252770   -6.829260   -2.221090
  H     -2.691850   -9.799320   -3.918210
  H     -1.464490   -9.836840   -2.651940
  H     -1.257400  -11.269960   -5.340580
  H     -1.608440  -12.026210   -3.784210
  H     -0.028900  -11.294390   -4.076060
  H     -3.139930   -8.799630   -6.227800
  H     -0.656060   -8.602670   -9.714090
  H      1.350130   -8.513690   -8.316090
  H     -4.137190   -9.085590   -8.350860
  H     -2.471230   -8.181190  -10.763870
  H     -5.279220   -9.061500  -10.445620
  H     -6.240910   -8.482860  -15.149390
  H     -7.667550   -9.501270  -13.290640
  H     -7.042060   -8.189650  -10.601180
  H     -9.160340   -8.850420   -9.882260
  H    -11.310590  -10.072090   -9.909390
  H    -12.650750  -11.788040  -11.270190
  H    -13.451390  -13.293290  -12.895420
  H    -13.792920  -14.831520  -14.930690
  H    -12.538930  -15.561940  -17.159170
  H    -10.890310  -14.818660  -17.492040

 Total Charge           Charge          ....    0
 Multiplicity           Mult            ....    1
 Number of Electrons    NEL             ....  502
 Basis Dimension        Dim             .... 1134

ORBITAL ENERGIES
----------------

  NO   OCC          E(Eh)            E(eV)
   0   2.0000     -88.978444     -2421.2266
   1   2.0000     -88.973617     -2421.0952
   2   2.0000     -88.952385     -2420.5174
   3   2.0000     -88.946039     -2420.3448
   4   2.0000     -88.941080     -2420.2098
   5   2.0000     -88.939531     -2420.1677
   6   2.0000     -19.224396      -523.1224
   7   2.0000     -19.223904      -523.1090
   8   2.0000     -19.220645      -523.0203
   9   2.0000     -19.220174      -523.0075
  10   2.0000     -14.636225      -398.2719
  11   2.0000     -14.632699      -398.1760
  12   2.0000     -14.486066      -394.1859
  13   2.0000     -14.475329      -393.8937
  14   2.0000     -10.364482      -282.0319
  15   2.0000     -10.361989      -281.9641
  16   2.0000     -10.336166      -281.2614
  17   2.0000     -10.331704      -281.1400
  18   2.0000     -10.326419      -280.9962
  19   2.0000     -10.324952      -280.9562
  20   2.0000     -10.315547      -280.7003
  21   2.0000     -10.312510      -280.6177
  22   2.0000     -10.312439      -280.6157
  23   2.0000     -10.310556      -280.5645
  24   2.0000     -10.308541      -280.5097
  25   2.0000     -10.308287      -280.5027
  26   2.0000     -10.307750      -280.4881
  27   2.0000     -10.307288      -280.4756
  28   2.0000     -10.301748      -280.3248
  29   2.0000     -10.297734      -280.2156
  30   2.0000     -10.293352      -280.0963
  31   2.0000     -10.291738      -280.0524
  32   2.0000     -10.291730      -280.0522
  33   2.0000     -10.291279      -280.0399
  34   2.0000     -10.290727      -280.0249
  35   2.0000     -10.287563      -279.9388
  36   2.0000     -10.287155      -279.9277
  37   2.0000     -10.287055      -279.9250
  38   2.0000     -10.285752      -279.8896
  39   2.0000     -10.285280      -279.8767
  40   2.0000     -10.284346      -279.8513
  41   2.0000     -10.284159      -279.8462
  42   2.0000     -10.281206      -279.7658
  43   2.0000     -10.281065      -279.7620
  44   2.0000     -10.278663      -279.6966
  45   2.0000     -10.278609      -279.6952
  46   2.0000     -10.278261      -279.6857
  47   2.0000     -10.277641      -279.6688
  48   2.0000     -10.277377      -279.6617
  49   2.0000     -10.271949      -279.5139
  50   2.0000     -10.270891      -279.4852
  51   2.0000     -10.270646      -279.4785
  52   2.0000     -10.269689      -279.4524
  53   2.0000     -10.269235      -279.4401
  54   2.0000     -10.268954      -279.4324
  55   2.0000     -10.268836      -279.4292
  56   2.0000     -10.268585      -279.4224
  57   2.0000     -10.268532      -279.4210
  58   2.0000     -10.267923      -279.4044
  59   2.0000     -10.267487      -279.3925
  60   2.0000     -10.267097      -279.3819
  61   2.0000     -10.263718      -279.2900
  62   2.0000     -10.263534      -279.2850
  63   2.0000     -10.250638      -278.9340
  64   2.0000     -10.246827      -278.8303
  65   2.0000      -8.073808      -219.6995
  66   2.0000      -8.069094      -219.5712
  67   2.0000      -8.048589      -219.0133
  68   2.0000      -8.041773      -218.8278
  69   2.0000      -8.037496      -218.7114
  70   2.0000      -8.036314      -218.6792
  71   2.0000      -6.043557      -164.4535
  72   2.0000      -6.039163      -164.3340
  73   2.0000      -6.038808      -164.3243
  74   2.0000      -6.035132      -164.2243
  75   2.0000      -6.034425      -164.2051
  76   2.0000      -6.030421      -164.0961
  77   2.0000      -6.018467      -163.7708
  78   2.0000      -6.014619      -163.6661
  79   2.0000      -6.011556      -163.5828
  80   2.0000      -6.009140      -163.5170
  81   2.0000      -6.007486      -163.4720
  82   2.0000      -6.007359      -163.4685
  83   2.0000      -6.006164      -163.4360
  84   2.0000      -6.003493      -163.3634
  85   2.0000      -6.002702      -163.3418
  86   2.0000      -6.002203      -163.3282
  87   2.0000      -5.997961      -163.2128
  88   2.0000      -5.996802      -163.1813
  89   2.0000      -1.303106       -35.4593
  90   2.0000      -1.299854       -35.3708
  91   2.0000      -1.121946       -30.5297
  92   2.0000      -1.118584       -30.4382
  93   2.0000      -1.093507       -29.7558
  94   2.0000      -1.082741       -29.4629
  95   2.0000      -1.001373       -27.2488
  96   2.0000      -0.993137       -27.0246
  97   2.0000      -0.992070       -26.9956
  98   2.0000      -0.991821       -26.9888
  99   2.0000      -0.986137       -26.8341
 100   2.0000      -0.970407       -26.4061
 101   2.0000      -0.970105       -26.3979
 102   2.0000      -0.946915       -25.7669
 103   2.0000      -0.924233       -25.1497
 104   2.0000      -0.915760       -24.9191
 105   2.0000      -0.909012       -24.7355
 106   2.0000      -0.894881       -24.3510
 107   2.0000      -0.892416       -24.2839
 108   2.0000      -0.883502       -24.0413
 109   2.0000      -0.876242       -23.8437
 110   2.0000      -0.870715       -23.6933
 111   2.0000      -0.859547       -23.3895
 112   2.0000      -0.853966       -23.2376
 113   2.0000      -0.850527       -23.1440
 114   2.0000      -0.848592       -23.0914
 115   2.0000      -0.845931       -23.0190
 116   2.0000      -0.836863       -22.7722
 117   2.0000      -0.835999       -22.7487
 118   2.0000      -0.832298       -22.6480
 119   2.0000      -0.827050       -22.5052
 120   2.0000      -0.825186       -22.4545
 121   2.0000      -0.824246       -22.4289
 122   2.0000      -0.817658       -22.2496
 123   2.0000      -0.801925       -21.8215
 124   2.0000      -0.795322       -21.6418
 125   2.0000      -0.782431       -21.2910
 126   2.0000      -0.764482       -20.8026
 127   2.0000      -0.763522       -20.7765
 128   2.0000      -0.752584       -20.4788
 129   2.0000      -0.738917       -20.1070
 130   2.0000      -0.725238       -19.7347
 131   2.0000      -0.723639       -19.6912
 132   2.0000      -0.718357       -19.5475
 133   2.0000      -0.714056       -19.4304
 134   2.0000      -0.698157       -18.9978
 135   2.0000      -0.691184       -18.8081
 136   2.0000      -0.690408       -18.7870
 137   2.0000      -0.684944       -18.6383
 138   2.0000      -0.679262       -18.4837
 139   2.0000      -0.674994       -18.3675
 140   2.0000      -0.670765       -18.2525
 141   2.0000      -0.660671       -17.9778
 142   2.0000      -0.652062       -17.7435
 143   2.0000      -0.646924       -17.6037
 144   2.0000      -0.639627       -17.4051
 145   2.0000      -0.635786       -17.3006
 146   2.0000      -0.627210       -17.0672
 147   2.0000      -0.625127       -17.0106
 148   2.0000      -0.623828       -16.9752
 149   2.0000      -0.619813       -16.8660
 150   2.0000      -0.618926       -16.8418
 151   2.0000      -0.618103       -16.8194
 152   2.0000      -0.617276       -16.7969
 153   2.0000      -0.616314       -16.7708
 154   2.0000      -0.613837       -16.7033
 155   2.0000      -0.602233       -16.3876
 156   2.0000      -0.599868       -16.3232
 157   2.0000      -0.599366       -16.3096
 158   2.0000      -0.590226       -16.0609
 159   2.0000      -0.588137       -16.0040
 160   2.0000      -0.584062       -15.8931
 161   2.0000      -0.579021       -15.7560
 162   2.0000      -0.574814       -15.6415
 163   2.0000      -0.569930       -15.5086
 164   2.0000      -0.567171       -15.4335
 165   2.0000      -0.562500       -15.3064
 166   2.0000      -0.555761       -15.1230
 167   2.0000      -0.553384       -15.0583
 168   2.0000      -0.547710       -14.9039
 169   2.0000      -0.540504       -14.7079
 170   2.0000      -0.538425       -14.6513
 171   2.0000      -0.535755       -14.5786
 172   2.0000      -0.534257       -14.5379
 173   2.0000      -0.532336       -14.4856
 174   2.0000      -0.526445       -14.3253
 175   2.0000      -0.525996       -14.3131
 176   2.0000      -0.522640       -14.2218
 177   2.0000      -0.519971       -14.1491
 178   2.0000      -0.518856       -14.1188
 179   2.0000      -0.517406       -14.0793
 180   2.0000      -0.516994       -14.0681
 181   2.0000      -0.515395       -14.0246
 182   2.0000      -0.511394       -13.9157
 183   2.0000      -0.505927       -13.7670
 184   2.0000      -0.499642       -13.5960
 185   2.0000      -0.497788       -13.5455
 186   2.0000      -0.496180       -13.5018
 187   2.0000      -0.495712       -13.4890
 188   2.0000      -0.494143       -13.4463
 189   2.0000      -0.491377       -13.3710
 190   2.0000      -0.487298       -13.2601
 191   2.0000      -0.485621       -13.2144
 192   2.0000      -0.482661       -13.1339
 193   2.0000      -0.480207       -13.0671
 194   2.0000      -0.479569       -13.0497
 195   2.0000      -0.471526       -12.8309
 196   2.0000      -0.471092       -12.8191
 197   2.0000      -0.468279       -12.7425
 198   2.0000      -0.465397       -12.6641
 199   2.0000      -0.463685       -12.6175
 200   2.0000      -0.462003       -12.5717
 201   2.0000      -0.459738       -12.5101
 202   2.0000      -0.456138       -12.4121
 203   2.0000      -0.453746       -12.3471
 204   2.0000      -0.449583       -12.2338
 205   2.0000      -0.448674       -12.2090
 206   2.0000      -0.445792       -12.1306
 207   2.0000      -0.442900       -12.0519
 208   2.0000      -0.440178       -11.9779
 209   2.0000      -0.437867       -11.9150
 210   2.0000      -0.433158       -11.7868
 211   2.0000      -0.432334       -11.7644
 212   2.0000      -0.431696       -11.7471
 213   2.0000      -0.427653       -11.6370
 214   2.0000      -0.426442       -11.6041
 215   2.0000      -0.422760       -11.5039
 216   2.0000      -0.418928       -11.3996
 217   2.0000      -0.417693       -11.3660
 218   2.0000      -0.412416       -11.2224
 219   2.0000      -0.411879       -11.2078
 220   2.0000      -0.404528       -11.0078
 221   2.0000      -0.402663       -10.9570
 222   2.0000      -0.394765       -10.7421
 223   2.0000      -0.390714       -10.6319
 224   2.0000      -0.385636       -10.4937
 225   2.0000      -0.384902       -10.4737
 226   2.0000      -0.380519       -10.3545
 227   2.0000      -0.377122       -10.2620
 228   2.0000      -0.373642       -10.1673
 229   2.0000      -0.373102       -10.1526
 230   2.0000      -0.369766       -10.0619
 231   2.0000      -0.364597        -9.9212
 232   2.0000      -0.361597        -9.8395
 233   2.0000      -0.353174        -9.6103
 234   2.0000      -0.349528        -9.5111
 235   2.0000      -0.343687        -9.3522
 236   2.0000      -0.342705        -9.3255
 237   2.0000      -0.340956        -9.2779
 238   2.0000      -0.338822        -9.2198
 239   2.0000      -0.338152        -9.2016
 240   2.0000      -0.325285        -8.8515
 241   2.0000      -0.324296        -8.8245
 242   2.0000      -0.320332        -8.7167
 243   2.0000      -0.314946        -8.5701
 244   2.0000      -0.313312        -8.5256
 245   2.0000      -0.300953        -8.1893
 246   2.0000      -0.286714        -7.8019
 247   2.0000      -0.266089        -7.2407
 248   2.0000      -0.244554        -6.6547
 249   2.0000      -0.219070        -5.9612
 250   2.0000      -0.216487        -5.8909
 251   0.0000      -0.069117        -1.8808
 252   0.0000      -0.066675        -1.8143
 253   0.0000      -0.048466        -1.3188
 254   0.0000      -0.037813        -1.0289
 255   0.0000      -0.025616        -0.6971

MULLIKEN ATOMIC CHARGES
-----------------------
   0 C :   -0.031867
   1 C :   -0.058804
   2 C :    0.047850
   3 C :    0.029475
   4 C :   -0.063713
   5 S :    0.064084
   6 C :   -0.042517
   7 C :    0.026766
   8 C :    0.042191
   9 C :   -0.042499
  10 S :    0.023184
  11 C :    0.027153
  12 N :   -0.034118
  13 C :   -0.112330
  14 S :    0.148027
  15 C :   -0.016681
  16 N :    0.280646
  17 O :   -0.262190
  18 O :   -0.278679
  19 C :    0.008366
  20 C :    0.127555
  21 C :   -0.031876
  22 C :   -0.003224
  23 C :    0.123035
  24 C :   -0.103013
  25 C :    0.019885
  26 C :    0.102542
  27 C :   -0.049113
  28 C :   -0.023258
  29 C :    0.096039
  30 C :    0.024689
  31 C :   -0.131434
  32 C :    0.078262
  33 C :    0.033442
  34 C :    0.047516
  35 C :    0.026531
  36 C :   -0.113513
  37 C :    0.118310
  38 C :   -0.022927
  39 C :   -0.039301
  40 C :   -0.026335
  41 C :    0.069976
  42 N :   -0.024497
  43 C :   -0.112971
  44 S :    0.132243
  45 C :   -0.005351
  46 N :    0.280119
  47 O :   -0.263282
  48 O :   -0.279009
  49 C :    0.010728
  50 C :    0.100382
  51 C :   -0.028327
  52 C :   -0.033144
  53 C :   -0.019229
  54 C :   -0.017337
  55 C :    0.036192
  56 C :    0.029900
  57 C :   -0.044017
  58 S :    0.057283
  59 C :   -0.065107
  60 C :    0.029664
  61 C :    0.054697
  62 C :   -0.065171
  63 S :    0.082293
  64 C :   -0.027909
  65 H :    0.019548
  66 H :    0.018776
  67 H :   -0.011632
  68 H :   -0.011624
  69 H :   -0.012642
  70 H :   -0.010057
  71 H :    0.024139
  72 H :    0.152298
  73 H :    0.009233
  74 H :   -0.036119
  75 H :   -0.021673
  76 H :   -0.040184
  77 H :   -0.035079
  78 H :   -0.027340
  79 H :   -0.006257
  80 H :    0.005437
  81 H :    0.000867
  82 H :    0.013000
  83 H :    0.012880
  84 H :   -0.003409
  85 H :    0.006989
  86 H :    0.020623
  87 H :    0.008422
  88 H :    0.022024
  89 H :   -0.047875
  90 H :   -0.033512
  91 H :   -0.036106
  92 H :   -0.027040
  93 H :    0.029928
  94 H :    0.132934
  95 H :    0.009465
  96 H :    0.007934
  97 H :   -0.015842
  98 H :   -0.020357
  99 H :   -0.015673
 100 H :   -0.015417
 101 H :   -0.010286
 102 H :   -0.009581
 103 H :    0.021834
 104 H :    0.025092
Sum of atomic charges:   -0.0000000

LOEWDIN ATOMIC CHARGES
----------------------
   0 C :   -0.081458
   1 C :   -0.138189
   2 C :   -0.033964
   3 C :   -0.025722
   4 C :   -0.184097
   5 S :    0.348553
   6 C :   -0.173977
   7 C :   -0.040089
   8 C :   -0.028997
   9 C :   -0.182853
  10 S :    0.331970
  11 C :   -0.011223
  12 N :    0.047600
  13 C :   -0.100640
  14 S :    0.446562
  15 C :   -0.216519
  16 N :    0.274423
  17 O :   -0.228343
  18 O :   -0.245127
  19 C :    0.007323
  20 C :   -0.106029
  21 C :   -0.037540
  22 C :   -0.010456
  23 C :   -0.027940
  24 C :   -0.021029
  25 C :    0.004534
  26 C :   -0.014890
  27 C :   -0.019728
  28 C :   -0.018381
  29 C :   -0.022836
  30 C :    0.007449
  31 C :   -0.034404
  32 C :   -0.009297
  33 C :   -0.061052
  34 C :   -0.016028
  35 C :   -0.056881
  36 C :   -0.028207
  37 C :   -0.019711
  38 C :   -0.023684
  39 C :   -0.013902
  40 C :   -0.064689
  41 C :    0.019472
  42 N :    0.043076
  43 C :   -0.089955
  44 S :    0.446520
  45 C :   -0.221648
  46 N :    0.274496
  47 O :   -0.228427
  48 O :   -0.246146
  49 C :    0.007763
  50 C :   -0.112101
  51 C :   -0.027171
  52 C :   -0.063559
  53 C :   -0.072116
  54 C :   -0.141031
  55 C :   -0.033129
  56 C :   -0.035699
  57 C :   -0.184193
  58 S :    0.377492
  59 C :   -0.172585
  60 C :   -0.027218
  61 C :   -0.027836
  62 C :   -0.140154
  63 S :    0.352241
  64 C :   -0.071882
  65 H :    0.028550
  66 H :    0.025135
  67 H :    0.033376
  68 H :    0.032398
  69 H :    0.032451
  70 H :    0.034660
  71 H :    0.031411
  72 H :    0.083618
  73 H :    0.044313
  74 H :    0.018592
  75 H :    0.027494
  76 H :    0.020859
  77 H :    0.026965
  78 H :    0.026467
  79 H :    0.018959
  80 H :    0.026852
  81 H :    0.018498
  82 H :    0.021434
  83 H :    0.021159
  84 H :    0.019432
  85 H :    0.019513
  86 H :    0.025127
  87 H :    0.023448
  88 H :    0.026106
  89 H :    0.021253
  90 H :    0.023753
  91 H :    0.027278
  92 H :    0.025326
  93 H :    0.021171
  94 H :    0.092810
  95 H :    0.046180
  96 H :    0.017047
  97 H :    0.022430
  98 H :    0.031953
  99 H :    0.032220
 100 H :    0.030954
 101 H :    0.032644
 102 H :    0.034183
 103 H :    0.029552
 104 H :    0.027689

  Mayer bond orders larger than 0.100000
B(  0-C ,  1-C ) :   1.8686 B(  0-C , 65-H ) :   0.9501 B(  0-C , 66-H ) :   0.9416
B(  1-C ,  2-C ) :   1.0775 B(  1-C ,  5-S ) :   1.0065 B(  2-C ,  3-C ) :   1.6688
B(  2-C , 67-H ) :   0.9927 B(  3-C ,  4-C ) :   1.1493 B(  3-C , 68-H ) :   0.9910
B(  4-C ,  5-S ) :   1.0341 B(  4-C ,  6-C ) :   1.5768 B(  6-C ,  7-C ) :   1.1624
B(  6-C , 10-S ) :   1.0342 B(  7-C ,  8-C ) :   1.6350 B(  7-C , 69-H ) :   0.9914
B(  8-C ,  9-C ) :   1.1399 B(  8-C , 70-H ) :   0.9946 B(  9-C , 10-S ) :   1.0043
B(  9-C , 11-C ) :   1.6269 B( 11-C , 12-N ) :   1.1314 B( 11-C , 71-H ) :   0.9610
B( 12-N , 13-C ) :   1.2441 B( 12-N , 72-H ) :   0.9010 B( 13-C , 14-S ) :   1.1284
B( 13-C , 20-C ) :   1.3378 B( 14-S , 15-C ) :   1.0607 B( 15-C , 16-N ) :   0.9939
B( 15-C , 19-C ) :   1.4713 B( 16-N , 17-O ) :   1.5197 B( 16-N , 18-O ) :   1.4949
B( 17-O , 18-O ) :   0.2487 B( 19-C , 20-C ) :   1.2502 B( 19-C , 73-H ) :   1.0014
B( 20-C , 21-C ) :   1.0580 B( 21-C , 22-C ) :   1.7564 B( 21-C , 74-H ) :   0.9555
B( 22-C , 23-C ) :   1.0506 B( 22-C , 75-H ) :   0.9809 B( 23-C , 24-C ) :   1.2955
B( 23-C , 28-C ) :   1.3438 B( 24-C , 25-C ) :   1.4097 B( 24-C , 76-H ) :   0.9919
B( 25-C , 26-C ) :   1.3746 B( 25-C , 31-C ) :   0.9193 B( 26-C , 27-C ) :   1.3464
B( 26-C , 29-C ) :   0.9967 B( 27-C , 28-C ) :   1.3711 B( 27-C , 77-H ) :   0.9922
B( 28-C , 78-H ) :   0.9943 B( 29-C , 30-C ) :   1.3801 B( 29-C , 39-C ) :   1.3329
B( 30-C , 31-C ) :   0.9260 B( 30-C , 36-C ) :   1.3794 B( 31-C , 32-C ) :   1.0113
B( 31-C , 34-C ) :   1.0318 B( 32-C , 33-C ) :   1.1163 B( 32-C , 79-H ) :   0.9369
B( 32-C , 80-H ) :   0.9382 B( 33-C , 81-H ) :   0.9616 B( 33-C , 82-H ) :   0.9570
B( 33-C , 83-H ) :   0.9588 B( 34-C , 35-C ) :   1.1051 B( 34-C , 84-H ) :   0.9388
B( 34-C , 85-H ) :   0.9384 B( 35-C , 86-H ) :   0.9635 B( 35-C , 87-H ) :   0.9644
B( 35-C , 88-H ) :   0.9643 B( 36-C , 37-C ) :   1.2968 B( 36-C , 89-H ) :   1.0104
B( 37-C , 38-C ) :   1.3501 B( 37-C , 40-C ) :   1.0802 B( 38-C , 39-C ) :   1.3999
B( 38-C , 90-H ) :   0.9822 B( 39-C , 91-H ) :   0.9904 B( 40-C , 41-C ) :   1.7080
B( 40-C , 92-H ) :   0.9761 B( 41-C , 42-N ) :   1.0973 B( 41-C , 93-H ) :   0.9538
B( 42-N , 43-C ) :   1.2518 B( 42-N , 94-H ) :   0.9061 B( 43-C , 44-S ) :   1.1360
B( 43-C , 50-C ) :   1.3332 B( 44-S , 45-C ) :   1.0550 B( 45-C , 46-N ) :   0.9938
B( 45-C , 49-C ) :   1.4686 B( 46-N , 47-O ) :   1.5223 B( 46-N , 48-O ) :   1.4955
B( 47-O , 48-O ) :   0.2484 B( 49-C , 50-C ) :   1.2337 B( 49-C , 95-H ) :   1.0091
B( 50-C , 51-C ) :   1.1139 B( 51-C , 52-C ) :   1.6410 B( 51-C , 96-H ) :   0.9412
B( 52-C , 53-C ) :   1.1874 B( 52-C , 97-H ) :   0.9586 B( 53-C , 54-C ) :   1.6091
B( 53-C , 98-H ) :   0.9593 B( 54-C , 55-C ) :   1.1310 B( 54-C , 58-S ) :   1.0376
B( 55-C , 56-C ) :   1.6171 B( 55-C , 99-H ) :   0.9981 B( 56-C , 57-C ) :   1.1645
B( 56-C ,100-H ) :   0.9916 B( 57-C , 58-S ) :   1.0252 B( 57-C , 59-C ) :   1.5664
B( 59-C , 60-C ) :   1.1471 B( 59-C , 63-S ) :   1.0471 B( 60-C , 61-C ) :   1.6676
B( 60-C ,101-H ) :   0.9913 B( 61-C , 62-C ) :   1.0774 B( 61-C ,102-H ) :   0.9925
B( 62-C , 63-S ) :   1.0063 B( 62-C , 64-C ) :   1.8670 B( 64-C ,103-H ) :   0.9507
B( 64-C ,104-H ) :   0.9420

-----------------------------------------------------------------------------
         ABSORPTION SPECTRUM VIA TRANSITION ELECTRIC DIPOLE MOMENTS
-----------------------------------------------------------------------------
State   Energy  Wavelength   fosc         T2         TX        TY        TZ
        (cm-1)    (nm)                  (au**2)     (au)      (au)      (au)
-----------------------------------------------------------------------------
   0   18502.6    540.5   1.271560211  22.62456   2.59037   3.20899   2.37001
   1   18974.7    527.0   1.504192927  26.09782  -4.74689   1.81019  -0.53670
   2   22598.0    442.5   0.582219611   8.48188   0.93050  -0.74849   2.65628
   3   24460.1    408.8   0.162874693   2.19216   0.88271  -0.46414   1.09433
   4   25507.0    392.0   0.099438000   1.28342   0.21618  -0.98405  -0.51800
   5   25759.2    388.2   0.044882604   0.57362  -0.49118   0.23967  -0.52433
   6   26444.2    378.2   0.012677317   0.15782   0.24572  -0.31032  -0.03382
   7   27155.8    368.2   0.219433536   2.66021  -0.97400   0.35884  -1.25808
   8   27955.1    357.7   0.790146480   9.30514   1.16477  -0.30756   2.80247
   9   28458.7    351.4   0.025726279   0.29760   0.30569  -0.23677   0.38484
  10   29349.0    340.7   0.142342708   1.59668  -0.69873   0.36734   0.98667
  11   30456.1    328.3   0.288405447   3.11749   1.03562  -0.01185   1.42998
  12   30753.7    325.2   0.046172023   0.49426  -0.61339  -0.00877  -0.34342
  13   31384.3    318.6   0.048930754   0.51327   0.30980   0.06612  -0.64259
  14   31936.1    313.1   0.055305755   0.57012   0.42680  -0.08657   0.61682
  15   32398.2    308.7   0.404340527   4.10868   0.08169  -0.35369  -1.99422
  16   33338.2    300.0   0.074423787   0.73493  -0.56782   0.14334   0.62607
  17   33570.4    297.9   0.208199625   2.04173  -1.28929  -0.02642  -0.61545
  18   34829.3    287.1   0.080013579   0.75630  -0.76324  -0.07220   0.41054
  19   34977.5    285.9   0.067481745   0.63514   0.26204   0.02385  -0.75227
  20   35244.4    283.7   0.032706341   0.30550  -0.50017  -0.06930  -0.22478
  21   35739.0    279.8   0.076670861   0.70626   0.47727  -0.00708  -0.69168
  22   36489.1    274.1   0.078260728   0.70608   0.77155  -0.28878  -0.16553
  23   36633.6    273.0   0.016655822   0.14968  -0.19619  -0.22978  -0.24164
  24   36884.1    271.1   0.079797229   0.71224   0.71510   0.05687  -0.44456
  25   37474.5    266.8   0.030041563   0.26391  -0.34574  -0.11980   0.36059
  26   37733.5    265.0   0.168002563   1.46577   0.13264  -0.17588   1.19048
  27   38106.2    262.4   0.042785693   0.36964   0.39606  -0.06437  -0.45677
  28   38248.2    261.5   0.008909285   0.07668  -0.03327  -0.17921   0.20848
  29   38432.3    260.2   0.004762920   0.04080  -0.13883  -0.05856  -0.13452
  30   39295.0    254.5   0.027121141   0.22722  -0.42709  -0.17219  -0.12313
  31   39383.0    253.9   0.016325817   0.13647  -0.23913   0.02676   0.28031
  32   40086.5    249.5   0.002711310   0.02227   0.08578   0.10562   0.06126
  33   40159.5    249.0   0.023352665   0.19144  -0.00239   0.03615   0.43603

FINAL SINGLE POINT ENERGY     -4872.382011097779

DIPOLE MOMENT
-------------
                                X             Y             Z
Electronic contribution:     19.57147       3.37799     -11.93076
Nuclear contribution   :    -24.05550      -3.13442      14.28542
                        -----------------------------------------
Total Dipole Moment    :     -4.48403       0.24356       2.35466
                        -----------------------------------------
Magnitude (a.u.)       :      5.07053
Magnitude (Debye)      :     12.88826

Rotational constants in cm-1:     0.001314     0.000239     0.000223
Rotational constants in MHz :    39.382667     7.174851     6.687534

                             ****ORCA TERMINATED NORMALLY****
TOTAL RUN TIME: 0 days 0 hours 8 minutes 51 seconds 759 msec
