                         Program Version 4.2.0 -  RELEASE  -
|  1> # ORCA input file
|  2> # SCF done       -174.850362655699          0.000371204968
|  3> ! CAM-B3LYP def2-SVP def2/J RIJCOSX Grid4 TightSCF
|  4> %maxcore 5000
|  5> %tddft
|  6>     Mode sTDDFT
|  7>     Ethresh 5.0
|  8>     maxcore 5000
|  9> end
| 10>
| 11> %pal
| 12>   nprocs 6
| 13>   end
| 14> * xyz 0 1
| 15>    C        6.20845         1.51911        -1.98787
| 16>    C        4.93074         2.32116        -2.05718
| 17>    C        4.73152         2.84802        -0.60016
| 18>    C        5.96304         2.71466         0.30259
| 19>    C        6.56742         3.82067         0.73646
| 20>    O        6.44583         1.54375         0.85337
| 21>    C        6.66210         0.29330         0.15052
| 22>    C        5.75302         0.37787        -1.05254
| 23>    C        5.19823        -0.63713        -1.99668
| 24>    C        4.25744        -0.08913        -2.76272
| 25>    C        3.81013         1.35347        -2.57675
| 26>    C        3.19244         1.88034        -3.87126
| 27>    C        6.29257        -0.87284         1.06905
| 28>    C        7.19179        -1.03964         2.29274
| 29>    C        6.96425         0.08031         3.31015
| 30>    C        7.82138        -0.05605         4.52232
| 31>    O        8.20856        -1.30132         4.90330
| 32>    C        8.97009        -1.21913         5.97650
| 33>    C        9.11111         0.10325         6.34691
| 34>    N        9.85425         0.58921         7.42640
| 35>    O       10.38445        -0.21478         8.16728
| 36>    O        9.93065         1.80660         7.56439
| 37>    C        8.35119         0.87445         5.39681
| 38>    N        8.26501         2.23520         5.45097
| 39>    C        7.43300         3.04780         4.72828
| 40>    C        7.53297         4.38349         4.70867
| 41>    C        8.59705         5.12977         5.46649
| 42>    C        6.58621         5.18726         3.86627
| 43>    N        5.84221         6.14859         4.65624
| 44>    C        4.66939         6.68852         4.31009
| 45>    C        3.88030         6.30382         3.25958
| 46>    C        2.67873         6.94337         2.93909
| 47>    C        1.80426         6.50451         1.97076
| 48>    C        0.61835         7.12667         1.52928
| 49>    C       -0.06195         6.42493         0.57452
| 50>    C        0.54038         5.19697         0.23644
| 51>    S        2.02504         4.97969         1.11819
| 52>    C        0.06578         4.21880        -0.63009
| 53>    C       -1.04301         4.26604        -1.48840
| 54>    C       -1.24227         3.10844        -2.19564
| 55>    C       -0.31842         2.08947        -1.90429
| 56>    S        0.84838         2.65810        -0.73568
| 57>    C       -0.28352         0.80158        -2.42670
| 58>    C        0.60212        -0.15356        -1.96619
| 59>    C        0.76441        -1.43646        -2.46898
| 60>    C        1.69496        -2.41519        -1.99344
| 61>    C        2.58173        -2.28857        -0.94332
| 62>    C        3.52135        -3.26506        -0.57054
| 63>    N        4.33045        -4.00050        -0.21331
| 64>    C        2.72011        -1.16572        -0.11198
| 65>    N        2.92121        -0.30319         0.62471
| 66>    C        1.56224        -3.60284        -2.83608
| 67>    C        0.56210        -3.35643        -3.80709
| 68>    C        0.02901        -1.98636        -3.61346
| 69>    O       -0.83462        -1.45152        -4.28535
| 70>    C        0.19986        -4.28626        -4.74784
| 71>    C        0.85723        -5.52296        -4.73084
| 72>    C        1.85380        -5.75892        -3.75830
| 73>    C        2.22048        -4.81576        -2.80418
| 74>    S        2.53689        -7.35076        -3.91598
| 75>    C        1.48574        -7.67023        -5.26966
| 76>    C        0.66600        -6.64177        -5.58833
| 77>   Br        1.57001        -9.33421        -6.13482
| 78>    H        7.03294         2.10619        -1.58324
| 79>    H        6.52000         1.12853        -2.95751
| 80>    H        5.00732         3.17138        -2.73882
| 81>    H        3.88406         2.36022        -0.11285
| 82>    H        4.49436         3.91167        -0.63497
| 83>    H        6.21496         4.79986         0.47194
| 84>    H        7.42947         3.76162         1.37774
| 85>    H        7.73057         0.24761        -0.10957
| 86>    H        4.83761         0.69243        -0.54404
| 87>    H        5.54130        -1.65551        -2.07456
| 88>    H        3.74922        -0.64538        -3.53675
| 89>    H        3.01347         1.33719        -1.82347
| 90>    H        3.93623         1.91135        -4.66488
| 91>    H        2.79945         2.88414        -3.72359
| 92>    H        2.37295         1.23957        -4.19074
| 93>    H        5.25822        -0.74139         1.39197
| 94>    H        6.34047        -1.78266         0.46798
| 95>    H        8.23905        -1.04386         1.98331
| 96>    H        6.97440        -2.00282         2.75657
| 97>    H        5.90766         0.07736         3.59773
| 98>    H        7.17529         1.03157         2.82403
| 99>    H        9.37534        -2.11334         6.40539
|100>    H        8.87001         2.65857         6.14907
|101>    H        6.67053         2.54413         4.15683
|102>    H        9.57410         4.67558         5.30783
|103>    H        8.40383         5.12093         6.54028
|104>    H        8.65421         6.16387         5.13455
|105>    H        5.88855         4.52023         3.35954
|106>    H        7.15207         5.73296         3.09579
|107>    H        6.32979         6.52330         5.45510
|108>    H        4.32563         7.48864         4.95416
|109>    H        4.16892         5.46684         2.64134
|110>    H        2.41134         7.84550         3.47461
|111>    H        0.29976         8.07470         1.92617
|112>    H       -0.98624         6.74659         0.12971
|113>    H       -1.66212         5.14096        -1.57766
|114>    H       -2.03859         2.95829        -2.90263
|115>    H       -0.98087         0.54958        -3.21177
|116>    H        1.22491         0.13045        -1.12739
|117>    H       -0.56671        -4.07088        -5.47573
|118>    H        2.98616        -5.04396        -2.08159
|119>    H       -0.04504        -6.66791        -6.39389
|120> *
|121>
|122>                          ****END OF INPUT****

CARTESIAN COORDINATES (ANGSTROEM)
---------------------------------
  C      6.208450    1.519110   -1.987870
  C      4.930740    2.321160   -2.057180
  C      4.731520    2.848020   -0.600160
  C      5.963040    2.714660    0.302590
  C      6.567420    3.820670    0.736460
  O      6.445830    1.543750    0.853370
  C      6.662100    0.293300    0.150520
  C      5.753020    0.377870   -1.052540
  C      5.198230   -0.637130   -1.996680
  C      4.257440   -0.089130   -2.762720
  C      3.810130    1.353470   -2.576750
  C      3.192440    1.880340   -3.871260
  C      6.292570   -0.872840    1.069050
  C      7.191790   -1.039640    2.292740
  C      6.964250    0.080310    3.310150
  C      7.821380   -0.056050    4.522320
  O      8.208560   -1.301320    4.903300
  C      8.970090   -1.219130    5.976500
  C      9.111110    0.103250    6.346910
  N      9.854250    0.589210    7.426400
  O     10.384450   -0.214780    8.167280
  O      9.930650    1.806600    7.564390
  C      8.351190    0.874450    5.396810
  N      8.265010    2.235200    5.450970
  C      7.433000    3.047800    4.728280
  C      7.532970    4.383490    4.708670
  C      8.597050    5.129770    5.466490
  C      6.586210    5.187260    3.866270
  N      5.842210    6.148590    4.656240
  C      4.669390    6.688520    4.310090
  C      3.880300    6.303820    3.259580
  C      2.678730    6.943370    2.939090
  C      1.804260    6.504510    1.970760
  C      0.618350    7.126670    1.529280
  C     -0.061950    6.424930    0.574520
  C      0.540380    5.196970    0.236440
  S      2.025040    4.979690    1.118190
  C      0.065780    4.218800   -0.630090
  C     -1.043010    4.266040   -1.488400
  C     -1.242270    3.108440   -2.195640
  C     -0.318420    2.089470   -1.904290
  S      0.848380    2.658100   -0.735680
  C     -0.283520    0.801580   -2.426700
  C      0.602120   -0.153560   -1.966190
  C      0.764410   -1.436460   -2.468980
  C      1.694960   -2.415190   -1.993440
  C      2.581730   -2.288570   -0.943320
  C      3.521350   -3.265060   -0.570540
  N      4.330450   -4.000500   -0.213310
  C      2.720110   -1.165720   -0.111980
  N      2.921210   -0.303190    0.624710
  C      1.562240   -3.602840   -2.836080
  C      0.562100   -3.356430   -3.807090
  C      0.029010   -1.986360   -3.613460
  O     -0.834620   -1.451520   -4.285350
  C      0.199860   -4.286260   -4.747840
  C      0.857230   -5.522960   -4.730840
  C      1.853800   -5.758920   -3.758300
  C      2.220480   -4.815760   -2.804180
  S      2.536890   -7.350760   -3.915980
  C      1.485740   -7.670230   -5.269660
  C      0.666000   -6.641770   -5.588330
  Br     1.570010   -9.334210   -6.134820
  H      7.032940    2.106190   -1.583240
  H      6.520000    1.128530   -2.957510
  H      5.007320    3.171380   -2.738820
  H      3.884060    2.360220   -0.112850
  H      4.494360    3.911670   -0.634970
  H      6.214960    4.799860    0.471940
  H      7.429470    3.761620    1.377740
  H      7.730570    0.247610   -0.109570
  H      4.837610    0.692430   -0.544040
  H      5.541300   -1.655510   -2.074560
  H      3.749220   -0.645380   -3.536750
  H      3.013470    1.337190   -1.823470
  H      3.936230    1.911350   -4.664880
  H      2.799450    2.884140   -3.723590
  H      2.372950    1.239570   -4.190740
  H      5.258220   -0.741390    1.391970
  H      6.340470   -1.782660    0.467980
  H      8.239050   -1.043860    1.983310
  H      6.974400   -2.002820    2.756570
  H      5.907660    0.077360    3.597730
  H      7.175290    1.031570    2.824030
  H      9.375340   -2.113340    6.405390
  H      8.870010    2.658570    6.149070
  H      6.670530    2.544130    4.156830
  H      9.574100    4.675580    5.307830
  H      8.403830    5.120930    6.540280
  H      8.654210    6.163870    5.134550
  H      5.888550    4.520230    3.359540
  H      7.152070    5.732960    3.095790
  H      6.329790    6.523300    5.455100
  H      4.325630    7.488640    4.954160
  H      4.168920    5.466840    2.641340
  H      2.411340    7.845500    3.474610
  H      0.299760    8.074700    1.926170
  H     -0.986240    6.746590    0.129710
  H     -1.662120    5.140960   -1.577660
  H     -2.038590    2.958290   -2.902630
  H     -0.980870    0.549580   -3.211770
  H      1.224910    0.130450   -1.127390
  H     -0.566710   -4.070880   -5.475730
  H      2.986160   -5.043960   -2.081590
  H     -0.045040   -6.667910   -6.393890

 Total Charge           Charge          ....    0
 Multiplicity           Mult            ....    1
 Number of Electrons    NEL             ....  494
 Basis Dimension        Dim             .... 1122

ORBITAL ENERGIES
----------------

  NO   OCC          E(Eh)            E(eV)
   0   2.0000    -482.869671    -13139.5517
   1   2.0000     -88.962110     -2420.7821
   2   2.0000     -88.955699     -2420.6076
   3   2.0000     -88.951552     -2420.4948
   4   2.0000     -62.547405     -1702.0014
   5   2.0000     -56.381333     -1534.2141
   6   2.0000     -56.378660     -1534.1413
   7   2.0000     -56.378615     -1534.1401
   8   2.0000     -19.307958      -525.3962
   9   2.0000     -19.244652      -523.6736
  10   2.0000     -19.242584      -523.6173
  11   2.0000     -19.217347      -522.9306
  12   2.0000     -19.183336      -522.0051
  13   2.0000     -14.653691      -398.7472
  14   2.0000     -14.470821      -393.7711
  15   2.0000     -14.440750      -392.9528
  16   2.0000     -14.393898      -391.6779
  17   2.0000     -14.388365      -391.5273
  18   2.0000     -10.354616      -281.7634
  19   2.0000     -10.350195      -281.6431
  20   2.0000     -10.339240      -281.3450
  21   2.0000     -10.333704      -281.1944
  22   2.0000     -10.333531      -281.1897
  23   2.0000     -10.324793      -280.9519
  24   2.0000     -10.322510      -280.8898
  25   2.0000     -10.321109      -280.8517
  26   2.0000     -10.319414      -280.8055
  27   2.0000     -10.316945      -280.7383
  28   2.0000     -10.316617      -280.7294
  29   2.0000     -10.313998      -280.6581
  30   2.0000     -10.310010      -280.5496
  31   2.0000     -10.309240      -280.5287
  32   2.0000     -10.308230      -280.5012
  33   2.0000     -10.308112      -280.4980
  34   2.0000     -10.304976      -280.4127
  35   2.0000     -10.304493      -280.3995
  36   2.0000     -10.303041      -280.3600
  37   2.0000     -10.302351      -280.3412
  38   2.0000     -10.301049      -280.3058
  39   2.0000     -10.294532      -280.1285
  40   2.0000     -10.293938      -280.1123
  41   2.0000     -10.291100      -280.0351
  42   2.0000     -10.284102      -279.8446
  43   2.0000     -10.281598      -279.7765
  44   2.0000     -10.281377      -279.7705
  45   2.0000     -10.280641      -279.7505
  46   2.0000     -10.279894      -279.7301
  47   2.0000     -10.278398      -279.6894
  48   2.0000     -10.278094      -279.6812
  49   2.0000     -10.276178      -279.6290
  50   2.0000     -10.275099      -279.5997
  51   2.0000     -10.269444      -279.4458
  52   2.0000     -10.264964      -279.3239
  53   2.0000     -10.261315      -279.2246
  54   2.0000     -10.255209      -279.0584
  55   2.0000     -10.255199      -279.0581
  56   2.0000     -10.254712      -279.0449
  57   2.0000     -10.254425      -279.0371
  58   2.0000     -10.252539      -278.9858
  59   2.0000     -10.251286      -278.9517
  60   2.0000     -10.246456      -278.8202
  61   2.0000     -10.244279      -278.7610
  62   2.0000     -10.242168      -278.7036
  63   2.0000     -10.239769      -278.6383
  64   2.0000     -10.238992      -278.6171
  65   2.0000     -10.237150      -278.5670
  66   2.0000     -10.233820      -278.4764
  67   2.0000      -8.776835      -238.8298
  68   2.0000      -8.057760      -219.2628
  69   2.0000      -8.051676      -219.0972
  70   2.0000      -8.046613      -218.9595
  71   2.0000      -6.613050      -179.9502
  72   2.0000      -6.598590      -179.5568
  73   2.0000      -6.598456      -179.5531
  74   2.0000      -6.027300      -164.0112
  75   2.0000      -6.023257      -163.9012
  76   2.0000      -6.021364      -163.8496
  77   2.0000      -6.019152      -163.7895
  78   2.0000      -6.017129      -163.7344
  79   2.0000      -6.016148      -163.7077
  80   2.0000      -6.012898      -163.6193
  81   2.0000      -6.012068      -163.5967
  82   2.0000      -6.008188      -163.4911
  83   2.0000      -2.728892       -74.2569
  84   2.0000      -2.724858       -74.1471
  85   2.0000      -2.724816       -74.1460
  86   2.0000      -2.713287       -73.8323
  87   2.0000      -2.713269       -73.8318
  88   2.0000      -1.321601       -35.9626
  89   2.0000      -1.228564       -33.4309
  90   2.0000      -1.139914       -31.0186
  91   2.0000      -1.114577       -30.3292
  92   2.0000      -1.095860       -29.8199
  93   2.0000      -1.065363       -28.9900
  94   2.0000      -1.047217       -28.4962
  95   2.0000      -1.004751       -27.3407
  96   2.0000      -0.998952       -27.1829
  97   2.0000      -0.990973       -26.9658
  98   2.0000      -0.979493       -26.6534
  99   2.0000      -0.971281       -26.4299
 100   2.0000      -0.962589       -26.1934
 101   2.0000      -0.941672       -25.6242
 102   2.0000      -0.935348       -25.4521
 103   2.0000      -0.922807       -25.1108
 104   2.0000      -0.918668       -24.9982
 105   2.0000      -0.904831       -24.6217
 106   2.0000      -0.896165       -24.3859
 107   2.0000      -0.890020       -24.2187
 108   2.0000      -0.883887       -24.0518
 109   2.0000      -0.878552       -23.9066
 110   2.0000      -0.865755       -23.5584
 111   2.0000      -0.862225       -23.4623
 112   2.0000      -0.852822       -23.2065
 113   2.0000      -0.848582       -23.0911
 114   2.0000      -0.844187       -22.9715
 115   2.0000      -0.837125       -22.7793
 116   2.0000      -0.826762       -22.4973
 117   2.0000      -0.822250       -22.3745
 118   2.0000      -0.817801       -22.2535
 119   2.0000      -0.811666       -22.0866
 120   2.0000      -0.806316       -21.9410
 121   2.0000      -0.801690       -21.8151
 122   2.0000      -0.788855       -21.4658
 123   2.0000      -0.781345       -21.2615
 124   2.0000      -0.773668       -21.0526
 125   2.0000      -0.752936       -20.4884
 126   2.0000      -0.749590       -20.3974
 127   2.0000      -0.736509       -20.0414
 128   2.0000      -0.731655       -19.9093
 129   2.0000      -0.718719       -19.5573
 130   2.0000      -0.705663       -19.2021
 131   2.0000      -0.698197       -18.9989
 132   2.0000      -0.694761       -18.9054
 133   2.0000      -0.686563       -18.6823
 134   2.0000      -0.674357       -18.3502
 135   2.0000      -0.673158       -18.3176
 136   2.0000      -0.670766       -18.2525
 137   2.0000      -0.664141       -18.0722
 138   2.0000      -0.660216       -17.9654
 139   2.0000      -0.655716       -17.8430
 140   2.0000      -0.651184       -17.7196
 141   2.0000      -0.644429       -17.5358
 142   2.0000      -0.637141       -17.3375
 143   2.0000      -0.634564       -17.2674
 144   2.0000      -0.634054       -17.2535
 145   2.0000      -0.633729       -17.2446
 146   2.0000      -0.627064       -17.0633
 147   2.0000      -0.620008       -16.8713
 148   2.0000      -0.610419       -16.6103
 149   2.0000      -0.606993       -16.5171
 150   2.0000      -0.603031       -16.4093
 151   2.0000      -0.601810       -16.3761
 152   2.0000      -0.598273       -16.2798
 153   2.0000      -0.590951       -16.0806
 154   2.0000      -0.587988       -16.0000
 155   2.0000      -0.582973       -15.8635
 156   2.0000      -0.573853       -15.6153
 157   2.0000      -0.571043       -15.5389
 158   2.0000      -0.570014       -15.5109
 159   2.0000      -0.568377       -15.4663
 160   2.0000      -0.559898       -15.2356
 161   2.0000      -0.558723       -15.2036
 162   2.0000      -0.551682       -15.0120
 163   2.0000      -0.550482       -14.9794
 164   2.0000      -0.540321       -14.7029
 165   2.0000      -0.539421       -14.6784
 166   2.0000      -0.533173       -14.5084
 167   2.0000      -0.526868       -14.3368
 168   2.0000      -0.524452       -14.2711
 169   2.0000      -0.522790       -14.2258
 170   2.0000      -0.520639       -14.1673
 171   2.0000      -0.519405       -14.1337
 172   2.0000      -0.514850       -14.0098
 173   2.0000      -0.513558       -13.9746
 174   2.0000      -0.511083       -13.9073
 175   2.0000      -0.508216       -13.8293
 176   2.0000      -0.505860       -13.7651
 177   2.0000      -0.504556       -13.7297
 178   2.0000      -0.503431       -13.6991
 179   2.0000      -0.501487       -13.6461
 180   2.0000      -0.498939       -13.5768
 181   2.0000      -0.491979       -13.3874
 182   2.0000      -0.488242       -13.2857
 183   2.0000      -0.487008       -13.2522
 184   2.0000      -0.484604       -13.1867
 185   2.0000      -0.481785       -13.1100
 186   2.0000      -0.479273       -13.0417
 187   2.0000      -0.476978       -12.9792
 188   2.0000      -0.472515       -12.8578
 189   2.0000      -0.471724       -12.8363
 190   2.0000      -0.470280       -12.7970
 191   2.0000      -0.468803       -12.7568
 192   2.0000      -0.468231       -12.7412
 193   2.0000      -0.466092       -12.6830
 194   2.0000      -0.462435       -12.5835
 195   2.0000      -0.461757       -12.5650
 196   2.0000      -0.457780       -12.4568
 197   2.0000      -0.448348       -12.2002
 198   2.0000      -0.446458       -12.1487
 199   2.0000      -0.443873       -12.0784
 200   2.0000      -0.441890       -12.0245
 201   2.0000      -0.440731       -11.9929
 202   2.0000      -0.439288       -11.9536
 203   2.0000      -0.438252       -11.9254
 204   2.0000      -0.435979       -11.8636
 205   2.0000      -0.432710       -11.7746
 206   2.0000      -0.430583       -11.7168
 207   2.0000      -0.428443       -11.6585
 208   2.0000      -0.424472       -11.5505
 209   2.0000      -0.421882       -11.4800
 210   2.0000      -0.420751       -11.4492
 211   2.0000      -0.417866       -11.3707
 212   2.0000      -0.415992       -11.3197
 213   2.0000      -0.409393       -11.1401
 214   2.0000      -0.407184       -11.0800
 215   2.0000      -0.406287       -11.0556
 216   2.0000      -0.402914       -10.9638
 217   2.0000      -0.401572       -10.9273
 218   2.0000      -0.396145       -10.7797
 219   2.0000      -0.394238       -10.7278
 220   2.0000      -0.390410       -10.6236
 221   2.0000      -0.389176       -10.5900
 222   2.0000      -0.386457       -10.5160
 223   2.0000      -0.383522       -10.4362
 224   2.0000      -0.380696       -10.3593
 225   2.0000      -0.372442       -10.1347
 226   2.0000      -0.372173       -10.1273
 227   2.0000      -0.365836        -9.9549
 228   2.0000      -0.365129        -9.9357
 229   2.0000      -0.363009        -9.8780
 230   2.0000      -0.362875        -9.8743
 231   2.0000      -0.359566        -9.7843
 232   2.0000      -0.348327        -9.4785
 233   2.0000      -0.347026        -9.4431
 234   2.0000      -0.342081        -9.3085
 235   2.0000      -0.340264        -9.2591
 236   2.0000      -0.326535        -8.8855
 237   2.0000      -0.317042        -8.6271
 238   2.0000      -0.313510        -8.5310
 239   2.0000      -0.304875        -8.2961
 240   2.0000      -0.295093        -8.0299
 241   2.0000      -0.290102        -7.8941
 242   2.0000      -0.283405        -7.7119
 243   2.0000      -0.275228        -7.4893
 244   2.0000      -0.266042        -7.2394
 245   2.0000      -0.252284        -6.8650
 246   2.0000      -0.211060        -5.7432
 247   0.0000      -0.094667        -2.5760
 248   0.0000      -0.046289        -1.2596
 249   0.0000      -0.043954        -1.1960
 250   0.0000      -0.025479        -0.6933
 251   0.0000       0.005748         0.1564

MULLIKEN ATOMIC CHARGES
-----------------------
   0 C :    0.148461
   1 C :   -0.145606
   2 C :    0.188890
   3 C :    0.032900
   4 C :   -0.093164
   5 O :   -0.364208
   6 C :    0.234903
   7 C :   -0.184480
   8 C :    0.012299
   9 C :   -0.058765
  10 C :    0.027261
  11 C :    0.053702
  12 C :    0.059005
  13 C :    0.031238
  14 C :    0.053397
  15 C :   -0.129229
  16 O :   -0.153534
  17 C :    0.075838
  18 C :    0.090894
  19 N :    0.290325
  20 O :   -0.242470
  21 O :   -0.278322
  22 C :    0.066906
  23 N :   -0.037866
  24 C :    0.062580
  25 C :   -0.255641
  26 C :    0.051936
  27 C :    0.187421
  28 N :   -0.123725
  29 C :    0.092007
  30 C :   -0.086325
  31 C :    0.042082
  32 C :   -0.070347
  33 C :    0.064452
  34 C :    0.003719
  35 C :   -0.015232
  36 S :    0.110671
  37 C :   -0.065225
  38 C :    0.045691
  39 C :    0.008620
  40 C :    0.014149
  41 S :    0.082943
  42 C :   -0.024419
  43 C :   -0.055332
  44 C :   -0.101262
  45 C :    0.347278
  46 C :   -0.395030
  47 C :   -0.196629
  48 N :    0.119166
  49 C :   -0.127730
  50 N :    0.085299
  51 C :    0.012309
  52 C :   -0.008430
  53 C :    0.129440
  54 O :   -0.173384
  55 C :   -0.087823
  56 C :    0.121888
  57 C :   -0.091128
  58 C :   -0.039147
  59 S :    0.170207
  60 C :   -0.123743
  61 C :    0.032826
  62 Br:    0.005929
  63 H :    0.011652
  64 H :    0.001092
  65 H :   -0.019307
  66 H :    0.026434
  67 H :   -0.012505
  68 H :   -0.003505
  69 H :    0.008944
  70 H :   -0.014957
  71 H :    0.056345
  72 H :   -0.012164
  73 H :   -0.014952
  74 H :   -0.006773
  75 H :    0.005222
  76 H :    0.002468
  77 H :    0.019890
  78 H :    0.007835
  79 H :    0.015145
  80 H :   -0.010092
  81 H :    0.014114
  82 H :    0.025918
  83 H :    0.046924
  84 H :    0.021586
  85 H :    0.126886
  86 H :    0.013566
  87 H :    0.037315
  88 H :    0.038746
  89 H :    0.005285
  90 H :    0.047231
  91 H :    0.032828
  92 H :    0.135006
  93 H :    0.016800
  94 H :    0.020155
  95 H :   -0.006242
  96 H :   -0.008239
  97 H :   -0.012082
  98 H :   -0.011509
  99 H :   -0.008252
 100 H :    0.008396
 101 H :    0.008308
 102 H :   -0.019062
 103 H :   -0.014653
 104 H :   -0.008225
Sum of atomic charges:   -0.0000000

LOEWDIN ATOMIC CHARGES
----------------------
   0 C :   -0.016228
   1 C :   -0.013587
   2 C :   -0.036763
   3 C :    0.067243
   4 C :   -0.136344
   5 O :   -0.131050
   6 C :    0.100910
   7 C :   -0.057454
   8 C :   -0.017691
   9 C :   -0.026762
  10 C :   -0.032758
  11 C :   -0.046762
  12 C :   -0.036672
  13 C :   -0.023077
  14 C :   -0.047872
  15 C :   -0.013729
  16 O :    0.057314
  17 C :    0.073814
  18 C :   -0.105117
  19 N :    0.296670
  20 O :   -0.204269
  21 O :   -0.230426
  22 C :   -0.016370
  23 N :    0.019732
  24 C :    0.029244
  25 C :   -0.122564
  26 C :   -0.061439
  27 C :    0.047581
  28 N :    0.038069
  29 C :    0.083336
  30 C :   -0.134867
  31 C :    0.021689
  32 C :   -0.196918
  33 C :   -0.000046
  34 C :   -0.065036
  35 C :   -0.129836
  36 S :    0.415786
  37 C :   -0.221580
  38 C :   -0.006743
  39 C :   -0.065243
  40 C :   -0.099306
  41 S :    0.426549
  42 C :   -0.090447
  43 C :    0.040371
  44 C :   -0.132390
  45 C :    0.074935
  46 C :   -0.178098
  47 C :   -0.016512
  48 N :   -0.093434
  49 C :    0.002699
  50 N :   -0.097666
  51 C :   -0.017012
  52 C :   -0.046400
  53 C :    0.077837
  54 O :   -0.169433
  55 C :    0.012545
  56 C :   -0.039036
  57 C :   -0.148393
  58 C :   -0.019151
  59 S :    0.420258
  60 C :   -0.278275
  61 C :   -0.071224
  62 Br:    0.122858
  63 H :    0.018188
  64 H :    0.019133
  65 H :    0.013310
  66 H :    0.026505
  67 H :    0.023923
  68 H :    0.013434
  69 H :    0.015138
  70 H :    0.008119
  71 H :    0.040527
  72 H :    0.021870
  73 H :    0.018661
  74 H :    0.016703
  75 H :    0.020051
  76 H :    0.019354
  77 H :    0.024291
  78 H :    0.029277
  79 H :    0.033397
  80 H :    0.019071
  81 H :    0.025291
  82 H :    0.035655
  83 H :    0.035030
  84 H :    0.035517
  85 H :    0.069946
  86 H :    0.032528
  87 H :    0.037402
  88 H :    0.032886
  89 H :    0.025765
  90 H :    0.035591
  91 H :    0.026135
  92 H :    0.085701
  93 H :    0.034449
  94 H :    0.025136
  95 H :    0.036753
  96 H :    0.035812
  97 H :    0.032164
  98 H :    0.032896
  99 H :    0.035233
 100 H :    0.036545
 101 H :    0.025345
 102 H :    0.037140
 103 H :    0.038188
 104 H :    0.036479

  Mayer bond orders larger than 0.100000
B(  0-C ,  1-C ) :   1.1208 B(  0-C ,  7-C ) :   1.0065 B(  0-C , 63-H ) :   0.9007
B(  0-C , 64-H ) :   0.9228 B(  1-C ,  2-C ) :   1.0066 B(  1-C , 10-C ) :   0.9635
B(  1-C , 65-H ) :   0.9245 B(  2-C ,  3-C ) :   1.0122 B(  2-C , 66-H ) :   0.8836
B(  2-C , 67-H ) :   0.9073 B(  3-C ,  4-C ) :   1.9318 B(  3-C ,  5-O ) :   1.0630
B(  4-C , 68-H ) :   0.9457 B(  4-C , 69-H ) :   0.9353 B(  5-O ,  6-C ) :   0.9022
B(  6-C ,  7-C ) :   1.0078 B(  6-C , 12-C ) :   1.0644 B(  6-C , 70-H ) :   0.9205
B(  7-C ,  8-C ) :   0.9805 B(  7-C , 71-H ) :   0.8913 B(  8-C ,  9-C ) :   1.8349
B(  8-C , 72-H ) :   0.9938 B(  9-C , 10-C ) :   1.0394 B(  9-C , 73-H ) :   0.9766
B( 10-C , 11-C ) :   1.0756 B( 10-C , 74-H ) :   0.8907 B( 11-C , 75-H ) :   0.9672
B( 11-C , 76-H ) :   0.9611 B( 11-C , 77-H ) :   0.9617 B( 12-C , 13-C ) :   1.0987
B( 12-C , 78-H ) :   0.9083 B( 12-C , 79-H ) :   0.9260 B( 13-C , 14-C ) :   1.0812
B( 13-C , 80-H ) :   0.9394 B( 13-C , 81-H ) :   0.9338 B( 14-C , 15-C ) :   1.0455
B( 14-C , 82-H ) :   0.9063 B( 14-C , 83-H ) :   0.9147 B( 15-C , 16-O ) :   1.1007
B( 15-C , 22-C ) :   1.4960 B( 16-O , 17-C ) :   1.2355 B( 17-C , 18-C ) :   1.4125
B( 17-C , 84-H ) :   1.0189 B( 18-C , 19-N ) :   0.9650 B( 18-C , 22-C ) :   1.2307
B( 19-N , 20-O ) :   1.5507 B( 19-N , 21-O ) :   1.4631 B( 20-O , 21-O ) :   0.2513
B( 21-O , 85-H ) :   0.1067 B( 22-C , 23-N ) :   1.2028 B( 23-N , 24-C ) :   1.1488
B( 23-N , 85-H ) :   0.8604 B( 24-C , 25-C ) :   1.8115 B( 24-C , 86-H ) :   0.9504
B( 25-C , 26-C ) :   1.0610 B( 25-C , 27-C ) :   1.0618 B( 26-C , 87-H ) :   0.9454
B( 26-C , 88-H ) :   0.9552 B( 26-C , 89-H ) :   0.9493 B( 27-C , 28-N ) :   0.9389
B( 27-C , 90-H ) :   0.9344 B( 27-C , 91-H ) :   0.9270 B( 28-N , 29-C ) :   1.3511
B( 28-N , 92-H ) :   0.9294 B( 29-C , 30-C ) :   1.4855 B( 29-C , 93-H ) :   0.9679
B( 30-C , 31-C ) :   1.2587 B( 30-C , 94-H ) :   0.9624 B( 31-C , 32-C ) :   1.4854
B( 31-C , 95-H ) :   0.9804 B( 32-C , 33-C ) :   1.2045 B( 32-C , 36-S ) :   1.0210
B( 33-C , 34-C ) :   1.5156 B( 33-C , 96-H ) :   0.9975 B( 34-C , 35-C ) :   1.2494
B( 34-C , 97-H ) :   0.9952 B( 35-C , 36-S ) :   1.1243 B( 35-C , 37-C ) :   1.3710
B( 37-C , 38-C ) :   1.2850 B( 37-C , 41-S ) :   1.0496 B( 38-C , 39-C ) :   1.4625
B( 38-C , 98-H ) :   0.9939 B( 39-C , 40-C ) :   1.2468 B( 39-C , 99-H ) :   1.0021
B( 40-C , 41-S ) :   1.1100 B( 40-C , 42-C ) :   1.3138 B( 42-C , 43-C ) :   1.3592
B( 42-C ,100-H ) :   0.9830 B( 43-C , 44-C ) :   1.3771 B( 43-C ,101-H ) :   0.9360
B( 44-C , 45-C ) :   1.1673 B( 44-C , 53-C ) :   0.9822 B( 45-C , 46-C ) :   1.5274
B( 45-C , 51-C ) :   0.9793 B( 46-C , 47-C ) :   1.1775 B( 46-C , 49-C ) :   1.1802
B( 47-C , 48-N ) :   2.9031 B( 49-C , 50-N ) :   2.7927 B( 51-C , 52-C ) :   1.2777
B( 51-C , 58-C ) :   1.4258 B( 52-C , 53-C ) :   0.9255 B( 52-C , 55-C ) :   1.4360
B( 53-C , 54-O ) :   2.1869 B( 55-C , 56-C ) :   1.2291 B( 55-C ,102-H ) :   1.0174
B( 56-C , 57-C ) :   1.3265 B( 56-C , 61-C ) :   1.1581 B( 57-C , 58-C ) :   1.3091
B( 57-C , 59-S ) :   1.0788 B( 58-C ,103-H ) :   0.9827 B( 59-S , 60-C ) :   1.0843
B( 60-C , 61-C ) :   1.6218 B( 60-C , 62-Br) :   1.0079 B( 61-C ,104-H ) :   1.0010

-----------------------------------------------------------------------------
         ABSORPTION SPECTRUM VIA TRANSITION ELECTRIC DIPOLE MOMENTS
-----------------------------------------------------------------------------
State   Energy  Wavelength   fosc         T2         TX        TY        TZ
        (cm-1)    (nm)                  (au**2)     (au)      (au)      (au)
-----------------------------------------------------------------------------
   0   11236.1    890.0   1.049145041  30.73939   0.96195   4.68657   2.80180
   1   20747.7    482.0   0.199574464   3.16673  -1.31632   0.08086  -1.19478
   2   21766.8    459.4   0.009748251   0.14744   0.22825  -0.27025   0.14935
   3   23062.2    433.6   0.334253121   4.77146   1.60586   0.14893   1.47326
   4   23632.4    423.1   0.096834444   1.34895  -0.34876   1.05129  -0.34944
   5   24759.6    403.9   0.142072279   1.88904  -1.06152  -0.11177  -0.86587
   6   25794.8    387.7   0.084618426   1.07996   0.79583  -0.42649   0.51451
   7   26688.9    374.7   0.544049327   6.71093   1.75791  -1.82323   0.54456
   8   27256.1    366.9   0.001401915   0.01693  -0.08211   0.08188  -0.05904
   9   28035.3    356.7   0.030855272   0.36233  -0.17036  -0.24190  -0.52420
  10   28225.4    354.3   0.003414485   0.03983  -0.03215   0.13089   0.14717
  11   29790.9    335.7   0.043654982   0.48242  -0.16358   0.66655   0.10665
  12   30911.0    323.5   0.000242257   0.00258  -0.01742  -0.04391  -0.01867
  13   31359.0    318.9   0.026268854   0.27577  -0.34264  -0.17336  -0.35821
  14   32025.7    312.2   0.293970006   3.02190   0.07894  -1.53906  -0.80434
  15   32441.5    308.2   0.217609433   2.20827  -0.44091  -1.04834  -0.95648
  16   32867.8    304.2   0.031053539   0.31104   0.12035   0.44677   0.31137
  17   33321.8    300.1   0.066702363   0.65900  -0.34917  -0.47917  -0.55451
  18   33792.9    295.9   0.005020131   0.04891  -0.14352  -0.01770  -0.16731
  19   34932.5    286.3   0.125630313   1.18397   0.56446   0.45738   0.81003
  20   35015.1    285.6   0.000333979   0.00314  -0.02495  -0.03120  -0.03930
  21   35154.8    284.5   0.062947052   0.58948   0.50748  -0.54866  -0.17583
  22   36708.7    272.4   0.071584129   0.64198  -0.43032  -0.03068  -0.67518
  23   36867.9    271.2   0.000940945   0.00840   0.01091   0.04598   0.07854
  24   37321.2    267.9   0.076307202   0.67311   0.62606  -0.45358   0.27463
  25   37583.2    266.1   0.116423768   1.01982   0.33204  -0.88290  -0.36063
  26   37714.1    265.2   0.027789066   0.24258  -0.39177   0.25864  -0.14899
  27   38103.2    262.4   0.235523640   2.03492   0.92045   0.00109   1.08981
  28   38540.0    259.5   0.010922163   0.09330  -0.24146   0.17811  -0.05720
  29   38800.2    257.7   0.000873939   0.00742   0.00504   0.07969   0.03223
  30   38849.1    257.4   0.000568631   0.00482  -0.04380  -0.02814  -0.04591
  31   38862.2    257.3   0.001843156   0.01561   0.08828   0.02698   0.08422
  32   40100.8    249.4   0.110128188   0.90411   0.44896   0.47170   0.69285
  33   40204.9    248.7   0.029837264   0.24432  -0.23754   0.41604  -0.12166

FINAL SINGLE POINT ENERGY     -6307.072869173888

DIPOLE MOMENT
-------------
                                X             Y             Z
Electronic contribution:    -56.11808    -167.68115     -81.37995
Nuclear contribution   :     55.79200     172.58767      82.57535
                        -----------------------------------------
Total Dipole Moment    :     -0.32608       4.90653       1.19540
                        -----------------------------------------
Magnitude (a.u.)       :      5.06056
Magnitude (Debye)      :     12.86293

Rotational constants in cm-1:     0.001326     0.000515     0.000392
Rotational constants in MHz :    39.753653    15.424743    11.765855

                             ****ORCA TERMINATED NORMALLY****
TOTAL RUN TIME: 0 days 0 hours 16 minutes 29 seconds 489 msec
