                         Program Version 4.2.0 -  RELEASE  -
|  1> # ORCA input file
|  2> # SCF done       -176.652566100589          0.000905265096
|  3> ! CAM-B3LYP def2-SVP def2/J RIJCOSX Grid4 TightSCF
|  4> %maxcore 5000
|  5> %tddft
|  6>     Mode sTDDFT
|  7>     Ethresh 5.0
|  8>     maxcore 5000
|  9> end
| 10>
| 11> %pal
| 12>   nprocs 6
| 13>   end
| 14> * xyz 0 1
| 15>    C       -4.57956        -0.80870         0.62073
| 16>    C       -5.27902        -1.84207         1.20274
| 17>    C       -4.75301        -3.13122         1.41438
| 18>    N       -4.38517        -4.20093         1.61558
| 19>    C       -6.60462        -1.77595         1.67216
| 20>    N       -7.68036        -1.80413         2.07823
| 21>    C       -3.20162        -0.89869         0.14213
| 22>    C       -2.82307         0.36120        -0.38232
| 23>    C       -1.58150         0.60283        -0.91451
| 24>    C       -0.66314        -0.45347        -0.93139
| 25>    C       -1.04838        -1.70776        -0.40580
| 26>    C       -2.30681        -1.95104         0.13349
| 27>    S        0.23626        -2.87261        -0.52539
| 28>    C        1.25855        -1.67307        -1.27074
| 29>    C        0.67123        -0.46283        -1.42280
| 30>   Br        3.00594        -2.13113        -1.77849
| 31>    C       -3.95802         1.29437        -0.24920
| 32>    O       -3.96844         2.46495        -0.59897
| 33>    C       -5.03927         0.53658         0.37261
| 34>    C       -6.30218         1.01650         0.66648
| 35>    C       -6.86138         2.27454         0.48405
| 36>    S       -6.06432         3.67314        -0.18504
| 37>    C       -7.46532         4.66634        -0.00660
| 38>    C       -8.54176         3.94624         0.55818
| 39>    C       -8.20290         2.59446         0.83837
| 40>    C       -9.15939         1.73942         1.40520
| 41>    C      -10.40915         2.23192         1.67845
| 42>    F      -11.33764         1.43067         2.22031
| 43>    C      -10.74359         3.57050         1.40120
| 44>    F      -11.98064         4.01288         1.68627
| 45>    C       -9.82934         4.42484         0.84837
| 46>    C       -7.48256         6.02754        -0.39029
| 47>    C       -6.42735         6.66173        -0.96204
| 48>    C       -6.35287         8.02965        -1.37349
| 49>    C       -7.03622         9.09476        -0.91066
| 50>    C       -8.02712         9.06320         0.20955
| 51>    C       -6.85609        10.43619        -1.57908
| 52>    N       -7.90049        10.62614        -2.56522
| 53>    C       -7.76066        10.29128        -3.86548
| 54>    C       -8.79965        10.08788        -4.71986
| 55>    C       -8.63869         9.85039        -6.09485
| 56>    C       -9.66892         9.60331        -6.96641
| 57>    C       -9.57775         9.37594        -8.35975
| 58>    C      -10.77339         9.14177        -8.96978
| 59>    C      -11.88038         9.16030        -8.09325
| 60>    S      -11.35506         9.50784        -6.46251
| 61>    C      -13.20993         8.92312        -8.38859
| 62>    C      -13.77530         8.62951        -9.64779
| 63>    C      -15.11551         8.41039        -9.59557
| 64>    C      -15.69215         8.51194        -8.29663
| 65>    S      -14.44368         8.93335        -7.14107
| 66>    C      -17.02196         8.26623        -8.07666
| 67>    C      -17.81830         8.25584        -6.89975
| 68>    C      -19.16642         7.85137        -6.99823
| 69>    O      -19.58431         7.53925        -8.25766
| 70>    C      -20.59974         6.58306        -8.48344
| 71>    C      -20.02600         7.82433        -5.85962
| 72>    O      -21.32447         7.47201        -6.09476
| 73>    C      -22.21496         7.40912        -5.00729
| 74>    C      -19.56238         8.15599        -4.60633
| 75>    C      -18.22912         8.55502        -4.46640
| 76>    C      -17.35539         8.61909        -5.60649
| 77>    N      -16.14476         9.03790        -5.27094
| 78>    S      -16.09744         9.31869        -3.68071
| 79>    N      -17.62311         8.92525        -3.33967
| 80>    H       -1.32461         1.57445        -1.30650
| 81>    H       -2.54942        -2.92617         0.52079
| 82>    H        1.15682         0.38899        -1.86290
| 83>    H       -6.98033         0.30245         1.11106
| 84>    H       -8.94800         0.70736         1.63607
| 85>    H      -10.11317         5.44424         0.64578
| 86>    H       -8.41565         6.54861        -0.24787
| 87>    H       -5.54547         6.06797        -1.17026
| 88>    H       -5.60285         8.21998        -2.13274
| 89>    H       -7.75364         8.30538         0.94016
| 90>    H       -9.03123         8.83836        -0.15331
| 91>    H       -8.06458        10.03086         0.70772
| 92>    H       -5.89318        10.49804        -2.08951
| 93>    H       -6.92037        11.24866        -0.84825
| 94>    H       -8.84441        10.61223        -2.20326
| 95>    H       -6.74071        10.24186        -4.22200
| 96>    H       -9.81169        10.11629        -4.33753
| 97>    H       -7.63566         9.85902        -6.50108
| 98>    H       -8.62928         9.39383        -8.86773
| 99>    H      -10.88825         8.95030       -10.02159
|100>    H      -13.18899         8.58564       -10.54858
|101>    H      -15.72307         8.16838       -10.45021
|102>    H      -17.57605         8.00513        -8.96927
|103>    H      -20.50139         5.72392        -7.81621
|104>    H      -20.45833         6.25771        -9.51489
|105>    H      -21.59642         7.01590        -8.37303
|106>    H      -23.16711         7.09382        -5.43128
|107>    H      -22.33594         8.38606        -4.52999
|108>    H      -21.88897         6.67648        -4.26287
|109>    H      -20.18966         8.14136        -3.73294
|110> *
|111>
|112>                          ****END OF INPUT****

CARTESIAN COORDINATES (ANGSTROEM)
---------------------------------
  C     -4.579560   -0.808700    0.620730
  C     -5.279020   -1.842070    1.202740
  C     -4.753010   -3.131220    1.414380
  N     -4.385170   -4.200930    1.615580
  C     -6.604620   -1.775950    1.672160
  N     -7.680360   -1.804130    2.078230
  C     -3.201620   -0.898690    0.142130
  C     -2.823070    0.361200   -0.382320
  C     -1.581500    0.602830   -0.914510
  C     -0.663140   -0.453470   -0.931390
  C     -1.048380   -1.707760   -0.405800
  C     -2.306810   -1.951040    0.133490
  S      0.236260   -2.872610   -0.525390
  C      1.258550   -1.673070   -1.270740
  C      0.671230   -0.462830   -1.422800
  Br     3.005940   -2.131130   -1.778490
  C     -3.958020    1.294370   -0.249200
  O     -3.968440    2.464950   -0.598970
  C     -5.039270    0.536580    0.372610
  C     -6.302180    1.016500    0.666480
  C     -6.861380    2.274540    0.484050
  S     -6.064320    3.673140   -0.185040
  C     -7.465320    4.666340   -0.006600
  C     -8.541760    3.946240    0.558180
  C     -8.202900    2.594460    0.838370
  C     -9.159390    1.739420    1.405200
  C    -10.409150    2.231920    1.678450
  F    -11.337640    1.430670    2.220310
  C    -10.743590    3.570500    1.401200
  F    -11.980640    4.012880    1.686270
  C     -9.829340    4.424840    0.848370
  C     -7.482560    6.027540   -0.390290
  C     -6.427350    6.661730   -0.962040
  C     -6.352870    8.029650   -1.373490
  C     -7.036220    9.094760   -0.910660
  C     -8.027120    9.063200    0.209550
  C     -6.856090   10.436190   -1.579080
  N     -7.900490   10.626140   -2.565220
  C     -7.760660   10.291280   -3.865480
  C     -8.799650   10.087880   -4.719860
  C     -8.638690    9.850390   -6.094850
  C     -9.668920    9.603310   -6.966410
  C     -9.577750    9.375940   -8.359750
  C    -10.773390    9.141770   -8.969780
  C    -11.880380    9.160300   -8.093250
  S    -11.355060    9.507840   -6.462510
  C    -13.209930    8.923120   -8.388590
  C    -13.775300    8.629510   -9.647790
  C    -15.115510    8.410390   -9.595570
  C    -15.692150    8.511940   -8.296630
  S    -14.443680    8.933350   -7.141070
  C    -17.021960    8.266230   -8.076660
  C    -17.818300    8.255840   -6.899750
  C    -19.166420    7.851370   -6.998230
  O    -19.584310    7.539250   -8.257660
  C    -20.599740    6.583060   -8.483440
  C    -20.026000    7.824330   -5.859620
  O    -21.324470    7.472010   -6.094760
  C    -22.214960    7.409120   -5.007290
  C    -19.562380    8.155990   -4.606330
  C    -18.229120    8.555020   -4.466400
  C    -17.355390    8.619090   -5.606490
  N    -16.144760    9.037900   -5.270940
  S    -16.097440    9.318690   -3.680710
  N    -17.623110    8.925250   -3.339670
  H     -1.324610    1.574450   -1.306500
  H     -2.549420   -2.926170    0.520790
  H      1.156820    0.388990   -1.862900
  H     -6.980330    0.302450    1.111060
  H     -8.948000    0.707360    1.636070
  H    -10.113170    5.444240    0.645780
  H     -8.415650    6.548610   -0.247870
  H     -5.545470    6.067970   -1.170260
  H     -5.602850    8.219980   -2.132740
  H     -7.753640    8.305380    0.940160
  H     -9.031230    8.838360   -0.153310
  H     -8.064580   10.030860    0.707720
  H     -5.893180   10.498040   -2.089510
  H     -6.920370   11.248660   -0.848250
  H     -8.844410   10.612230   -2.203260
  H     -6.740710   10.241860   -4.222000
  H     -9.811690   10.116290   -4.337530
  H     -7.635660    9.859020   -6.501080
  H     -8.629280    9.393830   -8.867730
  H    -10.888250    8.950300  -10.021590
  H    -13.188990    8.585640  -10.548580
  H    -15.723070    8.168380  -10.450210
  H    -17.576050    8.005130   -8.969270
  H    -20.501390    5.723920   -7.816210
  H    -20.458330    6.257710   -9.514890
  H    -21.596420    7.015900   -8.373030
  H    -23.167110    7.093820   -5.431280
  H    -22.335940    8.386060   -4.529990
  H    -21.888970    6.676480   -4.262870
  H    -20.189660    8.141360   -3.732940

 Total Charge           Charge          ....    0
 Multiplicity           Mult            ....    1
 Number of Electrons    NEL             ....  516
 Basis Dimension        Dim             .... 1098

ORBITAL ENERGIES
----------------

  NO   OCC          E(Eh)            E(eV)
   0   2.0000    -482.883251    -13139.9213
   1   2.0000     -88.996273     -2421.7117
   2   2.0000     -88.977635     -2421.2045
   3   2.0000     -88.972388     -2421.0618
   4   2.0000     -88.921434     -2419.6752
   5   2.0000     -88.914122     -2419.4763
   6   2.0000     -62.560955     -1702.3701
   7   2.0000     -56.394899     -1534.5832
   8   2.0000     -56.392195     -1534.5096
   9   2.0000     -56.392157     -1534.5086
  10   2.0000     -24.792764      -674.6454
  11   2.0000     -24.792043      -674.6258
  12   2.0000     -19.249458      -523.8044
  13   2.0000     -19.233087      -523.3589
  14   2.0000     -19.215864      -522.8902
  15   2.0000     -14.441383      -392.9700
  16   2.0000     -14.415105      -392.2549
  17   2.0000     -14.413899      -392.2221
  18   2.0000     -14.411052      -392.1447
  19   2.0000     -14.407222      -392.0405
  20   2.0000     -10.378644      -282.4173
  21   2.0000     -10.375141      -282.3219
  22   2.0000     -10.363985      -282.0184
  23   2.0000     -10.355781      -281.7951
  24   2.0000     -10.338019      -281.3118
  25   2.0000     -10.335774      -281.2507
  26   2.0000     -10.332893      -281.1723
  27   2.0000     -10.327860      -281.0353
  28   2.0000     -10.327450      -281.0242
  29   2.0000     -10.324519      -280.9445
  30   2.0000     -10.324293      -280.9383
  31   2.0000     -10.321280      -280.8563
  32   2.0000     -10.317790      -280.7613
  33   2.0000     -10.317776      -280.7610
  34   2.0000     -10.317261      -280.7469
  35   2.0000     -10.315072      -280.6874
  36   2.0000     -10.311223      -280.5826
  37   2.0000     -10.309963      -280.5483
  38   2.0000     -10.306882      -280.4645
  39   2.0000     -10.303592      -280.3750
  40   2.0000     -10.303498      -280.3724
  41   2.0000     -10.302867      -280.3553
  42   2.0000     -10.302628      -280.3487
  43   2.0000     -10.302575      -280.3473
  44   2.0000     -10.301973      -280.3309
  45   2.0000     -10.301681      -280.3230
  46   2.0000     -10.300807      -280.2992
  47   2.0000     -10.299893      -280.2743
  48   2.0000     -10.299735      -280.2701
  49   2.0000     -10.297485      -280.2088
  50   2.0000     -10.295721      -280.1608
  51   2.0000     -10.293978      -280.1134
  52   2.0000     -10.288773      -279.9718
  53   2.0000     -10.287999      -279.9507
  54   2.0000     -10.287758      -279.9441
  55   2.0000     -10.287602      -279.9399
  56   2.0000     -10.286812      -279.9184
  57   2.0000     -10.285605      -279.8856
  58   2.0000     -10.280595      -279.7492
  59   2.0000     -10.274220      -279.5757
  60   2.0000     -10.272180      -279.5202
  61   2.0000     -10.268445      -279.4186
  62   2.0000     -10.266441      -279.3641
  63   2.0000     -10.264379      -279.3080
  64   2.0000     -10.262197      -279.2486
  65   2.0000     -10.260958      -279.2149
  66   2.0000     -10.257112      -279.1102
  67   2.0000     -10.255151      -279.0569
  68   2.0000     -10.251129      -278.9474
  69   2.0000      -8.790384      -239.1985
  70   2.0000      -8.088203      -220.0912
  71   2.0000      -8.070508      -219.6097
  72   2.0000      -8.068300      -219.5496
  73   2.0000      -8.017739      -218.1738
  74   2.0000      -8.008698      -217.9278
  75   2.0000      -6.626640      -180.3200
  76   2.0000      -6.612129      -179.9252
  77   2.0000      -6.611949      -179.9203
  78   2.0000      -6.059606      -164.8903
  79   2.0000      -6.052011      -164.6836
  80   2.0000      -6.050086      -164.6312
  81   2.0000      -6.039677      -164.3480
  82   2.0000      -6.037983      -164.3019
  83   2.0000      -6.035098      -164.2234
  84   2.0000      -6.033712      -164.1857
  85   2.0000      -6.033359      -164.1760
  86   2.0000      -6.029559      -164.0727
  87   2.0000      -5.987479      -162.9276
  88   2.0000      -5.983534      -162.8202
  89   2.0000      -5.978640      -162.6871
  90   2.0000      -5.978600      -162.6860
  91   2.0000      -5.974303      -162.5690
  92   2.0000      -5.969507      -162.4385
  93   2.0000      -2.742556       -74.6287
  94   2.0000      -2.738434       -74.5166
  95   2.0000      -2.738284       -74.5125
  96   2.0000      -2.726759       -74.1989
  97   2.0000      -2.726744       -74.1985
  98   2.0000      -1.314501       -35.7694
  99   2.0000      -1.299389       -35.3582
 100   2.0000      -1.157670       -31.5018
 101   2.0000      -1.130195       -30.7542
 102   2.0000      -1.129603       -30.7381
 103   2.0000      -1.098654       -29.8959
 104   2.0000      -1.043831       -28.4041
 105   2.0000      -1.018920       -27.7262
 106   2.0000      -1.015351       -27.6291
 107   2.0000      -1.009252       -27.4632
 108   2.0000      -0.989748       -26.9324
 109   2.0000      -0.984839       -26.7988
 110   2.0000      -0.969622       -26.3847
 111   2.0000      -0.957030       -26.0421
 112   2.0000      -0.954994       -25.9867
 113   2.0000      -0.945496       -25.7282
 114   2.0000      -0.941930       -25.6312
 115   2.0000      -0.934941       -25.4411
 116   2.0000      -0.934348       -25.4249
 117   2.0000      -0.915577       -24.9141
 118   2.0000      -0.904243       -24.6057
 119   2.0000      -0.890336       -24.2273
 120   2.0000      -0.882616       -24.0172
 121   2.0000      -0.881597       -23.9895
 122   2.0000      -0.872299       -23.7365
 123   2.0000      -0.863321       -23.4922
 124   2.0000      -0.854212       -23.2443
 125   2.0000      -0.846176       -23.0256
 126   2.0000      -0.844275       -22.9739
 127   2.0000      -0.837961       -22.8021
 128   2.0000      -0.825770       -22.4703
 129   2.0000      -0.822599       -22.3841
 130   2.0000      -0.818147       -22.2629
 131   2.0000      -0.813685       -22.1415
 132   2.0000      -0.797565       -21.7029
 133   2.0000      -0.794618       -21.6227
 134   2.0000      -0.793195       -21.5839
 135   2.0000      -0.783698       -21.3255
 136   2.0000      -0.769797       -20.9472
 137   2.0000      -0.759633       -20.6707
 138   2.0000      -0.754873       -20.5411
 139   2.0000      -0.745312       -20.2810
 140   2.0000      -0.743660       -20.2360
 141   2.0000      -0.722952       -19.6725
 142   2.0000      -0.714333       -19.4380
 143   2.0000      -0.703051       -19.1310
 144   2.0000      -0.696506       -18.9529
 145   2.0000      -0.689774       -18.7697
 146   2.0000      -0.684491       -18.6259
 147   2.0000      -0.683570       -18.6009
 148   2.0000      -0.674136       -18.3442
 149   2.0000      -0.671732       -18.2787
 150   2.0000      -0.663868       -18.0648
 151   2.0000      -0.661822       -18.0091
 152   2.0000      -0.653795       -17.7907
 153   2.0000      -0.645105       -17.5542
 154   2.0000      -0.635210       -17.2850
 155   2.0000      -0.630828       -17.1657
 156   2.0000      -0.623292       -16.9606
 157   2.0000      -0.617715       -16.8089
 158   2.0000      -0.614820       -16.7301
 159   2.0000      -0.613448       -16.6928
 160   2.0000      -0.610961       -16.6251
 161   2.0000      -0.603969       -16.4348
 162   2.0000      -0.602998       -16.4084
 163   2.0000      -0.598298       -16.2805
 164   2.0000      -0.594963       -16.1898
 165   2.0000      -0.591087       -16.0843
 166   2.0000      -0.589132       -16.0311
 167   2.0000      -0.584820       -15.9138
 168   2.0000      -0.580047       -15.7839
 169   2.0000      -0.577663       -15.7190
 170   2.0000      -0.570144       -15.5144
 171   2.0000      -0.568526       -15.4704
 172   2.0000      -0.565552       -15.3894
 173   2.0000      -0.561203       -15.2711
 174   2.0000      -0.554620       -15.0920
 175   2.0000      -0.549152       -14.9432
 176   2.0000      -0.547767       -14.9055
 177   2.0000      -0.541131       -14.7249
 178   2.0000      -0.541038       -14.7224
 179   2.0000      -0.538117       -14.6429
 180   2.0000      -0.535587       -14.5741
 181   2.0000      -0.534964       -14.5571
 182   2.0000      -0.533290       -14.5116
 183   2.0000      -0.530594       -14.4382
 184   2.0000      -0.529348       -14.4043
 185   2.0000      -0.521627       -14.1942
 186   2.0000      -0.521195       -14.1824
 187   2.0000      -0.517096       -14.0709
 188   2.0000      -0.515864       -14.0374
 189   2.0000      -0.514445       -13.9988
 190   2.0000      -0.513098       -13.9621
 191   2.0000      -0.509834       -13.8733
 192   2.0000      -0.506328       -13.7779
 193   2.0000      -0.503874       -13.7111
 194   2.0000      -0.503357       -13.6970
 195   2.0000      -0.497332       -13.5331
 196   2.0000      -0.491528       -13.3751
 197   2.0000      -0.490151       -13.3377
 198   2.0000      -0.489627       -13.3234
 199   2.0000      -0.487901       -13.2765
 200   2.0000      -0.484392       -13.1810
 201   2.0000      -0.476616       -12.9694
 202   2.0000      -0.474481       -12.9113
 203   2.0000      -0.473700       -12.8900
 204   2.0000      -0.471884       -12.8406
 205   2.0000      -0.469415       -12.7734
 206   2.0000      -0.463347       -12.6083
 207   2.0000      -0.459608       -12.5066
 208   2.0000      -0.458150       -12.4669
 209   2.0000      -0.456904       -12.4330
 210   2.0000      -0.453835       -12.3495
 211   2.0000      -0.452467       -12.3123
 212   2.0000      -0.450417       -12.2565
 213   2.0000      -0.448166       -12.1952
 214   2.0000      -0.445753       -12.1295
 215   2.0000      -0.443952       -12.0805
 216   2.0000      -0.443166       -12.0592
 217   2.0000      -0.442173       -12.0322
 218   2.0000      -0.438461       -11.9311
 219   2.0000      -0.437637       -11.9087
 220   2.0000      -0.435496       -11.8504
 221   2.0000      -0.434647       -11.8274
 222   2.0000      -0.426763       -11.6128
 223   2.0000      -0.424792       -11.5592
 224   2.0000      -0.424547       -11.5525
 225   2.0000      -0.422367       -11.4932
 226   2.0000      -0.420507       -11.4426
 227   2.0000      -0.416838       -11.3427
 228   2.0000      -0.412954       -11.2370
 229   2.0000      -0.409297       -11.1375
 230   2.0000      -0.405719       -11.0402
 231   2.0000      -0.401972       -10.9382
 232   2.0000      -0.401662       -10.9298
 233   2.0000      -0.392635       -10.6841
 234   2.0000      -0.385671       -10.4947
 235   2.0000      -0.385373       -10.4865
 236   2.0000      -0.382683       -10.4133
 237   2.0000      -0.377730       -10.2786
 238   2.0000      -0.372642       -10.1401
 239   2.0000      -0.370454       -10.0806
 240   2.0000      -0.366205        -9.9649
 241   2.0000      -0.364301        -9.9131
 242   2.0000      -0.361380        -9.8336
 243   2.0000      -0.335332        -9.1248
 244   2.0000      -0.331908        -9.0317
 245   2.0000      -0.331285        -9.0147
 246   2.0000      -0.323261        -8.7964
 247   2.0000      -0.319704        -8.6996
 248   2.0000      -0.318106        -8.6561
 249   2.0000      -0.313445        -8.5293
 250   2.0000      -0.311909        -8.4875
 251   2.0000      -0.298800        -8.1308
 252   2.0000      -0.290514        -7.9053
 253   2.0000      -0.288738        -7.8570
 254   2.0000      -0.280262        -7.6263
 255   2.0000      -0.252392        -6.8679
 256   2.0000      -0.244652        -6.6573
 257   2.0000      -0.181573        -4.9409
 258   0.0000      -0.102359        -2.7853
 259   0.0000      -0.062613        -1.7038
 260   0.0000      -0.057064        -1.5528
 261   0.0000      -0.037194        -1.0121
 262   0.0000      -0.019162        -0.5214

MULLIKEN ATOMIC CHARGES
-----------------------
   0 C :    0.328003
   1 C :   -0.367681
   2 C :   -0.183109
   3 N :    0.141150
   4 C :   -0.182231
   5 N :    0.138465
   6 C :    0.008327
   7 C :   -0.006426
   8 C :   -0.077675
   9 C :    0.118618
  10 C :   -0.094855
  11 C :   -0.020005
  12 S :    0.185066
  13 C :   -0.124558
  14 C :    0.039448
  15 Br:    0.020078
  16 C :    0.150013
  17 O :   -0.193402
  18 C :   -0.101128
  19 C :   -0.031285
  20 C :   -0.079172
  21 S :    0.208570
  22 C :   -0.059453
  23 C :    0.123916
  24 C :    0.135872
  25 C :   -0.116658
  26 C :    0.232906
  27 F :   -0.165867
  28 C :    0.221662
  29 F :   -0.177330
  30 C :   -0.110824
  31 C :   -0.023379
  32 C :    0.031238
  33 C :    0.021557
  34 C :   -0.198963
  35 C :    0.080329
  36 C :    0.195575
  37 N :   -0.144115
  38 C :    0.052488
  39 C :   -0.022863
  40 C :   -0.014378
  41 C :   -0.033335
  42 C :    0.036132
  43 C :    0.012993
  44 C :   -0.050247
  45 S :    0.049861
  46 C :   -0.037958
  47 C :    0.036325
  48 C :    0.013111
  49 C :    0.033457
  50 S :    0.093393
  51 C :   -0.119796
  52 C :    0.037719
  53 C :    0.107196
  54 O :   -0.325718
  55 C :    0.213324
  56 C :    0.234817
  57 O :   -0.328621
  58 C :    0.183223
  59 C :   -0.221975
  60 C :    0.077612
  61 C :    0.040791
  62 N :   -0.317427
  63 S :    0.471284
  64 N :   -0.280194
  65 H :   -0.015556
  66 H :   -0.007970
  67 H :   -0.005978
  68 H :   -0.017743
  69 H :    0.015325
  70 H :   -0.011146
  71 H :   -0.019851
  72 H :    0.016553
  73 H :   -0.013643
  74 H :    0.040274
  75 H :    0.042225
  76 H :    0.016235
  77 H :    0.017769
  78 H :    0.015760
  79 H :    0.116088
  80 H :   -0.005711
  81 H :   -0.015982
  82 H :   -0.027460
  83 H :   -0.024420
  84 H :   -0.022164
  85 H :   -0.026861
  86 H :   -0.022889
  87 H :   -0.014920
  88 H :    0.011526
  89 H :    0.021542
  90 H :    0.026249
  91 H :    0.035100
  92 H :    0.027929
  93 H :    0.027713
  94 H :   -0.041885
Sum of atomic charges:    0.0000000

LOEWDIN ATOMIC CHARGES
----------------------
   0 C :    0.078625
   1 C :   -0.155809
   2 C :   -0.018735
   3 N :   -0.062288
   4 C :   -0.016514
   5 N :   -0.066024
   6 C :   -0.019657
   7 C :   -0.049224
   8 C :    0.018616
   9 C :   -0.034898
  10 C :   -0.145325
  11 C :   -0.010069
  12 S :    0.431858
  13 C :   -0.272960
  14 C :   -0.071178
  15 Br:    0.133595
  16 C :    0.081643
  17 O :   -0.182299
  18 C :   -0.122377
  19 C :    0.048394
  20 C :   -0.196954
  21 S :    0.552038
  22 C :   -0.139631
  23 C :   -0.055627
  24 C :   -0.013397
  25 C :   -0.037327
  26 C :    0.076600
  27 F :   -0.045928
  28 C :    0.060246
  29 F :   -0.056353
  30 C :   -0.033417
  31 C :   -0.052392
  32 C :    0.007667
  33 C :   -0.054965
  34 C :   -0.017061
  35 C :   -0.055285
  36 C :    0.047658
  37 N :   -0.001828
  38 C :    0.036884
  39 C :   -0.116300
  40 C :   -0.044534
  41 C :   -0.171756
  42 C :   -0.034380
  43 C :   -0.048408
  44 C :   -0.172460
  45 S :    0.350206
  46 C :   -0.205023
  47 C :   -0.034022
  48 C :   -0.044188
  49 C :   -0.132600
  50 S :    0.403963
  51 C :   -0.071474
  52 C :   -0.053921
  53 C :    0.036230
  54 O :   -0.103418
  55 C :    0.078815
  56 C :    0.044150
  57 O :   -0.096606
  58 C :    0.078443
  59 C :   -0.101164
  60 C :   -0.052231
  61 C :   -0.044185
  62 N :   -0.293798
  63 S :    0.601223
  64 N :   -0.301108
  65 H :    0.038938
  66 H :    0.040871
  67 H :    0.037744
  68 H :    0.046758
  69 H :    0.047902
  70 H :    0.039632
  71 H :    0.030627
  72 H :    0.030001
  73 H :    0.029531
  74 H :    0.040329
  75 H :    0.036951
  76 H :    0.031865
  77 H :    0.031587
  78 H :    0.025110
  79 H :    0.077162
  80 H :    0.024690
  81 H :    0.017231
  82 H :    0.027877
  83 H :    0.028637
  84 H :    0.028015
  85 H :    0.025710
  86 H :    0.027885
  87 H :    0.032849
  88 H :    0.013387
  89 H :    0.019403
  90 H :    0.013480
  91 H :    0.028031
  92 H :    0.018402
  93 H :    0.017768
  94 H :    0.033866

  Mayer bond orders larger than 0.100000
B(  0-C ,  1-C ) :   1.5880 B(  0-C ,  6-C ) :   0.9899 B(  0-C , 18-C ) :   1.1152
B(  1-C ,  2-C ) :   1.1511 B(  1-C ,  4-C ) :   1.1553 B(  2-C ,  3-N ) :   2.9607
B(  4-C ,  5-N ) :   2.9674 B(  6-C ,  7-C ) :   1.2775 B(  6-C , 11-C ) :   1.4214
B(  7-C ,  8-C ) :   1.4285 B(  7-C , 16-C ) :   0.9562 B(  8-C ,  9-C ) :   1.2369
B(  8-C , 65-H ) :   1.0169 B(  9-C , 10-C ) :   1.3155 B(  9-C , 14-C ) :   1.1635
B( 10-C , 11-C ) :   1.3201 B( 10-C , 12-S ) :   1.0859 B( 11-C , 66-H ) :   0.9790
B( 12-S , 13-C ) :   1.0876 B( 13-C , 14-C ) :   1.6181 B( 13-C , 15-Br) :   1.0170
B( 14-C , 67-H ) :   0.9996 B( 16-C , 17-O ) :   2.1201 B( 16-C , 18-C ) :   0.9875
B( 18-C , 19-C ) :   1.4402 B( 19-C , 20-C ) :   1.3635 B( 19-C , 68-H ) :   0.9282
B( 20-C , 21-S ) :   1.0868 B( 20-C , 24-C ) :   1.2199 B( 21-S , 22-C ) :   1.1749
B( 22-C , 23-C ) :   1.2517 B( 22-C , 31-C ) :   1.1972 B( 23-C , 24-C ) :   1.2541
B( 23-C , 30-C ) :   1.1829 B( 24-C , 25-C ) :   1.2069 B( 25-C , 26-C ) :   1.4613
B( 25-C , 30-C ) :   0.1122 B( 25-C , 69-H ) :   0.9879 B( 26-C , 27-F ) :   1.1536
B( 26-C , 28-C ) :   1.1826 B( 28-C , 29-F ) :   1.1324 B( 28-C , 30-C ) :   1.4825
B( 30-C , 70-H ) :   0.9967 B( 31-C , 32-C ) :   1.6581 B( 31-C , 71-H ) :   0.9637
B( 32-C , 33-C ) :   1.1302 B( 32-C , 72-H ) :   0.9589 B( 33-C , 34-C ) :   1.7894
B( 33-C , 73-H ) :   0.9509 B( 34-C , 35-C ) :   1.0822 B( 34-C , 36-C ) :   1.0369
B( 35-C , 74-H ) :   0.9420 B( 35-C , 75-H ) :   0.9406 B( 35-C , 76-H ) :   0.9468
B( 36-C , 37-N ) :   1.0228 B( 36-C , 77-H ) :   0.9383 B( 36-C , 78-H ) :   0.9384
B( 37-N , 38-C ) :   1.2053 B( 37-N , 79-H ) :   0.9397 B( 38-C , 39-C ) :   1.6107
B( 38-C , 80-H ) :   0.9674 B( 39-C , 40-C ) :   1.1676 B( 39-C , 81-H ) :   0.9633
B( 40-C , 41-C ) :   1.5863 B( 40-C , 82-H ) :   0.9787 B( 41-C , 42-C ) :   1.1450
B( 41-C , 45-S ) :   1.0114 B( 42-C , 43-C ) :   1.5839 B( 42-C , 83-H ) :   0.9986
B( 43-C , 44-C ) :   1.1916 B( 43-C , 84-H ) :   0.9936 B( 44-C , 45-S ) :   1.0469
B( 44-C , 46-C ) :   1.5076 B( 46-C , 47-C ) :   1.1844 B( 46-C , 50-S ) :   0.9976
B( 47-C , 48-C ) :   1.5862 B( 47-C , 85-H ) :   0.9927 B( 48-C , 49-C ) :   1.1366
B( 48-C , 86-H ) :   1.0009 B( 49-C , 50-S ) :   1.0493 B( 49-C , 51-C ) :   1.5448
B( 51-C , 52-C ) :   1.1740 B( 51-C , 87-H ) :   0.9494 B( 52-C , 53-C ) :   1.4250
B( 52-C , 59-C ) :   0.1120 B( 52-C , 61-C ) :   1.1447 B( 53-C , 54-O ) :   1.1753
B( 53-C , 56-C ) :   1.1819 B( 54-O , 55-C ) :   0.9364 B( 55-C , 88-H ) :   0.9726
B( 55-C , 89-H ) :   0.9773 B( 55-C , 90-H ) :   0.9743 B( 56-C , 57-O ) :   1.1301
B( 56-C , 59-C ) :   1.3573 B( 57-O , 58-C ) :   0.9618 B( 58-C , 91-H ) :   0.9775
B( 58-C , 92-H ) :   0.9689 B( 58-C , 93-H ) :   0.9687 B( 59-C , 60-C ) :   1.1439
B( 59-C , 94-H ) :   1.0404 B( 60-C , 61-C ) :   1.1605 B( 60-C , 64-N ) :   1.5432
B( 61-C , 62-N ) :   1.5184 B( 62-N , 63-S ) :   1.2244 B( 62-N , 64-N ) :   0.1422
B( 63-S , 64-N ) :   1.2413

-----------------------------------------------------------------------------
         ABSORPTION SPECTRUM VIA TRANSITION ELECTRIC DIPOLE MOMENTS
-----------------------------------------------------------------------------
State   Energy  Wavelength   fosc         T2         TX        TY        TZ
        (cm-1)    (nm)                  (au**2)     (au)      (au)      (au)
-----------------------------------------------------------------------------
   0    7369.5   1356.9   0.105033424   4.69209   1.49815  -1.09294   1.11942
   1   13435.9    744.3   0.914536004  22.40842   4.71976   0.21165   0.29581
   2   16891.4    592.0   0.976295701  19.02793  -1.61971   3.96388  -0.83195
   3   18161.5    550.6   0.023741242   0.43036   0.12887  -0.52430  -0.37263
   4   20098.2    497.6   0.339937966   5.56824   1.70330   0.80147   1.42291
   5   21048.7    475.1   0.067710009   1.05902   0.97186   0.08665  -0.32712
   6   22685.2    440.8   0.018459346   0.26789  -0.51419  -0.03823  -0.04512
   7   24000.7    416.7   0.003331256   0.04569   0.10743  -0.18352  -0.02171
   8   25132.6    397.9   0.081344867   1.06554   0.01806  -0.16442  -1.01891
   9   26390.2    378.9   0.066489732   0.82945  -0.06320  -0.12611   0.89975
  10   26617.7    375.7   0.192394718   2.37957  -1.40883   0.19809   0.59627
  11   27341.1    365.7   0.004266845   0.05138   0.12607  -0.07036  -0.17473
  12   28700.5    348.4   0.002452798   0.02814   0.03243   0.08711  -0.13962
  13   29263.9    341.7   0.417900201   4.70127  -0.78914  -0.09889   2.01711
  14   29612.9    337.7   0.018722680   0.20814  -0.13843   0.42198  -0.10448
  15   29900.2    334.4   0.179579138   1.97723   1.27420   0.59013  -0.07347
  16   30602.8    326.8   0.086358367   0.92901  -0.94858  -0.12869   0.11246
  17   31086.8    321.7   0.034237934   0.36258  -0.38573  -0.28390  -0.36496
  18   31498.3    317.5   0.045893659   0.47967  -0.47149  -0.50006   0.08546
  19   32180.7    310.7   0.049944522   0.51094   0.70829   0.09447  -0.01831
  20   32298.1    309.6   0.272070102   2.77319  -0.88216  -0.08623   1.40981
  21   32381.7    308.8   0.360965217   3.66979  -1.85528  -0.44602  -0.16971
  22   32411.6    308.5   0.003987655   0.04050  -0.20025  -0.01907   0.00638
  23   32504.9    307.6   0.283704746   2.87338   1.51067   0.41790  -0.64546
  24   32648.1    306.3   0.017184225   0.17328  -0.27970   0.29431   0.09181
  25   32924.7    303.7   0.004558936   0.04558   0.16663   0.05091   0.12340
  26   33474.1    298.7   0.180388769   1.77409   0.10364  -0.24229  -1.30562
  27   33723.0    296.5   0.046191096   0.45093  -0.64011   0.18590  -0.08143
  28   34075.9    293.5   0.008886418   0.08585  -0.02991   0.07049   0.28283
  29   34140.6    292.9   0.006906133   0.06659  -0.01614  -0.15126  -0.20846
  30   34328.7    291.3   0.005652786   0.05421  -0.17201  -0.07636   0.13708
  31   34853.2    286.9   0.002825611   0.02669  -0.04017  -0.13504   0.08270
  32   35769.6    279.6   0.270503510   2.48963   0.85255   1.29237  -0.30426
  33   36389.0    274.8   0.018667803   0.16889   0.21351   0.30836   0.16797
  34   36478.2    274.1   0.037611373   0.33944  -0.54623   0.19889  -0.03898
  35   36717.2    272.4   0.182738712   1.63846   0.10102   1.20659  -0.41520
  36   37466.8    266.9   0.041851529   0.36774  -0.59002  -0.11915   0.07360
  37   37900.2    263.9   0.001577691   0.01370  -0.11701  -0.00362   0.00062
  38   38691.7    258.5   0.005975872   0.05085  -0.15844   0.09312   0.13066
  39   38716.1    258.3   0.000580994   0.00494  -0.05911   0.00971   0.03677
  40   39101.3    255.7   0.058645087   0.49376   0.50147   0.37033  -0.32426
  41   39242.9    254.8   0.019912888   0.16705  -0.10210  -0.32110   0.23135
  42   39580.1    252.7   0.004888759   0.04066  -0.14011   0.12807   0.06804
  43   39598.2    252.5   0.287243787   2.38809  -1.33985   0.75517   0.15035
  44   39980.5    250.1   0.018978779   0.15628  -0.05630   0.23900   0.30982
  45   40187.9    248.8   0.088417308   0.72430  -0.06000  -0.80735   0.26245
  46   40269.7    248.3   0.001401036   0.01145  -0.09809   0.03966   0.01613

FINAL SINGLE POINT ENERGY     -7145.316476903397

DIPOLE MOMENT
-------------
                                X             Y             Z
Electronic contribution:    170.87214    -131.82126      47.60297
Nuclear contribution   :   -169.76273     134.71069     -48.13119
                        -----------------------------------------
Total Dipole Moment    :      1.10941       2.88943      -0.52822
                        -----------------------------------------
Magnitude (a.u.)       :      3.13984
Magnitude (Debye)      :      7.98084

Rotational constants in cm-1:     0.001205     0.000234     0.000220
Rotational constants in MHz :    36.132157     7.029647     6.603969

                             ****ORCA TERMINATED NORMALLY****
TOTAL RUN TIME: 0 days 0 hours 8 minutes 56 seconds 363 msec
