                         Program Version 4.2.0 -  RELEASE  -
|  1> # ORCA input file
|  2> # SCF done       -206.451121516339          0.000523926149
|  3> ! CAM-B3LYP def2-SVP def2/J RIJCOSX Grid4 TightSCF
|  4> %maxcore 5000
|  5> %tddft
|  6>     Mode sTDDFT
|  7>     Ethresh 5.0
|  8>     maxcore 5000
|  9> end
| 10>
| 11> %pal
| 12>   nprocs 6
| 13>   end
| 14> * xyz 0 1
| 15>    C       -8.40523         3.13691         4.94596
| 16>    C       -8.83560         2.40129         6.02314
| 17>    C       -9.67677         2.90398         7.03786
| 18>    N      -10.35473         3.24669         7.89898
| 19>    C       -8.50396         1.06186         6.30878
| 20>    N       -8.27567        -0.01492         6.64101
| 21>    C       -8.73187         4.54104         4.71179
| 22>    C       -8.08569         4.96562         3.52538
| 23>    C       -8.18828         6.24467         3.03714
| 24>    C       -8.96922         7.15532         3.75689
| 25>    C       -9.61344         6.72423         4.94056
| 26>    C       -9.50891         5.42866         5.43266
| 27>    S      -10.52748         8.00761         5.67354
| 28>    C      -10.03707         9.09067         4.39819
| 29>    C       -9.23147         8.52256         3.46951
| 30>   Br      -10.63517        10.86816         4.41260
| 31>    C       -7.33721         3.83276         2.95163
| 32>    O       -6.68897         3.85123         1.92131
| 33>    C       -7.54681         2.70083         3.86236
| 34>    C       -6.99872         1.44708         3.73564
| 35>    C       -6.16552         0.91247         2.74366
| 36>    S       -5.86648         1.63294         1.18170
| 37>    C       -5.09387         0.20232         0.64408
| 38>    C       -5.00962        -0.78229         1.58475
| 39>    C       -4.32717        -2.09214         1.37019
| 40>    C       -5.60344        -0.38434         2.81434
| 41>    C       -5.59692        -1.23856         3.95412
| 42>    C       -5.57829        -0.86289         5.26399
| 43>    C       -5.64688        -1.74821         6.36565
| 44>    C       -5.82648        -3.10203         6.27363
| 45>    C       -5.89872        -3.98321         7.35575
| 46>    C       -5.99752        -5.34759         7.18674
| 47>    C       -6.04850        -6.35859         8.17235
| 48>    C       -6.08626        -7.62891         7.67220
| 49>    C       -6.06986        -7.68437         6.26266
| 50>    S       -6.02475        -6.07818         5.58975
| 51>    C       -6.05418        -8.78745         5.42420
| 52>    C       -6.01025       -10.15937         5.74023
| 53>    C       -5.94066       -10.97047         4.64446
| 54>    C       -5.93168       -10.28128         3.40759
| 55>    S       -6.03474        -8.56017         3.68770
| 56>    C       -5.82215       -10.85721         2.16070
| 57>    C       -5.80354       -10.18898         0.93613
| 58>    C       -5.60491       -10.74778        -0.33929
| 59>    C       -5.39632       -12.16851        -0.53750
| 60>    O       -5.34233       -13.00459         0.35129
| 61>    C       -5.26278       -12.55047        -1.96010
| 62>    C       -5.22835       -11.59315        -3.00568
| 63>    C       -5.09932       -12.18562        -4.23965
| 64>    S       -5.02033       -13.89940        -4.15266
| 65>    C       -5.15366       -13.83388        -2.43875
| 66>    C       -5.14888       -15.11065        -1.65851
| 67>    F       -6.26201       -15.28517        -0.94015
| 68>    F       -5.06986       -16.17028        -2.48728
| 69>    F       -4.10770       -15.21211        -0.82847
| 70>    C       -5.04371       -11.51763        -5.57765
| 71>    F       -3.93280       -10.79882        -5.75883
| 72>    F       -5.06418       -12.43056        -6.56642
| 73>    F       -6.08803       -10.71029        -5.79665
| 74>    C       -5.30467       -10.13482        -2.77007
| 75>    O       -5.07889        -9.34588        -3.66645
| 76>    C       -5.62525        -9.78006        -1.38892
| 77>    C       -5.87984        -8.48879        -0.92753
| 78>    S       -6.04614        -8.46789         0.80423
| 79>    C       -6.07577        -7.23599        -1.58427
| 80>    S       -6.15927        -5.79756        -0.59658
| 81>    C       -6.46701        -4.81492        -1.98286
| 82>    C       -6.65572        -3.38761        -1.79434
| 83>    O       -6.78870        -2.55768        -2.66177
| 84>    O       -6.67295        -3.05721        -0.48636
| 85>    C       -6.50159        -5.55994        -3.15767
| 86>    C       -6.28383        -6.92909        -2.90840
| 87>    C       -6.74437        -4.98535        -4.46529
| 88>    C       -6.65512        -5.65658        -5.60967
| 89>    H       -7.68199         6.53374         2.12961
| 90>    H      -10.02123         5.15329         6.33892
| 91>    H       -8.83753         9.04446         2.61669
| 92>    H       -7.25231         0.73667         4.51207
| 93>    H       -4.70659         0.16179        -0.35685
| 94>    H       -3.89117        -2.13009         0.37562
| 95>    H       -5.03225        -2.91705         1.46763
| 96>    H       -3.53449        -2.23147         2.10347
| 97>    H       -5.54804        -2.29271         3.71860
| 98>    H       -5.46699         0.18550         5.50573
| 99>    H       -5.56680        -1.30747         7.34971
|100>    H       -5.90971        -3.55549         5.29451
|101>    H       -5.86419        -3.59359         8.36386
|102>    H       -6.04956        -6.11969         9.22125
|103>    H       -6.12235        -8.51798         8.27567
|104>    H       -6.01871       -10.51219         6.75591
|105>    H       -5.88859       -12.04378         4.68171
|106>    H       -5.71996       -11.93316         2.11387
|107>    H       -6.79546        -2.09982        -0.39161
|108>    H       -6.27686        -7.66888        -3.68422
|109>    H       -6.99668        -3.93493        -4.46395
|110>    H       -6.38065        -6.69673        -5.65669
|111>    H       -6.84414        -5.17054        -6.55114
|112> *
|113>
|114>                          ****END OF INPUT****

CARTESIAN COORDINATES (ANGSTROEM)
---------------------------------
  C     -8.405230    3.136910    4.945960
  C     -8.835600    2.401290    6.023140
  C     -9.676770    2.903980    7.037860
  N    -10.354730    3.246690    7.898980
  C     -8.503960    1.061860    6.308780
  N     -8.275670   -0.014920    6.641010
  C     -8.731870    4.541040    4.711790
  C     -8.085690    4.965620    3.525380
  C     -8.188280    6.244670    3.037140
  C     -8.969220    7.155320    3.756890
  C     -9.613440    6.724230    4.940560
  C     -9.508910    5.428660    5.432660
  S    -10.527480    8.007610    5.673540
  C    -10.037070    9.090670    4.398190
  C     -9.231470    8.522560    3.469510
  Br   -10.635170   10.868160    4.412600
  C     -7.337210    3.832760    2.951630
  O     -6.688970    3.851230    1.921310
  C     -7.546810    2.700830    3.862360
  C     -6.998720    1.447080    3.735640
  C     -6.165520    0.912470    2.743660
  S     -5.866480    1.632940    1.181700
  C     -5.093870    0.202320    0.644080
  C     -5.009620   -0.782290    1.584750
  C     -4.327170   -2.092140    1.370190
  C     -5.603440   -0.384340    2.814340
  C     -5.596920   -1.238560    3.954120
  C     -5.578290   -0.862890    5.263990
  C     -5.646880   -1.748210    6.365650
  C     -5.826480   -3.102030    6.273630
  C     -5.898720   -3.983210    7.355750
  C     -5.997520   -5.347590    7.186740
  C     -6.048500   -6.358590    8.172350
  C     -6.086260   -7.628910    7.672200
  C     -6.069860   -7.684370    6.262660
  S     -6.024750   -6.078180    5.589750
  C     -6.054180   -8.787450    5.424200
  C     -6.010250  -10.159370    5.740230
  C     -5.940660  -10.970470    4.644460
  C     -5.931680  -10.281280    3.407590
  S     -6.034740   -8.560170    3.687700
  C     -5.822150  -10.857210    2.160700
  C     -5.803540  -10.188980    0.936130
  C     -5.604910  -10.747780   -0.339290
  C     -5.396320  -12.168510   -0.537500
  O     -5.342330  -13.004590    0.351290
  C     -5.262780  -12.550470   -1.960100
  C     -5.228350  -11.593150   -3.005680
  C     -5.099320  -12.185620   -4.239650
  S     -5.020330  -13.899400   -4.152660
  C     -5.153660  -13.833880   -2.438750
  C     -5.148880  -15.110650   -1.658510
  F     -6.262010  -15.285170   -0.940150
  F     -5.069860  -16.170280   -2.487280
  F     -4.107700  -15.212110   -0.828470
  C     -5.043710  -11.517630   -5.577650
  F     -3.932800  -10.798820   -5.758830
  F     -5.064180  -12.430560   -6.566420
  F     -6.088030  -10.710290   -5.796650
  C     -5.304670  -10.134820   -2.770070
  O     -5.078890   -9.345880   -3.666450
  C     -5.625250   -9.780060   -1.388920
  C     -5.879840   -8.488790   -0.927530
  S     -6.046140   -8.467890    0.804230
  C     -6.075770   -7.235990   -1.584270
  S     -6.159270   -5.797560   -0.596580
  C     -6.467010   -4.814920   -1.982860
  C     -6.655720   -3.387610   -1.794340
  O     -6.788700   -2.557680   -2.661770
  O     -6.672950   -3.057210   -0.486360
  C     -6.501590   -5.559940   -3.157670
  C     -6.283830   -6.929090   -2.908400
  C     -6.744370   -4.985350   -4.465290
  C     -6.655120   -5.656580   -5.609670
  H     -7.681990    6.533740    2.129610
  H    -10.021230    5.153290    6.338920
  H     -8.837530    9.044460    2.616690
  H     -7.252310    0.736670    4.512070
  H     -4.706590    0.161790   -0.356850
  H     -3.891170   -2.130090    0.375620
  H     -5.032250   -2.917050    1.467630
  H     -3.534490   -2.231470    2.103470
  H     -5.548040   -2.292710    3.718600
  H     -5.466990    0.185500    5.505730
  H     -5.566800   -1.307470    7.349710
  H     -5.909710   -3.555490    5.294510
  H     -5.864190   -3.593590    8.363860
  H     -6.049560   -6.119690    9.221250
  H     -6.122350   -8.517980    8.275670
  H     -6.018710  -10.512190    6.755910
  H     -5.888590  -12.043780    4.681710
  H     -5.719960  -11.933160    2.113870
  H     -6.795460   -2.099820   -0.391610
  H     -6.276860   -7.668880   -3.684220
  H     -6.996680   -3.934930   -4.463950
  H     -6.380650   -6.696730   -5.656690
  H     -6.844140   -5.170540   -6.551140

 Total Charge           Charge          ....    0
 Multiplicity           Mult            ....    1
 Number of Electrons    NEL             ....  596
 Basis Dimension        Dim             .... 1197

ORBITAL ENERGIES
----------------

  NO   OCC          E(Eh)            E(eV)
   0   2.0000    -482.885690    -13139.9877
   1   2.0000     -89.004721     -2421.9416
   2   2.0000     -88.975891     -2421.1571
   3   2.0000     -88.975491     -2421.1462
   4   2.0000     -88.963086     -2420.8086
   5   2.0000     -88.961226     -2420.7580
   6   2.0000     -88.960111     -2420.7277
   7   2.0000     -88.959203     -2420.7030
   8   2.0000     -62.563428     -1702.4374
   9   2.0000     -56.397379     -1534.6507
  10   2.0000     -56.394661     -1534.5767
  11   2.0000     -56.394627     -1534.5758
  12   2.0000     -24.804250      -674.9580
  13   2.0000     -24.801937      -674.8950
  14   2.0000     -24.797316      -674.7693
  15   2.0000     -24.795558      -674.7214
  16   2.0000     -24.793920      -674.6769
  17   2.0000     -24.793327      -674.6607
  18   2.0000     -19.264326      -524.2090
  19   2.0000     -19.219580      -522.9914
  20   2.0000     -19.218509      -522.9622
  21   2.0000     -19.209836      -522.7262
  22   2.0000     -19.204716      -522.5869
  23   2.0000     -14.419390      -392.3715
  24   2.0000     -14.413583      -392.2135
  25   2.0000     -10.528928      -286.5067
  26   2.0000     -10.526508      -286.4408
  27   2.0000     -10.409274      -283.2507
  28   2.0000     -10.380164      -282.4586
  29   2.0000     -10.371100      -282.2120
  30   2.0000     -10.367342      -282.1097
  31   2.0000     -10.358963      -281.8817
  32   2.0000     -10.342042      -281.4213
  33   2.0000     -10.341153      -281.3971
  34   2.0000     -10.339905      -281.3631
  35   2.0000     -10.339421      -281.3499
  36   2.0000     -10.333232      -281.1815
  37   2.0000     -10.330164      -281.0981
  38   2.0000     -10.327948      -281.0377
  39   2.0000     -10.325286      -280.9653
  40   2.0000     -10.323378      -280.9134
  41   2.0000     -10.323124      -280.9065
  42   2.0000     -10.321303      -280.8569
  43   2.0000     -10.320657      -280.8393
  44   2.0000     -10.320630      -280.8386
  45   2.0000     -10.318835      -280.7898
  46   2.0000     -10.317364      -280.7497
  47   2.0000     -10.314608      -280.6747
  48   2.0000     -10.313172      -280.6357
  49   2.0000     -10.312069      -280.6057
  50   2.0000     -10.307557      -280.4829
  51   2.0000     -10.307386      -280.4782
  52   2.0000     -10.305281      -280.4210
  53   2.0000     -10.303614      -280.3756
  54   2.0000     -10.302695      -280.3506
  55   2.0000     -10.302119      -280.3349
  56   2.0000     -10.301650      -280.3222
  57   2.0000     -10.301377      -280.3147
  58   2.0000     -10.300784      -280.2986
  59   2.0000     -10.300687      -280.2959
  60   2.0000     -10.300321      -280.2860
  61   2.0000     -10.297188      -280.2007
  62   2.0000     -10.296758      -280.1890
  63   2.0000     -10.295014      -280.1416
  64   2.0000     -10.292589      -280.0756
  65   2.0000     -10.292526      -280.0739
  66   2.0000     -10.291829      -280.0549
  67   2.0000     -10.291615      -280.0491
  68   2.0000     -10.291577      -280.0480
  69   2.0000     -10.290236      -280.0116
  70   2.0000     -10.288863      -279.9742
  71   2.0000     -10.288662      -279.9687
  72   2.0000     -10.288117      -279.9539
  73   2.0000     -10.283109      -279.8176
  74   2.0000     -10.274650      -279.5874
  75   2.0000     -10.272259      -279.5224
  76   2.0000     -10.265015      -279.3252
  77   2.0000     -10.261417      -279.2274
  78   2.0000      -8.792876      -239.2663
  79   2.0000      -8.099629      -220.4021
  80   2.0000      -8.071532      -219.6375
  81   2.0000      -8.071476      -219.6360
  82   2.0000      -8.058549      -219.2843
  83   2.0000      -8.056389      -219.2255
  84   2.0000      -8.055654      -219.2055
  85   2.0000      -8.055377      -219.1979
  86   2.0000      -6.629199      -180.3897
  87   2.0000      -6.614603      -179.9925
  88   2.0000      -6.614394      -179.9868
  89   2.0000      -6.068764      -165.1395
  90   2.0000      -6.064297      -165.0179
  91   2.0000      -6.062324      -164.9642
  92   2.0000      -6.041209      -164.3896
  93   2.0000      -6.040714      -164.3762
  94   2.0000      -6.036942      -164.2736
  95   2.0000      -6.036455      -164.2603
  96   2.0000      -6.033628      -164.1834
  97   2.0000      -6.032750      -164.1595
  98   2.0000      -6.027990      -164.0300
  99   2.0000      -6.026065      -163.9776
 100   2.0000      -6.025331      -163.9576
 101   2.0000      -6.024748      -163.9417
 102   2.0000      -6.023579      -163.9099
 103   2.0000      -6.021861      -163.8632
 104   2.0000      -6.021309      -163.8482
 105   2.0000      -6.020567      -163.8280
 106   2.0000      -6.020062      -163.8142
 107   2.0000      -6.017749      -163.7513
 108   2.0000      -6.017509      -163.7448
 109   2.0000      -6.016607      -163.7202
 110   2.0000      -2.745029       -74.6960
 111   2.0000      -2.740973       -74.5857
 112   2.0000      -2.740850       -74.5823
 113   2.0000      -2.729231       -74.2662
 114   2.0000      -2.729210       -74.2656
 115   2.0000      -1.391672       -37.8693
 116   2.0000      -1.389065       -37.7984
 117   2.0000      -1.293799       -35.2061
 118   2.0000      -1.291014       -35.1303
 119   2.0000      -1.290918       -35.1277
 120   2.0000      -1.288551       -35.0633
 121   2.0000      -1.190492       -32.3949
 122   2.0000      -1.140172       -31.0257
 123   2.0000      -1.134152       -30.8619
 124   2.0000      -1.128040       -30.6955
 125   2.0000      -1.093718       -29.7616
 126   2.0000      -1.027255       -27.9530
 127   2.0000      -1.023210       -27.8430
 128   2.0000      -1.014620       -27.6092
 129   2.0000      -1.014058       -27.5939
 130   2.0000      -1.008464       -27.4417
 131   2.0000      -0.997127       -27.1332
 132   2.0000      -0.995608       -27.0919
 133   2.0000      -0.989612       -26.9287
 134   2.0000      -0.988777       -26.9060
 135   2.0000      -0.982569       -26.7371
 136   2.0000      -0.942603       -25.6495
 137   2.0000      -0.931203       -25.3393
 138   2.0000      -0.918021       -24.9806
 139   2.0000      -0.909734       -24.7551
 140   2.0000      -0.908538       -24.7226
 141   2.0000      -0.905272       -24.6337
 142   2.0000      -0.898724       -24.4555
 143   2.0000      -0.898325       -24.4447
 144   2.0000      -0.885791       -24.1036
 145   2.0000      -0.881812       -23.9953
 146   2.0000      -0.875411       -23.8211
 147   2.0000      -0.871557       -23.7163
 148   2.0000      -0.861165       -23.4335
 149   2.0000      -0.859640       -23.3920
 150   2.0000      -0.850174       -23.1344
 151   2.0000      -0.840753       -22.8780
 152   2.0000      -0.836616       -22.7655
 153   2.0000      -0.830163       -22.5899
 154   2.0000      -0.827795       -22.5254
 155   2.0000      -0.815775       -22.1984
 156   2.0000      -0.812387       -22.1062
 157   2.0000      -0.806293       -21.9403
 158   2.0000      -0.792132       -21.5550
 159   2.0000      -0.784886       -21.3578
 160   2.0000      -0.774583       -21.0775
 161   2.0000      -0.761954       -20.7338
 162   2.0000      -0.757120       -20.6023
 163   2.0000      -0.753366       -20.5001
 164   2.0000      -0.749724       -20.4010
 165   2.0000      -0.737881       -20.0788
 166   2.0000      -0.733714       -19.9654
 167   2.0000      -0.720444       -19.6043
 168   2.0000      -0.714662       -19.4469
 169   2.0000      -0.713179       -19.4066
 170   2.0000      -0.709363       -19.3028
 171   2.0000      -0.694781       -18.9059
 172   2.0000      -0.691298       -18.8112
 173   2.0000      -0.685174       -18.6445
 174   2.0000      -0.678627       -18.4664
 175   2.0000      -0.673447       -18.3254
 176   2.0000      -0.671643       -18.2763
 177   2.0000      -0.670747       -18.2520
 178   2.0000      -0.667213       -18.1558
 179   2.0000      -0.662508       -18.0278
 180   2.0000      -0.661002       -17.9868
 181   2.0000      -0.652942       -17.7675
 182   2.0000      -0.646702       -17.5977
 183   2.0000      -0.642740       -17.4899
 184   2.0000      -0.636379       -17.3168
 185   2.0000      -0.630827       -17.1657
 186   2.0000      -0.626846       -17.0573
 187   2.0000      -0.623934       -16.9781
 188   2.0000      -0.623500       -16.9663
 189   2.0000      -0.619433       -16.8556
 190   2.0000      -0.617783       -16.8107
 191   2.0000      -0.615706       -16.7542
 192   2.0000      -0.600696       -16.3458
 193   2.0000      -0.598571       -16.2879
 194   2.0000      -0.593359       -16.1461
 195   2.0000      -0.590055       -16.0562
 196   2.0000      -0.588051       -16.0017
 197   2.0000      -0.586595       -15.9621
 198   2.0000      -0.570825       -15.5330
 199   2.0000      -0.566954       -15.4276
 200   2.0000      -0.560425       -15.2499
 201   2.0000      -0.557223       -15.1628
 202   2.0000      -0.556972       -15.1560
 203   2.0000      -0.553079       -15.0500
 204   2.0000      -0.551060       -14.9951
 205   2.0000      -0.548833       -14.9345
 206   2.0000      -0.545228       -14.8364
 207   2.0000      -0.544611       -14.8196
 208   2.0000      -0.543328       -14.7847
 209   2.0000      -0.542161       -14.7529
 210   2.0000      -0.541877       -14.7452
 211   2.0000      -0.539104       -14.6698
 212   2.0000      -0.537055       -14.6140
 213   2.0000      -0.531253       -14.4561
 214   2.0000      -0.529113       -14.3979
 215   2.0000      -0.526859       -14.3366
 216   2.0000      -0.524551       -14.2738
 217   2.0000      -0.520681       -14.1685
 218   2.0000      -0.516680       -14.0596
 219   2.0000      -0.516429       -14.0527
 220   2.0000      -0.516013       -14.0414
 221   2.0000      -0.514109       -13.9896
 222   2.0000      -0.511988       -13.9319
 223   2.0000      -0.510240       -13.8843
 224   2.0000      -0.509567       -13.8660
 225   2.0000      -0.509220       -13.8566
 226   2.0000      -0.508136       -13.8271
 227   2.0000      -0.507641       -13.8136
 228   2.0000      -0.503261       -13.6944
 229   2.0000      -0.501787       -13.6543
 230   2.0000      -0.500365       -13.6156
 231   2.0000      -0.498988       -13.5782
 232   2.0000      -0.496512       -13.5108
 233   2.0000      -0.495331       -13.4786
 234   2.0000      -0.493727       -13.4350
 235   2.0000      -0.491583       -13.3767
 236   2.0000      -0.490826       -13.3561
 237   2.0000      -0.488375       -13.2894
 238   2.0000      -0.483361       -13.1529
 239   2.0000      -0.481595       -13.1049
 240   2.0000      -0.481092       -13.0912
 241   2.0000      -0.478692       -13.0259
 242   2.0000      -0.477799       -13.0016
 243   2.0000      -0.476237       -12.9591
 244   2.0000      -0.474435       -12.9100
 245   2.0000      -0.473929       -12.8963
 246   2.0000      -0.471455       -12.8290
 247   2.0000      -0.468590       -12.7510
 248   2.0000      -0.467539       -12.7224
 249   2.0000      -0.462257       -12.5787
 250   2.0000      -0.461624       -12.5614
 251   2.0000      -0.459008       -12.4902
 252   2.0000      -0.456930       -12.4337
 253   2.0000      -0.455257       -12.3882
 254   2.0000      -0.453585       -12.3427
 255   2.0000      -0.450639       -12.2625
 256   2.0000      -0.449433       -12.2297
 257   2.0000      -0.447955       -12.1895
 258   2.0000      -0.445972       -12.1355
 259   2.0000      -0.442497       -12.0410
 260   2.0000      -0.441352       -12.0098
 261   2.0000      -0.439407       -11.9569
 262   2.0000      -0.436468       -11.8769
 263   2.0000      -0.432038       -11.7563
 264   2.0000      -0.428697       -11.6654
 265   2.0000      -0.425952       -11.5907
 266   2.0000      -0.425202       -11.5703
 267   2.0000      -0.418460       -11.3869
 268   2.0000      -0.412711       -11.2304
 269   2.0000      -0.410186       -11.1617
 270   2.0000      -0.407575       -11.0907
 271   2.0000      -0.403888       -10.9904
 272   2.0000      -0.398560       -10.8454
 273   2.0000      -0.396361       -10.7855
 274   2.0000      -0.389346       -10.5946
 275   2.0000      -0.385899       -10.5009
 276   2.0000      -0.381236       -10.3739
 277   2.0000      -0.375147       -10.2083
 278   2.0000      -0.370907       -10.0929
 279   2.0000      -0.358181        -9.7466
 280   2.0000      -0.356224        -9.6934
 281   2.0000      -0.354419        -9.6442
 282   2.0000      -0.351675        -9.5696
 283   2.0000      -0.349140        -9.5006
 284   2.0000      -0.345468        -9.4007
 285   2.0000      -0.344316        -9.3693
 286   2.0000      -0.341450        -9.2913
 287   2.0000      -0.337383        -9.1806
 288   2.0000      -0.334259        -9.0956
 289   2.0000      -0.332102        -9.0369
 290   2.0000      -0.323199        -8.7947
 291   2.0000      -0.315848        -8.5947
 292   2.0000      -0.303148        -8.2491
 293   2.0000      -0.296301        -8.0628
 294   2.0000      -0.291789        -7.9400
 295   2.0000      -0.283680        -7.7193
 296   2.0000      -0.265947        -7.2368
 297   2.0000      -0.219783        -5.9806
 298   0.0000      -0.111828        -3.0430
 299   0.0000      -0.087201        -2.3728
 300   0.0000      -0.074574        -2.0293
 301   0.0000      -0.062434        -1.6989
 302   0.0000      -0.051548        -1.4027

MULLIKEN ATOMIC CHARGES
-----------------------
   0 C :    0.330902
   1 C :   -0.364751
   2 C :   -0.188583
   3 N :    0.143341
   4 C :   -0.193821
   5 N :    0.147609
   6 C :    0.009640
   7 C :   -0.012285
   8 C :   -0.072806
   9 C :    0.120400
  10 C :   -0.092546
  11 C :   -0.020226
  12 S :    0.185890
  13 C :   -0.122776
  14 C :    0.037178
  15 Br:    0.023699
  16 C :    0.155786
  17 O :   -0.172696
  18 C :   -0.100298
  19 C :   -0.046853
  20 C :   -0.123592
  21 S :    0.198165
  22 C :   -0.111729
  23 C :   -0.112558
  24 C :    0.116969
  25 C :    0.134061
  26 C :   -0.040992
  27 C :    0.022757
  28 C :    0.041388
  29 C :    0.006107
  30 C :    0.022804
  31 C :   -0.030995
  32 C :    0.047522
  33 C :    0.024888
  34 C :   -0.029077
  35 S :    0.067899
  36 C :   -0.037109
  37 C :    0.044724
  38 C :    0.022451
  39 C :   -0.010084
  40 S :    0.061815
  41 C :   -0.026516
  42 C :   -0.104493
  43 C :    0.023862
  44 C :    0.113708
  45 O :   -0.171718
  46 C :    0.071029
  47 C :    0.063613
  48 C :   -0.338781
  49 S :    0.274564
  50 C :   -0.344993
  51 C :    0.567422
  52 F :   -0.146761
  53 F :   -0.170129
  54 F :   -0.144819
  55 C :    0.565673
  56 F :   -0.143620
  57 F :   -0.166886
  58 F :   -0.151652
  59 C :    0.109777
  60 O :   -0.156157
  61 C :    0.030822
  62 C :   -0.068833
  63 S :    0.110110
  64 C :   -0.052296
  65 S :    0.154068
  66 C :   -0.189368
  67 C :    0.162969
  68 O :   -0.194140
  69 O :   -0.196856
  70 C :    0.106382
  71 C :   -0.033271
  72 C :   -0.023057
  73 C :   -0.003804
  74 H :   -0.010506
  75 H :   -0.008848
  76 H :   -0.003298
  77 H :    0.013929
  78 H :    0.030653
  79 H :    0.011949
  80 H :    0.044211
  81 H :    0.030982
  82 H :   -0.005775
  83 H :    0.003591
  84 H :   -0.006380
  85 H :    0.012460
  86 H :   -0.004491
  87 H :   -0.002285
  88 H :   -0.006102
  89 H :   -0.008316
  90 H :    0.001755
  91 H :    0.025992
  92 H :    0.198899
  93 H :    0.004605
  94 H :    0.013332
  95 H :    0.029669
  96 H :    0.025905
Sum of atomic charges:    0.0000000

LOEWDIN ATOMIC CHARGES
----------------------
   0 C :    0.079947
   1 C :   -0.152088
   2 C :   -0.018570
   3 N :   -0.059680
   4 C :   -0.019021
   5 N :   -0.057873
   6 C :   -0.021506
   7 C :   -0.049621
   8 C :    0.021538
   9 C :   -0.032788
  10 C :   -0.144736
  11 C :   -0.009462
  12 S :    0.432520
  13 C :   -0.271644
  14 C :   -0.070291
  15 Br:    0.136711
  16 C :    0.081343
  17 O :   -0.163929
  18 C :   -0.115913
  19 C :    0.054589
  20 C :   -0.186799
  21 S :    0.508256
  22 C :   -0.178620
  23 C :   -0.069610
  24 C :   -0.050218
  25 C :   -0.022698
  26 C :   -0.017080
  27 C :   -0.005896
  28 C :   -0.001227
  29 C :   -0.017986
  30 C :   -0.027280
  31 C :   -0.146054
  32 C :   -0.018090
  33 C :   -0.033401
  34 C :   -0.158541
  35 S :    0.386139
  36 C :   -0.188205
  37 C :   -0.022514
  38 C :   -0.033653
  39 C :   -0.131073
  40 S :    0.379115
  41 C :   -0.084116
  42 C :   -0.119995
  43 C :   -0.106819
  44 C :    0.072714
  45 O :   -0.153299
  46 C :   -0.060061
  47 C :   -0.065412
  48 C :   -0.208518
  49 S :    0.554312
  50 C :   -0.209881
  51 C :    0.145120
  52 F :   -0.045985
  53 F :   -0.070876
  54 F :   -0.044640
  55 C :    0.144954
  56 F :   -0.044350
  57 F :   -0.067868
  58 F :   -0.049800
  59 C :    0.082691
  60 O :   -0.131119
  61 C :   -0.088200
  62 C :   -0.144433
  63 S :    0.454097
  64 C :   -0.176052
  65 S :    0.447915
  66 C :   -0.231207
  67 C :    0.067584
  68 O :   -0.181255
  69 O :   -0.049289
  70 C :   -0.017948
  71 C :   -0.022253
  72 C :   -0.025226
  73 C :   -0.020787
  74 H :    0.040975
  75 H :    0.040665
  76 H :    0.038878
  77 H :    0.048110
  78 H :    0.026939
  79 H :    0.034378
  80 H :    0.033332
  81 H :    0.036764
  82 H :    0.031296
  83 H :    0.032680
  84 H :    0.033696
  85 H :    0.019058
  86 H :    0.038378
  87 H :    0.037925
  88 H :    0.034817
  89 H :    0.034872
  90 H :    0.039037
  91 H :    0.046291
  92 H :    0.098351
  93 H :    0.031115
  94 H :    0.034608
  95 H :    0.025713
  96 H :    0.028031

  Mayer bond orders larger than 0.100000
B(  0-C ,  1-C ) :   1.6015 B(  0-C ,  6-C ) :   0.9971 B(  0-C , 18-C ) :   1.0902
B(  1-C ,  2-C ) :   1.1465 B(  1-C ,  4-C ) :   1.1510 B(  2-C ,  3-N ) :   2.9648
B(  4-C ,  5-N ) :   2.9577 B(  6-C ,  7-C ) :   1.2752 B(  6-C , 11-C ) :   1.4102
B(  7-C ,  8-C ) :   1.4254 B(  7-C , 16-C ) :   0.9520 B(  8-C ,  9-C ) :   1.2394
B(  8-C , 74-H ) :   1.0179 B(  9-C , 10-C ) :   1.3076 B(  9-C , 14-C ) :   1.1631
B( 10-C , 11-C ) :   1.3279 B( 10-C , 12-S ) :   1.0867 B( 11-C , 75-H ) :   0.9803
B( 12-S , 13-C ) :   1.0870 B( 13-C , 14-C ) :   1.6170 B( 13-C , 15-Br) :   1.0183
B( 14-C , 76-H ) :   1.0009 B( 16-C , 17-O ) :   2.1551 B( 16-C , 18-C ) :   0.9675
B( 18-C , 19-C ) :   1.5148 B( 19-C , 20-C ) :   1.2745 B( 19-C , 77-H ) :   0.9330
B( 20-C , 21-S ) :   1.1138 B( 20-C , 25-C ) :   1.3163 B( 21-S , 22-C ) :   1.1666
B( 22-C , 23-C ) :   1.5228 B( 22-C , 78-H ) :   0.9644 B( 23-C , 24-C ) :   1.0948
B( 23-C , 25-C ) :   1.2632 B( 24-C , 79-H ) :   0.9485 B( 24-C , 80-H ) :   0.9316
B( 24-C , 81-H ) :   0.9403 B( 25-C , 26-C ) :   1.1501 B( 26-C , 27-C ) :   1.6413
B( 26-C , 82-H ) :   0.9395 B( 27-C , 28-C ) :   1.1607 B( 27-C , 83-H ) :   0.9800
B( 28-C , 29-C ) :   1.6206 B( 28-C , 84-H ) :   0.9785 B( 29-C , 30-C ) :   1.1897
B( 29-C , 85-H ) :   0.9538 B( 30-C , 31-C ) :   1.5269 B( 30-C , 86-H ) :   0.9889
B( 31-C , 32-C ) :   1.1559 B( 31-C , 35-S ) :   1.0330 B( 32-C , 33-C ) :   1.5698
B( 32-C , 87-H ) :   0.9999 B( 33-C , 34-C ) :   1.2020 B( 33-C , 88-H ) :   0.9959
B( 34-C , 35-S ) :   1.0713 B( 34-C , 36-C ) :   1.4732 B( 36-C , 37-C ) :   1.2079
B( 36-C , 40-S ) :   1.0374 B( 37-C , 38-C ) :   1.5590 B( 37-C , 89-H ) :   0.9943
B( 38-C , 39-C ) :   1.1681 B( 38-C , 90-H ) :   1.0019 B( 39-C , 40-S ) :   1.0566
B( 39-C , 41-C ) :   1.4696 B( 41-C , 42-C ) :   1.2714 B( 41-C , 91-H ) :   0.9473
B( 42-C , 43-C ) :   1.3866 B( 42-C , 63-S ) :   1.0931 B( 43-C , 44-C ) :   1.0212
B( 43-C , 61-C ) :   1.2045 B( 44-C , 45-O ) :   2.1135 B( 44-C , 46-C ) :   0.9503
B( 46-C , 47-C ) :   1.2297 B( 46-C , 50-C ) :   1.5791 B( 47-C , 48-C ) :   1.5722
B( 47-C , 59-C ) :   0.9400 B( 48-C , 49-S ) :   1.1882 B( 48-C , 55-C ) :   0.9323
B( 49-S , 50-C ) :   1.1807 B( 50-C , 51-C ) :   0.9316 B( 51-C , 52-F ) :   1.1850
B( 51-C , 53-F ) :   1.1453 B( 51-C , 54-F ) :   1.1876 B( 55-C , 56-F ) :   1.1895
B( 55-C , 57-F ) :   1.1504 B( 55-C , 58-F ) :   1.1759 B( 59-C , 60-O ) :   2.1559
B( 59-C , 61-C ) :   0.9778 B( 61-C , 62-C ) :   1.4957 B( 62-C , 63-S ) :   1.1300
B( 62-C , 64-C ) :   1.1267 B( 64-C , 65-S ) :   1.1131 B( 64-C , 71-C ) :   1.5240
B( 65-S , 66-C ) :   1.1097 B( 66-C , 67-C ) :   0.9840 B( 66-C , 70-C ) :   1.4774
B( 67-C , 68-O ) :   2.1118 B( 67-C , 69-O ) :   1.2512 B( 69-O , 92-H ) :   0.9273
B( 70-C , 71-C ) :   1.2474 B( 70-C , 72-C ) :   1.0971 B( 71-C , 93-H ) :   0.9807
B( 72-C , 73-C ) :   1.9316 B( 72-C , 94-H ) :   0.9533 B( 73-C , 95-H ) :   0.9516
B( 73-C , 96-H ) :   0.9492

-----------------------------------------------------------------------------
         ABSORPTION SPECTRUM VIA TRANSITION ELECTRIC DIPOLE MOMENTS
-----------------------------------------------------------------------------
State   Energy  Wavelength   fosc         T2         TX        TY        TZ
        (cm-1)    (nm)                  (au**2)     (au)      (au)      (au)
-----------------------------------------------------------------------------
   0   10218.2    978.6   0.967214470  31.16181  -0.47332   4.99787   2.44112
   1   16100.1    621.1   0.228927550   4.68107   0.57137  -0.39281   2.04947
   2   17463.5    572.6   0.165473615   3.11942   0.23788  -1.67246  -0.51546
   3   19298.2    518.2   0.345653506   5.89656  -0.85600   1.94588  -1.17362
   4   21977.9    455.0   0.212838651   3.18817  -0.30314   1.42536  -1.03181
   5   23343.4    428.4   0.228830960   3.22720   0.75709   0.43902  -1.56884
   6   23909.6    418.2   0.068455454   0.94257  -0.71727  -0.05692   0.65180
   7   25267.5    395.8   0.056518646   0.73638   0.11816  -0.84591  -0.08286
   8   25599.7    390.6   0.018193374   0.23397  -0.04557  -0.28881  -0.38533
   9   25940.6    385.5   0.500743391   6.35492  -0.80020  -0.01078   2.39050
  10   26862.2    372.3   0.441458545   5.41032  -0.54009   2.23839  -0.32898
  11   27021.6    370.1   0.280815834   3.42126   0.12363   1.57791  -0.95717
  12   27928.4    358.1   0.076424857   0.90087   0.01104  -0.78375   0.53524
  13   28567.5    350.0   0.004933335   0.05685  -0.01355  -0.05706   0.23111
  14   28773.5    347.5   0.001325197   0.01516   0.01211   0.11529   0.04151
  15   29002.9    344.8   0.054481290   0.61842  -0.08447   0.55494  -0.55075
  16   29197.3    342.5   0.001034124   0.01166   0.10216   0.03480   0.00343
  17   29518.5    338.8   0.064645437   0.72097  -0.08988   0.77602   0.33270
  18   29927.2    334.1   0.118591967   1.30456   0.38035   0.03108  -1.07654
  19   29958.7    333.8   0.083550636   0.91813  -0.23568   0.65342   0.66002
  20   30435.7    328.6   0.216176750   2.33830  -0.49535   1.36404   0.48200
  21   30563.1    327.2   0.087533124   0.94287   0.31838  -0.83513  -0.37954
  22   30834.7    324.3   0.023221036   0.24792   0.28062  -0.21264   0.35208
  23   31474.7    317.7   0.082859194   0.86667  -0.17840   0.25119   0.87849
  24   31988.9    312.6   0.026070525   0.26830   0.00623   0.38328  -0.34837
  25   32341.9    309.2   0.146656503   1.49284  -0.05159  -0.97088   0.73997
  26   32688.4    305.9   0.311092580   3.13308  -0.24024   1.74954  -0.12026
  27   32766.5    305.2   0.165441120   1.66222  -0.03064  -0.64259   1.11730
  28   33307.7    300.2   0.020582851   0.20344  -0.06643   0.40723  -0.18219
  29   33610.3    297.5   0.051630120   0.50572  -0.33596   0.62131   0.08259
  30   33957.0    294.5   0.055490530   0.53798   0.06471  -0.63748   0.35694
  31   34174.4    292.6   0.016905377   0.16285   0.07218  -0.35430   0.17920
  32   34590.2    289.1   0.034078816   0.32435   0.28686  -0.26418  -0.41505
  33   35098.3    284.9   0.109091199   1.02324   0.14873  -0.99756   0.07746
  34   35664.0    280.4   0.028743494   0.26533  -0.22450  -0.44389   0.13375
  35   35926.0    278.3   0.082296564   0.75413  -0.22172   0.79047   0.28306
  36   36049.5    277.4   0.011155788   0.10188  -0.10834  -0.03656   0.29800
  37   36253.3    275.8   0.000650439   0.00591   0.01948   0.06125  -0.04213
  38   36558.0    273.5   0.024491370   0.22055   0.25367  -0.34698  -0.18923
  39   37007.7    270.2   0.079566982   0.70781  -0.13660  -0.78802   0.26111
  40   37123.2    269.4   0.081093492   0.71915  -0.36360  -0.08872   0.76097
  41   37565.7    266.2   0.052262144   0.45801  -0.24113   0.05834   0.62965
  42   37651.5    265.6   0.033209238   0.29037  -0.26010   0.35762   0.30794
  43   38142.6    262.2   0.058407511   0.50412   0.09705  -0.45572  -0.53575
  44   38495.3    259.8   0.106209340   0.90830   0.14160  -0.49616  -0.80130
  45   38716.7    258.3   0.027926885   0.23747   0.20934  -0.28765  -0.33301
  46   38788.4    257.8   0.002436399   0.02068  -0.05055  -0.04200   0.12790
  47   38993.2    256.5   0.019474842   0.16442  -0.09789   0.37731   0.11170
  48   39030.1    256.2   0.059815788   0.50454   0.09302  -0.63745   0.29924
  49   39298.5    254.5   0.012153295   0.10181  -0.09073   0.22834   0.20357
  50   39313.6    254.4   0.026234378   0.21969  -0.09342  -0.07423   0.45326
  51   39443.8    253.5   0.006535809   0.05455   0.04950  -0.16770  -0.15484
  52   39583.8    252.6   0.009834708   0.08179  -0.21351   0.12120   0.14670
  53   39703.1    251.9   0.010554546   0.08752  -0.13761   0.25289   0.06802
  54   40259.2    248.4   0.126491533   1.03436  -0.16092   0.04817   1.00307
  55   40274.9    248.3   0.008927837   0.07298  -0.14463   0.20993   0.08938

FINAL SINGLE POINT ENERGY     -8474.809034389616

DIPOLE MOMENT
-------------
                                X             Y             Z
Electronic contribution:    -37.90154      67.98786     -23.29575
Nuclear contribution   :     38.66051     -66.94637      25.12136
                        -----------------------------------------
Total Dipole Moment    :      0.75897       1.04149       1.82561
                        -----------------------------------------
Magnitude (a.u.)       :      2.23463
Magnitude (Debye)      :      5.67999

Rotational constants in cm-1:     0.001363     0.000206     0.000183
Rotational constants in MHz :    40.870969     6.185200     5.496678

                             ****ORCA TERMINATED NORMALLY****
TOTAL RUN TIME: 0 days 0 hours 18 minutes 3 seconds 930 msec
