                         Program Version 4.2.0 -  RELEASE  -
|  1> # ORCA input file
|  2> # SCF done       -190.100203810297          0.000953719356
|  3> ! CAM-B3LYP def2-SVP def2/J RIJCOSX Grid4 TightSCF
|  4> %maxcore 5000
|  5> %tddft
|  6>     Mode sTDDFT
|  7>     Ethresh 5.0
|  8>     maxcore 5000
|  9> end
| 10>
| 11> %pal
| 12>   nprocs 6
| 13>   end
| 14> * xyz 0 1
| 15>    C        9.03325       -20.70937         8.38252
| 16>    C        9.54058       -20.03354         7.34276
| 17>    C       10.79665       -20.24747         6.68249
| 18>    C       11.03516       -19.40846         5.65061
| 19>    C        9.99671       -18.46534         5.40971
| 20>    S        8.69432       -18.68908         6.55929
| 21>    C        9.95836       -17.49825         4.43338
| 22>    C       10.92561       -17.21778         3.43850
| 23>    C       10.58292       -16.19726         2.60977
| 24>    C        9.32904       -15.59309         2.89617
| 25>    S        8.60047       -16.39710         4.27724
| 26>    C        8.75611       -14.61713         2.11801
| 27>    C        7.53488       -13.93512         2.25144
| 28>    S        6.79685       -13.35403         0.78406
| 29>    C        5.35560       -12.81525         1.58423
| 30>    C        5.48934       -12.97851         2.97196
| 31>    C        6.72187       -13.60289         3.35277
| 32>    C        7.05468       -13.70647         4.71482
| 33>    C        6.17365       -13.25875         5.65677
| 34>    F        6.48656       -13.34583         6.96076
| 35>    C        4.95361       -12.65753         5.28359
| 36>    F        4.13000       -12.19398         6.24095
| 37>    C        4.61669       -12.50183         3.97075
| 38>    C        4.28588       -12.32508         0.79165
| 39>    C        2.97851       -12.29725         1.14356
| 40>    C        1.95898       -11.76805         0.29507
| 41>    C        0.63879       -11.72739         0.55418
| 42>    C       -0.02413       -12.28462         1.77141
| 43>    C       -0.31214       -11.13395        -0.46075
| 44>    N       -1.03130       -12.15969        -1.18859
| 45>    C       -2.10267       -12.79059        -0.65182
| 46>    C       -2.61558       -13.96386        -1.07964
| 47>    C       -3.75237       -14.58196        -0.48723
| 48>    C       -4.38392       -15.72376        -0.89329
| 49>    C       -5.45719       -16.12156        -0.06055
| 50>    C       -6.28886       -17.25218        -0.19121
| 51>    C       -6.08065       -18.21951        -1.25134
| 52>    C       -4.90286       -18.75363        -1.68518
| 53>    C       -5.07900       -19.66994        -2.74568
| 54>    C       -6.37405       -19.84380        -3.13434
| 55>    S       -7.41949       -18.85744        -2.16695
| 56>    C       -6.91863       -20.71738        -4.20468
| 57>   Cl       -3.75215       -20.49437        -3.47505
| 58>    C       -7.29818       -17.39732         0.75312
| 59>    C       -7.47961       -16.50122         1.83371
| 60>    C       -6.63083       -15.38464         1.98683
| 61>    C       -5.65428       -15.21873         1.01479
| 62>    S       -4.48421       -13.92856         0.97011
| 63>    C       -6.76499       -14.47479         3.10694
| 64>    C       -6.63322       -13.11533         3.11342
| 65>    C       -6.83680       -12.55552         4.39333
| 66>    C       -7.10929       -13.46315         5.37542
| 67>    S       -7.10917       -15.05916         4.71463
| 68>    C       -7.40790       -13.24151         6.81172
| 69>   Cl       -6.75698       -10.85738         4.67370
| 70>    C       -8.56391       -16.87977         2.65493
| 71>    C       -9.17241       -18.03614         2.25880
| 72>    S       -8.45054       -18.70799         0.81536
| 73>    C      -10.25321       -18.64402         2.95737
| 74>    S      -11.13033       -20.05951         2.43877
| 75>    C      -12.15625       -20.08050         3.81694
| 76>    C      -11.85206       -19.04130         4.66237
| 77>    C      -10.77809       -18.23852         4.16276
| 78>    O      -10.49072       -17.23035         5.01617
| 79>    C      -11.36133       -17.38207         6.05052
| 80>    N      -11.27291       -16.44853         7.10900
| 81>    O      -12.05026       -16.59568         8.03326
| 82>    O      -10.43590       -15.57318         7.02639
| 83>    C      -12.21020       -18.44622         5.90488
| 84>    H        9.57863       -21.52261         8.82796
| 85>    H        8.07457       -20.46508         8.80186
| 86>    H       11.46485       -21.02254         7.01375
| 87>    H       11.92493       -19.42675         5.04650
| 88>    H       11.83864       -17.77997         3.35997
| 89>    H       11.19059       -15.84889         1.79300
| 90>    H        9.28774       -14.40735         1.19615
| 91>    H        8.00417       -14.10138         5.03025
| 92>    H        3.71473       -11.97073         3.71970
| 93>    H        4.56101       -12.00536        -0.20665
| 94>    H        2.67991       -12.71597         2.09036
| 95>    H        2.30998       -11.33731        -0.63580
| 96>    H        0.68764       -12.67082         2.49222
| 97>    H       -0.69751       -13.09634         1.49088
| 98>    H       -0.62526       -11.51516         2.25608
| 99>    H        0.23271       -10.52378        -1.18561
|100>    H       -1.05134       -10.50359         0.04183
|101>    H       -0.47695       -12.69866        -1.83927
|102>    H       -2.59680       -12.25469         0.14810
|103>    H       -2.15666       -14.49428        -1.90266
|104>    H       -4.09797       -16.25438        -1.78261
|105>    H       -3.94724       -18.53972        -1.24354
|106>    H       -6.10760       -21.26123        -4.68270
|107>    H       -7.43890       -20.12487        -4.95666
|108>    H       -7.62925       -21.43171        -3.79032
|109>    H       -6.44115       -12.52256         2.23857
|110>    H       -6.60377       -13.62980         7.43729
|111>    H       -8.32694       -13.75911         7.08623
|112>    H       -7.52102       -12.17779         7.00632
|113>    H       -8.90060       -16.32284         3.50741
|114>    H      -12.90095       -20.84202         3.91794
|115>    H      -12.97008       -18.74497         6.59680
|116> *
|117>
|118>                          ****END OF INPUT****

CARTESIAN COORDINATES (ANGSTROEM)
---------------------------------
  C      9.033250  -20.709370    8.382520
  C      9.540580  -20.033540    7.342760
  C     10.796650  -20.247470    6.682490
  C     11.035160  -19.408460    5.650610
  C      9.996710  -18.465340    5.409710
  S      8.694320  -18.689080    6.559290
  C      9.958360  -17.498250    4.433380
  C     10.925610  -17.217780    3.438500
  C     10.582920  -16.197260    2.609770
  C      9.329040  -15.593090    2.896170
  S      8.600470  -16.397100    4.277240
  C      8.756110  -14.617130    2.118010
  C      7.534880  -13.935120    2.251440
  S      6.796850  -13.354030    0.784060
  C      5.355600  -12.815250    1.584230
  C      5.489340  -12.978510    2.971960
  C      6.721870  -13.602890    3.352770
  C      7.054680  -13.706470    4.714820
  C      6.173650  -13.258750    5.656770
  F      6.486560  -13.345830    6.960760
  C      4.953610  -12.657530    5.283590
  F      4.130000  -12.193980    6.240950
  C      4.616690  -12.501830    3.970750
  C      4.285880  -12.325080    0.791650
  C      2.978510  -12.297250    1.143560
  C      1.958980  -11.768050    0.295070
  C      0.638790  -11.727390    0.554180
  C     -0.024130  -12.284620    1.771410
  C     -0.312140  -11.133950   -0.460750
  N     -1.031300  -12.159690   -1.188590
  C     -2.102670  -12.790590   -0.651820
  C     -2.615580  -13.963860   -1.079640
  C     -3.752370  -14.581960   -0.487230
  C     -4.383920  -15.723760   -0.893290
  C     -5.457190  -16.121560   -0.060550
  C     -6.288860  -17.252180   -0.191210
  C     -6.080650  -18.219510   -1.251340
  C     -4.902860  -18.753630   -1.685180
  C     -5.079000  -19.669940   -2.745680
  C     -6.374050  -19.843800   -3.134340
  S     -7.419490  -18.857440   -2.166950
  C     -6.918630  -20.717380   -4.204680
  Cl    -3.752150  -20.494370   -3.475050
  C     -7.298180  -17.397320    0.753120
  C     -7.479610  -16.501220    1.833710
  C     -6.630830  -15.384640    1.986830
  C     -5.654280  -15.218730    1.014790
  S     -4.484210  -13.928560    0.970110
  C     -6.764990  -14.474790    3.106940
  C     -6.633220  -13.115330    3.113420
  C     -6.836800  -12.555520    4.393330
  C     -7.109290  -13.463150    5.375420
  S     -7.109170  -15.059160    4.714630
  C     -7.407900  -13.241510    6.811720
  Cl    -6.756980  -10.857380    4.673700
  C     -8.563910  -16.879770    2.654930
  C     -9.172410  -18.036140    2.258800
  S     -8.450540  -18.707990    0.815360
  C    -10.253210  -18.644020    2.957370
  S    -11.130330  -20.059510    2.438770
  C    -12.156250  -20.080500    3.816940
  C    -11.852060  -19.041300    4.662370
  C    -10.778090  -18.238520    4.162760
  O    -10.490720  -17.230350    5.016170
  C    -11.361330  -17.382070    6.050520
  N    -11.272910  -16.448530    7.109000
  O    -12.050260  -16.595680    8.033260
  O    -10.435900  -15.573180    7.026390
  C    -12.210200  -18.446220    5.904880
  H      9.578630  -21.522610    8.827960
  H      8.074570  -20.465080    8.801860
  H     11.464850  -21.022540    7.013750
  H     11.924930  -19.426750    5.046500
  H     11.838640  -17.779970    3.359970
  H     11.190590  -15.848890    1.793000
  H      9.287740  -14.407350    1.196150
  H      8.004170  -14.101380    5.030250
  H      3.714730  -11.970730    3.719700
  H      4.561010  -12.005360   -0.206650
  H      2.679910  -12.715970    2.090360
  H      2.309980  -11.337310   -0.635800
  H      0.687640  -12.670820    2.492220
  H     -0.697510  -13.096340    1.490880
  H     -0.625260  -11.515160    2.256080
  H      0.232710  -10.523780   -1.185610
  H     -1.051340  -10.503590    0.041830
  H     -0.476950  -12.698660   -1.839270
  H     -2.596800  -12.254690    0.148100
  H     -2.156660  -14.494280   -1.902660
  H     -4.097970  -16.254380   -1.782610
  H     -3.947240  -18.539720   -1.243540
  H     -6.107600  -21.261230   -4.682700
  H     -7.438900  -20.124870   -4.956660
  H     -7.629250  -21.431710   -3.790320
  H     -6.441150  -12.522560    2.238570
  H     -6.603770  -13.629800    7.437290
  H     -8.326940  -13.759110    7.086230
  H     -7.521020  -12.177790    7.006320
  H     -8.900600  -16.322840    3.507410
  H    -12.900950  -20.842020    3.917940
  H    -12.970080  -18.744970    6.596800

 Total Charge           Charge          ....    0
 Multiplicity           Mult            ....    1
 Number of Electrons    NEL             ....  562
 Basis Dimension        Dim             .... 1166

ORBITAL ENERGIES
----------------

  NO   OCC          E(Eh)            E(eV)
   0   2.0000    -101.576868     -2764.0471
   1   2.0000    -101.570873     -2763.8840
   2   2.0000     -88.977715     -2421.2067
   3   2.0000     -88.962254     -2420.7860
   4   2.0000     -88.948193     -2420.4034
   5   2.0000     -88.945426     -2420.3281
   6   2.0000     -88.942925     -2420.2600
   7   2.0000     -88.942364     -2420.2448
   8   2.0000     -88.935768     -2420.0653
   9   2.0000     -88.935547     -2420.0593
  10   2.0000     -24.779247      -674.2776
  11   2.0000     -24.777161      -674.2208
  12   2.0000     -19.309245      -525.4313
  13   2.0000     -19.247039      -523.7386
  14   2.0000     -19.244802      -523.6777
  15   2.0000     -14.658315      -398.8730
  16   2.0000     -14.431646      -392.7051
  17   2.0000     -10.388641      -282.6893
  18   2.0000     -10.360009      -281.9102
  19   2.0000     -10.358585      -281.8714
  20   2.0000     -10.344506      -281.4883
  21   2.0000     -10.318574      -280.7827
  22   2.0000     -10.314490      -280.6715
  23   2.0000     -10.312619      -280.6206
  24   2.0000     -10.311876      -280.6004
  25   2.0000     -10.310683      -280.5680
  26   2.0000     -10.310073      -280.5514
  27   2.0000     -10.307622      -280.4847
  28   2.0000     -10.307463      -280.4803
  29   2.0000     -10.306519      -280.4546
  30   2.0000     -10.305475      -280.4262
  31   2.0000     -10.304102      -280.3889
  32   2.0000     -10.303800      -280.3807
  33   2.0000     -10.303794      -280.3805
  34   2.0000     -10.303497      -280.3724
  35   2.0000     -10.298937      -280.2483
  36   2.0000     -10.296468      -280.1811
  37   2.0000     -10.295349      -280.1507
  38   2.0000     -10.294666      -280.1321
  39   2.0000     -10.293477      -280.0998
  40   2.0000     -10.292591      -280.0757
  41   2.0000     -10.290529      -280.0195
  42   2.0000     -10.289205      -279.9835
  43   2.0000     -10.288087      -279.9531
  44   2.0000     -10.287876      -279.9473
  45   2.0000     -10.287347      -279.9329
  46   2.0000     -10.285720      -279.8887
  47   2.0000     -10.285644      -279.8866
  48   2.0000     -10.284639      -279.8593
  49   2.0000     -10.283503      -279.8283
  50   2.0000     -10.283124      -279.8180
  51   2.0000     -10.282512      -279.8014
  52   2.0000     -10.282040      -279.7885
  53   2.0000     -10.281524      -279.7745
  54   2.0000     -10.279681      -279.7243
  55   2.0000     -10.278902      -279.7031
  56   2.0000     -10.274995      -279.5968
  57   2.0000     -10.274905      -279.5944
  58   2.0000     -10.274125      -279.5731
  59   2.0000     -10.270631      -279.4781
  60   2.0000     -10.269974      -279.4602
  61   2.0000     -10.268741      -279.4266
  62   2.0000     -10.267702      -279.3984
  63   2.0000     -10.265966      -279.3511
  64   2.0000     -10.265584      -279.3408
  65   2.0000     -10.264041      -279.2988
  66   2.0000     -10.258956      -279.1604
  67   2.0000     -10.254827      -279.0480
  68   2.0000     -10.251172      -278.9486
  69   2.0000      -9.531625      -259.3687
  70   2.0000      -9.525657      -259.2063
  71   2.0000      -8.072510      -219.6642
  72   2.0000      -8.057768      -219.2630
  73   2.0000      -8.043928      -218.8864
  74   2.0000      -8.040739      -218.7996
  75   2.0000      -8.038522      -218.7393
  76   2.0000      -8.038391      -218.7357
  77   2.0000      -8.032333      -218.5709
  78   2.0000      -8.031174      -218.5394
  79   2.0000      -7.301834      -198.6930
  80   2.0000      -7.295860      -198.5304
  81   2.0000      -7.291717      -198.4177
  82   2.0000      -7.291651      -198.4159
  83   2.0000      -7.285770      -198.2559
  84   2.0000      -7.285669      -198.2531
  85   2.0000      -6.041865      -164.4075
  86   2.0000      -6.037394      -164.2858
  87   2.0000      -6.034969      -164.2198
  88   2.0000      -6.026703      -163.9949
  89   2.0000      -6.022769      -163.8879
  90   2.0000      -6.020457      -163.8250
  91   2.0000      -6.013218      -163.6280
  92   2.0000      -6.010440      -163.5524
  93   2.0000      -6.009021      -163.5138
  94   2.0000      -6.008185      -163.4910
  95   2.0000      -6.007840      -163.4816
  96   2.0000      -6.006288      -163.4394
  97   2.0000      -6.006061      -163.4332
  98   2.0000      -6.004091      -163.3796
  99   2.0000      -6.003643      -163.3674
 100   2.0000      -6.002149      -163.3268
 101   2.0000      -6.001997      -163.3227
 102   2.0000      -6.000796      -163.2900
 103   2.0000      -6.000581      -163.2841
 104   2.0000      -5.999202      -163.2466
 105   2.0000      -5.998240      -163.2204
 106   2.0000      -5.996792      -163.1810
 107   2.0000      -5.992833      -163.0733
 108   2.0000      -5.992482      -163.0637
 109   2.0000      -1.329083       -36.1662
 110   2.0000      -1.299627       -35.3646
 111   2.0000      -1.284796       -34.9611
 112   2.0000      -1.229159       -33.4471
 113   2.0000      -1.145147       -31.1610
 114   2.0000      -1.034343       -28.1459
 115   2.0000      -1.003902       -27.3176
 116   2.0000      -0.998618       -27.1738
 117   2.0000      -0.996485       -27.1157
 118   2.0000      -0.990428       -26.9509
 119   2.0000      -0.988979       -26.9115
 120   2.0000      -0.981693       -26.7132
 121   2.0000      -0.966518       -26.3003
 122   2.0000      -0.964865       -26.2553
 123   2.0000      -0.937047       -25.4983
 124   2.0000      -0.936901       -25.4944
 125   2.0000      -0.933970       -25.4146
 126   2.0000      -0.928441       -25.2642
 127   2.0000      -0.919690       -25.0260
 128   2.0000      -0.906997       -24.6806
 129   2.0000      -0.898499       -24.4494
 130   2.0000      -0.889001       -24.1909
 131   2.0000      -0.886811       -24.1314
 132   2.0000      -0.877751       -23.8848
 133   2.0000      -0.862840       -23.4791
 134   2.0000      -0.853367       -23.2213
 135   2.0000      -0.850835       -23.1524
 136   2.0000      -0.846834       -23.0435
 137   2.0000      -0.841231       -22.8911
 138   2.0000      -0.839805       -22.8522
 139   2.0000      -0.834870       -22.7180
 140   2.0000      -0.829573       -22.5738
 141   2.0000      -0.821398       -22.3514
 142   2.0000      -0.819212       -22.2919
 143   2.0000      -0.807790       -21.9811
 144   2.0000      -0.801523       -21.8106
 145   2.0000      -0.795620       -21.6499
 146   2.0000      -0.792344       -21.5608
 147   2.0000      -0.786555       -21.4033
 148   2.0000      -0.782755       -21.2998
 149   2.0000      -0.780447       -21.2371
 150   2.0000      -0.770003       -20.9528
 151   2.0000      -0.760374       -20.6908
 152   2.0000      -0.750497       -20.4221
 153   2.0000      -0.733943       -19.9716
 154   2.0000      -0.728615       -19.8266
 155   2.0000      -0.719880       -19.5889
 156   2.0000      -0.716761       -19.5040
 157   2.0000      -0.708336       -19.2748
 158   2.0000      -0.699550       -19.0357
 159   2.0000      -0.689168       -18.7532
 160   2.0000      -0.683811       -18.6074
 161   2.0000      -0.683612       -18.6020
 162   2.0000      -0.661000       -17.9867
 163   2.0000      -0.658777       -17.9262
 164   2.0000      -0.656464       -17.8633
 165   2.0000      -0.652911       -17.7666
 166   2.0000      -0.642626       -17.4867
 167   2.0000      -0.640035       -17.4162
 168   2.0000      -0.638223       -17.3669
 169   2.0000      -0.635173       -17.2839
 170   2.0000      -0.629435       -17.1278
 171   2.0000      -0.624654       -16.9977
 172   2.0000      -0.623328       -16.9616
 173   2.0000      -0.619604       -16.8603
 174   2.0000      -0.615918       -16.7600
 175   2.0000      -0.613622       -16.6975
 176   2.0000      -0.612216       -16.6593
 177   2.0000      -0.603131       -16.4120
 178   2.0000      -0.600815       -16.3490
 179   2.0000      -0.597067       -16.2470
 180   2.0000      -0.595474       -16.2037
 181   2.0000      -0.589286       -16.0353
 182   2.0000      -0.586123       -15.9492
 183   2.0000      -0.585133       -15.9223
 184   2.0000      -0.583127       -15.8677
 185   2.0000      -0.571645       -15.5553
 186   2.0000      -0.569338       -15.4925
 187   2.0000      -0.566693       -15.4205
 188   2.0000      -0.565865       -15.3980
 189   2.0000      -0.563907       -15.3447
 190   2.0000      -0.562927       -15.3180
 191   2.0000      -0.554450       -15.0873
 192   2.0000      -0.550350       -14.9758
 193   2.0000      -0.546255       -14.8643
 194   2.0000      -0.536950       -14.6112
 195   2.0000      -0.535430       -14.5698
 196   2.0000      -0.532485       -14.4896
 197   2.0000      -0.531665       -14.4673
 198   2.0000      -0.527318       -14.3491
 199   2.0000      -0.523508       -14.2454
 200   2.0000      -0.517305       -14.0766
 201   2.0000      -0.514747       -14.0070
 202   2.0000      -0.513508       -13.9733
 203   2.0000      -0.511946       -13.9308
 204   2.0000      -0.507862       -13.8196
 205   2.0000      -0.505182       -13.7467
 206   2.0000      -0.504962       -13.7407
 207   2.0000      -0.502562       -13.6754
 208   2.0000      -0.499473       -13.5914
 209   2.0000      -0.496760       -13.5175
 210   2.0000      -0.495982       -13.4963
 211   2.0000      -0.493018       -13.4157
 212   2.0000      -0.489495       -13.3198
 213   2.0000      -0.488164       -13.2836
 214   2.0000      -0.487177       -13.2568
 215   2.0000      -0.484378       -13.1806
 216   2.0000      -0.482558       -13.1311
 217   2.0000      -0.481168       -13.0932
 218   2.0000      -0.476884       -12.9767
 219   2.0000      -0.476417       -12.9640
 220   2.0000      -0.474703       -12.9173
 221   2.0000      -0.470881       -12.8133
 222   2.0000      -0.468531       -12.7494
 223   2.0000      -0.467511       -12.7216
 224   2.0000      -0.464360       -12.6359
 225   2.0000      -0.461172       -12.5491
 226   2.0000      -0.458229       -12.4690
 227   2.0000      -0.456213       -12.4142
 228   2.0000      -0.455240       -12.3877
 229   2.0000      -0.454249       -12.3608
 230   2.0000      -0.451623       -12.2893
 231   2.0000      -0.448925       -12.2159
 232   2.0000      -0.448645       -12.2082
 233   2.0000      -0.447807       -12.1855
 234   2.0000      -0.445904       -12.1337
 235   2.0000      -0.442120       -12.0307
 236   2.0000      -0.438416       -11.9299
 237   2.0000      -0.437504       -11.9051
 238   2.0000      -0.430578       -11.7166
 239   2.0000      -0.428502       -11.6601
 240   2.0000      -0.426194       -11.5973
 241   2.0000      -0.425242       -11.5714
 242   2.0000      -0.420743       -11.4490
 243   2.0000      -0.419826       -11.4241
 244   2.0000      -0.415596       -11.3090
 245   2.0000      -0.413186       -11.2434
 246   2.0000      -0.412592       -11.2272
 247   2.0000      -0.407996       -11.1021
 248   2.0000      -0.404753       -11.0139
 249   2.0000      -0.404164       -10.9978
 250   2.0000      -0.403057       -10.9677
 251   2.0000      -0.398859       -10.8535
 252   2.0000      -0.396727       -10.7955
 253   2.0000      -0.395091       -10.7510
 254   2.0000      -0.393203       -10.6996
 255   2.0000      -0.386244       -10.5102
 256   2.0000      -0.382961       -10.4209
 257   2.0000      -0.382682       -10.4133
 258   2.0000      -0.374165       -10.1815
 259   2.0000      -0.373610       -10.1664
 260   2.0000      -0.369809       -10.0630
 261   2.0000      -0.366557        -9.9745
 262   2.0000      -0.363250        -9.8845
 263   2.0000      -0.362666        -9.8687
 264   2.0000      -0.335183        -9.1208
 265   2.0000      -0.330635        -8.9970
 266   2.0000      -0.330337        -8.9889
 267   2.0000      -0.321308        -8.7432
 268   2.0000      -0.315743        -8.5918
 269   2.0000      -0.314355        -8.5540
 270   2.0000      -0.307471        -8.3667
 271   2.0000      -0.306502        -8.3403
 272   2.0000      -0.304001        -8.2723
 273   2.0000      -0.301638        -8.2080
 274   2.0000      -0.289928        -7.8893
 275   2.0000      -0.285097        -7.7579
 276   2.0000      -0.268801        -7.3145
 277   2.0000      -0.256632        -6.9833
 278   2.0000      -0.248011        -6.7487
 279   2.0000      -0.221489        -6.0270
 280   2.0000      -0.205719        -5.5979
 281   0.0000      -0.075234        -2.0472
 282   0.0000      -0.067867        -1.8468
 283   0.0000      -0.034907        -0.9499
 284   0.0000      -0.031092        -0.8461
 285   0.0000      -0.003187        -0.0867

MULLIKEN ATOMIC CHARGES
-----------------------
   0 C :   -0.027628
   1 C :   -0.065054
   2 C :    0.051190
   3 C :    0.029869
   4 C :   -0.066672
   5 S :    0.083196
   6 C :   -0.058215
   7 C :    0.035441
   8 C :    0.028911
   9 C :   -0.032117
  10 S :    0.081528
  11 C :   -0.005387
  12 C :   -0.140749
  13 S :    0.152078
  14 C :   -0.125980
  15 C :    0.118261
  16 C :    0.124228
  17 C :   -0.112854
  18 C :    0.217074
  19 F :   -0.181278
  20 C :    0.225878
  21 F :   -0.182271
  22 C :   -0.122543
  23 C :    0.030612
  24 C :   -0.009109
  25 C :    0.008465
  26 C :   -0.180053
  27 C :    0.093503
  28 C :    0.191172
  29 N :   -0.146866
  30 C :    0.043819
  31 C :   -0.030084
  32 C :    0.006120
  33 C :   -0.094282
  34 C :    0.115007
  35 C :    0.112855
  36 C :   -0.210024
  37 C :    0.036941
  38 C :    0.079546
  39 C :   -0.264008
  40 S :    0.137491
  41 C :    0.121014
  42 Cl:   -0.096311
  43 C :   -0.133318
  44 C :    0.075458
  45 C :    0.148310
  46 C :   -0.144899
  47 S :    0.066066
  48 C :   -0.213156
  49 C :    0.034741
  50 C :    0.081379
  51 C :   -0.261303
  52 S :    0.142199
  53 C :    0.118044
  54 Cl:   -0.099802
  55 C :   -0.107092
  56 C :   -0.030560
  57 S :    0.118122
  58 C :   -0.163364
  59 S :    0.175196
  60 C :   -0.154317
  61 C :    0.143420
  62 C :    0.171839
  63 O :   -0.190857
  64 C :    0.246449
  65 N :    0.281227
  66 O :   -0.246332
  67 O :   -0.235606
  68 C :   -0.079641
  69 H :    0.019802
  70 H :    0.023080
  71 H :   -0.011659
  72 H :   -0.012405
  73 H :   -0.016276
  74 H :   -0.013925
  75 H :   -0.012002
  76 H :   -0.001844
  77 H :   -0.015691
  78 H :   -0.018297
  79 H :   -0.005725
  80 H :   -0.033518
  81 H :    0.009747
  82 H :    0.044902
  83 H :    0.021457
  84 H :    0.009237
  85 H :    0.014232
  86 H :    0.114748
  87 H :    0.016519
  88 H :   -0.029996
  89 H :   -0.029214
  90 H :   -0.013413
  91 H :    0.021431
  92 H :    0.033530
  93 H :    0.032250
  94 H :   -0.014854
  95 H :    0.032633
  96 H :    0.045467
  97 H :    0.019796
  98 H :    0.009472
  99 H :    0.032310
 100 H :    0.013292
Sum of atomic charges:   -0.0000000

LOEWDIN ATOMIC CHARGES
----------------------
   0 C :   -0.074763
   1 C :   -0.139657
   2 C :   -0.030820
   3 C :   -0.027189
   4 C :   -0.177043
   5 S :    0.353789
   6 C :   -0.183277
   7 C :   -0.035482
   8 C :   -0.034677
   9 C :   -0.151381
  10 S :    0.389579
  11 C :   -0.088230
  12 C :   -0.177528
  13 S :    0.471465
  14 C :   -0.180084
  15 C :   -0.043701
  16 C :   -0.051180
  17 C :   -0.044327
  18 C :    0.059276
  19 F :   -0.058328
  20 C :    0.061251
  21 F :   -0.060510
  22 C :   -0.044437
  23 C :   -0.045734
  24 C :   -0.029367
  25 C :   -0.050198
  26 C :   -0.039210
  27 C :   -0.049960
  28 C :    0.044007
  29 N :   -0.005966
  30 C :    0.034815
  31 C :   -0.138396
  32 C :   -0.126533
  33 C :   -0.091916
  34 C :   -0.026979
  35 C :   -0.067773
  36 C :   -0.168952
  37 C :   -0.070097
  38 C :   -0.178530
  39 C :   -0.201802
  40 S :    0.431640
  41 C :   -0.061962
  42 Cl:    0.121655
  43 C :   -0.146466
  44 C :   -0.049632
  45 C :   -0.051766
  46 C :   -0.146952
  47 S :    0.389529
  48 C :   -0.172781
  49 C :   -0.076687
  50 C :   -0.181277
  51 C :   -0.194464
  52 S :    0.460746
  53 C :   -0.063301
  54 Cl:    0.119778
  55 C :   -0.058346
  56 C :   -0.183780
  57 S :    0.386903
  58 C :   -0.214829
  59 S :    0.483420
  60 C :   -0.190345
  61 C :   -0.081162
  62 C :    0.021816
  63 O :    0.002662
  64 C :    0.026174
  65 N :    0.275383
  66 O :   -0.206850
  67 O :   -0.198083
  68 C :   -0.006150
  69 H :    0.028624
  70 H :    0.026931
  71 H :    0.033343
  72 H :    0.031995
  73 H :    0.030954
  74 H :    0.032321
  75 H :    0.033251
  76 H :    0.028003
  77 H :    0.038555
  78 H :    0.026673
  79 H :    0.024842
  80 H :    0.022630
  81 H :    0.029362
  82 H :    0.041219
  83 H :    0.035537
  84 H :    0.027036
  85 H :    0.029076
  86 H :    0.077416
  87 H :    0.020898
  88 H :    0.026681
  89 H :    0.026418
  90 H :    0.033370
  91 H :    0.032686
  92 H :    0.038030
  93 H :    0.037839
  94 H :    0.024482
  95 H :    0.038568
  96 H :    0.042623
  97 H :    0.032453
  98 H :    0.016971
  99 H :    0.028832
 100 H :    0.047354

  Mayer bond orders larger than 0.100000
B(  0-C ,  1-C ) :   1.8634 B(  0-C , 69-H ) :   0.9511 B(  0-C , 70-H ) :   0.9415
B(  1-C ,  2-C ) :   1.0795 B(  1-C ,  5-S ) :   1.0076 B(  2-C ,  3-C ) :   1.6602
B(  2-C , 71-H ) :   0.9931 B(  3-C ,  4-C ) :   1.1550 B(  3-C , 72-H ) :   0.9916
B(  4-C ,  5-S ) :   1.0466 B(  4-C ,  6-C ) :   1.5532 B(  6-C ,  7-C ) :   1.1723
B(  6-C , 10-S ) :   1.0324 B(  7-C ,  8-C ) :   1.6034 B(  7-C , 73-H ) :   0.9917
B(  8-C ,  9-C ) :   1.1371 B(  8-C , 74-H ) :   0.9978 B(  9-C , 10-S ) :   1.0300
B(  9-C , 11-C ) :   1.6130 B( 11-C , 12-C ) :   1.1638 B( 11-C , 75-H ) :   0.9412
B( 12-C , 13-S ) :   1.1504 B( 12-C , 14-C ) :   0.1083 B( 12-C , 16-C ) :   1.3276
B( 13-S , 14-C ) :   1.1482 B( 14-C , 15-C ) :   1.3518 B( 14-C , 23-C ) :   1.1174
B( 15-C , 16-C ) :   1.2118 B( 15-C , 22-C ) :   1.1624 B( 16-C , 17-C ) :   1.1660
B( 17-C , 18-C ) :   1.5157 B( 17-C , 22-C ) :   0.1094 B( 17-C , 76-H ) :   0.9784
B( 18-C , 19-F ) :   1.1216 B( 18-C , 20-C ) :   1.1587 B( 20-C , 21-F ) :   1.1240
B( 20-C , 22-C ) :   1.5007 B( 22-C , 77-H ) :   0.9951 B( 23-C , 24-C ) :   1.6933
B( 23-C , 78-H ) :   0.9578 B( 24-C , 25-C ) :   1.1167 B( 24-C , 79-H ) :   0.9688
B( 25-C , 26-C ) :   1.7548 B( 25-C , 80-H ) :   0.9735 B( 26-C , 27-C ) :   1.0802
B( 26-C , 28-C ) :   1.0333 B( 27-C , 81-H ) :   0.9500 B( 27-C , 82-H ) :   0.9372
B( 27-C , 83-H ) :   0.9459 B( 28-C , 29-N ) :   1.0198 B( 28-C , 84-H ) :   0.9459
B( 28-C , 85-H ) :   0.9314 B( 29-N , 30-C ) :   1.2237 B( 29-N , 86-H ) :   0.9396
B( 30-C , 31-C ) :   1.6068 B( 30-C , 87-H ) :   0.9573 B( 31-C , 32-C ) :   1.1718
B( 31-C , 88-H ) :   0.9702 B( 32-C , 33-C ) :   1.5398 B( 32-C , 47-S ) :   1.0458
B( 33-C , 34-C ) :   1.1672 B( 33-C , 89-H ) :   0.9997 B( 34-C , 35-C ) :   1.3295
B( 34-C , 46-C ) :   1.2630 B( 35-C , 36-C ) :   0.9768 B( 35-C , 43-C ) :   1.3874
B( 36-C , 37-C ) :   1.5572 B( 36-C , 40-S ) :   1.1349 B( 37-C , 38-C ) :   1.2100
B( 37-C , 90-H ) :   1.0095 B( 38-C , 39-C ) :   1.6063 B( 38-C , 42-Cl) :   0.9988
B( 39-C , 40-S ) :   1.1255 B( 39-C , 41-C ) :   1.0819 B( 41-C , 91-H ) :   0.9452
B( 41-C , 92-H ) :   0.9497 B( 41-C , 93-H ) :   0.9488 B( 43-C , 44-C ) :   1.2937
B( 43-C , 57-S ) :   1.0581 B( 44-C , 45-C ) :   1.2870 B( 44-C , 55-C ) :   1.1636
B( 45-C , 46-C ) :   1.4439 B( 45-C , 48-C ) :   0.9872 B( 46-C , 47-S ) :   1.0477
B( 48-C , 49-C ) :   1.5491 B( 48-C , 52-S ) :   1.1349 B( 49-C , 50-C ) :   1.2212
B( 49-C , 94-H ) :   0.9951 B( 50-C , 51-C ) :   1.6035 B( 50-C , 54-Cl) :   0.9968
B( 51-C , 52-S ) :   1.1364 B( 51-C , 53-C ) :   1.0824 B( 53-C , 95-H ) :   0.9466
B( 53-C , 96-H ) :   0.9437 B( 53-C , 97-H ) :   0.9436 B( 55-C , 56-C ) :   1.6128
B( 55-C , 98-H ) :   0.9702 B( 56-C , 57-S ) :   1.0486 B( 56-C , 58-C ) :   1.1068
B( 58-C , 59-S ) :   1.1351 B( 58-C , 60-C ) :   0.1248 B( 58-C , 62-C ) :   1.5187
B( 59-S , 60-C ) :   1.1882 B( 60-C , 61-C ) :   1.4293 B( 60-C , 99-H ) :   0.9764
B( 61-C , 62-C ) :   1.2192 B( 61-C , 68-C ) :   1.0548 B( 62-C , 63-O ) :   1.0958
B( 63-O , 64-C ) :   1.1175 B( 64-C , 65-N ) :   0.9169 B( 64-C , 68-C ) :   1.5764
B( 65-N , 66-O ) :   1.5345 B( 65-N , 67-O ) :   1.4906 B( 66-O , 67-O ) :   0.2782
B( 68-C ,100-H ) :   1.0255

-----------------------------------------------------------------------------
         ABSORPTION SPECTRUM VIA TRANSITION ELECTRIC DIPOLE MOMENTS
-----------------------------------------------------------------------------
State   Energy  Wavelength   fosc         T2         TX        TY        TZ
        (cm-1)    (nm)                  (au**2)     (au)      (au)      (au)
-----------------------------------------------------------------------------
   0   14908.5    670.8   1.213626574  26.79957  -3.37938   3.15925  -2.32346
   1   19381.6    516.0   0.226539912   3.84795  -1.38554  -1.28191   0.53380
   2   21705.7    460.7   0.054774845   0.83077   0.82153  -0.31145   0.24262
   3   22654.0    441.4   0.244707111   3.55613   1.08768   1.47823  -0.43348
   4   24246.1    412.4   0.031483583   0.42748   0.53908   0.33421  -0.15868
   5   25292.1    395.4   0.799675567  10.40891  -2.30530  -2.23851   0.28905
   6   25759.2    388.2   0.159768723   2.04190  -1.12853  -0.58357   0.65403
   7   26134.1    382.6   0.178826933   2.25269  -1.08462  -0.53173   0.89082
   8   28355.6    352.7   0.013159331   0.15278   0.33478  -0.02000   0.20075
   9   28812.7    347.1   0.076918332   0.87886  -0.30728  -0.74908  -0.47256
  10   28903.9    346.0   0.133093658   1.51592  -1.14079   0.45622   0.07992
  11   29335.1    340.9   0.137798947   1.54644   0.73523   0.86213   0.51247
  12   30235.3    330.7   0.030798086   0.33534  -0.37370   0.03975  -0.44057
  13   31195.1    320.6   0.776985687   8.19977  -1.94688  -0.09687   2.09762
  14   31540.1    317.1   0.023390011   0.24414  -0.22923  -0.01135  -0.43757
  15   32049.3    312.0   0.081905621   0.84134   0.16713  -0.01666  -0.90174
  16   32311.9    309.5   0.168402961   1.71578  -0.62523  -0.05227   1.14984
  17   32906.6    303.9   0.000069384   0.00069   0.01387   0.02240   0.00025
  18   33299.5    300.3   0.011029182   0.10904  -0.32827  -0.03255   0.01485
  19   33627.2    297.4   0.260780663   2.55305   0.05492   0.45180   1.53164
  20   33734.8    296.4   0.157058068   1.53270  -0.08925   0.56230  -1.09934
  21   34183.9    292.5   0.011613146   0.11184   0.16040   0.24224  -0.16563
  22   34518.3    289.7   0.051409173   0.49031   0.10518   0.30026   0.62377
  23   34810.4    287.3   0.331341094   3.13359  -1.25649  -0.57317   1.10738
  24   34946.0    286.2   0.018312171   0.17251  -0.09242  -0.32377  -0.24319
  25   35066.5    285.2   0.026146170   0.24547  -0.45876   0.18061   0.04885
  26   35129.0    284.7   0.011600487   0.10871  -0.27998  -0.04864   0.16721
  27   35746.3    279.7   0.041515508   0.38234  -0.43483  -0.00276  -0.43962
  28   36175.6    276.4   0.186930943   1.70115   0.47891   1.06110   0.58810
  29   36361.0    275.0   0.027118827   0.24553   0.14022  -0.18798  -0.43650
  30   36883.4    271.1   0.164271345   1.46624  -0.14485  -0.89533  -0.80228
  31   37221.0    268.7   0.065981078   0.58359   0.23012  -0.18878  -0.70356
  32   37313.2    268.0   0.022716359   0.20042   0.25829   0.05794   0.36105
  33   37511.9    266.6   0.021116890   0.18533  -0.13190   0.18555   0.36538
  34   37968.2    263.4   0.043480322   0.37701  -0.26342   0.02114   0.55423
  35   38253.4    261.4   0.135818038   1.16886   0.34951  -0.71227   0.73442
  36   38385.2    260.5   0.012937343   0.11096   0.16526  -0.28677  -0.03756
  37   38693.6    258.4   0.113664499   0.96708  -0.00038  -0.45992  -0.86922
  38   38861.9    257.3   0.031381370   0.26584   0.06502   0.50066  -0.10464
  39   39228.0    254.9   0.000341860   0.00287   0.00157  -0.04000   0.03559
  40   39501.3    253.2   0.001505856   0.01255   0.02132   0.08888  -0.06477
  41   39788.3    251.3   0.090649074   0.75004   0.01950   0.52718   0.68683
  42   39938.6    250.4   0.046292069   0.38158  -0.06318   0.50931   0.34380
  43   40135.4    249.2   0.012127535   0.09948   0.07524   0.24148  -0.18842
  44   40156.1    249.0   0.146631390   1.20213   0.63300   0.00210  -0.89523

FINAL SINGLE POINT ENERGY     -6636.993656900692

DIPOLE MOMENT
-------------
                                X             Y             Z
Electronic contribution:    -41.09494      -7.96466      13.96073
Nuclear contribution   :     42.77836       6.71613     -15.92845
                        -----------------------------------------
Total Dipole Moment    :      1.68342      -1.24853      -1.96772
                        -----------------------------------------
Magnitude (a.u.)       :      2.87483
Magnitude (Debye)      :      7.30723

Rotational constants in cm-1:     0.000880     0.000236     0.000230
Rotational constants in MHz :    26.393543     7.071464     6.899536

                             ****ORCA TERMINATED NORMALLY****
TOTAL RUN TIME: 0 days 0 hours 8 minutes 45 seconds 244 msec
