                         Program Version 4.2.0 -  RELEASE  -
|  1> # ORCA input file
|  2> # SCF done       -210.776344304310          0.000776451401
|  3> ! CAM-B3LYP def2-SVP def2/J RIJCOSX Grid4 TightSCF
|  4> %maxcore 5000
|  5> %tddft
|  6>     Mode sTDDFT
|  7>     Ethresh 5.0
|  8>     maxcore 5000
|  9> end
| 10>
| 11> %pal
| 12>   nprocs 6
| 13>   end
| 14> * xyz 0 1
| 15>    C      -12.59636        -2.56991        -2.21229
| 16>    C      -12.05383        -2.86816        -3.45474
| 17>    C      -10.81845        -3.60598        -3.57443
| 18>    N      -10.31463        -3.87967        -4.78095
| 19>    C      -10.94856        -3.47719        -5.85680
| 20>    C      -12.17973        -2.74363        -5.73679
| 21>    N      -12.69486        -2.45958        -4.57236
| 22>    C      -12.84979        -2.32114        -6.91554
| 23>    N      -13.36010        -1.99893        -7.88830
| 24>    C      -10.40931        -3.77507        -7.13028
| 25>    N       -9.99354        -4.00231        -8.17375
| 26>    C      -10.09984        -4.06572        -2.44435
| 27>    C      -10.66780        -3.75699        -1.18915
| 28>    C      -11.90765        -3.01150        -1.08733
| 29>    N      -12.26412        -2.82583         0.19023
| 30>    S      -11.17450        -3.50514         1.14233
| 31>    N      -10.18754        -4.07422         0.01466
| 32>    C       -8.88716        -4.78403        -2.59982
| 33>    C       -8.09349        -5.31019        -1.58842
| 34>    C       -6.96782        -5.94794        -2.09010
| 35>    C       -6.89871        -5.90279        -3.50300
| 36>    S       -8.22652        -5.08652        -4.20229
| 37>    C       -5.71488        -6.56048        -3.90865
| 38>    C       -5.04439        -7.03068        -2.76153
| 39>    C       -5.80404        -6.64780        -1.58133
| 40>    C       -5.46522        -6.86827        -0.27543
| 41>    C       -6.27383        -6.42824         0.79528
| 42>    N       -6.92304        -6.07088         1.66968
| 43>    C       -4.28286        -7.53614         0.08984
| 44>    N       -3.31428        -8.07449         0.39188
| 45>    C       -3.85755        -7.68566        -3.05836
| 46>    C       -3.59879        -7.70393        -4.42229
| 47>    S       -4.86310        -6.91877        -5.34946
| 48>    C       -2.42800        -8.23505        -5.01510
| 49>    C       -2.00120        -8.20706        -6.33456
| 50>    C       -0.73206        -8.76861        -6.47430
| 51>    C       -0.21423        -9.24034        -5.25185
| 52>    S       -1.26489        -8.99719        -3.94511
| 53>    C        1.10208        -9.69914        -5.46374
| 54>    C        1.44241        -9.51251        -6.81571
| 55>    C        0.28437        -8.95172        -7.50187
| 56>    C        0.18414        -8.64628        -8.82696
| 57>    C        1.25158        -8.86167        -9.72405
| 58>    N        2.12212        -9.03862       -10.44882
| 59>    C       -0.99310        -8.10095        -9.38203
| 60>    N       -1.95057        -7.65937        -9.83183
| 61>    C        2.77629        -9.82187        -7.08059
| 62>    C        3.45248       -10.22480        -5.93972
| 63>    S        2.38968       -10.29449        -4.53459
| 64>    C        4.84747       -10.43383        -5.74582
| 65>    C        5.37806       -10.49678        -4.47512
| 66>    C        6.72865       -10.52518        -4.16891
| 67>    C        7.74728       -10.54638        -5.21444
| 68>    C        7.45498       -10.54968        -6.53663
| 69>    S        5.86091       -10.48881        -7.17157
| 70>    C        8.99017       -10.49578        -4.52163
| 71>    C        8.77186       -10.39673        -3.14353
| 72>    C        9.98393       -10.31449        -2.42581
| 73>    C       11.06120       -10.34935        -3.25473
| 74>    S       10.65701       -10.48048        -4.93003
| 75>    C        7.35215       -10.41715        -2.89836
| 76>    C        6.61861       -10.23839        -1.72109
| 77>    C        7.04901        -9.89322        -0.46448
| 78>    C        6.16278        -9.64204         0.59369
| 79>    C        4.80147        -9.42222         0.54049
| 80>    C        3.97172        -9.67880         1.74149
| 81>    O        4.35320        -9.84161         2.87780
| 82>    C        2.57157        -9.76230         1.24008
| 83>    C        2.56756        -9.45153        -0.13147
| 84>    C        1.42702        -9.63782        -0.88482
| 85>    C        0.26503       -10.08190        -0.25583
| 86>    C        0.24836       -10.29974         1.13006
| 87>    C        1.42114       -10.15615         1.88614
| 88>    C       -0.93504       -10.72449         1.78026
| 89>    N       -1.88924       -11.05626         2.32141
| 90>    C       -0.86541       -10.45463        -1.16467
| 91>    O       -0.62471       -11.03455        -2.19525
| 92>    O       -2.10631       -10.12620        -0.84446
| 93>    C        3.91486        -9.03864        -0.52587
| 94>    C        4.16284        -8.20496        -1.59259
| 95>    C        5.42930        -7.66883        -1.89470
| 96>    N        6.43614        -7.19495        -2.17667
| 97>    C        3.15323        -7.73292        -2.45106
| 98>    N        2.36255        -7.32852        -3.18101
| 99>    H      -13.51607        -2.01707        -2.13205
|100>    H       -8.35611        -5.21189        -0.55086
|101>    H       -3.19996        -8.13691        -2.33810
|102>    H       -2.58536        -7.77920        -7.12980
|103>    H        3.25656        -9.72183        -8.03768
|104>    H        4.66589       -10.46848        -3.66194
|105>    H        8.21637       -10.56247        -7.30039
|106>    H       10.07109       -10.23521        -1.35831
|107>    H       12.09766       -10.30379        -2.98291
|108>    H        5.55246       -10.38889        -1.83026
|109>    H        8.10544        -9.85033        -0.24978
|110>    H        6.56538        -9.69558         1.59987
|111>    H        1.41246        -9.49065        -1.95302
|112>    H        1.42289       -10.37340         2.94348
|113>    H       -2.23786        -9.57028        -0.04725
|114> *
|115>
|116>                          ****END OF INPUT****

CARTESIAN COORDINATES (ANGSTROEM)
---------------------------------
  C    -12.596360   -2.569910   -2.212290
  C    -12.053830   -2.868160   -3.454740
  C    -10.818450   -3.605980   -3.574430
  N    -10.314630   -3.879670   -4.780950
  C    -10.948560   -3.477190   -5.856800
  C    -12.179730   -2.743630   -5.736790
  N    -12.694860   -2.459580   -4.572360
  C    -12.849790   -2.321140   -6.915540
  N    -13.360100   -1.998930   -7.888300
  C    -10.409310   -3.775070   -7.130280
  N     -9.993540   -4.002310   -8.173750
  C    -10.099840   -4.065720   -2.444350
  C    -10.667800   -3.756990   -1.189150
  C    -11.907650   -3.011500   -1.087330
  N    -12.264120   -2.825830    0.190230
  S    -11.174500   -3.505140    1.142330
  N    -10.187540   -4.074220    0.014660
  C     -8.887160   -4.784030   -2.599820
  C     -8.093490   -5.310190   -1.588420
  C     -6.967820   -5.947940   -2.090100
  C     -6.898710   -5.902790   -3.503000
  S     -8.226520   -5.086520   -4.202290
  C     -5.714880   -6.560480   -3.908650
  C     -5.044390   -7.030680   -2.761530
  C     -5.804040   -6.647800   -1.581330
  C     -5.465220   -6.868270   -0.275430
  C     -6.273830   -6.428240    0.795280
  N     -6.923040   -6.070880    1.669680
  C     -4.282860   -7.536140    0.089840
  N     -3.314280   -8.074490    0.391880
  C     -3.857550   -7.685660   -3.058360
  C     -3.598790   -7.703930   -4.422290
  S     -4.863100   -6.918770   -5.349460
  C     -2.428000   -8.235050   -5.015100
  C     -2.001200   -8.207060   -6.334560
  C     -0.732060   -8.768610   -6.474300
  C     -0.214230   -9.240340   -5.251850
  S     -1.264890   -8.997190   -3.945110
  C      1.102080   -9.699140   -5.463740
  C      1.442410   -9.512510   -6.815710
  C      0.284370   -8.951720   -7.501870
  C      0.184140   -8.646280   -8.826960
  C      1.251580   -8.861670   -9.724050
  N      2.122120   -9.038620  -10.448820
  C     -0.993100   -8.100950   -9.382030
  N     -1.950570   -7.659370   -9.831830
  C      2.776290   -9.821870   -7.080590
  C      3.452480  -10.224800   -5.939720
  S      2.389680  -10.294490   -4.534590
  C      4.847470  -10.433830   -5.745820
  C      5.378060  -10.496780   -4.475120
  C      6.728650  -10.525180   -4.168910
  C      7.747280  -10.546380   -5.214440
  C      7.454980  -10.549680   -6.536630
  S      5.860910  -10.488810   -7.171570
  C      8.990170  -10.495780   -4.521630
  C      8.771860  -10.396730   -3.143530
  C      9.983930  -10.314490   -2.425810
  C     11.061200  -10.349350   -3.254730
  S     10.657010  -10.480480   -4.930030
  C      7.352150  -10.417150   -2.898360
  C      6.618610  -10.238390   -1.721090
  C      7.049010   -9.893220   -0.464480
  C      6.162780   -9.642040    0.593690
  C      4.801470   -9.422220    0.540490
  C      3.971720   -9.678800    1.741490
  O      4.353200   -9.841610    2.877800
  C      2.571570   -9.762300    1.240080
  C      2.567560   -9.451530   -0.131470
  C      1.427020   -9.637820   -0.884820
  C      0.265030  -10.081900   -0.255830
  C      0.248360  -10.299740    1.130060
  C      1.421140  -10.156150    1.886140
  C     -0.935040  -10.724490    1.780260
  N     -1.889240  -11.056260    2.321410
  C     -0.865410  -10.454630   -1.164670
  O     -0.624710  -11.034550   -2.195250
  O     -2.106310  -10.126200   -0.844460
  C      3.914860   -9.038640   -0.525870
  C      4.162840   -8.204960   -1.592590
  C      5.429300   -7.668830   -1.894700
  N      6.436140   -7.194950   -2.176670
  C      3.153230   -7.732920   -2.451060
  N      2.362550   -7.328520   -3.181010
  H    -13.516070   -2.017070   -2.132050
  H     -8.356110   -5.211890   -0.550860
  H     -3.199960   -8.136910   -2.338100
  H     -2.585360   -7.779200   -7.129800
  H      3.256560   -9.721830   -8.037680
  H      4.665890  -10.468480   -3.661940
  H      8.216370  -10.562470   -7.300390
  H     10.071090  -10.235210   -1.358310
  H     12.097660  -10.303790   -2.982910
  H      5.552460  -10.388890   -1.830260
  H      8.105440   -9.850330   -0.249780
  H      6.565380   -9.695580    1.599870
  H      1.412460   -9.490650   -1.953020
  H      1.422890  -10.373400    2.943480
  H     -2.237860   -9.570280   -0.047250

 Total Charge           Charge          ....    0
 Multiplicity           Mult            ....    1
 Number of Electrons    NEL             ....  608
 Basis Dimension        Dim             .... 1279

ORBITAL ENERGIES
----------------

  NO   OCC          E(Eh)            E(eV)
   0   2.0000     -89.054401     -2423.2935
   1   2.0000     -89.002582     -2421.8834
   2   2.0000     -89.000657     -2421.8310
   3   2.0000     -88.998949     -2421.7845
   4   2.0000     -88.993530     -2421.6371
   5   2.0000     -88.992248     -2421.6022
   6   2.0000     -88.970133     -2421.0004
   7   2.0000     -19.272227      -524.4239
   8   2.0000     -19.217579      -522.9369
   9   2.0000     -19.217287      -522.9290
  10   2.0000     -14.477650      -393.9569
  11   2.0000     -14.468425      -393.7059
  12   2.0000     -14.463067      -393.5601
  13   2.0000     -14.458656      -393.4400
  14   2.0000     -14.455472      -393.3534
  15   2.0000     -14.437889      -392.8749
  16   2.0000     -14.437666      -392.8689
  17   2.0000     -14.435082      -392.7986
  18   2.0000     -14.434275      -392.7766
  19   2.0000     -14.433198      -392.7473
  20   2.0000     -14.426186      -392.5565
  21   2.0000     -14.420012      -392.3885
  22   2.0000     -14.416497      -392.2928
  23   2.0000     -10.423732      -283.6442
  24   2.0000     -10.391695      -282.7724
  25   2.0000     -10.390826      -282.7487
  26   2.0000     -10.374443      -282.3029
  27   2.0000     -10.370693      -282.2009
  28   2.0000     -10.368299      -282.1358
  29   2.0000     -10.364805      -282.0407
  30   2.0000     -10.360051      -281.9113
  31   2.0000     -10.357554      -281.8434
  32   2.0000     -10.356377      -281.8114
  33   2.0000     -10.356029      -281.8019
  34   2.0000     -10.354862      -281.7701
  35   2.0000     -10.353096      -281.7221
  36   2.0000     -10.349904      -281.6352
  37   2.0000     -10.349064      -281.6124
  38   2.0000     -10.347519      -281.5703
  39   2.0000     -10.346731      -281.5489
  40   2.0000     -10.343940      -281.4729
  41   2.0000     -10.340902      -281.3902
  42   2.0000     -10.340693      -281.3846
  43   2.0000     -10.338763      -281.3320
  44   2.0000     -10.338684      -281.3299
  45   2.0000     -10.338206      -281.3169
  46   2.0000     -10.337652      -281.3018
  47   2.0000     -10.337393      -281.2948
  48   2.0000     -10.334662      -281.2205
  49   2.0000     -10.333843      -281.1982
  50   2.0000     -10.333376      -281.1855
  51   2.0000     -10.332576      -281.1637
  52   2.0000     -10.331516      -281.1348
  53   2.0000     -10.331371      -281.1309
  54   2.0000     -10.330023      -281.0942
  55   2.0000     -10.327869      -281.0356
  56   2.0000     -10.324992      -280.9573
  57   2.0000     -10.324585      -280.9462
  58   2.0000     -10.323665      -280.9212
  59   2.0000     -10.322477      -280.8889
  60   2.0000     -10.320616      -280.8382
  61   2.0000     -10.317961      -280.7660
  62   2.0000     -10.317601      -280.7562
  63   2.0000     -10.317487      -280.7531
  64   2.0000     -10.317026      -280.7406
  65   2.0000     -10.315820      -280.7077
  66   2.0000     -10.315345      -280.6948
  67   2.0000     -10.314605      -280.6747
  68   2.0000     -10.310906      -280.5740
  69   2.0000     -10.310866      -280.5729
  70   2.0000     -10.310051      -280.5508
  71   2.0000     -10.309958      -280.5482
  72   2.0000     -10.309455      -280.5345
  73   2.0000     -10.308818      -280.5172
  74   2.0000     -10.308709      -280.5142
  75   2.0000     -10.308457      -280.5074
  76   2.0000     -10.307530      -280.4822
  77   2.0000     -10.307013      -280.4681
  78   2.0000     -10.303340      -280.3681
  79   2.0000     -10.293109      -280.0897
  80   2.0000     -10.291812      -280.0544
  81   2.0000     -10.291268      -280.0396
  82   2.0000     -10.287048      -279.9248
  83   2.0000     -10.284781      -279.8631
  84   2.0000      -8.145660      -221.6547
  85   2.0000      -8.097563      -220.3459
  86   2.0000      -8.094957      -220.2750
  87   2.0000      -8.092529      -220.2089
  88   2.0000      -8.085957      -220.0301
  89   2.0000      -8.085755      -220.0246
  90   2.0000      -8.065669      -219.4780
  91   2.0000      -6.116598      -166.4411
  92   2.0000      -6.108798      -166.2288
  93   2.0000      -6.108704      -166.2263
  94   2.0000      -6.067084      -165.0937
  95   2.0000      -6.064201      -165.0153
  96   2.0000      -6.062396      -164.9662
  97   2.0000      -6.061876      -164.9520
  98   2.0000      -6.060035      -164.9019
  99   2.0000      -6.059691      -164.8926
 100   2.0000      -6.057720      -164.8389
 101   2.0000      -6.057323      -164.8281
 102   2.0000      -6.055533      -164.7794
 103   2.0000      -6.055000      -164.7649
 104   2.0000      -6.054833      -164.7604
 105   2.0000      -6.050726      -164.6486
 106   2.0000      -6.050614      -164.6456
 107   2.0000      -6.048461      -164.5870
 108   2.0000      -6.048230      -164.5807
 109   2.0000      -6.035088      -164.2231
 110   2.0000      -6.030796      -164.1063
 111   2.0000      -6.027724      -164.0227
 112   2.0000      -1.200443       -32.6657
 113   2.0000      -1.150286       -31.3009
 114   2.0000      -1.132757       -30.8239
 115   2.0000      -1.131121       -30.7794
 116   2.0000      -1.112679       -30.2775
 117   2.0000      -1.059424       -28.8284
 118   2.0000      -1.054124       -28.6842
 119   2.0000      -1.051102       -28.6019
 120   2.0000      -1.039535       -28.2872
 121   2.0000      -1.029059       -28.0021
 122   2.0000      -1.027629       -27.9632
 123   2.0000      -1.025374       -27.9018
 124   2.0000      -1.021844       -27.8058
 125   2.0000      -1.020596       -27.7718
 126   2.0000      -1.015497       -27.6331
 127   2.0000      -1.014044       -27.5935
 128   2.0000      -1.011382       -27.5211
 129   2.0000      -1.010229       -27.4897
 130   2.0000      -1.005981       -27.3741
 131   2.0000      -1.003442       -27.3050
 132   2.0000      -0.999128       -27.1876
 133   2.0000      -0.996758       -27.1232
 134   2.0000      -0.989138       -26.9158
 135   2.0000      -0.982398       -26.7324
 136   2.0000      -0.968555       -26.3557
 137   2.0000      -0.967399       -26.3243
 138   2.0000      -0.961370       -26.1602
 139   2.0000      -0.948318       -25.8050
 140   2.0000      -0.929904       -25.3040
 141   2.0000      -0.923424       -25.1276
 142   2.0000      -0.916527       -24.9400
 143   2.0000      -0.915439       -24.9104
 144   2.0000      -0.910996       -24.7895
 145   2.0000      -0.901508       -24.5313
 146   2.0000      -0.890992       -24.2451
 147   2.0000      -0.890240       -24.2247
 148   2.0000      -0.879512       -23.9327
 149   2.0000      -0.875843       -23.8329
 150   2.0000      -0.873719       -23.7751
 151   2.0000      -0.865287       -23.5457
 152   2.0000      -0.857681       -23.3387
 153   2.0000      -0.852270       -23.1914
 154   2.0000      -0.844531       -22.9809
 155   2.0000      -0.840875       -22.8814
 156   2.0000      -0.824867       -22.4458
 157   2.0000      -0.823057       -22.3965
 158   2.0000      -0.807829       -21.9822
 159   2.0000      -0.798586       -21.7306
 160   2.0000      -0.793587       -21.5946
 161   2.0000      -0.789689       -21.4885
 162   2.0000      -0.781711       -21.2714
 163   2.0000      -0.776262       -21.1232
 164   2.0000      -0.761271       -20.7152
 165   2.0000      -0.749173       -20.3860
 166   2.0000      -0.745811       -20.2946
 167   2.0000      -0.741318       -20.1723
 168   2.0000      -0.733062       -19.9476
 169   2.0000      -0.727335       -19.7918
 170   2.0000      -0.718198       -19.5432
 171   2.0000      -0.710597       -19.3363
 172   2.0000      -0.709041       -19.2940
 173   2.0000      -0.705560       -19.1993
 174   2.0000      -0.700370       -19.0580
 175   2.0000      -0.698518       -19.0076
 176   2.0000      -0.694941       -18.9103
 177   2.0000      -0.687608       -18.7108
 178   2.0000      -0.684232       -18.6189
 179   2.0000      -0.677210       -18.4278
 180   2.0000      -0.672244       -18.2927
 181   2.0000      -0.667000       -18.1500
 182   2.0000      -0.663153       -18.0453
 183   2.0000      -0.660169       -17.9641
 184   2.0000      -0.653374       -17.7792
 185   2.0000      -0.643717       -17.5164
 186   2.0000      -0.639675       -17.4064
 187   2.0000      -0.638400       -17.3718
 188   2.0000      -0.633780       -17.2460
 189   2.0000      -0.632344       -17.2070
 190   2.0000      -0.628232       -17.0951
 191   2.0000      -0.624181       -16.9848
 192   2.0000      -0.618996       -16.8437
 193   2.0000      -0.611744       -16.6464
 194   2.0000      -0.607830       -16.5399
 195   2.0000      -0.603398       -16.4193
 196   2.0000      -0.595327       -16.1997
 197   2.0000      -0.590161       -16.0591
 198   2.0000      -0.589002       -16.0276
 199   2.0000      -0.588589       -16.0163
 200   2.0000      -0.581786       -15.8312
 201   2.0000      -0.578078       -15.7303
 202   2.0000      -0.567055       -15.4303
 203   2.0000      -0.565152       -15.3786
 204   2.0000      -0.561121       -15.2689
 205   2.0000      -0.560645       -15.2559
 206   2.0000      -0.558023       -15.1846
 207   2.0000      -0.556431       -15.1413
 208   2.0000      -0.552294       -15.0287
 209   2.0000      -0.550379       -14.9766
 210   2.0000      -0.545987       -14.8571
 211   2.0000      -0.541270       -14.7287
 212   2.0000      -0.540795       -14.7158
 213   2.0000      -0.538729       -14.6596
 214   2.0000      -0.538092       -14.6422
 215   2.0000      -0.534993       -14.5579
 216   2.0000      -0.532966       -14.5027
 217   2.0000      -0.529348       -14.4043
 218   2.0000      -0.528247       -14.3743
 219   2.0000      -0.522285       -14.2121
 220   2.0000      -0.519484       -14.1359
 221   2.0000      -0.518118       -14.0987
 222   2.0000      -0.512246       -13.9389
 223   2.0000      -0.511522       -13.9192
 224   2.0000      -0.509280       -13.8582
 225   2.0000      -0.506857       -13.7923
 226   2.0000      -0.505531       -13.7562
 227   2.0000      -0.502438       -13.6720
 228   2.0000      -0.502026       -13.6608
 229   2.0000      -0.497312       -13.5325
 230   2.0000      -0.496063       -13.4986
 231   2.0000      -0.494935       -13.4679
 232   2.0000      -0.492896       -13.4124
 233   2.0000      -0.492089       -13.3904
 234   2.0000      -0.488787       -13.3006
 235   2.0000      -0.488427       -13.2908
 236   2.0000      -0.487228       -13.2581
 237   2.0000      -0.481970       -13.1151
 238   2.0000      -0.480984       -13.0882
 239   2.0000      -0.476345       -12.9620
 240   2.0000      -0.474908       -12.9229
 241   2.0000      -0.469456       -12.7745
 242   2.0000      -0.469163       -12.7666
 243   2.0000      -0.465725       -12.6730
 244   2.0000      -0.464892       -12.6504
 245   2.0000      -0.464312       -12.6346
 246   2.0000      -0.462446       -12.5838
 247   2.0000      -0.462070       -12.5736
 248   2.0000      -0.461064       -12.5462
 249   2.0000      -0.459168       -12.4946
 250   2.0000      -0.457662       -12.4536
 251   2.0000      -0.457541       -12.4503
 252   2.0000      -0.457313       -12.4441
 253   2.0000      -0.456190       -12.4136
 254   2.0000      -0.453509       -12.3406
 255   2.0000      -0.452633       -12.3168
 256   2.0000      -0.451214       -12.2782
 257   2.0000      -0.451052       -12.2738
 258   2.0000      -0.450260       -12.2522
 259   2.0000      -0.448909       -12.2154
 260   2.0000      -0.447012       -12.1638
 261   2.0000      -0.446043       -12.1375
 262   2.0000      -0.443972       -12.0811
 263   2.0000      -0.443624       -12.0716
 264   2.0000      -0.442410       -12.0386
 265   2.0000      -0.439285       -11.9536
 266   2.0000      -0.435969       -11.8633
 267   2.0000      -0.435316       -11.8456
 268   2.0000      -0.434250       -11.8166
 269   2.0000      -0.432476       -11.7683
 270   2.0000      -0.431598       -11.7444
 271   2.0000      -0.429005       -11.6738
 272   2.0000      -0.428070       -11.6484
 273   2.0000      -0.425657       -11.5827
 274   2.0000      -0.424921       -11.5627
 275   2.0000      -0.421642       -11.4735
 276   2.0000      -0.421023       -11.4566
 277   2.0000      -0.417970       -11.3736
 278   2.0000      -0.415584       -11.3086
 279   2.0000      -0.409685       -11.1481
 280   2.0000      -0.408615       -11.1190
 281   2.0000      -0.403068       -10.9680
 282   2.0000      -0.399773       -10.8784
 283   2.0000      -0.391312       -10.6481
 284   2.0000      -0.389599       -10.6015
 285   2.0000      -0.386558       -10.5188
 286   2.0000      -0.379857       -10.3364
 287   2.0000      -0.364683        -9.9235
 288   2.0000      -0.363558        -9.8929
 289   2.0000      -0.359169        -9.7735
 290   2.0000      -0.356402        -9.6982
 291   2.0000      -0.355625        -9.6771
 292   2.0000      -0.354589        -9.6489
 293   2.0000      -0.347090        -9.4448
 294   2.0000      -0.342971        -9.3327
 295   2.0000      -0.333758        -9.0820
 296   2.0000      -0.331837        -9.0297
 297   2.0000      -0.331116        -9.0101
 298   2.0000      -0.322520        -8.7762
 299   2.0000      -0.313615        -8.5339
 300   2.0000      -0.301879        -8.2145
 301   2.0000      -0.283794        -7.7224
 302   2.0000      -0.257010        -6.9936
 303   2.0000      -0.239645        -6.5211
 304   0.0000      -0.133371        -3.6292
 305   0.0000      -0.112840        -3.0705
 306   0.0000      -0.110206        -2.9988
 307   0.0000      -0.102216        -2.7814
 308   0.0000      -0.082577        -2.2470

MULLIKEN ATOMIC CHARGES
-----------------------
   0 C :   -0.080068
   1 C :    0.024721
   2 C :   -0.058358
   3 N :   -0.016851
   4 C :   -0.094583
   5 C :   -0.153469
   6 N :    0.062608
   7 C :   -0.206938
   8 N :    0.241479
   9 C :   -0.231844
  10 N :    0.247050
  11 C :    0.217344
  12 C :   -0.045567
  13 C :    0.098652
  14 N :   -0.267484
  15 S :    0.567108
  16 N :   -0.282491
  17 C :   -0.180964
  18 C :   -0.049528
  19 C :    0.025043
  20 C :   -0.051864
  21 S :    0.217632
  22 C :   -0.111639
  23 C :    0.022688
  24 C :    0.321943
  25 C :   -0.318712
  26 C :   -0.186966
  27 N :    0.178389
  28 C :   -0.111813
  29 N :    0.116991
  30 C :   -0.060589
  31 C :   -0.040306
  32 S :    0.226117
  33 C :   -0.048046
  34 C :   -0.054875
  35 C :    0.003321
  36 C :   -0.048560
  37 S :    0.191821
  38 C :   -0.047498
  39 C :    0.014830
  40 C :    0.288615
  41 C :   -0.291355
  42 C :   -0.188439
  43 N :    0.169821
  44 C :   -0.188340
  45 N :    0.177904
  46 C :   -0.038215
  47 C :   -0.055314
  48 S :    0.155224
  49 C :   -0.010019
  50 C :   -0.091860
  51 C :    0.080306
  52 C :    0.066275
  53 C :   -0.122862
  54 S :    0.178409
  55 C :   -0.113587
  56 C :    0.059542
  57 C :    0.002405
  58 C :   -0.064527
  59 S :    0.141874
  60 C :    0.099338
  61 C :    0.005827
  62 C :   -0.000706
  63 C :    0.059935
  64 C :   -0.148705
  65 C :    0.141631
  66 O :   -0.139176
  67 C :    0.029417
  68 C :    0.040074
  69 C :   -0.053641
  70 C :    0.022056
  71 C :   -0.062766
  72 C :   -0.039893
  73 C :   -0.205456
  74 N :    0.143524
  75 C :    0.173773
  76 O :   -0.210764
  77 O :   -0.151973
  78 C :    0.238900
  79 C :   -0.367655
  80 C :   -0.193363
  81 N :    0.176522
  82 C :   -0.181337
  83 N :    0.147165
  84 H :   -0.017603
  85 H :    0.023530
  86 H :   -0.000087
  87 H :    0.009276
  88 H :    0.016183
  89 H :    0.005078
  90 H :    0.047886
  91 H :   -0.009764
  92 H :    0.032530
  93 H :   -0.011140
  94 H :   -0.022000
  95 H :    0.022479
  96 H :   -0.025186
  97 H :    0.013653
  98 H :    0.207852
Sum of atomic charges:   -0.0000000

LOEWDIN ATOMIC CHARGES
----------------------
   0 C :   -0.017773
   1 C :   -0.007346
   2 C :   -0.024092
   3 N :   -0.020473
   4 C :   -0.027827
   5 C :   -0.023348
   6 N :    0.003619
   7 C :   -0.035535
   8 N :    0.001191
   9 C :   -0.041159
  10 N :   -0.000749
  11 C :   -0.016460
  12 C :   -0.044389
  13 C :   -0.043317
  14 N :   -0.282966
  15 S :    0.700113
  16 N :   -0.278174
  17 C :   -0.175765
  18 C :    0.003977
  19 C :   -0.085254
  20 C :   -0.162515
  21 S :    0.520983
  22 C :   -0.188225
  23 C :   -0.057766
  24 C :    0.094281
  25 C :   -0.112713
  26 C :   -0.018315
  27 N :   -0.027157
  28 C :    0.036708
  29 N :   -0.045645
  30 C :   -0.040152
  31 C :   -0.170818
  32 S :    0.498187
  33 C :   -0.180576
  34 C :   -0.031427
  35 C :   -0.062049
  36 C :   -0.173114
  37 S :    0.549712
  38 C :   -0.153698
  39 C :   -0.067226
  40 C :    0.083211
  41 C :   -0.101452
  42 C :   -0.016021
  43 N :   -0.033504
  44 C :   -0.017292
  45 N :   -0.029856
  46 C :   -0.021434
  47 C :   -0.187518
  48 S :    0.515840
  49 C :   -0.159424
  50 C :   -0.040237
  51 C :    0.026787
  52 C :   -0.044423
  53 C :   -0.134855
  54 S :    0.495709
  55 C :   -0.202210
  56 C :   -0.028642
  57 C :   -0.059562
  58 C :   -0.158214
  59 S :    0.435701
  60 C :   -0.059322
  61 C :    0.055396
  62 C :   -0.068239
  63 C :    0.076681
  64 C :   -0.124354
  65 C :    0.079663
  66 O :   -0.142679
  67 C :   -0.029609
  68 C :    0.005676
  69 C :    0.017918
  70 C :   -0.034508
  71 C :   -0.051983
  72 C :    0.043264
  73 C :   -0.042806
  74 N :   -0.031396
  75 C :    0.073064
  76 O :   -0.178576
  77 O :   -0.006949
  78 C :    0.056809
  79 C :   -0.160119
  80 C :   -0.021959
  81 N :   -0.040056
  82 C :   -0.027957
  83 N :   -0.076102
  84 H :    0.048710
  85 H :    0.039921
  86 H :    0.027745
  87 H :    0.037874
  88 H :    0.037905
  89 H :    0.022784
  90 H :    0.041528
  91 H :    0.032005
  92 H :    0.026580
  93 H :    0.031780
  94 H :    0.030578
  95 H :    0.046039
  96 H :    0.027146
  97 H :    0.051423
  98 H :    0.070776

  Mayer bond orders larger than 0.100000
B(  0-C ,  1-C ) :   1.3203 B(  0-C , 11-C ) :   0.1271 B(  0-C , 13-C ) :   1.1762
B(  0-C , 84-H ) :   1.0579 B(  1-C ,  2-C ) :   1.1246 B(  1-C ,  6-N ) :   1.3346
B(  2-C ,  3-N ) :   1.3968 B(  2-C , 11-C ) :   1.2432 B(  3-N ,  4-C ) :   1.6941
B(  4-C ,  5-C ) :   1.1935 B(  4-C ,  9-C ) :   1.1579 B(  5-C ,  6-N ) :   1.7861
B(  5-C ,  7-C ) :   1.1598 B(  7-C ,  8-N ) :   3.0523 B(  9-C , 10-N ) :   3.0380
B( 11-C , 12-C ) :   1.2143 B( 11-C , 17-C ) :   1.2085 B( 12-C , 13-C ) :   1.1176
B( 12-C , 16-N ) :   1.5085 B( 13-C , 14-N ) :   1.4613 B( 14-N , 15-S ) :   1.3108
B( 14-N , 16-N ) :   0.1547 B( 15-S , 16-N ) :   1.2841 B( 17-C , 18-C ) :   1.4116
B( 17-C , 21-S ) :   1.0734 B( 18-C , 19-C ) :   1.2805 B( 18-C , 85-H ) :   0.9833
B( 19-C , 20-C ) :   1.3807 B( 19-C , 24-C ) :   1.0009 B( 20-C , 21-S ) :   1.1081
B( 20-C , 22-C ) :   1.2079 B( 22-C , 23-C ) :   1.4223 B( 22-C , 32-S ) :   1.1132
B( 23-C , 24-C ) :   0.9910 B( 23-C , 30-C ) :   1.3201 B( 24-C , 25-C ) :   1.6877
B( 25-C , 26-C ) :   1.1339 B( 25-C , 28-C ) :   1.1599 B( 26-C , 27-N ) :   2.9905
B( 28-C , 29-N ) :   2.8991 B( 29-N , 98-H ) :   0.1202 B( 30-C , 31-C ) :   1.4322
B( 30-C , 86-H ) :   0.9743 B( 31-C , 32-S ) :   1.1209 B( 31-C , 33-C ) :   1.1700
B( 33-C , 34-C ) :   1.4376 B( 33-C , 37-S ) :   1.1330 B( 34-C , 35-C ) :   1.3149
B( 34-C , 87-H ) :   0.9912 B( 35-C , 36-C ) :   1.4266 B( 35-C , 40-C ) :   0.9928
B( 36-C , 37-S ) :   1.1565 B( 36-C , 38-C ) :   1.1788 B( 38-C , 39-C ) :   1.4269
B( 38-C , 48-S ) :   1.1548 B( 39-C , 40-C ) :   0.9966 B( 39-C , 46-C ) :   1.3174
B( 40-C , 41-C ) :   1.7129 B( 41-C , 42-C ) :   1.1310 B( 41-C , 44-C ) :   1.1332
B( 42-C , 43-N ) :   2.9937 B( 44-C , 45-N ) :   2.9975 B( 46-C , 47-C ) :   1.4398
B( 46-C , 88-H ) :   0.9830 B( 47-C , 48-S ) :   1.1096 B( 47-C , 49-C ) :   1.1516
B( 49-C , 50-C ) :   1.4754 B( 49-C , 54-S ) :   1.0969 B( 50-C , 51-C ) :   1.3156
B( 50-C , 89-H ) :   0.9490 B( 51-C , 52-C ) :   1.0819 B( 51-C , 60-C ) :   1.2890
B( 52-C , 53-C ) :   1.5845 B( 52-C , 55-C ) :   1.1659 B( 53-C , 54-S ) :   1.1531
B( 53-C , 90-H ) :   0.9399 B( 55-C , 56-C ) :   1.4558 B( 55-C , 59-S ) :   1.0835
B( 56-C , 57-C ) :   1.2319 B( 56-C , 60-C ) :   1.0587 B( 57-C , 58-C ) :   1.5749
B( 57-C , 91-H ) :   1.0032 B( 58-C , 59-S ) :   1.1632 B( 58-C , 92-H ) :   0.9656
B( 60-C , 61-C ) :   1.3106 B( 61-C , 62-C ) :   1.4513 B( 61-C , 93-H ) :   0.9370
B( 62-C , 63-C ) :   1.2875 B( 62-C , 94-H ) :   0.9762 B( 63-C , 64-C ) :   1.4868
B( 63-C , 95-H ) :   0.9417 B( 64-C , 65-C ) :   0.9804 B( 64-C , 78-C ) :   1.1040
B( 65-C , 66-O ) :   2.2654 B( 65-C , 67-C ) :   0.8897 B( 67-C , 68-C ) :   1.3313
B( 67-C , 72-C ) :   1.3795 B( 68-C , 69-C ) :   1.3602 B( 68-C , 78-C ) :   0.9731
B( 69-C , 70-C ) :   1.3514 B( 69-C , 96-H ) :   0.9978 B( 70-C , 71-C ) :   1.3882
B( 70-C , 75-C ) :   0.8750 B( 71-C , 72-C ) :   1.3419 B( 71-C , 73-C ) :   1.0701
B( 72-C , 97-H ) :   1.0122 B( 73-C , 74-N ) :   3.0211 B( 75-C , 76-O ) :   2.1114
B( 75-C , 77-O ) :   1.2917 B( 77-O , 98-H ) :   0.8699 B( 78-C , 79-C ) :   1.6073
B( 79-C , 80-C ) :   1.1622 B( 79-C , 82-C ) :   1.1436 B( 80-C , 81-N ) :   3.0009
B( 82-C , 83-N ) :   2.9863

-----------------------------------------------------------------------------
         ABSORPTION SPECTRUM VIA TRANSITION ELECTRIC DIPOLE MOMENTS
-----------------------------------------------------------------------------
State   Energy  Wavelength   fosc         T2         TX        TY        TZ
        (cm-1)    (nm)                  (au**2)     (au)      (au)      (au)
-----------------------------------------------------------------------------
   0    9580.2   1043.8   0.539331700  18.53340  -3.95302   1.70477  -0.02745
   1   11506.7    869.1   0.078193896   2.23716   0.69464   0.24471   1.30182
   2   12938.1    772.9   0.298721951   7.60102  -1.85737   1.36956   1.50848
   3   13138.9    761.1   0.091972251   2.30448  -1.15044   0.51902  -0.84355
   4   16355.5    611.4   0.002297259   0.04624   0.06593  -0.18857  -0.07959
   5   18186.7    549.9   0.148867176   2.69476  -1.49477   0.62829   0.25630
   6   18561.5    538.7   0.159834535   2.83487  -0.89946   0.27797  -1.39591
   7   20144.5    496.4   0.358699608   5.86207   2.13623  -0.79479  -0.81664
   8   20373.5    490.8   0.014203859   0.22952  -0.43669   0.19087  -0.04889
   9   21071.7    474.6   0.007772683   0.12144  -0.11108  -0.00899   0.33018
  10   22972.7    435.3   0.086904778   1.24540  -0.96873   0.14588   0.53449
  11   23425.7    426.9   0.096529928   1.35658  -1.00618   0.44736   0.37954
  12   24233.8    412.6   0.508823238   6.91228   2.37675  -0.67128  -0.90151
  13   24732.5    404.3   0.001767763   0.02353  -0.01113  -0.04278   0.14689
  14   25073.3    398.8   0.022566315   0.29630  -0.22782   0.12151  -0.47920
  15   25537.6    391.6   0.472596586   6.09236   2.37242  -0.67838  -0.06137
  16   26003.7    384.6   0.003145056   0.03982   0.03916   0.16719  -0.10164
  17   26281.8    380.5   0.011808813   0.14792   0.36463   0.10215  -0.06731
  18   26553.3    376.6   0.021550092   0.26718   0.38675   0.03983   0.34062
  19   26835.9    372.6   0.019557310   0.23992  -0.17433  -0.00967  -0.45764
  20   27643.5    361.7   0.142935491   1.70225  -0.95733   0.85202  -0.24461
  21   28003.4    357.1   0.071504811   0.84062   0.33031   0.06349  -0.85293
  22   28222.7    354.3   0.145290956   1.69479  -0.86739   0.56240   0.79128
  23   29075.1    343.9   0.114708932   1.29883   0.87401  -0.51541  -0.51893
  24   29431.8    339.8   0.038840760   0.43446  -0.20412  -0.08120   0.62145
  25   29543.3    338.5   0.089881332   1.00158   0.36973   0.27689  -0.88781
  26   30014.1    333.2   0.009437760   0.10352   0.09302   0.24556   0.18592
  27   30156.0    331.6   0.030879403   0.33711  -0.48621   0.03430  -0.31548
  28   30469.6    328.2   0.009889210   0.10685   0.23909   0.05667   0.21558
  29   30633.2    326.4   0.012908692   0.13873  -0.33626   0.10861  -0.11773
  30   30751.7    325.2   0.086788694   0.92912  -0.04537  -0.05798   0.96109
  31   30775.5    324.9   0.230230352   2.46282   0.24681   0.14104  -1.54338
  32   31189.6    320.6   0.338608433   3.57408  -0.74877  -0.06304   1.73477
  33   31224.6    320.3   0.044066055   0.46460   0.55912  -0.11580   0.37226
  34   31625.7    316.2   0.543533199   5.65798  -0.28615   0.10327   2.35912
  35   31740.9    315.1   0.015006645   0.15565  -0.13344   0.03089   0.36998
  36   31864.1    313.8   0.036587175   0.37801   0.50762  -0.05319  -0.34279
  37   32169.9    310.8   0.068013219   0.69602  -0.78665  -0.23366   0.15032
  38   32364.9    309.0   0.608487858   6.18947  -1.49837   0.72835  -1.84767
  39   32467.1    308.0   0.018289734   0.18546   0.25255  -0.01789  -0.34836
  40   32524.7    307.5   0.246000366   2.48999  -1.02763   0.33500  -1.14967
  41   32852.7    304.4   0.163296599   1.63637   0.74080  -0.30199  -0.99819
  42   32906.6    303.9   0.021281966   0.21291  -0.19957  -0.06066  -0.41159
  43   33498.2    298.5   0.283400474   2.78519  -0.50995   0.88081  -1.32262
  44   33713.1    296.6   0.202531815   1.97774  -0.89273   0.33521  -1.03364
  45   33830.7    295.6   0.057438727   0.55895  -0.23275   0.00702  -0.71044
  46   34134.1    293.0   0.085368158   0.82335   0.84164   0.05952  -0.33383
  47   34268.7    291.8   0.008714720   0.08372   0.00739   0.12804  -0.25937
  48   34627.8    288.8   0.018195398   0.17299   0.02727   0.12770  -0.39489
  49   34738.0    287.9   0.106400175   1.00835  -0.94655   0.10205  -0.31934
  50   34817.5    287.2   0.038195587   0.36115   0.32182  -0.39667   0.31660
  51   35018.7    285.6   0.175668572   1.65147  -0.13433  -0.24490   1.25437
  52   35217.2    284.0   0.121680546   1.13747  -0.97355  -0.10777  -0.42197
  53   35435.0    282.2   0.059685735   0.55452  -0.36711   0.10537   0.63925
  54   35656.0    280.5   0.022889477   0.21134   0.26328  -0.08741  -0.36658
  55   35693.9    280.2   0.133677831   1.23294   0.00251   0.11670   1.10422
  56   35722.7    279.9   0.062905761   0.57972  -0.01964  -0.29237  -0.70275
  57   36034.7    277.5   0.034066556   0.31123  -0.05100   0.54797  -0.09143
  58   36084.2    277.1   0.020387789   0.18601   0.40066  -0.08521   0.13499
  59   36276.3    275.7   0.129304291   1.17345  -0.63983  -0.18168   0.85502
  60   36407.0    274.7   0.076717148   0.69372  -0.16950   0.44889  -0.68080
  61   36653.6    272.8   0.267903268   2.40623   1.25055   0.07563  -0.91468
  62   36917.0    270.9   0.062934609   0.56123   0.69320   0.26247   0.10868
  63   36943.2    270.7   0.015467439   0.13783  -0.37006   0.01525   0.02566
  64   36992.6    270.3   0.266854062   2.37484  -0.42085  -0.62386   1.34481
  65   37340.1    267.8   0.078568594   0.69271  -0.27007  -0.32980   0.71485
  66   37531.7    266.4   0.004645580   0.04075   0.15440   0.04819   0.12078
  67   37828.7    264.3   0.102920966   0.89569  -0.09497  -0.06074   0.93967
  68   38008.4    263.1   0.001334106   0.01156   0.08010   0.07169   0.00041
  69   38086.6    262.6   0.131073091   1.13297  -0.95097   0.09048  -0.46951
  70   38160.5    262.1   0.017222609   0.14858  -0.24757  -0.23239   0.18243
  71   38341.2    260.8   0.016669084   0.14313  -0.05002   0.36522   0.08508
  72   38581.2    259.2   0.005552815   0.04738   0.05057  -0.02215   0.21056
  73   38675.0    258.6   0.300184094   2.55525  -1.54861  -0.10242  -0.38282
  74   38761.2    258.0   0.205639017   1.74656   0.12952   0.05777  -1.31394
  75   38988.8    256.5   0.013193220   0.11140   0.00432  -0.02748  -0.33261
  76   39004.7    256.4   0.022879999   0.19311   0.41230  -0.13794   0.06401
  77   39352.1    254.1   0.104707948   0.87597  -0.33359  -0.07173  -0.87151
  78   39616.7    252.4   0.302632414   2.51485  -0.13463   0.06473   1.57878
  79   39652.1    252.2   0.078860343   0.65474   0.66777   0.21220  -0.40471
  80   39773.0    251.4   0.032488504   0.26892   0.07780   0.15301  -0.48934
  81   39833.2    251.0   0.012946223   0.10700   0.22219   0.08756  -0.22353
  82   40046.6    249.7   0.013759620   0.11311  -0.10725  -0.28320   0.14631
  83   40102.6    249.4   0.014228532   0.11681  -0.28021  -0.01620   0.19500
  84   40279.8    248.3   0.223853024   1.82958   0.76470  -0.11462   1.10981

FINAL SINGLE POINT ENERGY     -6053.079082407164

DIPOLE MOMENT
-------------
                                X             Y             Z
Electronic contribution:    -47.88886      15.67327     -12.18968
Nuclear contribution   :     49.99783     -16.49518      13.49004
                        -----------------------------------------
Total Dipole Moment    :      2.10897      -0.82191       1.30036
                        -----------------------------------------
Magnitude (a.u.)       :      2.61041
Magnitude (Debye)      :      6.63513

Rotational constants in cm-1:     0.001265     0.000261     0.000225
Rotational constants in MHz :    37.926815     7.813216     6.735801

                             ****ORCA TERMINATED NORMALLY****
TOTAL RUN TIME: 0 days 0 hours 20 minutes 43 seconds 95 msec
