                         Program Version 4.2.0 -  RELEASE  -
|  1> # ORCA input file
|  2> # SCF done       -153.960294828442          0.000975290571
|  3> ! CAM-B3LYP def2-SVP def2/J RIJCOSX Grid4 TightSCF
|  4> %maxcore 5000
|  5> %tddft
|  6>     Mode sTDDFT
|  7>     Ethresh 5.0
|  8>     maxcore 5000
|  9> end
| 10>
| 11> %pal
| 12>   nprocs 6
| 13>   end
| 14> * xyz 0 1
| 15>    O       -1.07184         1.14930        -6.53083
| 16>    C       -0.93682         1.89165        -7.66087
| 17>    N       -1.66566         1.45042        -8.64411
| 18>    C       -2.31928         0.35185        -8.15415
| 19>    C       -1.93928         0.18240        -6.84372
| 20>    C       -3.23837        -0.43488        -8.96259
| 21>    O       -3.84149        -1.40326        -8.57576
| 22>    C       -0.09431         3.05121        -7.71175
| 23>    C       -0.14228         3.96913        -8.72505
| 24>    C        0.76172         5.03899        -8.39482
| 25>    C        0.85387         6.21075        -9.00149
| 26>    N        1.06930         7.23745        -9.57573
| 27>    C        1.39260         4.68129        -7.14734
| 28>    C        0.86894         3.49296        -6.71411
| 29>    C        1.20301         2.84422        -5.46926
| 30>    C        1.45868         3.59318        -4.22285
| 31>    C        1.85864         2.63961        -3.23903
| 32>    C        1.82704         1.39820        -3.82276
| 33>    C        1.43431         1.53140        -5.21217
| 34>    C        2.12829         0.17918        -3.20555
| 35>    N        2.37491        -0.82501        -2.70539
| 36>    C        1.32171         4.95326        -4.12952
| 37>    C        1.76129         5.78080        -3.08877
| 38>    C        1.99149         7.13630        -3.23784
| 39>    C        1.89231         7.82434        -4.47148
| 40>    C        2.34809         9.08406        -4.70332
| 41>    C        2.96365         9.89953        -3.66313
| 42>    C        3.07769         9.51472        -2.37461
| 43>    S        2.56646         7.97769        -1.79522
| 44>    C        3.38720        11.09295        -4.32009
| 45>    C        3.08399        11.04513        -5.68473
| 46>    C        3.51418        12.22197        -6.34471
| 47>    C        4.10671        13.09480        -5.49002
| 48>    S        4.17371        12.53762        -3.85386
| 49>    C        2.40095         9.80564        -5.96882
| 50>    C        1.84968         9.35099        -7.14660
| 51>    C        1.95102        10.01414        -8.37567
| 52>    C        1.30498         9.69228        -9.54122
| 53>    C        0.40583         8.49044        -9.75923
| 54>    C        0.04945         8.61823       -11.22955
| 55>    C       -0.81073         7.70523       -11.84857
| 56>    N       -1.51593         6.93602       -12.32598
| 57>    C        0.67202         9.68161       -11.77975
| 58>    C        1.41175        10.40677       -10.77490
| 59>    C        1.99450        11.65259       -10.98570
| 60>    C        2.49229        12.19352       -12.25630
| 61>    C        2.80266        13.51443       -12.04772
| 62>    C        2.52232        13.84119       -10.68063
| 63>    C        2.06550        12.70708       -10.03682
| 64>    C        2.69536        15.09617       -10.08771
| 65>    N        2.85110        16.11285        -9.57577
| 66>    C        2.80894        11.47566       -13.44905
| 67>    C        3.05714        10.15307       -13.54340
| 68>    C        3.37564         9.52931       -14.78824
| 69>    N        3.45643        10.08632       -15.96265
| 70>    C        3.78455         9.07754       -16.82616
| 71>    C        3.88669         7.91206       -16.10167
| 72>    O        3.63110         8.19058       -14.82074
| 73>    C        3.97632         9.29831       -18.25260
| 74>    O        4.27080         8.44278       -19.04715
| 75>    H       -2.20247        -0.54063        -6.09952
| 76>    H       -3.33624        -0.05069        -9.99330
| 77>    H       -0.77562         3.93598        -9.58867
| 78>    H        2.20436         5.23607        -6.71513
| 79>    H        2.09456         2.85321        -2.21394
| 80>    H        1.38791         0.70913        -5.90043
| 81>    H        0.88954         5.43265        -4.99622
| 82>    H        2.01978         5.33153        -2.14039
| 83>    H        1.47569         7.26949        -5.29817
| 84>    H        3.51506        10.14117        -1.61425
| 85>    H        3.41140        12.44293        -7.39039
| 86>    H        4.51630        14.05755        -5.72423
| 87>    H        1.27969         8.43221        -7.11127
| 88>    H        2.60989        10.86535        -8.41583
| 89>    H       -0.49669         8.55503        -9.13142
| 90>    H        0.56301        10.00859       -12.79760
| 91>    H        3.22298        14.19405       -12.76462
| 92>    H        1.66290        12.68391        -9.04138
| 93>    H        2.92069        12.06799       -14.34781
| 94>    H        3.05258         9.49701       -12.68543
| 95>    H        4.11723         6.90495       -16.38182
| 96>    H        3.82117        10.35132       -18.54735
| 97> *
| 98>
| 99>                          ****END OF INPUT****

CARTESIAN COORDINATES (ANGSTROEM)
---------------------------------
  O     -1.071840    1.149300   -6.530830
  C     -0.936820    1.891650   -7.660870
  N     -1.665660    1.450420   -8.644110
  C     -2.319280    0.351850   -8.154150
  C     -1.939280    0.182400   -6.843720
  C     -3.238370   -0.434880   -8.962590
  O     -3.841490   -1.403260   -8.575760
  C     -0.094310    3.051210   -7.711750
  C     -0.142280    3.969130   -8.725050
  C      0.761720    5.038990   -8.394820
  C      0.853870    6.210750   -9.001490
  N      1.069300    7.237450   -9.575730
  C      1.392600    4.681290   -7.147340
  C      0.868940    3.492960   -6.714110
  C      1.203010    2.844220   -5.469260
  C      1.458680    3.593180   -4.222850
  C      1.858640    2.639610   -3.239030
  C      1.827040    1.398200   -3.822760
  C      1.434310    1.531400   -5.212170
  C      2.128290    0.179180   -3.205550
  N      2.374910   -0.825010   -2.705390
  C      1.321710    4.953260   -4.129520
  C      1.761290    5.780800   -3.088770
  C      1.991490    7.136300   -3.237840
  C      1.892310    7.824340   -4.471480
  C      2.348090    9.084060   -4.703320
  C      2.963650    9.899530   -3.663130
  C      3.077690    9.514720   -2.374610
  S      2.566460    7.977690   -1.795220
  C      3.387200   11.092950   -4.320090
  C      3.083990   11.045130   -5.684730
  C      3.514180   12.221970   -6.344710
  C      4.106710   13.094800   -5.490020
  S      4.173710   12.537620   -3.853860
  C      2.400950    9.805640   -5.968820
  C      1.849680    9.350990   -7.146600
  C      1.951020   10.014140   -8.375670
  C      1.304980    9.692280   -9.541220
  C      0.405830    8.490440   -9.759230
  C      0.049450    8.618230  -11.229550
  C     -0.810730    7.705230  -11.848570
  N     -1.515930    6.936020  -12.325980
  C      0.672020    9.681610  -11.779750
  C      1.411750   10.406770  -10.774900
  C      1.994500   11.652590  -10.985700
  C      2.492290   12.193520  -12.256300
  C      2.802660   13.514430  -12.047720
  C      2.522320   13.841190  -10.680630
  C      2.065500   12.707080  -10.036820
  C      2.695360   15.096170  -10.087710
  N      2.851100   16.112850   -9.575770
  C      2.808940   11.475660  -13.449050
  C      3.057140   10.153070  -13.543400
  C      3.375640    9.529310  -14.788240
  N      3.456430   10.086320  -15.962650
  C      3.784550    9.077540  -16.826160
  C      3.886690    7.912060  -16.101670
  O      3.631100    8.190580  -14.820740
  C      3.976320    9.298310  -18.252600
  O      4.270800    8.442780  -19.047150
  H     -2.202470   -0.540630   -6.099520
  H     -3.336240   -0.050690   -9.993300
  H     -0.775620    3.935980   -9.588670
  H      2.204360    5.236070   -6.715130
  H      2.094560    2.853210   -2.213940
  H      1.387910    0.709130   -5.900430
  H      0.889540    5.432650   -4.996220
  H      2.019780    5.331530   -2.140390
  H      1.475690    7.269490   -5.298170
  H      3.515060   10.141170   -1.614250
  H      3.411400   12.442930   -7.390390
  H      4.516300   14.057550   -5.724230
  H      1.279690    8.432210   -7.111270
  H      2.609890   10.865350   -8.415830
  H     -0.496690    8.555030   -9.131420
  H      0.563010   10.008590  -12.797600
  H      3.222980   14.194050  -12.764620
  H      1.662900   12.683910   -9.041380
  H      2.920690   12.067990  -14.347810
  H      3.052580    9.497010  -12.685430
  H      4.117230    6.904950  -16.381820
  H      3.821170   10.351320  -18.547350

 Total Charge           Charge          ....    0
 Multiplicity           Mult            ....    1
 Number of Electrons    NEL             ....  416
 Basis Dimension        Dim             ....  958

ORBITAL ENERGIES
----------------

  NO   OCC          E(Eh)            E(eV)
   0   2.0000     -88.996967     -2421.7306
   1   2.0000     -88.993426     -2421.6342
   2   2.0000     -19.319658      -525.7146
   3   2.0000     -19.309075      -525.4266
   4   2.0000     -19.213041      -522.8134
   5   2.0000     -19.204355      -522.5771
   6   2.0000     -14.488990      -394.2655
   7   2.0000     -14.438612      -392.8946
   8   2.0000     -14.418545      -392.3486
   9   2.0000     -14.407962      -392.0606
  10   2.0000     -14.406579      -392.0229
  11   2.0000     -14.393534      -391.6680
  12   2.0000     -10.395067      -282.8642
  13   2.0000     -10.383462      -282.5484
  14   2.0000     -10.374430      -282.3026
  15   2.0000     -10.365287      -282.0538
  16   2.0000     -10.358310      -281.8639
  17   2.0000     -10.357993      -281.8553
  18   2.0000     -10.355619      -281.7907
  19   2.0000     -10.350660      -281.6558
  20   2.0000     -10.349613      -281.6273
  21   2.0000     -10.349225      -281.6167
  22   2.0000     -10.348943      -281.6091
  23   2.0000     -10.343787      -281.4687
  24   2.0000     -10.340043      -281.3669
  25   2.0000     -10.339157      -281.3428
  26   2.0000     -10.338371      -281.3214
  27   2.0000     -10.335779      -281.2508
  28   2.0000     -10.335505      -281.2434
  29   2.0000     -10.334745      -281.2227
  30   2.0000     -10.333798      -281.1969
  31   2.0000     -10.330050      -281.0949
  32   2.0000     -10.329150      -281.0705
  33   2.0000     -10.328794      -281.0608
  34   2.0000     -10.321540      -280.8634
  35   2.0000     -10.316866      -280.7362
  36   2.0000     -10.313203      -280.6365
  37   2.0000     -10.312570      -280.6193
  38   2.0000     -10.311612      -280.5932
  39   2.0000     -10.311275      -280.5841
  40   2.0000     -10.310776      -280.5705
  41   2.0000     -10.308496      -280.5084
  42   2.0000     -10.307921      -280.4928
  43   2.0000     -10.304053      -280.3875
  44   2.0000     -10.303091      -280.3613
  45   2.0000     -10.298742      -280.2430
  46   2.0000     -10.298108      -280.2258
  47   2.0000     -10.298092      -280.2253
  48   2.0000     -10.297180      -280.2005
  49   2.0000     -10.295351      -280.1508
  50   2.0000     -10.293547      -280.1016
  51   2.0000     -10.291109      -280.0353
  52   2.0000     -10.291026      -280.0331
  53   2.0000     -10.286609      -279.9129
  54   2.0000     -10.285271      -279.8765
  55   2.0000     -10.284748      -279.8622
  56   2.0000     -10.280808      -279.7550
  57   2.0000     -10.279748      -279.7262
  58   2.0000     -10.276618      -279.6410
  59   2.0000     -10.271202      -279.4936
  60   2.0000      -8.092605      -220.2110
  61   2.0000      -8.089247      -220.1196
  62   2.0000      -6.061885      -164.9523
  63   2.0000      -6.058989      -164.8735
  64   2.0000      -6.057525      -164.8336
  65   2.0000      -6.054930      -164.7630
  66   2.0000      -6.054502      -164.7514
  67   2.0000      -6.050578      -164.6446
  68   2.0000      -1.247100       -33.9353
  69   2.0000      -1.238101       -33.6904
  70   2.0000      -1.126376       -30.6502
  71   2.0000      -1.117521       -30.4093
  72   2.0000      -1.100865       -29.9561
  73   2.0000      -1.047141       -28.4942
  74   2.0000      -1.031070       -28.0568
  75   2.0000      -1.027339       -27.9553
  76   2.0000      -1.016867       -27.6703
  77   2.0000      -1.014925       -27.6175
  78   2.0000      -1.005509       -27.3613
  79   2.0000      -1.000400       -27.2223
  80   2.0000      -0.992382       -27.0041
  81   2.0000      -0.982577       -26.7373
  82   2.0000      -0.979874       -26.6637
  83   2.0000      -0.971026       -26.4229
  84   2.0000      -0.964458       -26.2442
  85   2.0000      -0.943501       -25.6740
  86   2.0000      -0.927827       -25.2475
  87   2.0000      -0.924587       -25.1593
  88   2.0000      -0.905733       -24.6463
  89   2.0000      -0.893902       -24.3243
  90   2.0000      -0.890887       -24.2423
  91   2.0000      -0.884442       -24.0669
  92   2.0000      -0.873227       -23.7617
  93   2.0000      -0.866382       -23.5755
  94   2.0000      -0.860291       -23.4097
  95   2.0000      -0.847747       -23.0684
  96   2.0000      -0.831426       -22.6243
  97   2.0000      -0.822146       -22.3717
  98   2.0000      -0.819578       -22.3018
  99   2.0000      -0.815285       -22.1850
 100   2.0000      -0.800177       -21.7739
 101   2.0000      -0.793638       -21.5960
 102   2.0000      -0.775775       -21.1099
 103   2.0000      -0.773777       -21.0556
 104   2.0000      -0.765153       -20.8209
 105   2.0000      -0.759021       -20.6540
 106   2.0000      -0.739258       -20.1162
 107   2.0000      -0.737764       -20.0756
 108   2.0000      -0.733619       -19.9628
 109   2.0000      -0.723759       -19.6945
 110   2.0000      -0.709266       -19.3001
 111   2.0000      -0.703705       -19.1488
 112   2.0000      -0.698022       -18.9941
 113   2.0000      -0.695155       -18.9161
 114   2.0000      -0.690329       -18.7848
 115   2.0000      -0.685329       -18.6487
 116   2.0000      -0.675568       -18.3831
 117   2.0000      -0.667761       -18.1707
 118   2.0000      -0.657079       -17.8800
 119   2.0000      -0.655636       -17.8408
 120   2.0000      -0.653253       -17.7759
 121   2.0000      -0.651212       -17.7204
 122   2.0000      -0.637342       -17.3430
 123   2.0000      -0.626878       -17.0582
 124   2.0000      -0.623126       -16.9561
 125   2.0000      -0.615928       -16.7602
 126   2.0000      -0.612761       -16.6741
 127   2.0000      -0.605191       -16.4681
 128   2.0000      -0.604738       -16.4557
 129   2.0000      -0.604417       -16.4470
 130   2.0000      -0.594216       -16.1695
 131   2.0000      -0.593243       -16.1430
 132   2.0000      -0.588296       -16.0083
 133   2.0000      -0.581333       -15.8189
 134   2.0000      -0.580171       -15.7873
 135   2.0000      -0.577903       -15.7256
 136   2.0000      -0.572129       -15.5684
 137   2.0000      -0.567164       -15.4333
 138   2.0000      -0.565674       -15.3928
 139   2.0000      -0.563219       -15.3260
 140   2.0000      -0.558539       -15.1986
 141   2.0000      -0.555008       -15.1025
 142   2.0000      -0.550185       -14.9713
 143   2.0000      -0.544629       -14.8201
 144   2.0000      -0.538254       -14.6466
 145   2.0000      -0.531981       -14.4760
 146   2.0000      -0.526344       -14.3225
 147   2.0000      -0.525428       -14.2976
 148   2.0000      -0.517490       -14.0816
 149   2.0000      -0.514549       -14.0016
 150   2.0000      -0.510612       -13.8945
 151   2.0000      -0.509111       -13.8536
 152   2.0000      -0.507652       -13.8139
 153   2.0000      -0.506398       -13.7798
 154   2.0000      -0.502911       -13.6849
 155   2.0000      -0.499557       -13.5936
 156   2.0000      -0.495745       -13.4899
 157   2.0000      -0.494802       -13.4643
 158   2.0000      -0.494655       -13.4602
 159   2.0000      -0.493376       -13.4255
 160   2.0000      -0.489090       -13.3088
 161   2.0000      -0.487111       -13.2550
 162   2.0000      -0.486106       -13.2276
 163   2.0000      -0.485641       -13.2150
 164   2.0000      -0.484230       -13.1766
 165   2.0000      -0.481493       -13.1021
 166   2.0000      -0.478985       -13.0338
 167   2.0000      -0.473778       -12.8922
 168   2.0000      -0.472841       -12.8667
 169   2.0000      -0.469944       -12.7878
 170   2.0000      -0.468019       -12.7354
 171   2.0000      -0.464497       -12.6396
 172   2.0000      -0.463325       -12.6077
 173   2.0000      -0.459981       -12.5167
 174   2.0000      -0.458859       -12.4862
 175   2.0000      -0.453230       -12.3330
 176   2.0000      -0.448410       -12.2019
 177   2.0000      -0.445721       -12.1287
 178   2.0000      -0.441304       -12.0085
 179   2.0000      -0.439332       -11.9548
 180   2.0000      -0.438004       -11.9187
 181   2.0000      -0.434048       -11.8110
 182   2.0000      -0.432190       -11.7605
 183   2.0000      -0.424450       -11.5499
 184   2.0000      -0.423233       -11.5167
 185   2.0000      -0.417570       -11.3627
 186   2.0000      -0.413184       -11.2433
 187   2.0000      -0.408637       -11.1196
 188   2.0000      -0.403739       -10.9863
 189   2.0000      -0.402047       -10.9403
 190   2.0000      -0.393182       -10.6990
 191   2.0000      -0.386140       -10.5074
 192   2.0000      -0.382868       -10.4184
 193   2.0000      -0.373968       -10.1762
 194   2.0000      -0.371167       -10.1000
 195   2.0000      -0.362660        -9.8685
 196   2.0000      -0.348376        -9.4798
 197   2.0000      -0.341552        -9.2941
 198   2.0000      -0.334195        -9.0939
 199   2.0000      -0.333151        -9.0655
 200   2.0000      -0.326273        -8.8783
 201   2.0000      -0.325422        -8.8552
 202   2.0000      -0.318862        -8.6767
 203   2.0000      -0.301037        -8.1916
 204   2.0000      -0.278035        -7.5657
 205   2.0000      -0.275768        -7.5040
 206   2.0000      -0.268989        -7.3196
 207   2.0000      -0.256569        -6.9816
 208   0.0000      -0.139343        -3.7917
 209   0.0000      -0.094084        -2.5602
 210   0.0000      -0.065357        -1.7785
 211   0.0000      -0.059221        -1.6115
 212   0.0000      -0.044739        -1.2174

MULLIKEN ATOMIC CHARGES
-----------------------
   0 O :   -0.163915
   1 C :    0.013361
   2 N :   -0.072486
   3 C :   -0.044450
   4 C :    0.131952
   5 C :    0.163814
   6 O :   -0.178985
   7 C :    0.095889
   8 C :   -0.048309
   9 C :   -0.160893
  10 C :    0.101166
  11 N :    0.024503
  12 C :   -0.126275
  13 C :    0.082202
  14 C :    0.063285
  15 C :    0.079964
  16 C :   -0.041543
  17 C :   -0.127301
  18 C :   -0.006313
  19 C :   -0.139009
  20 N :    0.125522
  21 C :   -0.034539
  22 C :    0.021911
  23 C :   -0.055002
  24 C :   -0.021906
  25 C :    0.071886
  26 C :    0.069384
  27 C :   -0.134184
  28 S :    0.145657
  29 C :   -0.097719
  30 C :    0.041603
  31 C :    0.004753
  32 C :   -0.058836
  33 S :    0.174361
  34 C :    0.160475
  35 C :   -0.068263
  36 C :    0.011836
  37 C :   -0.065274
  38 C :    0.247618
  39 C :   -0.205844
  40 C :   -0.131472
  41 N :    0.183051
  42 C :    0.044614
  43 C :    0.091628
  44 C :   -0.003274
  45 C :    0.078829
  46 C :   -0.017176
  47 C :   -0.123472
  48 C :   -0.052100
  49 C :   -0.135520
  50 N :    0.125309
  51 C :    0.003105
  52 C :   -0.044765
  53 C :    0.080056
  54 N :   -0.082584
  55 C :   -0.052458
  56 C :    0.129873
  57 O :   -0.168432
  58 C :    0.172303
  59 O :   -0.177409
  60 H :    0.032414
  61 H :   -0.013334
  62 H :   -0.001407
  63 H :   -0.014005
  64 H :   -0.020024
  65 H :   -0.022281
  66 H :    0.026267
  67 H :   -0.002071
  68 H :   -0.038203
  69 H :    0.040714
  70 H :   -0.006393
  71 H :    0.048012
  72 H :   -0.027769
  73 H :   -0.017739
  74 H :    0.053376
  75 H :    0.027039
  76 H :   -0.013557
  77 H :   -0.008758
  78 H :    0.019009
  79 H :    0.014374
  80 H :    0.036725
  81 H :   -0.012596
Sum of atomic charges:    0.0000000

LOEWDIN ATOMIC CHARGES
----------------------
   0 O :    0.037955
   1 C :    0.049191
   2 N :   -0.100364
   3 C :   -0.109059
   4 C :    0.067389
   5 C :    0.103030
   6 O :   -0.135526
   7 C :   -0.062622
   8 C :    0.017767
   9 C :   -0.130932
  10 C :    0.160597
  11 N :   -0.009398
  12 C :   -0.047612
  13 C :   -0.018186
  14 C :   -0.034889
  15 C :   -0.018653
  16 C :   -0.014018
  17 C :   -0.069031
  18 C :   -0.007373
  19 C :   -0.032915
  20 N :   -0.063311
  21 C :    0.032317
  22 C :   -0.057037
  23 C :   -0.131889
  24 C :    0.001023
  25 C :    0.006625
  26 C :   -0.069049
  27 C :   -0.146771
  28 S :    0.445177
  29 C :   -0.160491
  30 C :   -0.059817
  31 C :   -0.055616
  32 C :   -0.151749
  33 S :    0.467733
  34 C :    0.030298
  35 C :   -0.043149
  36 C :    0.037523
  37 C :   -0.044029
  38 C :    0.061777
  39 C :   -0.051234
  40 C :   -0.038789
  41 N :   -0.020254
  42 C :    0.056977
  43 C :    0.045376
  44 C :   -0.029988
  45 C :   -0.047346
  46 C :    0.002345
  47 C :   -0.079497
  48 C :   -0.024372
  49 C :   -0.034598
  50 N :   -0.063531
  51 C :    0.025966
  52 C :   -0.069210
  53 C :    0.040660
  54 N :   -0.102247
  55 C :   -0.107081
  56 C :    0.071154
  57 O :    0.025298
  58 C :    0.103756
  59 O :   -0.132398
  60 H :    0.035662
  61 H :    0.001004
  62 H :    0.035012
  63 H :    0.019427
  64 H :    0.026318
  65 H :    0.024923
  66 H :    0.033382
  67 H :    0.032210
  68 H :    0.036452
  69 H :    0.038496
  70 H :    0.033758
  71 H :    0.034275
  72 H :    0.025604
  73 H :    0.039246
  74 H :    0.044052
  75 H :    0.049233
  76 H :    0.032179
  77 H :    0.025610
  78 H :    0.044787
  79 H :    0.034998
  80 H :    0.036098
  81 H :    0.001367

  Mayer bond orders larger than 0.100000
B(  0-O ,  1-C ) :   1.1867 B(  0-O ,  4-C ) :   1.1619 B(  1-C ,  2-N ) :   1.7946
B(  1-C ,  7-C ) :   0.9552 B(  2-N ,  3-C ) :   1.2921 B(  3-C ,  4-C ) :   1.5054
B(  3-C ,  5-C ) :   0.9693 B(  4-C , 60-H ) :   0.9925 B(  5-C ,  6-O ) :   2.2042
B(  5-C , 61-H ) :   0.9514 B(  7-C ,  8-C ) :   1.5680 B(  7-C , 13-C ) :   1.1932
B(  8-C ,  9-C ) :   1.0934 B(  8-C , 62-H ) :   1.0237 B(  9-C , 10-C ) :   1.4948
B(  9-C , 12-C ) :   1.0926 B( 10-C , 11-N ) :   2.1502 B( 11-N , 38-C ) :   0.9620
B( 12-C , 13-C ) :   1.5651 B( 12-C , 63-H ) :   1.0135 B( 13-C , 14-C ) :   0.9310
B( 14-C , 15-C ) :   1.1017 B( 14-C , 18-C ) :   1.6329 B( 15-C , 16-C ) :   1.1031
B( 15-C , 21-C ) :   1.5148 B( 16-C , 17-C ) :   1.6099 B( 16-C , 64-H ) :   1.0143
B( 17-C , 18-C ) :   1.1302 B( 17-C , 19-C ) :   1.0536 B( 18-C , 65-H ) :   1.0135
B( 19-C , 20-N ) :   3.0411 B( 21-C , 22-C ) :   1.2143 B( 21-C , 66-H ) :   0.9415
B( 22-C , 23-C ) :   1.5008 B( 22-C , 67-H ) :   0.9700 B( 23-C , 24-C ) :   1.1743
B( 23-C , 28-S ) :   1.0528 B( 24-C , 25-C ) :   1.6341 B( 24-C , 68-H ) :   0.9560
B( 25-C , 26-C ) :   1.0572 B( 25-C , 34-C ) :   1.0357 B( 26-C , 27-C ) :   1.6660
B( 26-C , 29-C ) :   1.1260 B( 27-C , 28-S ) :   1.1043 B( 27-C , 69-H ) :   0.9398
B( 29-C , 30-C ) :   1.4475 B( 29-C , 33-S ) :   1.1403 B( 30-C , 31-C ) :   1.2044
B( 30-C , 34-C ) :   1.0596 B( 31-C , 32-C ) :   1.6124 B( 31-C , 70-H ) :   0.9956
B( 32-C , 33-S ) :   1.1420 B( 32-C , 71-H ) :   0.9623 B( 34-C , 35-C ) :   1.5504
B( 35-C , 36-C ) :   1.1772 B( 35-C , 72-H ) :   0.9562 B( 36-C , 37-C ) :   1.5545
B( 36-C , 73-H ) :   0.9671 B( 37-C , 38-C ) :   0.9249 B( 37-C , 43-C ) :   1.2066
B( 38-C , 39-C ) :   1.0008 B( 38-C , 74-H ) :   0.8638 B( 39-C , 40-C ) :   1.1146
B( 39-C , 42-C ) :   1.7093 B( 40-C , 41-N ) :   3.0343 B( 42-C , 43-C ) :   1.0756
B( 42-C , 75-H ) :   1.0095 B( 43-C , 44-C ) :   1.3123 B( 44-C , 45-C ) :   1.1043
B( 44-C , 48-C ) :   1.1851 B( 45-C , 46-C ) :   1.5045 B( 45-C , 51-C ) :   1.0867
B( 46-C , 47-C ) :   1.1767 B( 46-C , 76-H ) :   1.0224 B( 47-C , 48-C ) :   1.5357
B( 47-C , 49-C ) :   1.0558 B( 48-C , 77-H ) :   0.9991 B( 49-C , 50-N ) :   3.0379
B( 51-C , 52-C ) :   1.6862 B( 51-C , 78-H ) :   0.9704 B( 52-C , 53-C ) :   1.1074
B( 52-C , 79-H ) :   0.9412 B( 53-C , 54-N ) :   1.7328 B( 53-C , 57-O ) :   1.1615
B( 54-N , 55-C ) :   1.3056 B( 55-C , 56-C ) :   1.5104 B( 55-C , 58-C ) :   0.9716
B( 56-C , 57-O ) :   1.1716 B( 56-C , 80-H ) :   0.9913 B( 58-C , 59-O ) :   2.2018
B( 58-C , 81-H ) :   0.9512

-----------------------------------------------------------------------------
         ABSORPTION SPECTRUM VIA TRANSITION ELECTRIC DIPOLE MOMENTS
-----------------------------------------------------------------------------
State   Energy  Wavelength   fosc         T2         TX        TY        TZ
        (cm-1)    (nm)                  (au**2)     (au)      (au)      (au)
-----------------------------------------------------------------------------
   0   10878.1    919.3   0.513498698  15.54034  -0.15258  -2.67203   2.89436
   1   12635.4    791.4   0.025288673   0.65889   0.37350  -0.35691  -0.62610
   2   13359.0    748.6   0.083814819   2.06549   0.24473  -0.83070   1.14697
   3   16117.0    620.5   0.001724419   0.03522   0.02460   0.13711  -0.12577
   4   20236.0    494.2   0.252178894   4.10260   0.01254  -0.02111   2.02534
   5   20341.8    491.6   0.124048957   2.00761   0.11171   1.15135   0.81824
   6   21741.2    460.0   0.009980450   0.15113  -0.13785   0.36338   0.00892
   7   23189.9    431.2   0.237935318   3.37782  -0.33302  -1.80729  -0.02470
   8   24542.6    407.5   0.030961414   0.41531  -0.03715  -0.60954   0.20590
   9   24721.9    404.5   0.127677010   1.70022   0.16401   1.21666  -0.43939
  10   24753.5    404.0   0.013325886   0.17723   0.25660   0.32688  -0.06735
  11   25745.2    388.4   0.010864254   0.13892  -0.24087  -0.07537  -0.27428
  12   26118.9    382.9   0.056290694   0.70951  -0.39102  -0.45877   0.58833
  13   26454.5    378.0   0.138835818   1.72774  -0.19726   0.56336   1.17109
  14   27703.6    361.0   0.238969697   2.83976   1.04894   1.07570   0.76312
  15   28440.4    351.6   0.178695471   2.06849  -0.40245  -1.37521   0.12382
  16   29589.9    338.0   0.073376655   0.81638   0.61014   0.47503   0.46739
  17   29953.7    333.8   0.486484373   5.34680  -0.96110  -2.06681  -0.38911
  18   30114.0    332.1   0.017045541   0.18634   0.13029   0.34835   0.21914
  19   30508.6    327.8   0.038446072   0.41486  -0.17932  -0.61564   0.06082
  20   31170.1    320.8   0.070623747   0.74591  -0.08163   0.63036  -0.58472
  21   31377.6    318.7   0.000146027   0.00153   0.01664   0.00578   0.03495
  22   31651.2    315.9   0.000295706   0.00308   0.02389   0.01603  -0.04741
  23   32243.5    310.1   0.037074619   0.37854   0.26341   0.53384   0.15546
  24   32552.6    307.2   0.406667587   4.11273   0.23534   1.77467   0.95284
  25   32724.8    305.6   0.064858312   0.65248   0.72609   0.01242  -0.35371
  26   33234.2    300.9   0.076173033   0.75456   0.02164  -0.73164  -0.46775
  27   33485.2    298.6   0.458574780   4.50850  -0.17147  -1.85068   1.02668
  28   33563.0    297.9   0.131427256   1.28914  -0.25751   0.08330  -1.10267
  29   34123.2    293.1   0.018148489   0.17509   0.11448  -0.27499   0.29389
  30   34289.7    291.6   0.031117939   0.29876  -0.03631  -0.16230  -0.52067
  31   34359.4    291.0   0.003681278   0.03527   0.02233   0.17277  -0.07017
  32   34462.9    290.2   0.000056801   0.00054   0.01151  -0.01936   0.00592
  33   34621.3    288.8   0.008879685   0.08444  -0.03699  -0.03266   0.28636
  34   34832.5    287.1   0.120227005   1.13630   0.02002  -0.95865  -0.46571
  35   34926.1    286.3   0.002780898   0.02621   0.01611  -0.15464  -0.04515
  36   35581.1    281.0   0.973583085   9.00803   0.13905   2.33755   1.87738
  37   35804.6    279.3   0.096316393   0.88560   0.46015   0.64941   0.50212
  38   37066.0    269.8   0.140426707   1.24724  -0.25722  -0.97765   0.47464
  39   37411.5    267.3   0.007999859   0.07040  -0.01924  -0.14002  -0.22454
  40   37517.8    266.5   0.018215983   0.15984   0.34604  -0.03206   0.19767
  41   37631.4    265.7   0.032872074   0.28758  -0.18194  -0.36610  -0.34705
  42   37979.0    263.3   0.114001775   0.98820  -0.16229  -0.67160  -0.71471
  43   38292.6    261.1   0.029986124   0.25780  -0.14344   0.46545  -0.14345
  44   38324.0    260.9   0.007963467   0.06841  -0.08517   0.04613  -0.24295
  45   38844.4    257.4   0.017645299   0.14955   0.08511  -0.01613  -0.37689
  46   38872.5    257.3   0.001225645   0.01038  -0.01252  -0.01104  -0.10051
  47   39041.3    256.1   0.041025790   0.34595  -0.04811  -0.44124   0.38592
  48   39203.0    255.1   0.032401656   0.27210  -0.19984   0.20118  -0.43782
  49   39554.7    252.8   0.049646726   0.41321   0.04903  -0.48246   0.42194
  50   39703.7    251.9   0.091333643   0.75731   0.17694   0.37286  -0.76615
  51   40011.3    249.9   0.184893798   1.52130  -0.16359  -1.00304   0.69890
  52   40149.3    249.1   0.000036155   0.00030  -0.00013   0.01699  -0.00281

FINAL SINGLE POINT ENERGY     -3264.498016061326

DIPOLE MOMENT
-------------
                                X             Y             Z
Electronic contribution:     -0.08431      -2.20738       8.50840
Nuclear contribution   :      1.16898       6.24080      -5.93692
                        -----------------------------------------
Total Dipole Moment    :      1.08466       4.03342       2.57148
                        -----------------------------------------
Magnitude (a.u.)       :      4.90484
Magnitude (Debye)      :     12.46712

Rotational constants in cm-1:     0.001257     0.000770     0.000518
Rotational constants in MHz :    37.687269    23.093988    15.540536

                             ****ORCA TERMINATED NORMALLY****
TOTAL RUN TIME: 0 days 0 hours 7 minutes 41 seconds 30 msec
