                         Program Version 4.2.0 -  RELEASE  -
|  1> # ORCA input file
|  2> # SCF done       -155.790102456299          0.000614176301
|  3> ! CAM-B3LYP def2-SVP def2/J RIJCOSX Grid4 TightSCF
|  4> %maxcore 5000
|  5> %tddft
|  6>     Mode sTDDFT
|  7>     Ethresh 5.0
|  8>     maxcore 5000
|  9> end
| 10>
| 11> %pal
| 12>   nprocs 6
| 13>   end
| 14> * xyz 0 1
| 15>    C       -5.58763       -12.59900         2.43697
| 16>    C       -5.96332       -11.44431         1.74642
| 17>    C       -5.94414       -11.45454         0.35010
| 18>    C       -5.56482       -12.60319        -0.34414
| 19>    C       -5.20129       -13.73113         0.35863
| 20>    C       -5.21012       -13.73087         1.75119
| 21>    O       -6.27971       -10.36242        -0.38373
| 22>    C       -6.59504        -9.21470         0.23765
| 23>    C       -6.84068        -8.10651        -0.73710
| 24>    C       -6.64554        -9.08466         1.58968
| 25>    C       -6.36795       -10.23208         2.47504
| 26>    O       -6.48593       -10.18804         3.68421
| 27>    C       -6.95133        -7.82643         2.23686
| 28>    C       -8.06136        -6.92047         1.95187
| 29>    N       -8.07596        -5.84402         2.68897
| 30>    C       -7.00159        -5.95503         3.51596
| 31>    C       -6.30687        -7.23831         3.29339
| 32>    C       -5.09788        -7.28926         4.08524
| 33>    S       -3.91178        -8.42740         4.06771
| 34>    C       -5.08211        -6.03071         4.77561
| 35>    C       -6.24396        -5.22151         4.39391
| 36>    N       -6.13857        -3.95977         4.90547
| 37>    C       -4.97837        -3.91075         5.48793
| 38>    C       -4.22703        -5.16988         5.44423
| 39>    C       -2.93748        -5.41339         5.96071
| 40>    C       -1.90564        -4.51197         5.92066
| 41>    C       -0.57452        -4.71067         6.36857
| 42>    C        0.30478        -3.76065         5.94456
| 43>    C       -0.28098        -2.77305         5.11965
| 44>    S       -2.01029        -3.00537         5.02076
| 45>    C        0.35073        -1.86381         4.28829
| 46>    C        1.73663        -1.68949         4.06910
| 47>    C        2.02745        -0.96079         2.95574
| 48>    C        0.88663        -0.50776         2.24393
| 49>    S       -0.57320        -0.95037         3.11944
| 50>    C        0.84854        -0.00878         0.96849
| 51>    C       -0.34109         0.33680         0.29135
| 52>    C       -1.53031         0.98614         0.85877
| 53>    N       -2.50439         1.14811         0.01676
| 54>    C       -2.08168         0.57830        -1.15223
| 55>    C       -0.69540         0.11962        -1.02783
| 56>    C       -0.29315        -0.58888        -2.20919
| 57>    S        1.20626        -1.20061        -2.52033
| 58>    C       -1.48448        -0.62628        -3.02592
| 59>    C       -2.55101         0.17226        -2.37284
| 60>    N       -3.68231         0.17262        -3.12620
| 61>    C       -3.41171        -0.56599        -4.16295
| 62>    C       -2.06749        -1.15982        -4.14673
| 63>    C       -1.62742        -2.11444        -5.13995
| 64>    C       -0.99581        -3.27821        -4.80613
| 65>    O       -0.60404        -4.19082        -5.70846
| 66>    C       -0.82422        -3.97816        -7.02899
| 67>    C       -0.38141        -4.95280        -7.92333
| 68>    C       -0.60732        -4.78744        -9.27213
| 69>    C       -1.27319        -3.65940        -9.74545
| 70>    C       -1.71070        -2.69803        -8.86360
| 71>    C       -1.49098        -2.84221        -7.49132
| 72>    C       -1.96827        -1.82355        -6.54321
| 73>    O       -2.58145        -0.83200        -6.89808
| 74>    C       -0.71334        -3.72496        -3.41676
| 75>    H       -5.60487       -12.56504         3.51558
| 76>    H       -5.56001       -12.58166        -1.42259
| 77>    H       -4.90461       -14.61976        -0.17758
| 78>    H       -4.92006       -14.61993         2.28946
| 79>    H       -6.22610        -8.26314        -1.62055
| 80>    H       -6.61290        -7.14038        -0.29744
| 81>    H       -7.88346        -8.10973        -1.05264
| 82>    H       -8.83830        -7.09785         1.22939
| 83>    H       -4.66258        -3.02002         6.00285
| 84>    H       -2.71925        -6.41515         6.30739
| 85>    H       -0.30885        -5.56578         6.96437
| 86>    H        1.35738        -3.76775         6.16369
| 87>    H        2.47454        -2.13756         4.71004
| 88>    H        3.02249        -0.76005         2.60017
| 89>    H        1.77060         0.00485         0.40198
| 90>    H       -1.60379         1.36929         1.86168
| 91>    H       -4.13710        -0.71753        -4.94104
| 92>    H        0.12957        -5.82024        -7.53632
| 93>    H       -0.26546        -5.54061        -9.96569
| 94>    H       -1.44381        -3.54212       -10.80443
| 95>    H       -2.22991        -1.81264        -9.19768
| 96>    H       -1.49451        -3.40424        -2.73213
| 97>    H        0.22952        -3.28537        -3.07435
| 98>    H       -0.61351        -4.80709        -3.39545
| 99> *
|100>
|101>                          ****END OF INPUT****

CARTESIAN COORDINATES (ANGSTROEM)
---------------------------------
  C     -5.587630  -12.599000    2.436970
  C     -5.963320  -11.444310    1.746420
  C     -5.944140  -11.454540    0.350100
  C     -5.564820  -12.603190   -0.344140
  C     -5.201290  -13.731130    0.358630
  C     -5.210120  -13.730870    1.751190
  O     -6.279710  -10.362420   -0.383730
  C     -6.595040   -9.214700    0.237650
  C     -6.840680   -8.106510   -0.737100
  C     -6.645540   -9.084660    1.589680
  C     -6.367950  -10.232080    2.475040
  O     -6.485930  -10.188040    3.684210
  C     -6.951330   -7.826430    2.236860
  C     -8.061360   -6.920470    1.951870
  N     -8.075960   -5.844020    2.688970
  C     -7.001590   -5.955030    3.515960
  C     -6.306870   -7.238310    3.293390
  C     -5.097880   -7.289260    4.085240
  S     -3.911780   -8.427400    4.067710
  C     -5.082110   -6.030710    4.775610
  C     -6.243960   -5.221510    4.393910
  N     -6.138570   -3.959770    4.905470
  C     -4.978370   -3.910750    5.487930
  C     -4.227030   -5.169880    5.444230
  C     -2.937480   -5.413390    5.960710
  C     -1.905640   -4.511970    5.920660
  C     -0.574520   -4.710670    6.368570
  C      0.304780   -3.760650    5.944560
  C     -0.280980   -2.773050    5.119650
  S     -2.010290   -3.005370    5.020760
  C      0.350730   -1.863810    4.288290
  C      1.736630   -1.689490    4.069100
  C      2.027450   -0.960790    2.955740
  C      0.886630   -0.507760    2.243930
  S     -0.573200   -0.950370    3.119440
  C      0.848540   -0.008780    0.968490
  C     -0.341090    0.336800    0.291350
  C     -1.530310    0.986140    0.858770
  N     -2.504390    1.148110    0.016760
  C     -2.081680    0.578300   -1.152230
  C     -0.695400    0.119620   -1.027830
  C     -0.293150   -0.588880   -2.209190
  S      1.206260   -1.200610   -2.520330
  C     -1.484480   -0.626280   -3.025920
  C     -2.551010    0.172260   -2.372840
  N     -3.682310    0.172620   -3.126200
  C     -3.411710   -0.565990   -4.162950
  C     -2.067490   -1.159820   -4.146730
  C     -1.627420   -2.114440   -5.139950
  C     -0.995810   -3.278210   -4.806130
  O     -0.604040   -4.190820   -5.708460
  C     -0.824220   -3.978160   -7.028990
  C     -0.381410   -4.952800   -7.923330
  C     -0.607320   -4.787440   -9.272130
  C     -1.273190   -3.659400   -9.745450
  C     -1.710700   -2.698030   -8.863600
  C     -1.490980   -2.842210   -7.491320
  C     -1.968270   -1.823550   -6.543210
  O     -2.581450   -0.832000   -6.898080
  C     -0.713340   -3.724960   -3.416760
  H     -5.604870  -12.565040    3.515580
  H     -5.560010  -12.581660   -1.422590
  H     -4.904610  -14.619760   -0.177580
  H     -4.920060  -14.619930    2.289460
  H     -6.226100   -8.263140   -1.620550
  H     -6.612900   -7.140380   -0.297440
  H     -7.883460   -8.109730   -1.052640
  H     -8.838300   -7.097850    1.229390
  H     -4.662580   -3.020020    6.002850
  H     -2.719250   -6.415150    6.307390
  H     -0.308850   -5.565780    6.964370
  H      1.357380   -3.767750    6.163690
  H      2.474540   -2.137560    4.710040
  H      3.022490   -0.760050    2.600170
  H      1.770600    0.004850    0.401980
  H     -1.603790    1.369290    1.861680
  H     -4.137100   -0.717530   -4.941040
  H      0.129570   -5.820240   -7.536320
  H     -0.265460   -5.540610   -9.965690
  H     -1.443810   -3.542120  -10.804430
  H     -2.229910   -1.812640   -9.197680
  H     -1.494510   -3.404240   -2.732130
  H      0.229520   -3.285370   -3.074350
  H     -0.613510   -4.807090   -3.395450

 Total Charge           Charge          ....    0
 Multiplicity           Mult            ....    1
 Number of Electrons    NEL             ....  436
 Basis Dimension        Dim             ....  976

ORBITAL ENERGIES
----------------

  NO   OCC          E(Eh)            E(eV)
   0   2.0000     -88.954729     -2420.5812
   1   2.0000     -88.954659     -2420.5793
   2   2.0000     -88.894843     -2418.9517
   3   2.0000     -88.886432     -2418.7228
   4   2.0000     -19.301613      -525.2236
   5   2.0000     -19.299217      -525.1584
   6   2.0000     -19.191451      -522.2259
   7   2.0000     -19.182680      -521.9872
   8   2.0000     -14.408793      -392.0832
   9   2.0000     -14.407254      -392.0413
  10   2.0000     -14.403998      -391.9527
  11   2.0000     -14.403510      -391.9394
  12   2.0000     -10.370581      -282.1978
  13   2.0000     -10.368613      -282.1443
  14   2.0000     -10.355378      -281.7842
  15   2.0000     -10.354418      -281.7580
  16   2.0000     -10.350737      -281.6579
  17   2.0000     -10.346372      -281.5391
  18   2.0000     -10.336848      -281.2799
  19   2.0000     -10.327289      -281.0198
  20   2.0000     -10.326701      -281.0038
  21   2.0000     -10.326373      -280.9949
  22   2.0000     -10.324870      -280.9540
  23   2.0000     -10.323805      -280.9250
  24   2.0000     -10.322988      -280.9028
  25   2.0000     -10.322390      -280.8865
  26   2.0000     -10.321920      -280.8737
  27   2.0000     -10.321699      -280.8677
  28   2.0000     -10.321584      -280.8646
  29   2.0000     -10.320466      -280.8341
  30   2.0000     -10.320452      -280.8338
  31   2.0000     -10.319028      -280.7950
  32   2.0000     -10.302384      -280.3421
  33   2.0000     -10.301899      -280.3289
  34   2.0000     -10.301306      -280.3128
  35   2.0000     -10.299365      -280.2600
  36   2.0000     -10.296660      -280.1863
  37   2.0000     -10.296518      -280.1825
  38   2.0000     -10.296472      -280.1812
  39   2.0000     -10.293723      -280.1065
  40   2.0000     -10.290701      -280.0242
  41   2.0000     -10.290423      -280.0167
  42   2.0000     -10.290330      -280.0141
  43   2.0000     -10.288789      -279.9722
  44   2.0000     -10.287482      -279.9366
  45   2.0000     -10.286061      -279.8979
  46   2.0000     -10.285752      -279.8895
  47   2.0000     -10.285202      -279.8746
  48   2.0000     -10.285167      -279.8736
  49   2.0000     -10.284808      -279.8639
  50   2.0000     -10.283990      -279.8416
  51   2.0000     -10.283948      -279.8404
  52   2.0000     -10.282481      -279.8005
  53   2.0000     -10.282354      -279.7971
  54   2.0000     -10.281952      -279.7861
  55   2.0000     -10.279490      -279.7192
  56   2.0000     -10.278624      -279.6956
  57   2.0000     -10.277966      -279.6777
  58   2.0000     -10.274877      -279.5936
  59   2.0000     -10.271756      -279.5087
  60   2.0000      -8.051241      -219.0854
  61   2.0000      -8.051180      -219.0837
  62   2.0000      -7.990391      -217.4296
  63   2.0000      -7.981751      -217.1945
  64   2.0000      -6.021005      -163.8399
  65   2.0000      -6.020931      -163.8379
  66   2.0000      -6.016948      -163.7295
  67   2.0000      -6.016915      -163.7286
  68   2.0000      -6.011996      -163.5947
  69   2.0000      -6.011956      -163.5936
  70   2.0000      -5.959216      -162.1585
  71   2.0000      -5.958764      -162.1462
  72   2.0000      -5.950665      -161.9258
  73   2.0000      -5.950385      -161.9182
  74   2.0000      -5.949896      -161.9049
  75   2.0000      -5.940976      -161.6622
  76   2.0000      -1.215951       -33.0877
  77   2.0000      -1.212915       -33.0051
  78   2.0000      -1.111209       -30.2375
  79   2.0000      -1.102156       -29.9912
  80   2.0000      -1.075366       -29.2622
  81   2.0000      -1.074402       -29.2360
  82   2.0000      -1.055707       -28.7272
  83   2.0000      -1.055034       -28.7089
  84   2.0000      -1.007859       -27.4252
  85   2.0000      -0.984956       -26.8020
  86   2.0000      -0.965964       -26.2852
  87   2.0000      -0.962290       -26.1853
  88   2.0000      -0.956336       -26.0232
  89   2.0000      -0.951553       -25.8931
  90   2.0000      -0.927173       -25.2296
  91   2.0000      -0.925850       -25.1937
  92   2.0000      -0.915327       -24.9073
  93   2.0000      -0.900400       -24.5011
  94   2.0000      -0.876869       -23.8608
  95   2.0000      -0.875230       -23.8162
  96   2.0000      -0.868837       -23.6423
  97   2.0000      -0.866197       -23.5704
  98   2.0000      -0.862201       -23.4617
  99   2.0000      -0.852407       -23.1952
 100   2.0000      -0.847531       -23.0625
 101   2.0000      -0.841462       -22.8973
 102   2.0000      -0.837189       -22.7811
 103   2.0000      -0.832806       -22.6618
 104   2.0000      -0.830016       -22.5859
 105   2.0000      -0.822524       -22.3820
 106   2.0000      -0.807654       -21.9774
 107   2.0000      -0.806699       -21.9514
 108   2.0000      -0.787873       -21.4391
 109   2.0000      -0.771932       -21.0053
 110   2.0000      -0.767047       -20.8724
 111   2.0000      -0.751481       -20.4488
 112   2.0000      -0.745139       -20.2763
 113   2.0000      -0.737305       -20.0631
 114   2.0000      -0.725849       -19.7514
 115   2.0000      -0.718734       -19.5578
 116   2.0000      -0.716888       -19.5075
 117   2.0000      -0.713949       -19.4275
 118   2.0000      -0.699384       -19.0312
 119   2.0000      -0.695200       -18.9173
 120   2.0000      -0.688608       -18.7380
 121   2.0000      -0.684909       -18.6373
 122   2.0000      -0.682250       -18.5650
 123   2.0000      -0.659991       -17.9593
 124   2.0000      -0.654689       -17.8150
 125   2.0000      -0.649772       -17.6812
 126   2.0000      -0.642705       -17.4889
 127   2.0000      -0.641420       -17.4539
 128   2.0000      -0.639174       -17.3928
 129   2.0000      -0.630911       -17.1680
 130   2.0000      -0.629763       -17.1367
 131   2.0000      -0.623118       -16.9559
 132   2.0000      -0.622684       -16.9441
 133   2.0000      -0.597171       -16.2499
 134   2.0000      -0.595116       -16.1939
 135   2.0000      -0.592377       -16.1194
 136   2.0000      -0.587758       -15.9937
 137   2.0000      -0.578749       -15.7486
 138   2.0000      -0.576961       -15.6999
 139   2.0000      -0.576253       -15.6806
 140   2.0000      -0.571126       -15.5411
 141   2.0000      -0.564352       -15.3568
 142   2.0000      -0.562546       -15.3077
 143   2.0000      -0.560824       -15.2608
 144   2.0000      -0.551758       -15.0141
 145   2.0000      -0.546699       -14.8764
 146   2.0000      -0.542874       -14.7724
 147   2.0000      -0.539357       -14.6766
 148   2.0000      -0.536059       -14.5869
 149   2.0000      -0.530098       -14.4247
 150   2.0000      -0.526784       -14.3345
 151   2.0000      -0.522112       -14.2074
 152   2.0000      -0.521748       -14.1975
 153   2.0000      -0.519694       -14.1416
 154   2.0000      -0.517924       -14.0934
 155   2.0000      -0.516088       -14.0435
 156   2.0000      -0.513658       -13.9773
 157   2.0000      -0.507436       -13.8080
 158   2.0000      -0.506410       -13.7801
 159   2.0000      -0.504576       -13.7302
 160   2.0000      -0.503556       -13.7025
 161   2.0000      -0.502132       -13.6637
 162   2.0000      -0.501775       -13.6540
 163   2.0000      -0.500757       -13.6263
 164   2.0000      -0.492749       -13.4084
 165   2.0000      -0.489933       -13.3317
 166   2.0000      -0.485820       -13.2198
 167   2.0000      -0.482569       -13.1314
 168   2.0000      -0.481248       -13.0954
 169   2.0000      -0.479728       -13.0541
 170   2.0000      -0.479585       -13.0502
 171   2.0000      -0.478677       -13.0255
 172   2.0000      -0.474894       -12.9225
 173   2.0000      -0.474105       -12.9011
 174   2.0000      -0.471274       -12.8240
 175   2.0000      -0.470688       -12.8081
 176   2.0000      -0.466691       -12.6993
 177   2.0000      -0.464057       -12.6276
 178   2.0000      -0.463046       -12.6001
 179   2.0000      -0.459462       -12.5026
 180   2.0000      -0.450782       -12.2664
 181   2.0000      -0.447751       -12.1839
 182   2.0000      -0.444525       -12.0962
 183   2.0000      -0.442913       -12.0523
 184   2.0000      -0.441376       -12.0104
 185   2.0000      -0.436898       -11.8886
 186   2.0000      -0.432089       -11.7577
 187   2.0000      -0.429420       -11.6851
 188   2.0000      -0.426237       -11.5985
 189   2.0000      -0.422572       -11.4988
 190   2.0000      -0.417273       -11.3546
 191   2.0000      -0.413706       -11.2575
 192   2.0000      -0.409936       -11.1549
 193   2.0000      -0.404570       -11.0089
 194   2.0000      -0.367991       -10.0135
 195   2.0000      -0.363816        -9.8999
 196   2.0000      -0.360231        -9.8024
 197   2.0000      -0.350974        -9.5505
 198   2.0000      -0.347634        -9.4596
 199   2.0000      -0.347024        -9.4430
 200   2.0000      -0.342405        -9.3173
 201   2.0000      -0.341863        -9.3026
 202   2.0000      -0.334883        -9.1126
 203   2.0000      -0.330931        -9.0051
 204   2.0000      -0.330122        -8.9831
 205   2.0000      -0.328980        -8.9520
 206   2.0000      -0.325381        -8.8541
 207   2.0000      -0.322961        -8.7882
 208   2.0000      -0.321498        -8.7484
 209   2.0000      -0.317024        -8.6267
 210   2.0000      -0.306725        -8.3464
 211   2.0000      -0.301790        -8.2121
 212   2.0000      -0.291975        -7.9450
 213   2.0000      -0.288620        -7.8537
 214   2.0000      -0.284398        -7.7389
 215   2.0000      -0.282655        -7.6914
 216   2.0000      -0.271722        -7.3939
 217   2.0000      -0.225410        -6.1337
 218   0.0000      -0.111826        -3.0429
 219   0.0000      -0.099337        -2.7031
 220   0.0000      -0.082100        -2.2341
 221   0.0000      -0.067590        -1.8392
 222   0.0000      -0.044451        -1.2096

MULLIKEN ATOMIC CHARGES
-----------------------
   0 C :   -0.004854
   1 C :   -0.062771
   2 C :    0.181478
   3 C :   -0.035909
   4 C :    0.040057
   5 C :    0.038592
   6 O :   -0.206285
   7 C :   -0.030902
   8 C :    0.100406
   9 C :   -0.060130
  10 C :    0.178213
  11 O :   -0.168069
  12 C :   -0.067199
  13 C :    0.045273
  14 N :   -0.037290
  15 C :    0.010152
  16 C :    0.027975
  17 C :    0.003251
  18 S :   -0.136117
  19 C :   -0.003260
  20 C :    0.012925
  21 N :   -0.035912
  22 C :    0.057300
  23 C :   -0.032833
  24 C :   -0.014558
  25 C :   -0.043251
  26 C :    0.041029
  27 C :    0.039448
  28 C :   -0.049922
  29 S :    0.082090
  30 C :   -0.051328
  31 C :    0.041345
  32 C :    0.037767
  33 C :   -0.040152
  34 S :    0.079551
  35 C :   -0.025751
  36 C :   -0.030499
  37 C :    0.052017
  38 N :   -0.027460
  39 C :    0.013617
  40 C :    0.006536
  41 C :   -0.015105
  42 S :   -0.153141
  43 C :   -0.000304
  44 C :    0.004276
  45 N :   -0.031534
  46 C :    0.085585
  47 C :   -0.054165
  48 C :   -0.074165
  49 C :   -0.010677
  50 O :   -0.198431
  51 C :    0.176012
  52 C :   -0.028964
  53 C :    0.039330
  54 C :    0.037428
  55 C :   -0.006832
  56 C :   -0.057181
  57 C :    0.158400
  58 O :   -0.189991
  59 C :    0.112954
  60 H :    0.002802
  61 H :   -0.015895
  62 H :   -0.004550
  63 H :   -0.009372
  64 H :    0.037266
  65 H :    0.053257
  66 H :    0.049294
  67 H :   -0.000100
  68 H :    0.017698
  69 H :    0.014529
  70 H :    0.000852
  71 H :   -0.004992
  72 H :   -0.004960
  73 H :    0.000181
  74 H :    0.013327
  75 H :    0.016316
  76 H :    0.018762
  77 H :   -0.013958
  78 H :   -0.001656
  79 H :   -0.006600
  80 H :    0.001340
  81 H :    0.045242
  82 H :    0.048068
  83 H :    0.025084
Sum of atomic charges:   -0.0000000

LOEWDIN ATOMIC CHARGES
----------------------
   0 C :    0.024223
   1 C :   -0.081640
   2 C :    0.062860
   3 C :   -0.040437
   4 C :   -0.001070
   5 C :   -0.029275
   6 O :   -0.003005
   7 C :    0.092052
   8 C :   -0.050266
   9 C :   -0.122551
  10 C :    0.070722
  11 O :   -0.168151
  12 C :   -0.034650
  13 C :    0.076816
  14 N :   -0.088058
  15 C :    0.033820
  16 C :   -0.013975
  17 C :   -0.140736
  18 S :    0.051217
  19 C :   -0.034636
  20 C :    0.041469
  21 N :   -0.080656
  22 C :    0.077021
  23 C :   -0.053020
  24 C :   -0.042225
  25 C :   -0.133087
  26 C :   -0.024673
  27 C :   -0.023754
  28 C :   -0.173584
  29 S :    0.383279
  30 C :   -0.176688
  31 C :   -0.021860
  32 C :   -0.027646
  33 C :   -0.130563
  34 S :    0.382324
  35 C :   -0.048876
  36 C :   -0.048624
  37 C :    0.070214
  38 N :   -0.075402
  39 C :    0.030943
  40 C :   -0.040086
  41 C :   -0.135393
  42 S :    0.040359
  43 C :   -0.038254
  44 C :    0.039173
  45 N :   -0.083645
  46 C :    0.101537
  47 C :   -0.016077
  48 C :   -0.129238
  49 C :    0.111213
  50 O :    0.004362
  51 C :    0.063936
  52 C :   -0.038440
  53 C :    0.001235
  54 C :   -0.028908
  55 C :    0.023012
  56 C :   -0.085985
  57 C :    0.074259
  58 O :   -0.182144
  59 C :   -0.060894
  60 H :    0.039975
  61 H :    0.035189
  62 H :    0.032972
  63 H :    0.030968
  64 H :    0.044274
  65 H :    0.045679
  66 H :    0.047980
  67 H :    0.022088
  68 H :    0.021468
  69 H :    0.042290
  70 H :    0.038299
  71 H :    0.034707
  72 H :    0.034770
  73 H :    0.037775
  74 H :    0.040668
  75 H :    0.021384
  76 H :    0.028340
  77 H :    0.036408
  78 H :    0.034073
  79 H :    0.031886
  80 H :    0.039381
  81 H :    0.044260
  82 H :    0.028648
  83 H :    0.038643

  Mayer bond orders larger than 0.100000
B(  0-C ,  1-C ) :   1.3430 B(  0-C ,  5-C ) :   1.3969 B(  0-C , 60-H ) :   0.9972
B(  1-C ,  2-C ) :   1.3402 B(  1-C , 10-C ) :   0.9668 B(  2-C ,  3-C ) :   1.3546
B(  2-C ,  6-O ) :   1.0743 B(  3-C ,  4-C ) :   1.4124 B(  3-C , 61-H ) :   0.9951
B(  4-C ,  5-C ) :   1.3295 B(  4-C , 62-H ) :   0.9898 B(  5-C , 63-H ) :   0.9938
B(  6-O ,  7-C ) :   1.1467 B(  7-C ,  8-C ) :   1.1058 B(  7-C ,  9-C ) :   1.5920
B(  8-C , 64-H ) :   0.9374 B(  8-C , 65-H ) :   0.9455 B(  8-C , 66-H ) :   0.9378
B(  9-C , 10-C ) :   1.0044 B(  9-C , 12-C ) :   0.9510 B( 10-C , 11-O ) :   2.2182
B( 12-C , 13-C ) :   1.0606 B( 12-C , 16-C ) :   1.6270 B( 13-C , 14-N ) :   1.7069
B( 13-C , 67-H ) :   0.9963 B( 14-N , 15-C ) :   1.2883 B( 15-C , 16-C ) :   1.0483
B( 15-C , 20-C ) :   1.5011 B( 16-C , 17-C ) :   1.0250 B( 17-C , 18-S ) :   1.6788
B( 17-C , 19-C ) :   1.0537 B( 19-C , 20-C ) :   1.0572 B( 19-C , 23-C ) :   1.5167
B( 20-C , 21-N ) :   1.2660 B( 21-N , 22-C ) :   1.7369 B( 22-C , 23-C ) :   1.0251
B( 22-C , 68-H ) :   0.9862 B( 23-C , 24-C ) :   1.1036 B( 24-C , 25-C ) :   1.5972
B( 24-C , 69-H ) :   0.9677 B( 25-C , 26-C ) :   1.1357 B( 25-C , 29-S ) :   1.0361
B( 26-C , 27-C ) :   1.6059 B( 26-C , 70-H ) :   0.9983 B( 27-C , 28-C ) :   1.1788
B( 27-C , 71-H ) :   0.9931 B( 28-C , 29-S ) :   1.0595 B( 28-C , 30-C ) :   1.5072
B( 30-C , 31-C ) :   1.1781 B( 30-C , 34-S ) :   1.0560 B( 31-C , 32-C ) :   1.6064
B( 31-C , 72-H ) :   0.9937 B( 32-C , 33-C ) :   1.1348 B( 32-C , 73-H ) :   0.9988
B( 33-C , 34-S ) :   1.0387 B( 33-C , 35-C ) :   1.5975 B( 35-C , 36-C ) :   1.0988
B( 35-C , 74-H ) :   0.9688 B( 36-C , 37-C ) :   1.0252 B( 36-C , 40-C ) :   1.5109
B( 37-C , 38-N ) :   1.7377 B( 37-C , 75-H ) :   0.9868 B( 38-N , 39-C ) :   1.2651
B( 39-C , 40-C ) :   1.0579 B( 39-C , 44-C ) :   1.5073 B( 40-C , 41-C ) :   1.0453
B( 41-C , 42-S ) :   1.6368 B( 41-C , 43-C ) :   1.0303 B( 43-C , 44-C ) :   1.0391
B( 43-C , 47-C ) :   1.6053 B( 44-C , 45-N ) :   1.2877 B( 45-N , 46-C ) :   1.7011
B( 46-C , 47-C ) :   1.0370 B( 46-C , 76-H ) :   0.9912 B( 47-C , 48-C ) :   0.9767
B( 48-C , 49-C ) :   1.5520 B( 48-C , 57-C ) :   1.0184 B( 49-C , 50-O ) :   1.1578
B( 49-C , 59-C ) :   1.1358 B( 50-O , 51-C ) :   1.0824 B( 51-C , 52-C ) :   1.3577
B( 51-C , 56-C ) :   1.3350 B( 52-C , 53-C ) :   1.4118 B( 52-C , 77-H ) :   0.9935
B( 53-C , 54-C ) :   1.3283 B( 53-C , 78-H ) :   0.9903 B( 54-C , 55-C ) :   1.3997
B( 54-C , 79-H ) :   0.9947 B( 55-C , 56-C ) :   1.3378 B( 55-C , 80-H ) :   0.9976
B( 56-C , 57-C ) :   0.9718 B( 57-C , 58-O ) :   2.1781 B( 59-C , 81-H ) :   0.9356
B( 59-C , 82-H ) :   0.8960 B( 59-C , 83-H ) :   0.9292

-----------------------------------------------------------------------------
         ABSORPTION SPECTRUM VIA TRANSITION ELECTRIC DIPOLE MOMENTS
-----------------------------------------------------------------------------
State   Energy  Wavelength   fosc         T2         TX        TY        TZ
        (cm-1)    (nm)                  (au**2)     (au)      (au)      (au)
-----------------------------------------------------------------------------
   0   10200.0    980.4   0.407894264  13.16506   1.82973   2.36775  -2.05205
   1   12136.5    824.0   0.129817870   3.52142   0.96263   0.16328   1.60253
   2   14752.8    677.8   0.000287676   0.00642  -0.07194  -0.02634   0.02345
   3   15639.6    639.4   0.327893487   6.90213   1.00888   1.56859  -1.85036
   4   17507.5    571.2   0.002126457   0.03999   0.08784   0.12003  -0.13365
   5   17902.0    558.6   0.004569442   0.08403   0.17785   0.05474   0.22227
   6   18495.9    540.7   0.064013218   1.13938  -0.78340  -0.68455  -0.23888
   7   19118.7    523.0   0.043109011   0.74231  -0.43739  -0.63225  -0.38892
   8   19340.0    517.1   0.046024995   0.78345   0.48785   0.45038   0.58533
   9   20797.9    480.8   0.065606020   1.03849  -0.27797  -0.44659  -0.87280
  10   21822.0    458.3   0.003915553   0.05907  -0.09939   0.21768  -0.04250
  11   22587.0    442.7   0.019554017   0.28500  -0.45194  -0.25861   0.11780
  12   24207.7    413.1   0.252722316   3.43689   1.19109   1.37056  -0.37387
  13   24549.2    407.3   0.342501003   4.59304  -0.73188  -0.15490  -2.00833
  14   25102.5    398.4   0.024220218   0.31764  -0.43073  -0.25823  -0.25580
  15   25498.2    392.2   0.001456080   0.01880  -0.03034   0.08807   0.10061
  16   25688.8    389.3   0.003162021   0.04052   0.09271  -0.09303  -0.15255
  17   25818.4    387.3   0.013189674   0.16818   0.22405  -0.13287  -0.31675
  18   26339.4    379.7   0.011131066   0.13913   0.04616   0.21753   0.29946
  19   26687.1    374.7   0.026952050   0.33248  -0.13604  -0.20443  -0.52171
  20   27059.2    369.6   0.034660546   0.42169   0.53383  -0.04503   0.36701
  21   27376.5    365.3   0.272175193   3.27300  -0.75916  -0.99339  -1.30762
  22   27677.6    361.3   0.024591540   0.29250  -0.22649  -0.07327  -0.48563
  23   27996.7    357.2   0.053668753   0.63109   0.47048   0.12836   0.62711
  24   28590.1    349.8   0.179985856   2.07252  -0.33651  -0.82427  -1.13131
  25   29449.1    339.6   0.061299967   0.68527   0.41339   0.30233   0.65037
  26   29610.8    337.7   0.047048055   0.52308   0.04468  -0.44217  -0.57058
  27   29995.9    333.4   0.003545378   0.03891  -0.18074   0.01651  -0.07727
  28   30076.5    332.5   0.057648801   0.63101   0.00708   0.51803   0.60217
  29   30352.1    329.5   0.000928121   0.01007  -0.04651  -0.06341  -0.06231
  30   30885.7    323.8   0.003315059   0.03534   0.18297  -0.02624   0.03418
  31   31002.0    322.6   0.146382560   1.55444   0.66411   0.46673   0.94634
  32   31234.9    320.2   0.016611263   0.17508  -0.26370   0.32486  -0.00289
  33   31326.5    319.2   0.005932833   0.06235   0.22391   0.09837   0.05037
  34   31617.5    316.3   0.010693341   0.11134   0.28213   0.05207   0.17040
  35   31860.2    313.9   0.173226775   1.78995   0.86429   0.55749   0.85566
  36   32185.3    310.7   0.190220777   1.94570  -0.89278  -0.20875  -1.05122
  37   32978.6    303.2   0.023823477   0.23782   0.34053   0.22065   0.27050
  38   33378.7    299.6   0.013142191   0.12962  -0.08793  -0.31697  -0.14634
  39   33693.2    296.8   0.000056563   0.00055  -0.00421   0.00933  -0.02117
  40   33770.8    296.1   0.018379867   0.17917  -0.10843   0.37412   0.16568
  41   34050.0    293.7   0.003456392   0.03342   0.04321  -0.16675   0.06120
  42   34214.7    292.3   0.009037301   0.08696   0.11949   0.10203  -0.24953
  43   34344.6    291.2   0.007573770   0.07260   0.03778  -0.04016  -0.26374
  44   34461.5    290.2   0.090628683   0.86578   0.18681  -0.35073  -0.84135
  45   34540.3    289.5   0.057042792   0.54369  -0.18011  -0.56513  -0.43804
  46   34671.1    288.4   0.059116463   0.56133   0.68824  -0.12455   0.26860
  47   35133.6    284.6   0.001610056   0.01509  -0.07017   0.01643  -0.09946
  48   35232.7    283.8   0.002999635   0.02803  -0.16245  -0.00976  -0.03929
  49   35362.8    282.8   0.051777845   0.48203   0.15389  -0.49860  -0.45798
  50   35548.6    281.3   0.012062532   0.11171  -0.26766  -0.16301  -0.11617
  51   35743.5    279.8   0.007927390   0.07301  -0.25947  -0.05658  -0.04990
  52   35951.6    278.2   0.003479857   0.03187  -0.08081  -0.08900  -0.13197
  53   35984.3    277.9   0.004885827   0.04470   0.09057   0.03135   0.18845
  54   36083.5    277.1   0.002882937   0.02630  -0.11323   0.00942   0.11573
  55   36196.1    276.3   0.033624313   0.30582   0.44105  -0.05732   0.32865
  56   36398.8    274.7   0.002979830   0.02695  -0.02243  -0.04956   0.15489
  57   36426.4    274.5   0.013951841   0.12609  -0.25890   0.23494  -0.06216
  58   36609.2    273.2   0.016546265   0.14879  -0.29728   0.22663  -0.09516
  59   37027.1    270.1   0.043640199   0.38801  -0.52330   0.33487  -0.04510
  60   37134.9    269.3   0.105564978   0.93587   0.85674  -0.05561   0.44584
  61   37439.0    267.1   0.045839816   0.40308   0.03922  -0.31775  -0.54825
  62   37607.0    265.9   0.028569496   0.25010   0.00325  -0.20851  -0.45454
  63   37805.1    264.5   0.045542233   0.39659  -0.29321  -0.50106  -0.24404
  64   37850.7    264.2   0.019196540   0.16696   0.18624  -0.34296  -0.12108
  65   38330.5    260.9   0.048905447   0.42004   0.27498  -0.52275   0.26675
  66   38517.8    259.6   0.121976582   1.04253   0.44486   0.51320   0.76241
  67   38615.3    259.0   0.125454612   1.06955  -0.37699  -0.43003  -0.86169
  68   38835.1    257.5   0.016089155   0.13639  -0.16868  -0.14970  -0.29245
  69   38872.1    257.3   0.022791355   0.19302   0.02356   0.24874   0.36138
  70   39007.6    256.4   0.107562336   0.90779   0.90133  -0.30236   0.06310
  71   39047.3    256.1   0.021997173   0.18546   0.24095  -0.23277  -0.27059
  72   39528.0    253.0   0.123952981   1.03235  -0.44467   0.48558  -0.77384
  73   39614.5    252.4   0.018678593   0.15523   0.32035   0.16834  -0.15577
  74   39771.1    251.4   0.010249484   0.08484  -0.22832   0.02242   0.17946
  75   39843.1    251.0   0.015948618   0.13178   0.09232  -0.06791  -0.34445
  76   40193.8    248.8   0.028457710   0.23309   0.14495   0.07254   0.45477
  77   40266.0    248.3   0.015132649   0.12372  -0.09244   0.33710   0.03927

FINAL SINGLE POINT ENERGY     -3952.581637456339

DIPOLE MOMENT
-------------
                                X             Y             Z
Electronic contribution:     -4.65110      21.39838      19.03915
Nuclear contribution   :      7.33626     -24.15856     -19.79975
                        -----------------------------------------
Total Dipole Moment    :      2.68516      -2.76019      -0.76060
                        -----------------------------------------
Magnitude (a.u.)       :      3.92520
Magnitude (Debye)      :      9.97708

Rotational constants in cm-1:     0.001142     0.000707     0.000501
Rotational constants in MHz :    34.230434    21.197621    15.013503

                             ****ORCA TERMINATED NORMALLY****
TOTAL RUN TIME: 0 days 0 hours 7 minutes 41 seconds 279 msec
