                         Program Version 4.2.0 -  RELEASE  -
|  1> # ORCA input file
|  2> # SCF done       -182.476974888503          0.000839667270
|  3> ! CAM-B3LYP def2-SVP def2/J RIJCOSX Grid4 TightSCF
|  4> %maxcore 5000
|  5> %tddft
|  6>     Mode sTDDFT
|  7>     Ethresh 5.0
|  8>     maxcore 5000
|  9> end
| 10>
| 11> %pal
| 12>   nprocs 6
| 13>   end
| 14> * xyz 0 1
| 15>    C       -4.94558        -1.25500        -2.28813
| 16>    C       -3.62281        -1.60032        -2.41710
| 17>    C       -3.15844        -2.66543        -3.21620
| 18>    N       -2.71760        -3.51930        -3.84445
| 19>    C       -2.54396        -0.93631        -1.79945
| 20>    N       -1.62200        -0.42997        -1.33601
| 21>    C       -6.05702        -1.90256        -2.97851
| 22>    C       -7.25222        -1.20889        -2.66513
| 23>    C       -8.47796        -1.57192        -3.16633
| 24>    C       -8.52890        -2.68001        -4.01890
| 25>    C       -7.33182        -3.36989        -4.32549
| 26>    C       -6.09144        -2.99888        -3.81941
| 27>    S       -7.62229        -4.70917        -5.39322
| 28>    C       -9.32420        -4.32998        -5.41251
| 29>    C       -9.65986        -3.25531        -4.65974
| 30>   Br      -10.49584        -5.38780        -6.42479
| 31>    C       -6.93787        -0.09775        -1.75127
| 32>    O       -7.73108         0.70582        -1.29358
| 33>    C       -5.49596        -0.17174        -1.49804
| 34>    C       -4.79253         0.61060        -0.61532
| 35>    C       -5.21107         1.68600         0.17756
| 36>    S       -6.81394         2.37507         0.20690
| 37>    C       -6.33161         3.54287         1.39909
| 38>    C       -4.99523         3.38261         1.77594
| 39>    C       -4.36298         2.36430         1.07049
| 40>    C       -2.91336         2.03459         1.25548
| 41>    C       -2.17566         3.19580         1.93600
| 42>    C       -0.83260         2.78691         2.28541
| 43>    N        0.21478         2.44050         2.57978
| 44>    C       -2.94565         3.62000         3.20264
| 45>    C       -2.19596         4.60510         3.95011
| 46>    N       -1.62372         5.41108         4.52212
| 47>    C       -4.30726         4.21319         2.81372
| 48>    C       -7.29515         4.47904         1.84396
| 49>    C       -8.58725         4.58982         1.34901
| 50>    C       -9.31804         5.58762         1.98297
| 51>    C       -8.58356         6.25320         2.98468
| 52>    S       -6.99065         5.66004         3.12048
| 53>    C       -9.41864         7.21566         3.59579
| 54>    C      -10.68025         7.17315         2.97499
| 55>    C      -10.65564         6.15645         1.93547
| 56>    C      -11.67301         5.81215         1.09482
| 57>    C      -11.53729         4.80754         0.11324
| 58>    N      -11.44336         3.99588        -0.69116
| 59>    C      -12.93627         6.43936         1.14234
| 60>    N      -13.96876         6.93717         1.16947
| 61>    C      -11.58986         8.07135         3.52820
| 62>    C      -11.04289         8.79253         4.57418
| 63>    S       -9.36124         8.35990         4.86370
| 64>    C      -11.69540         9.75620         5.40238
| 65>    C      -11.07318        10.34348         6.49900
| 66>    C      -11.70951        11.23490         7.35163
| 67>    C      -13.03442        11.62995         7.18362
| 68>    C      -13.68745        11.09413         6.04252
| 69>    C      -13.03696        10.15808         5.16498
| 70>    N      -13.84029         9.77278         4.17556
| 71>    S      -15.26169        10.50501         4.32622
| 72>    N      -14.93519        11.34784         5.65612
| 73>    C      -13.72251        12.50874         8.09635
| 74>    C      -13.27685        12.73613         9.37588
| 75>    C      -13.89109        13.56955        10.31108
| 76>    C      -15.05533        14.38760         9.93875
| 77>    C      -15.67065        14.30270         8.73895
| 78>    S      -15.19581        13.24314         7.47800
| 79>    C      -15.33192        15.18880        11.07625
| 80>    C      -14.41569        14.88831        12.09056
| 81>    C      -14.64963        15.64856        13.26035
| 82>    C      -15.70516        16.48724        13.10718
| 83>    S      -16.46489        16.39046        11.54999
| 84>    C      -13.52781        13.86276        11.63405
| 85>    C      -12.49095        13.29488        12.45384
| 86>    C      -11.98036        12.06787        12.35592
| 87>    H       -9.36802        -1.01941        -2.90926
| 88>    H       -5.21011        -3.55922        -4.08273
| 89>    H      -10.66267        -2.88229        -4.55877
| 90>    H       -3.74895         0.35831        -0.48911
| 91>    H       -2.43539         1.82379         0.29598
| 92>    H       -2.81526         1.13235         1.87017
| 93>    H       -2.10979         4.05025         1.25109
| 94>    H       -3.08815         2.73913         3.84098
| 95>    H       -4.17060         5.23345         2.43677
| 96>    H       -4.92966         4.28275         3.70995
| 97>    H       -8.95581         3.95569         0.56259
| 98>    H      -12.60765         8.21041         3.21358
| 99>    H      -10.04375        10.08580         6.70382
|100>    H      -11.13440        11.64085         8.16875
|101>    H      -12.37591        12.22940         9.68701
|102>    H      -16.54131        14.89241         8.49684
|103>    H      -14.07231        15.58054        14.16463
|104>    H      -16.10671        17.17686        13.82384
|105>    H      -12.14308        13.94396        13.24907
|106>    H      -12.33434        11.34863        11.63788
|107>    H      -11.20666        11.73163        13.02465
|108> *
|109>
|110>                          ****END OF INPUT****

CARTESIAN COORDINATES (ANGSTROEM)
---------------------------------
  C     -4.945580   -1.255000   -2.288130
  C     -3.622810   -1.600320   -2.417100
  C     -3.158440   -2.665430   -3.216200
  N     -2.717600   -3.519300   -3.844450
  C     -2.543960   -0.936310   -1.799450
  N     -1.622000   -0.429970   -1.336010
  C     -6.057020   -1.902560   -2.978510
  C     -7.252220   -1.208890   -2.665130
  C     -8.477960   -1.571920   -3.166330
  C     -8.528900   -2.680010   -4.018900
  C     -7.331820   -3.369890   -4.325490
  C     -6.091440   -2.998880   -3.819410
  S     -7.622290   -4.709170   -5.393220
  C     -9.324200   -4.329980   -5.412510
  C     -9.659860   -3.255310   -4.659740
  Br   -10.495840   -5.387800   -6.424790
  C     -6.937870   -0.097750   -1.751270
  O     -7.731080    0.705820   -1.293580
  C     -5.495960   -0.171740   -1.498040
  C     -4.792530    0.610600   -0.615320
  C     -5.211070    1.686000    0.177560
  S     -6.813940    2.375070    0.206900
  C     -6.331610    3.542870    1.399090
  C     -4.995230    3.382610    1.775940
  C     -4.362980    2.364300    1.070490
  C     -2.913360    2.034590    1.255480
  C     -2.175660    3.195800    1.936000
  C     -0.832600    2.786910    2.285410
  N      0.214780    2.440500    2.579780
  C     -2.945650    3.620000    3.202640
  C     -2.195960    4.605100    3.950110
  N     -1.623720    5.411080    4.522120
  C     -4.307260    4.213190    2.813720
  C     -7.295150    4.479040    1.843960
  C     -8.587250    4.589820    1.349010
  C     -9.318040    5.587620    1.982970
  C     -8.583560    6.253200    2.984680
  S     -6.990650    5.660040    3.120480
  C     -9.418640    7.215660    3.595790
  C    -10.680250    7.173150    2.974990
  C    -10.655640    6.156450    1.935470
  C    -11.673010    5.812150    1.094820
  C    -11.537290    4.807540    0.113240
  N    -11.443360    3.995880   -0.691160
  C    -12.936270    6.439360    1.142340
  N    -13.968760    6.937170    1.169470
  C    -11.589860    8.071350    3.528200
  C    -11.042890    8.792530    4.574180
  S     -9.361240    8.359900    4.863700
  C    -11.695400    9.756200    5.402380
  C    -11.073180   10.343480    6.499000
  C    -11.709510   11.234900    7.351630
  C    -13.034420   11.629950    7.183620
  C    -13.687450   11.094130    6.042520
  C    -13.036960   10.158080    5.164980
  N    -13.840290    9.772780    4.175560
  S    -15.261690   10.505010    4.326220
  N    -14.935190   11.347840    5.656120
  C    -13.722510   12.508740    8.096350
  C    -13.276850   12.736130    9.375880
  C    -13.891090   13.569550   10.311080
  C    -15.055330   14.387600    9.938750
  C    -15.670650   14.302700    8.738950
  S    -15.195810   13.243140    7.478000
  C    -15.331920   15.188800   11.076250
  C    -14.415690   14.888310   12.090560
  C    -14.649630   15.648560   13.260350
  C    -15.705160   16.487240   13.107180
  S    -16.464890   16.390460   11.549990
  C    -13.527810   13.862760   11.634050
  C    -12.490950   13.294880   12.453840
  C    -11.980360   12.067870   12.355920
  H     -9.368020   -1.019410   -2.909260
  H     -5.210110   -3.559220   -4.082730
  H    -10.662670   -2.882290   -4.558770
  H     -3.748950    0.358310   -0.489110
  H     -2.435390    1.823790    0.295980
  H     -2.815260    1.132350    1.870170
  H     -2.109790    4.050250    1.251090
  H     -3.088150    2.739130    3.840980
  H     -4.170600    5.233450    2.436770
  H     -4.929660    4.282750    3.709950
  H     -8.955810    3.955690    0.562590
  H    -12.607650    8.210410    3.213580
  H    -10.043750   10.085800    6.703820
  H    -11.134400   11.640850    8.168750
  H    -12.375910   12.229400    9.687010
  H    -16.541310   14.892410    8.496840
  H    -14.072310   15.580540   14.164630
  H    -16.106710   17.176860   13.823840
  H    -12.143080   13.943960   13.249070
  H    -12.334340   11.348630   11.637880
  H    -11.206660   11.731630   13.024650

 Total Charge           Charge          ....    0
 Multiplicity           Mult            ....    1
 Number of Electrons    NEL             ....  562
 Basis Dimension        Dim             .... 1159

ORBITAL ENERGIES
----------------

  NO   OCC          E(Eh)            E(eV)
   0   2.0000    -482.887410    -13140.0344
   1   2.0000     -89.034735     -2422.7583
   2   2.0000     -89.002804     -2421.8894
   3   2.0000     -88.992817     -2421.6177
   4   2.0000     -88.977847     -2421.2103
   5   2.0000     -88.974918     -2421.1306
   6   2.0000     -88.963428     -2420.8179
   7   2.0000     -88.950052     -2420.4540
   8   2.0000     -62.565078     -1702.4823
   9   2.0000     -56.399032     -1534.6957
  10   2.0000     -56.396312     -1534.6217
  11   2.0000     -56.396279     -1534.6208
  12   2.0000     -19.226189      -523.1712
  13   2.0000     -14.448645      -393.1676
  14   2.0000     -14.448005      -393.1502
  15   2.0000     -14.434561      -392.7844
  16   2.0000     -14.433308      -392.7503
  17   2.0000     -14.423465      -392.4824
  18   2.0000     -14.417069      -392.3084
  19   2.0000     -14.415807      -392.2741
  20   2.0000     -14.411480      -392.1563
  21   2.0000     -10.374008      -282.2911
  22   2.0000     -10.370162      -282.1865
  23   2.0000     -10.361179      -281.9420
  24   2.0000     -10.356439      -281.8130
  25   2.0000     -10.347707      -281.5754
  26   2.0000     -10.346154      -281.5332
  27   2.0000     -10.345820      -281.5241
  28   2.0000     -10.344918      -281.4995
  29   2.0000     -10.342361      -281.4300
  30   2.0000     -10.337417      -281.2954
  31   2.0000     -10.335842      -281.2526
  32   2.0000     -10.335723      -281.2493
  33   2.0000     -10.334615      -281.2192
  34   2.0000     -10.334365      -281.2124
  35   2.0000     -10.333113      -281.1783
  36   2.0000     -10.332685      -281.1666
  37   2.0000     -10.328805      -281.0611
  38   2.0000     -10.328159      -281.0435
  39   2.0000     -10.327557      -281.0271
  40   2.0000     -10.326816      -281.0070
  41   2.0000     -10.323429      -280.9148
  42   2.0000     -10.320272      -280.8289
  43   2.0000     -10.317673      -280.7581
  44   2.0000     -10.316948      -280.7384
  45   2.0000     -10.316678      -280.7311
  46   2.0000     -10.316323      -280.7214
  47   2.0000     -10.313894      -280.6553
  48   2.0000     -10.312745      -280.6240
  49   2.0000     -10.312590      -280.6198
  50   2.0000     -10.312320      -280.6125
  51   2.0000     -10.312286      -280.6116
  52   2.0000     -10.311667      -280.5947
  53   2.0000     -10.311284      -280.5843
  54   2.0000     -10.310199      -280.5548
  55   2.0000     -10.309219      -280.5281
  56   2.0000     -10.308520      -280.5091
  57   2.0000     -10.307491      -280.4811
  58   2.0000     -10.306538      -280.4551
  59   2.0000     -10.304118      -280.3893
  60   2.0000     -10.302319      -280.3403
  61   2.0000     -10.301806      -280.3264
  62   2.0000     -10.298678      -280.2413
  63   2.0000     -10.297395      -280.2064
  64   2.0000     -10.295828      -280.1637
  65   2.0000     -10.295703      -280.1603
  66   2.0000     -10.292104      -280.0624
  67   2.0000     -10.291279      -280.0400
  68   2.0000     -10.287449      -279.9357
  69   2.0000     -10.280079      -279.7352
  70   2.0000     -10.276616      -279.6409
  71   2.0000     -10.272122      -279.5187
  72   2.0000     -10.269707      -279.4529
  73   2.0000     -10.267661      -279.3972
  74   2.0000     -10.265980      -279.3515
  75   2.0000     -10.260003      -279.1889
  76   2.0000      -8.794488      -239.3102
  77   2.0000      -8.126265      -221.1269
  78   2.0000      -8.096507      -220.3171
  79   2.0000      -8.087129      -220.0620
  80   2.0000      -8.073875      -219.7013
  81   2.0000      -8.068060      -219.5431
  82   2.0000      -8.058098      -219.2720
  83   2.0000      -8.045527      -218.9299
  84   2.0000      -6.630777      -180.4326
  85   2.0000      -6.616230      -180.0368
  86   2.0000      -6.616016      -180.0310
  87   2.0000      -6.097522      -165.9220
  88   2.0000      -6.089705      -165.7093
  89   2.0000      -6.088630      -165.6801
  90   2.0000      -6.065823      -165.0594
  91   2.0000      -6.061525      -164.9425
  92   2.0000      -6.058982      -164.8733
  93   2.0000      -6.056392      -164.8028
  94   2.0000      -6.052216      -164.6892
  95   2.0000      -6.049558      -164.6168
  96   2.0000      -6.043548      -164.4533
  97   2.0000      -6.039281      -164.3372
  98   2.0000      -6.037645      -164.2927
  99   2.0000      -6.035100      -164.2234
 100   2.0000      -6.032988      -164.1660
 101   2.0000      -6.030023      -164.0853
 102   2.0000      -6.027726      -164.0228
 103   2.0000      -6.022932      -163.8923
 104   2.0000      -6.019947      -163.8111
 105   2.0000      -6.015002      -163.6765
 106   2.0000      -6.010776      -163.5615
 107   2.0000      -6.007460      -163.4713
 108   2.0000      -2.746693       -74.7413
 109   2.0000      -2.742534       -74.6281
 110   2.0000      -2.742405       -74.6246
 111   2.0000      -2.730827       -74.3096
 112   2.0000      -2.730819       -74.3094
 113   2.0000      -1.141869       -31.0718
 114   2.0000      -1.135572       -30.9005
 115   2.0000      -1.050956       -28.5980
 116   2.0000      -1.028106       -27.9762
 117   2.0000      -1.026592       -27.9350
 118   2.0000      -1.024330       -27.8734
 119   2.0000      -1.017538       -27.6886
 120   2.0000      -1.011687       -27.5294
 121   2.0000      -1.010240       -27.4900
 122   2.0000      -1.001910       -27.2633
 123   2.0000      -1.000501       -27.2250
 124   2.0000      -0.999233       -27.1905
 125   2.0000      -0.996232       -27.1089
 126   2.0000      -0.993499       -27.0345
 127   2.0000      -0.991524       -26.9807
 128   2.0000      -0.980017       -26.6676
 129   2.0000      -0.964229       -26.2380
 130   2.0000      -0.961346       -26.1595
 131   2.0000      -0.954336       -25.9688
 132   2.0000      -0.946345       -25.7514
 133   2.0000      -0.926986       -25.2246
 134   2.0000      -0.919117       -25.0105
 135   2.0000      -0.912030       -24.8176
 136   2.0000      -0.910223       -24.7684
 137   2.0000      -0.895450       -24.3664
 138   2.0000      -0.892435       -24.2844
 139   2.0000      -0.888804       -24.1856
 140   2.0000      -0.884214       -24.0607
 141   2.0000      -0.874558       -23.7979
 142   2.0000      -0.872588       -23.7443
 143   2.0000      -0.868923       -23.6446
 144   2.0000      -0.861276       -23.4365
 145   2.0000      -0.857100       -23.3229
 146   2.0000      -0.851715       -23.1764
 147   2.0000      -0.834535       -22.7088
 148   2.0000      -0.831662       -22.6307
 149   2.0000      -0.829414       -22.5695
 150   2.0000      -0.808829       -22.0094
 151   2.0000      -0.795537       -21.6477
 152   2.0000      -0.784682       -21.3523
 153   2.0000      -0.777291       -21.1512
 154   2.0000      -0.772064       -21.0089
 155   2.0000      -0.770555       -20.9679
 156   2.0000      -0.764201       -20.7950
 157   2.0000      -0.755440       -20.5566
 158   2.0000      -0.745904       -20.2971
 159   2.0000      -0.731403       -19.9025
 160   2.0000      -0.728961       -19.8360
 161   2.0000      -0.717021       -19.5111
 162   2.0000      -0.709683       -19.3115
 163   2.0000      -0.703128       -19.1331
 164   2.0000      -0.698685       -19.0122
 165   2.0000      -0.696577       -18.9548
 166   2.0000      -0.689470       -18.7614
 167   2.0000      -0.685844       -18.6628
 168   2.0000      -0.668828       -18.1997
 169   2.0000      -0.665869       -18.1192
 170   2.0000      -0.658352       -17.9147
 171   2.0000      -0.654283       -17.8039
 172   2.0000      -0.648345       -17.6424
 173   2.0000      -0.647643       -17.6233
 174   2.0000      -0.632668       -17.2158
 175   2.0000      -0.630875       -17.1670
 176   2.0000      -0.629559       -17.1312
 177   2.0000      -0.624781       -17.0012
 178   2.0000      -0.620666       -16.8892
 179   2.0000      -0.617490       -16.8028
 180   2.0000      -0.613335       -16.6897
 181   2.0000      -0.605708       -16.4822
 182   2.0000      -0.601503       -16.3677
 183   2.0000      -0.595901       -16.2153
 184   2.0000      -0.590445       -16.0668
 185   2.0000      -0.587915       -15.9980
 186   2.0000      -0.586776       -15.9670
 187   2.0000      -0.576268       -15.6810
 188   2.0000      -0.572432       -15.5767
 189   2.0000      -0.569546       -15.4981
 190   2.0000      -0.565361       -15.3842
 191   2.0000      -0.561688       -15.2843
 192   2.0000      -0.556882       -15.1535
 193   2.0000      -0.553457       -15.0603
 194   2.0000      -0.549100       -14.9418
 195   2.0000      -0.548203       -14.9174
 196   2.0000      -0.546889       -14.8816
 197   2.0000      -0.540489       -14.7075
 198   2.0000      -0.539119       -14.6702
 199   2.0000      -0.537951       -14.6384
 200   2.0000      -0.535335       -14.5672
 201   2.0000      -0.530079       -14.4242
 202   2.0000      -0.523382       -14.2420
 203   2.0000      -0.520573       -14.1655
 204   2.0000      -0.518746       -14.1158
 205   2.0000      -0.518526       -14.1098
 206   2.0000      -0.512319       -13.9409
 207   2.0000      -0.510056       -13.8793
 208   2.0000      -0.507597       -13.8124
 209   2.0000      -0.506944       -13.7946
 210   2.0000      -0.504518       -13.7286
 211   2.0000      -0.501417       -13.6442
 212   2.0000      -0.501075       -13.6350
 213   2.0000      -0.500400       -13.6166
 214   2.0000      -0.497798       -13.5458
 215   2.0000      -0.497076       -13.5261
 216   2.0000      -0.491675       -13.3791
 217   2.0000      -0.486961       -13.2509
 218   2.0000      -0.485336       -13.2067
 219   2.0000      -0.481591       -13.1047
 220   2.0000      -0.478085       -13.0093
 221   2.0000      -0.475211       -12.9311
 222   2.0000      -0.474239       -12.9047
 223   2.0000      -0.472198       -12.8492
 224   2.0000      -0.470529       -12.8037
 225   2.0000      -0.466715       -12.7000
 226   2.0000      -0.464624       -12.6431
 227   2.0000      -0.461867       -12.5680
 228   2.0000      -0.460030       -12.5181
 229   2.0000      -0.458439       -12.4747
 230   2.0000      -0.455123       -12.3845
 231   2.0000      -0.453571       -12.3423
 232   2.0000      -0.451698       -12.2913
 233   2.0000      -0.450218       -12.2511
 234   2.0000      -0.449502       -12.2316
 235   2.0000      -0.446955       -12.1623
 236   2.0000      -0.444751       -12.1023
 237   2.0000      -0.444340       -12.0911
 238   2.0000      -0.443422       -12.0661
 239   2.0000      -0.442418       -12.0388
 240   2.0000      -0.441766       -12.0211
 241   2.0000      -0.441244       -12.0069
 242   2.0000      -0.437681       -11.9099
 243   2.0000      -0.433148       -11.7866
 244   2.0000      -0.432251       -11.7621
 245   2.0000      -0.431919       -11.7531
 246   2.0000      -0.431044       -11.7293
 247   2.0000      -0.429023       -11.6743
 248   2.0000      -0.424371       -11.5477
 249   2.0000      -0.423835       -11.5331
 250   2.0000      -0.419339       -11.4108
 251   2.0000      -0.413767       -11.2592
 252   2.0000      -0.412597       -11.2273
 253   2.0000      -0.412471       -11.2239
 254   2.0000      -0.410441       -11.1687
 255   2.0000      -0.407105       -11.0779
 256   2.0000      -0.406968       -11.0742
 257   2.0000      -0.402637       -10.9563
 258   2.0000      -0.400534       -10.8991
 259   2.0000      -0.399629       -10.8744
 260   2.0000      -0.396882       -10.7997
 261   2.0000      -0.389712       -10.6046
 262   2.0000      -0.381472       -10.3804
 263   2.0000      -0.376592       -10.2476
 264   2.0000      -0.374648       -10.1947
 265   2.0000      -0.364282        -9.9126
 266   2.0000      -0.356171        -9.6919
 267   2.0000      -0.354433        -9.6446
 268   2.0000      -0.349505        -9.5105
 269   2.0000      -0.345542        -9.4027
 270   2.0000      -0.340943        -9.2775
 271   2.0000      -0.335327        -9.1247
 272   2.0000      -0.328841        -8.9482
 273   2.0000      -0.326841        -8.8938
 274   2.0000      -0.321514        -8.7488
 275   2.0000      -0.318213        -8.6590
 276   2.0000      -0.298415        -8.1203
 277   2.0000      -0.294071        -8.0021
 278   2.0000      -0.273097        -7.4313
 279   2.0000      -0.255895        -6.9633
 280   2.0000      -0.227471        -6.1898
 281   0.0000      -0.116162        -3.1609
 282   0.0000      -0.098057        -2.6683
 283   0.0000      -0.083568        -2.2740
 284   0.0000      -0.067132        -1.8268
 285   0.0000      -0.035394        -0.9631

MULLIKEN ATOMIC CHARGES
-----------------------
   0 C :    0.315582
   1 C :   -0.351028
   2 C :   -0.184711
   3 N :    0.149501
   4 C :   -0.182602
   5 N :    0.141750
   6 C :    0.011084
   7 C :   -0.010637
   8 C :   -0.068280
   9 C :    0.114838
  10 C :   -0.091342
  11 C :   -0.017203
  12 S :    0.188559
  13 C :   -0.123068
  14 C :    0.039504
  15 Br:    0.026584
  16 C :    0.162295
  17 O :   -0.179679
  18 C :   -0.088182
  19 C :   -0.061757
  20 C :   -0.068444
  21 S :    0.185061
  22 C :   -0.052189
  23 C :   -0.092170
  24 C :   -0.083963
  25 C :    0.194626
  26 C :   -0.098187
  27 C :   -0.253223
  28 N :    0.172834
  29 C :   -0.086744
  30 C :   -0.257977
  31 N :    0.163035
  32 C :    0.174064
  33 C :   -0.097147
  34 C :   -0.058365
  35 C :    0.030935
  36 C :   -0.083043
  37 S :    0.154171
  38 C :   -0.088308
  39 C :    0.028748
  40 C :    0.307825
  41 C :   -0.298731
  42 C :   -0.195104
  43 N :    0.182922
  44 C :   -0.187269
  45 N :    0.179082
  46 C :   -0.058570
  47 C :   -0.109540
  48 S :    0.165511
  49 C :    0.136181
  50 C :   -0.055344
  51 C :   -0.059794
  52 C :    0.133304
  53 C :   -0.007305
  54 C :    0.022834
  55 N :   -0.286776
  56 S :    0.538442
  57 N :   -0.311041
  58 C :   -0.086787
  59 C :   -0.057533
  60 C :    0.047473
  61 C :    0.063167
  62 C :   -0.120007
  63 S :    0.162382
  64 C :   -0.107109
  65 C :    0.048778
  66 C :    0.013726
  67 C :   -0.072064
  68 S :    0.119791
  69 C :    0.044256
  70 C :   -0.037985
  71 C :   -0.034119
  72 H :   -0.005617
  73 H :   -0.006453
  74 H :   -0.001350
  75 H :   -0.000941
  76 H :    0.066588
  77 H :    0.039853
  78 H :    0.052202
  79 H :    0.050464
  80 H :    0.037272
  81 H :    0.048695
  82 H :    0.031286
  83 H :    0.021145
  84 H :   -0.009764
  85 H :   -0.007839
  86 H :   -0.031398
  87 H :    0.030907
  88 H :   -0.019765
  89 H :    0.024265
  90 H :   -0.011389
  91 H :    0.017637
  92 H :    0.018687
Sum of atomic charges:   -0.0000000

LOEWDIN ATOMIC CHARGES
----------------------
   0 C :    0.078521
   1 C :   -0.146723
   2 C :   -0.019242
   3 N :   -0.052907
   4 C :   -0.017708
   5 N :   -0.058252
   6 C :   -0.021184
   7 C :   -0.050478
   8 C :    0.024240
   9 C :   -0.032140
  10 C :   -0.143884
  11 C :   -0.008521
  12 S :    0.434809
  13 C :   -0.270732
  14 C :   -0.069598
  15 Br:    0.138929
  16 C :    0.084768
  17 O :   -0.164732
  18 C :   -0.108410
  19 C :    0.049779
  20 C :   -0.191794
  21 S :    0.523953
  22 C :   -0.162854
  23 C :   -0.081216
  24 C :   -0.022372
  25 C :   -0.007583
  26 C :   -0.030252
  27 C :   -0.038510
  28 N :   -0.036589
  29 C :   -0.031133
  30 C :   -0.038007
  31 N :   -0.042813
  32 C :   -0.021625
  33 C :   -0.190575
  34 C :   -0.018311
  35 C :   -0.067516
  36 C :   -0.174018
  37 S :    0.488640
  38 C :   -0.185535
  39 C :   -0.065336
  40 C :    0.079457
  41 C :   -0.095798
  42 C :   -0.019135
  43 N :   -0.026870
  44 C :   -0.017017
  45 N :   -0.026338
  46 C :   -0.022512
  47 C :   -0.151170
  48 S :    0.471361
  49 C :   -0.052055
  50 C :   -0.017611
  51 C :   -0.015048
  52 C :   -0.034840
  53 C :   -0.049266
  54 C :   -0.036565
  55 N :   -0.278219
  56 S :    0.658734
  57 N :   -0.295305
  58 C :   -0.174972
  59 C :   -0.008650
  60 C :   -0.026488
  61 C :   -0.056445
  62 C :   -0.143476
  63 S :    0.485833
  64 C :   -0.202271
  65 C :   -0.042874
  66 C :   -0.064430
  67 C :   -0.166366
  68 S :    0.413218
  69 C :   -0.051042
  70 C :   -0.018844
  71 C :   -0.059007
  72 H :    0.042937
  73 H :    0.041361
  74 H :    0.039716
  75 H :    0.046629
  76 H :    0.051113
  77 H :    0.049103
  78 H :    0.059958
  79 H :    0.059620
  80 H :    0.040413
  81 H :    0.031735
  82 H :    0.039363
  83 H :    0.038914
  84 H :    0.025095
  85 H :    0.034769
  86 H :    0.033749
  87 H :    0.034462
  88 H :    0.029484
  89 H :    0.022214
  90 H :    0.029456
  91 H :    0.018022
  92 H :    0.022804

  Mayer bond orders larger than 0.100000
B(  0-C ,  1-C ) :   1.6157 B(  0-C ,  6-C ) :   1.0000 B(  0-C , 18-C ) :   1.0845
B(  1-C ,  2-C ) :   1.1442 B(  1-C ,  4-C ) :   1.1513 B(  2-C ,  3-N ) :   2.9670
B(  4-C ,  5-N ) :   2.9552 B(  6-C ,  7-C ) :   1.2741 B(  6-C , 11-C ) :   1.4150
B(  7-C ,  8-C ) :   1.4236 B(  7-C , 16-C ) :   0.9598 B(  8-C ,  9-C ) :   1.2428
B(  8-C , 72-H ) :   1.0177 B(  9-C , 10-C ) :   1.3075 B(  9-C , 14-C ) :   1.1626
B( 10-C , 11-C ) :   1.3263 B( 10-C , 12-S ) :   1.0874 B( 11-C , 73-H ) :   0.9796
B( 12-S , 13-C ) :   1.0872 B( 13-C , 14-C ) :   1.6171 B( 13-C , 15-Br) :   1.0208
B( 14-C , 74-H ) :   1.0008 B( 16-C , 17-O ) :   2.1261 B( 16-C , 18-C ) :   0.9731
B( 18-C , 19-C ) :   1.5068 B( 19-C , 20-C ) :   1.2801 B( 19-C , 75-H ) :   0.9272
B( 20-C , 21-S ) :   1.0776 B( 20-C , 24-C ) :   1.3775 B( 21-S , 22-C ) :   1.1394
B( 22-C , 23-C ) :   1.4047 B( 22-C , 33-C ) :   1.1963 B( 23-C , 24-C ) :   1.4057
B( 23-C , 32-C ) :   1.0466 B( 24-C , 25-C ) :   1.0580 B( 25-C , 26-C ) :   1.0876
B( 25-C , 76-H ) :   0.9008 B( 25-C , 77-H ) :   0.8797 B( 26-C , 27-C ) :   1.0946
B( 26-C , 29-C ) :   1.0703 B( 26-C , 78-H ) :   0.8572 B( 27-C , 28-N ) :   3.1226
B( 29-C , 30-C ) :   1.0812 B( 29-C , 32-C ) :   1.0868 B( 29-C , 79-H ) :   0.8529
B( 30-C , 31-N ) :   3.1259 B( 32-C , 80-H ) :   0.8904 B( 32-C , 81-H ) :   0.9034
B( 33-C , 34-C ) :   1.4205 B( 33-C , 37-S ) :   1.0825 B( 34-C , 35-C ) :   1.3168
B( 34-C , 82-H ) :   0.9891 B( 35-C , 36-C ) :   1.4157 B( 35-C , 40-C ) :   0.9840
B( 36-C , 37-S ) :   1.1289 B( 36-C , 38-C ) :   1.1902 B( 38-C , 39-C ) :   1.4304
B( 38-C , 48-S ) :   1.1168 B( 39-C , 40-C ) :   0.9991 B( 39-C , 46-C ) :   1.2464
B( 40-C , 41-C ) :   1.7152 B( 41-C , 42-C ) :   1.1337 B( 41-C , 44-C ) :   1.1391
B( 42-C , 43-N ) :   2.9948 B( 44-C , 45-N ) :   2.9874 B( 46-C , 47-C ) :   1.4807
B( 46-C , 83-H ) :   0.9807 B( 47-C , 48-S ) :   1.0920 B( 47-C , 49-C ) :   1.1245
B( 49-C , 50-C ) :   1.4236 B( 49-C , 52-C ) :   0.1072 B( 49-C , 54-C ) :   1.1955
B( 50-C , 51-C ) :   1.2752 B( 50-C , 84-H ) :   0.9840 B( 51-C , 52-C ) :   1.4323
B( 51-C , 85-H ) :   0.9876 B( 52-C , 53-C ) :   1.1672 B( 52-C , 58-C ) :   1.0943
B( 53-C , 54-C ) :   1.1656 B( 53-C , 57-N ) :   1.4965 B( 54-C , 55-N ) :   1.5299
B( 55-N , 56-S ) :   1.2597 B( 55-N , 57-N ) :   0.1454 B( 56-S , 57-N ) :   1.2639
B( 58-C , 59-C ) :   1.5155 B( 58-C , 63-S ) :   1.0645 B( 59-C , 60-C ) :   1.2330
B( 59-C , 86-H ) :   0.9635 B( 60-C , 61-C ) :   1.0486 B( 60-C , 69-C ) :   1.4129
B( 61-C , 62-C ) :   1.5858 B( 61-C , 64-C ) :   1.1900 B( 62-C , 63-S ) :   1.1448
B( 62-C , 87-H ) :   0.9411 B( 64-C , 65-C ) :   1.4224 B( 64-C , 68-S ) :   1.0715
B( 65-C , 66-C ) :   1.2085 B( 65-C , 69-C ) :   1.1411 B( 66-C , 67-C ) :   1.5928
B( 66-C , 88-H ) :   0.9971 B( 67-C , 68-S ) :   1.1462 B( 67-C , 89-H ) :   0.9668
B( 69-C , 70-C ) :   1.0993 B( 70-C , 71-C ) :   1.9205 B( 70-C , 90-H ) :   0.9556
B( 71-C , 91-H ) :   0.9564 B( 71-C , 92-H ) :   0.9479

-----------------------------------------------------------------------------
         ABSORPTION SPECTRUM VIA TRANSITION ELECTRIC DIPOLE MOMENTS
-----------------------------------------------------------------------------
State   Energy  Wavelength   fosc         T2         TX        TY        TZ
        (cm-1)    (nm)                  (au**2)     (au)      (au)      (au)
-----------------------------------------------------------------------------
   0   10943.0    913.8   0.545182295  16.40146  -1.75383   2.75493   2.39497
   1   15002.2    666.6   0.459851339  10.09108   0.79575  -1.85892  -2.44996
   2   17213.7    580.9   0.730061825  13.96241   1.39764  -2.67398  -2.20429
   3   18259.6    547.7   0.473362190   8.53451   1.31916  -2.35179  -1.12403
   4   21951.3    455.6   0.239479638   3.59157   0.94743  -1.32145  -0.97350
   5   22641.4    441.7   0.049200156   0.71538  -0.11589  -0.62043  -0.56305
   6   22930.0    436.1   0.014477040   0.20785   0.09345  -0.05767  -0.44248
   7   23693.2    422.1   0.018561157   0.25790   0.41050  -0.29857  -0.01575
   8   24951.3    400.8   0.003885683   0.05127  -0.18137   0.13506   0.01153
   9   25505.5    392.1   0.026022027   0.33588  -0.21588   0.35504   0.40401
  10   26634.0    375.5   0.201577485   2.49162  -1.04914  -0.87835  -0.78704
  11   27831.8    359.3   0.006408552   0.07580   0.18753   0.08298   0.18372
  12   27955.5    357.7   0.001767276   0.02081  -0.07421  -0.12166   0.02245
  13   28647.8    349.1   0.227626203   2.61582   0.47809  -0.69898  -1.37792
  14   29105.8    343.6   0.011539130   0.13052  -0.32543  -0.09393  -0.12565
  15   29437.7    339.7   0.120182029   1.34404   0.57142   0.70848   0.71803
  16   29778.8    335.8   0.055767357   0.61652  -0.56233  -0.20839  -0.50683
  17   30547.2    327.4   0.296333738   3.19363  -0.45614  -1.20103  -1.24221
  18   30908.2    323.5   0.239824802   2.55444  -1.21739  -0.27913  -0.99725
  19   31389.0    318.6   0.170751114   1.79086  -1.33002  -0.08637  -0.12018
  20   31666.5    315.8   0.125919699   1.30909   0.96957  -0.60661   0.03228
  21   31912.4    313.4   0.005143413   0.05306   0.02707  -0.22270  -0.05229
  22   32456.7    308.1   0.000934316   0.00948  -0.02220  -0.03641  -0.08751
  23   32501.8    307.7   0.223738487   2.26625   1.32196   0.43175   0.57642
  24   32772.9    305.1   0.201851132   2.02765  -1.13103  -0.47178  -0.72514
  25   33260.7    300.7   0.106144083   1.05061   0.46139  -0.52480  -0.74987
  26   34038.4    293.8   0.287076011   2.77654   1.53666  -0.40402   0.50199
  27   34194.0    292.4   0.047462973   0.45696  -0.51787   0.40327   0.16168
  28   34243.7    292.0   0.041143873   0.39555  -0.54916  -0.03784  -0.30420
  29   34829.7    287.1   0.149502141   1.41310  -1.10283  -0.04084  -0.44182
  30   35118.4    284.8   0.084910772   0.79598  -0.69288   0.07792  -0.55663
  31   35227.8    283.9   0.042089935   0.39334   0.29950  -0.48901  -0.25399
  32   35400.3    282.5   0.168662837   1.56851  -0.86559  -0.37273  -0.82483
  33   35679.6    280.3   0.059402685   0.54810  -0.23591   0.57510   0.40213
  34   35860.3    278.9   0.042028223   0.38584  -0.39286  -0.47954  -0.03930
  35   36127.8    276.8   0.276571233   2.52023   1.13923  -0.93446  -0.59091
  36   36210.2    276.2   0.222284457   2.02094   0.60887  -0.58725  -1.14252
  37   36430.2    274.5   0.365688782   3.30465   0.76653   0.75728   1.46410
  38   37044.9    269.9   0.025137215   0.22339   0.25368  -0.33792   0.21178
  39   37378.3    267.5   0.071415306   0.62899   0.35173   0.04730   0.70925
  40   37636.4    265.7   0.008265439   0.07230  -0.21053   0.14838  -0.07722
  41   38086.6    262.6   0.042864340   0.37051  -0.20174  -0.25610  -0.51403
  42   38150.1    262.1   0.128955255   1.11280   0.29737  -0.79652  -0.62444
  43   38479.1    259.9   0.086583966   0.74078   0.75652  -0.40880   0.03651
  44   39096.8    255.8   0.067262250   0.56638   0.04951  -0.14943  -0.73593
  45   39285.5    254.5   0.002604699   0.02183   0.12332   0.00168   0.08134
  46   39649.6    252.2   0.021567349   0.17907   0.11402   0.39822   0.08658
  47   39715.6    251.8   0.050867124   0.42165   0.53569  -0.36674   0.01368
  48   39908.8    250.6   0.033803754   0.27885  -0.05952  -0.07676   0.51905
  49   40203.7    248.7   0.086604403   0.70917  -0.26151   0.54887   0.58269

FINAL SINGLE POINT ENERGY     -7978.683087419729

DIPOLE MOMENT
-------------
                                X             Y             Z
Electronic contribution:    -24.44994    -129.39306    -130.99682
Nuclear contribution   :     21.14182     130.81213     132.15665
                        -----------------------------------------
Total Dipole Moment    :     -3.30812       1.41907       1.15983
                        -----------------------------------------
Magnitude (a.u.)       :      3.78188
Magnitude (Debye)      :      9.61278

Rotational constants in cm-1:     0.001314     0.000190     0.000168
Rotational constants in MHz :    39.386232     5.689168     5.038312

                             ****ORCA TERMINATED NORMALLY****
TOTAL RUN TIME: 0 days 0 hours 10 minutes 23 seconds 730 msec
