                         Program Version 4.2.0 -  RELEASE  -
|  1> # ORCA input file
|  2> # SCF done       -196.159634129477          0.000385536024
|  3> ! CAM-B3LYP def2-SVP def2/J RIJCOSX Grid4 TightSCF
|  4> %maxcore 5000
|  5> %tddft
|  6>     Mode sTDDFT
|  7>     Ethresh 5.0
|  8>     maxcore 5000
|  9> end
| 10>
| 11> %pal
| 12>   nprocs 6
| 13>   end
| 14> * xyz 0 1
| 15>    C      -10.81925         0.29948        -0.19875
| 16>    C      -12.15486         0.43881        -0.45516
| 17>    F      -12.67106         1.65236        -0.70283
| 18>    C      -13.00388        -0.68381        -0.47193
| 19>    F      -14.30997        -0.51960        -0.73786
| 20>    C      -12.50638        -1.93332        -0.23143
| 21>    C      -11.13373        -2.10956         0.02317
| 22>    C      -10.27233        -0.97645         0.04017
| 23>    C       -8.88595        -1.13918         0.27288
| 24>    C       -8.37481        -2.39927         0.43488
| 25>    C       -9.23895        -3.52665         0.37974
| 26>    C      -10.58652        -3.39625         0.21753
| 27>    C       -8.43525        -4.76453         0.44553
| 28>    O       -8.86427        -5.90178         0.46608
| 29>    C       -7.02833        -4.32275         0.54227
| 30>    C       -7.00462        -2.87914         0.62095
| 31>    C       -5.90049        -2.07553         0.75875
| 32>    C       -5.95426        -0.66782         0.81463
| 33>    N       -5.93379         0.47869         0.87567
| 34>    C       -4.56942        -2.52779         0.86624
| 35>    N       -3.45908        -2.81334         0.93788
| 36>    C       -5.94141        -5.16302         0.66976
| 37>    C       -5.84304        -6.49617         0.24151
| 38>    S       -4.67879        -7.54761         1.00893
| 39>    C       -5.14256        -8.84393        -0.00817
| 40>    C       -6.10605        -8.52141        -0.91761
| 41>    C       -6.62082        -9.48899        -1.92910
| 42>    C       -6.51296        -7.16236        -0.80371
| 43>    C       -7.39562        -6.42772        -1.64651
| 44>    C       -8.47932        -6.85477        -2.33773
| 45>    C       -9.46544        -5.97500        -2.87704
| 46>    C       -9.43281        -4.62253        -2.78355
| 47>    C      -10.47942        -3.69762        -3.05485
| 48>    S       -9.99039        -2.04120        -3.32436
| 49>    C      -11.61092        -1.56774        -3.62750
| 50>    C      -12.49160        -2.59697        -3.52633
| 51>    C      -13.96311        -2.43968        -3.72035
| 52>    C      -11.85945        -3.82945        -3.16644
| 53>    C      -12.65001        -4.99711        -2.86409
| 54>    C      -12.39149        -5.89052        -1.88716
| 55>    C      -13.22755        -7.00734        -1.60589
| 56>    C      -12.98152        -7.85036        -0.57616
| 57>    C      -13.64625        -9.06700        -0.24386
| 58>    S      -13.18373        -9.82283         1.25880
| 59>    C      -14.10435       -11.22586         0.89579
| 60>    C      -14.70960       -11.15863        -0.31843
| 61>    C      -15.56430       -12.23390        -0.89938
| 62>    C      -14.47866        -9.90994        -0.97304
| 63>    C      -15.01539        -9.66052        -2.28814
| 64>    C      -15.80004        -8.62353        -2.65629
| 65>    C      -16.17126        -8.40740        -4.01406
| 66>    C      -15.35058        -8.75546        -5.04334
| 67>    C      -13.98096        -9.06137        -4.86822
| 68>    C      -13.12945        -9.64604        -5.76484
| 69>    C      -11.67061        -9.42077        -5.67527
| 70>    O      -11.06444        -8.90888        -4.75738
| 71>    C      -11.12578        -9.89920        -6.96536
| 72>    C       -9.84496        -9.84386        -7.43235
| 73>    C       -9.55890       -10.35240        -8.71992
| 74>    C      -10.61196       -10.90681        -9.50353
| 75>    C      -10.32023       -11.40904       -10.78727
| 76>    C       -9.04210       -11.36662       -11.26965
| 77>    C       -8.00114       -10.81971       -10.49352
| 78>    C       -8.25277       -10.32245        -9.24546
| 79>    F       -6.75687       -10.79075       -10.99064
| 80>    F       -8.76647       -11.84676       -12.48949
| 81>    C      -11.92942       -10.95562        -8.99203
| 82>    C      -12.18066       -10.46290        -7.74031
| 83>    C      -13.40706       -10.41908        -6.94861
| 84>    C      -14.54662       -11.14935        -7.17952
| 85>    C      -15.54056       -11.32375        -6.19595
| 86>    N      -16.31969       -11.54099        -5.38069
| 87>    C      -14.78010       -11.89688        -8.34969
| 88>    N      -15.02058       -12.49919        -9.29711
| 89>    H      -10.18351         1.17097        -0.19139
| 90>    H      -13.16437        -2.78800        -0.24983
| 91>    H       -8.26275        -0.26019         0.29732
| 92>    H      -11.22953        -4.26174         0.21091
| 93>    H       -5.05467        -4.77046         1.15361
| 94>    H       -4.66770        -9.79853         0.11548
| 95>    H       -5.97371       -10.36156        -1.97760
| 96>    H       -6.66535        -9.02227        -2.91116
| 97>    H       -7.62342        -9.82017        -1.66105
| 98>    H       -7.20143        -5.36272        -1.63175
| 99>    H       -8.72734        -7.90354        -2.37564
|100>    H      -10.33771        -6.45369        -3.29795
|101>    H       -8.51414        -4.13735        -2.47676
|102>    H      -11.82319        -0.54433        -3.86728
|103>    H      -14.20691        -1.39990        -3.92081
|104>    H      -14.50420        -2.75675        -2.83021
|105>    H      -14.30446        -3.04448        -4.56023
|106>    H      -13.57208        -5.09305        -3.42534
|107>    H      -11.50408        -5.78347        -1.27947
|108>    H      -14.06627        -7.16436        -2.26595
|109>    H      -12.15530        -7.60469         0.08155
|110>    H      -14.14289       -12.02937         1.60464
|111>    H      -15.63851       -13.07310        -0.21313
|112>    H      -15.14401       -12.58737        -1.84059
|113>    H      -16.56449       -11.85581        -1.10594
|114>    H      -14.84739       -10.44908        -3.01448
|115>    H      -16.20285        -7.95741        -1.90374
|116>    H      -17.13331        -7.96025        -4.21975
|117>    H      -15.72746        -8.70948        -6.05692
|118>    H      -13.49872        -8.67061        -3.97560
|119>    H       -9.05774        -9.41876        -6.82832
|120>    H      -11.10532       -11.83351       -11.39335
|121>    H       -7.44447        -9.90645        -8.66463
|122>    H      -12.70985       -11.37670        -9.60592
|123> *
|124>
|125>                          ****END OF INPUT****

CARTESIAN COORDINATES (ANGSTROEM)
---------------------------------
  C    -10.819250    0.299480   -0.198750
  C    -12.154860    0.438810   -0.455160
  F    -12.671060    1.652360   -0.702830
  C    -13.003880   -0.683810   -0.471930
  F    -14.309970   -0.519600   -0.737860
  C    -12.506380   -1.933320   -0.231430
  C    -11.133730   -2.109560    0.023170
  C    -10.272330   -0.976450    0.040170
  C     -8.885950   -1.139180    0.272880
  C     -8.374810   -2.399270    0.434880
  C     -9.238950   -3.526650    0.379740
  C    -10.586520   -3.396250    0.217530
  C     -8.435250   -4.764530    0.445530
  O     -8.864270   -5.901780    0.466080
  C     -7.028330   -4.322750    0.542270
  C     -7.004620   -2.879140    0.620950
  C     -5.900490   -2.075530    0.758750
  C     -5.954260   -0.667820    0.814630
  N     -5.933790    0.478690    0.875670
  C     -4.569420   -2.527790    0.866240
  N     -3.459080   -2.813340    0.937880
  C     -5.941410   -5.163020    0.669760
  C     -5.843040   -6.496170    0.241510
  S     -4.678790   -7.547610    1.008930
  C     -5.142560   -8.843930   -0.008170
  C     -6.106050   -8.521410   -0.917610
  C     -6.620820   -9.488990   -1.929100
  C     -6.512960   -7.162360   -0.803710
  C     -7.395620   -6.427720   -1.646510
  C     -8.479320   -6.854770   -2.337730
  C     -9.465440   -5.975000   -2.877040
  C     -9.432810   -4.622530   -2.783550
  C    -10.479420   -3.697620   -3.054850
  S     -9.990390   -2.041200   -3.324360
  C    -11.610920   -1.567740   -3.627500
  C    -12.491600   -2.596970   -3.526330
  C    -13.963110   -2.439680   -3.720350
  C    -11.859450   -3.829450   -3.166440
  C    -12.650010   -4.997110   -2.864090
  C    -12.391490   -5.890520   -1.887160
  C    -13.227550   -7.007340   -1.605890
  C    -12.981520   -7.850360   -0.576160
  C    -13.646250   -9.067000   -0.243860
  S    -13.183730   -9.822830    1.258800
  C    -14.104350  -11.225860    0.895790
  C    -14.709600  -11.158630   -0.318430
  C    -15.564300  -12.233900   -0.899380
  C    -14.478660   -9.909940   -0.973040
  C    -15.015390   -9.660520   -2.288140
  C    -15.800040   -8.623530   -2.656290
  C    -16.171260   -8.407400   -4.014060
  C    -15.350580   -8.755460   -5.043340
  C    -13.980960   -9.061370   -4.868220
  C    -13.129450   -9.646040   -5.764840
  C    -11.670610   -9.420770   -5.675270
  O    -11.064440   -8.908880   -4.757380
  C    -11.125780   -9.899200   -6.965360
  C     -9.844960   -9.843860   -7.432350
  C     -9.558900  -10.352400   -8.719920
  C    -10.611960  -10.906810   -9.503530
  C    -10.320230  -11.409040  -10.787270
  C     -9.042100  -11.366620  -11.269650
  C     -8.001140  -10.819710  -10.493520
  C     -8.252770  -10.322450   -9.245460
  F     -6.756870  -10.790750  -10.990640
  F     -8.766470  -11.846760  -12.489490
  C    -11.929420  -10.955620   -8.992030
  C    -12.180660  -10.462900   -7.740310
  C    -13.407060  -10.419080   -6.948610
  C    -14.546620  -11.149350   -7.179520
  C    -15.540560  -11.323750   -6.195950
  N    -16.319690  -11.540990   -5.380690
  C    -14.780100  -11.896880   -8.349690
  N    -15.020580  -12.499190   -9.297110
  H    -10.183510    1.170970   -0.191390
  H    -13.164370   -2.788000   -0.249830
  H     -8.262750   -0.260190    0.297320
  H    -11.229530   -4.261740    0.210910
  H     -5.054670   -4.770460    1.153610
  H     -4.667700   -9.798530    0.115480
  H     -5.973710  -10.361560   -1.977600
  H     -6.665350   -9.022270   -2.911160
  H     -7.623420   -9.820170   -1.661050
  H     -7.201430   -5.362720   -1.631750
  H     -8.727340   -7.903540   -2.375640
  H    -10.337710   -6.453690   -3.297950
  H     -8.514140   -4.137350   -2.476760
  H    -11.823190   -0.544330   -3.867280
  H    -14.206910   -1.399900   -3.920810
  H    -14.504200   -2.756750   -2.830210
  H    -14.304460   -3.044480   -4.560230
  H    -13.572080   -5.093050   -3.425340
  H    -11.504080   -5.783470   -1.279470
  H    -14.066270   -7.164360   -2.265950
  H    -12.155300   -7.604690    0.081550
  H    -14.142890  -12.029370    1.604640
  H    -15.638510  -13.073100   -0.213130
  H    -15.144010  -12.587370   -1.840590
  H    -16.564490  -11.855810   -1.105940
  H    -14.847390  -10.449080   -3.014480
  H    -16.202850   -7.957410   -1.903740
  H    -17.133310   -7.960250   -4.219750
  H    -15.727460   -8.709480   -6.056920
  H    -13.498720   -8.670610   -3.975600
  H     -9.057740   -9.418760   -6.828320
  H    -11.105320  -11.833510  -11.393350
  H     -7.444470   -9.906450   -8.664630
  H    -12.709850  -11.376700   -9.605920

 Total Charge           Charge          ....    0
 Multiplicity           Mult            ....    1
 Number of Electrons    NEL             ....  528
 Basis Dimension        Dim             .... 1218

ORBITAL ENERGIES
----------------

  NO   OCC          E(Eh)            E(eV)
   0   2.0000     -88.963435     -2420.8181
   1   2.0000     -88.955479     -2420.6016
   2   2.0000     -88.953956     -2420.5602
   3   2.0000     -24.800503      -674.8560
   4   2.0000     -24.799746      -674.8354
   5   2.0000     -24.796030      -674.7343
   6   2.0000     -24.793004      -674.6519
   7   2.0000     -19.219826      -522.9981
   8   2.0000     -19.209132      -522.7071
   9   2.0000     -14.419532      -392.3754
  10   2.0000     -14.419136      -392.3646
  11   2.0000     -14.411366      -392.1532
  12   2.0000     -14.409840      -392.1117
  13   2.0000     -10.383741      -282.5560
  14   2.0000     -10.383267      -282.5431
  15   2.0000     -10.374648      -282.3085
  16   2.0000     -10.374270      -282.2982
  17   2.0000     -10.370289      -282.1899
  18   2.0000     -10.359095      -281.8853
  19   2.0000     -10.346021      -281.5295
  20   2.0000     -10.343921      -281.4724
  21   2.0000     -10.336711      -281.2762
  22   2.0000     -10.335910      -281.2544
  23   2.0000     -10.322209      -280.8816
  24   2.0000     -10.322002      -280.8760
  25   2.0000     -10.320525      -280.8358
  26   2.0000     -10.319633      -280.8115
  27   2.0000     -10.314350      -280.6677
  28   2.0000     -10.313246      -280.6377
  29   2.0000     -10.313161      -280.6354
  30   2.0000     -10.312897      -280.6282
  31   2.0000     -10.311003      -280.5767
  32   2.0000     -10.310172      -280.5540
  33   2.0000     -10.309545      -280.5370
  34   2.0000     -10.309425      -280.5337
  35   2.0000     -10.308274      -280.5024
  36   2.0000     -10.305768      -280.4342
  37   2.0000     -10.305040      -280.4144
  38   2.0000     -10.303770      -280.3798
  39   2.0000     -10.303690      -280.3777
  40   2.0000     -10.302862      -280.3551
  41   2.0000     -10.302480      -280.3447
  42   2.0000     -10.302372      -280.3418
  43   2.0000     -10.302171      -280.3363
  44   2.0000     -10.300769      -280.2982
  45   2.0000     -10.300306      -280.2856
  46   2.0000     -10.300239      -280.2838
  47   2.0000     -10.296608      -280.1849
  48   2.0000     -10.295820      -280.1635
  49   2.0000     -10.295774      -280.1623
  50   2.0000     -10.295235      -280.1476
  51   2.0000     -10.294718      -280.1335
  52   2.0000     -10.294472      -280.1268
  53   2.0000     -10.293922      -280.1119
  54   2.0000     -10.293682      -280.1053
  55   2.0000     -10.291205      -280.0379
  56   2.0000     -10.290607      -280.0216
  57   2.0000     -10.290238      -280.0116
  58   2.0000     -10.286423      -279.9078
  59   2.0000     -10.285659      -279.8870
  60   2.0000     -10.284678      -279.8603
  61   2.0000     -10.283665      -279.8327
  62   2.0000     -10.282421      -279.7989
  63   2.0000     -10.281620      -279.7771
  64   2.0000     -10.281141      -279.7641
  65   2.0000     -10.280233      -279.7394
  66   2.0000     -10.279006      -279.7060
  67   2.0000     -10.278863      -279.7021
  68   2.0000     -10.277049      -279.6527
  69   2.0000     -10.276730      -279.6440
  70   2.0000     -10.274738      -279.5898
  71   2.0000     -10.271694      -279.5070
  72   2.0000     -10.271351      -279.4977
  73   2.0000     -10.269470      -279.4465
  74   2.0000      -8.059697      -219.3155
  75   2.0000      -8.051642      -219.0963
  76   2.0000      -8.049372      -219.0346
  77   2.0000      -6.028949      -164.0560
  78   2.0000      -6.024766      -163.9422
  79   2.0000      -6.021793      -163.8613
  80   2.0000      -6.020869      -163.8362
  81   2.0000      -6.018627      -163.7752
  82   2.0000      -6.016616      -163.7205
  83   2.0000      -6.014363      -163.6591
  84   2.0000      -6.013929      -163.6473
  85   2.0000      -6.011775      -163.5887
  86   2.0000      -1.322929       -35.9987
  87   2.0000      -1.316243       -35.8168
  88   2.0000      -1.308098       -35.5952
  89   2.0000      -1.301411       -35.4132
  90   2.0000      -1.132691       -30.8221
  91   2.0000      -1.123056       -30.5599
  92   2.0000      -1.023091       -27.8397
  93   2.0000      -1.014293       -27.6003
  94   2.0000      -1.007002       -27.4019
  95   2.0000      -0.998660       -27.1749
  96   2.0000      -0.998400       -27.1679
  97   2.0000      -0.997265       -27.1370
  98   2.0000      -0.989696       -26.9310
  99   2.0000      -0.989214       -26.9179
 100   2.0000      -0.985250       -26.8100
 101   2.0000      -0.984228       -26.7822
 102   2.0000      -0.974471       -26.5167
 103   2.0000      -0.949782       -25.8449
 104   2.0000      -0.931740       -25.3539
 105   2.0000      -0.926528       -25.2121
 106   2.0000      -0.916908       -24.9503
 107   2.0000      -0.914090       -24.8737
 108   2.0000      -0.904225       -24.6052
 109   2.0000      -0.902930       -24.5700
 110   2.0000      -0.895212       -24.3600
 111   2.0000      -0.887325       -24.1454
 112   2.0000      -0.886600       -24.1256
 113   2.0000      -0.882445       -24.0126
 114   2.0000      -0.881251       -23.9801
 115   2.0000      -0.879581       -23.9346
 116   2.0000      -0.862715       -23.4757
 117   2.0000      -0.857606       -23.3366
 118   2.0000      -0.846919       -23.0458
 119   2.0000      -0.843187       -22.9443
 120   2.0000      -0.837692       -22.7948
 121   2.0000      -0.833678       -22.6855
 122   2.0000      -0.821975       -22.3671
 123   2.0000      -0.812361       -22.1055
 124   2.0000      -0.803039       -21.8518
 125   2.0000      -0.793493       -21.5920
 126   2.0000      -0.782504       -21.2930
 127   2.0000      -0.768492       -20.9117
 128   2.0000      -0.763656       -20.7801
 129   2.0000      -0.761076       -20.7099
 130   2.0000      -0.760708       -20.6999
 131   2.0000      -0.758685       -20.6449
 132   2.0000      -0.745861       -20.2959
 133   2.0000      -0.731248       -19.8983
 134   2.0000      -0.726962       -19.7816
 135   2.0000      -0.720539       -19.6069
 136   2.0000      -0.720016       -19.5926
 137   2.0000      -0.711838       -19.3701
 138   2.0000      -0.706012       -19.2116
 139   2.0000      -0.698283       -19.0013
 140   2.0000      -0.692319       -18.8390
 141   2.0000      -0.687636       -18.7115
 142   2.0000      -0.680556       -18.5189
 143   2.0000      -0.668069       -18.1791
 144   2.0000      -0.663801       -18.0629
 145   2.0000      -0.660899       -17.9840
 146   2.0000      -0.656034       -17.8516
 147   2.0000      -0.655609       -17.8400
 148   2.0000      -0.650120       -17.6907
 149   2.0000      -0.647306       -17.6141
 150   2.0000      -0.644175       -17.5289
 151   2.0000      -0.638207       -17.3665
 152   2.0000      -0.636637       -17.3238
 153   2.0000      -0.634714       -17.2714
 154   2.0000      -0.631185       -17.1754
 155   2.0000      -0.620869       -16.8947
 156   2.0000      -0.619075       -16.8459
 157   2.0000      -0.613859       -16.7040
 158   2.0000      -0.608089       -16.5470
 159   2.0000      -0.602351       -16.3908
 160   2.0000      -0.592617       -16.1259
 161   2.0000      -0.591791       -16.1034
 162   2.0000      -0.587618       -15.9899
 163   2.0000      -0.585055       -15.9202
 164   2.0000      -0.581671       -15.8281
 165   2.0000      -0.581411       -15.8210
 166   2.0000      -0.580143       -15.7865
 167   2.0000      -0.569979       -15.5099
 168   2.0000      -0.567468       -15.4416
 169   2.0000      -0.559034       -15.2121
 170   2.0000      -0.556838       -15.1523
 171   2.0000      -0.555354       -15.1120
 172   2.0000      -0.550922       -14.9914
 173   2.0000      -0.549199       -14.9445
 174   2.0000      -0.548766       -14.9327
 175   2.0000      -0.548309       -14.9203
 176   2.0000      -0.545725       -14.8499
 177   2.0000      -0.544066       -14.8048
 178   2.0000      -0.543607       -14.7923
 179   2.0000      -0.538280       -14.6473
 180   2.0000      -0.535081       -14.5603
 181   2.0000      -0.531749       -14.4696
 182   2.0000      -0.528806       -14.3896
 183   2.0000      -0.527923       -14.3655
 184   2.0000      -0.525999       -14.3131
 185   2.0000      -0.522454       -14.2167
 186   2.0000      -0.521873       -14.2009
 187   2.0000      -0.518238       -14.1020
 188   2.0000      -0.517422       -14.0798
 189   2.0000      -0.514123       -13.9900
 190   2.0000      -0.512473       -13.9451
 191   2.0000      -0.512077       -13.9343
 192   2.0000      -0.511267       -13.9123
 193   2.0000      -0.508393       -13.8341
 194   2.0000      -0.505338       -13.7509
 195   2.0000      -0.504724       -13.7342
 196   2.0000      -0.502024       -13.6608
 197   2.0000      -0.501250       -13.6397
 198   2.0000      -0.495994       -13.4967
 199   2.0000      -0.494691       -13.4612
 200   2.0000      -0.493445       -13.4273
 201   2.0000      -0.488221       -13.2852
 202   2.0000      -0.487231       -13.2582
 203   2.0000      -0.483389       -13.1537
 204   2.0000      -0.481306       -13.0970
 205   2.0000      -0.479553       -13.0493
 206   2.0000      -0.475918       -12.9504
 207   2.0000      -0.473915       -12.8959
 208   2.0000      -0.471722       -12.8362
 209   2.0000      -0.469686       -12.7808
 210   2.0000      -0.466544       -12.6953
 211   2.0000      -0.465079       -12.6554
 212   2.0000      -0.461214       -12.5503
 213   2.0000      -0.460283       -12.5249
 214   2.0000      -0.457040       -12.4367
 215   2.0000      -0.455905       -12.4058
 216   2.0000      -0.455125       -12.3846
 217   2.0000      -0.454735       -12.3740
 218   2.0000      -0.452726       -12.3193
 219   2.0000      -0.451307       -12.2807
 220   2.0000      -0.447628       -12.1806
 221   2.0000      -0.447270       -12.1708
 222   2.0000      -0.444685       -12.1005
 223   2.0000      -0.441560       -12.0155
 224   2.0000      -0.440986       -11.9998
 225   2.0000      -0.440159       -11.9773
 226   2.0000      -0.438772       -11.9396
 227   2.0000      -0.436062       -11.8658
 228   2.0000      -0.435591       -11.8530
 229   2.0000      -0.430493       -11.7143
 230   2.0000      -0.429549       -11.6886
 231   2.0000      -0.429250       -11.6805
 232   2.0000      -0.425966       -11.5911
 233   2.0000      -0.424993       -11.5646
 234   2.0000      -0.422707       -11.5024
 235   2.0000      -0.420723       -11.4485
 236   2.0000      -0.417838       -11.3699
 237   2.0000      -0.416671       -11.3382
 238   2.0000      -0.415197       -11.2981
 239   2.0000      -0.407525       -11.0893
 240   2.0000      -0.406343       -11.0571
 241   2.0000      -0.404271       -11.0008
 242   2.0000      -0.396516       -10.7897
 243   2.0000      -0.393765       -10.7149
 244   2.0000      -0.392647       -10.6845
 245   2.0000      -0.383824       -10.4444
 246   2.0000      -0.378955       -10.3119
 247   2.0000      -0.363060        -9.8794
 248   2.0000      -0.360511        -9.8100
 249   2.0000      -0.356535        -9.7018
 250   2.0000      -0.347789        -9.4638
 251   2.0000      -0.341179        -9.2840
 252   2.0000      -0.331944        -9.0327
 253   2.0000      -0.322547        -8.7770
 254   2.0000      -0.319635        -8.6977
 255   2.0000      -0.314358        -8.5541
 256   2.0000      -0.312312        -8.4984
 257   2.0000      -0.309143        -8.4122
 258   2.0000      -0.304619        -8.2891
 259   2.0000      -0.296475        -8.0675
 260   2.0000      -0.287577        -7.8254
 261   2.0000      -0.281782        -7.6677
 262   2.0000      -0.264016        -7.1842
 263   2.0000      -0.238708        -6.4956
 264   0.0000      -0.097174        -2.6442
 265   0.0000      -0.094489        -2.5712
 266   0.0000      -0.064043        -1.7427
 267   0.0000      -0.056704        -1.5430
 268   0.0000      -0.049798        -1.3551

MULLIKEN ATOMIC CHARGES
-----------------------
   0 C :   -0.127522
   1 C :    0.242349
   2 F :   -0.177628
   3 C :    0.227182
   4 F :   -0.179636
   5 C :   -0.082015
   6 C :    0.104011
   7 C :    0.139023
   8 C :   -0.095097
   9 C :    0.052931
  10 C :   -0.003776
  11 C :   -0.069062
  12 C :    0.123967
  13 O :   -0.148275
  14 C :   -0.160866
  15 C :    0.327756
  16 C :   -0.349456
  17 C :   -0.182306
  18 N :    0.140125
  19 C :   -0.206519
  20 N :    0.155749
  21 C :    0.042590
  22 C :   -0.162634
  23 S :    0.145617
  24 C :   -0.094991
  25 C :   -0.104691
  26 C :    0.117094
  27 C :    0.184997
  28 C :   -0.019769
  29 C :    0.001125
  30 C :   -0.025585
  31 C :    0.075677
  32 C :   -0.168715
  33 S :    0.112251
  34 C :   -0.130425
  35 C :   -0.076238
  36 C :    0.121562
  37 C :    0.122426
  38 C :   -0.065918
  39 C :   -0.009398
  40 C :    0.008873
  41 C :    0.047642
  42 C :   -0.135243
  43 S :    0.120360
  44 C :   -0.128877
  45 C :   -0.081774
  46 C :    0.131100
  47 C :    0.091102
  48 C :   -0.092229
  49 C :    0.008423
  50 C :    0.060670
  51 C :    0.005781
  52 C :   -0.011482
  53 C :   -0.117247
  54 C :    0.156460
  55 O :   -0.151130
  56 C :   -0.001022
  57 C :   -0.081467
  58 C :    0.113129
  59 C :    0.112387
  60 C :   -0.106311
  61 C :    0.240854
  62 C :    0.240493
  63 C :   -0.105624
  64 F :   -0.172526
  65 F :   -0.170494
  66 C :   -0.085261
  67 C :    0.044902
  68 C :    0.278187
  69 C :   -0.334897
  70 C :   -0.205180
  71 N :    0.149849
  72 C :   -0.171170
  73 N :    0.145260
  74 H :    0.003792
  75 H :   -0.005396
  76 H :   -0.010273
  77 H :   -0.024508
  78 H :    0.030795
  79 H :    0.025375
  80 H :    0.008151
  81 H :    0.030139
  82 H :    0.046385
  83 H :    0.009167
  84 H :   -0.010805
  85 H :    0.016468
  86 H :   -0.016767
  87 H :    0.018098
  88 H :    0.012524
  89 H :    0.021087
  90 H :    0.028431
  91 H :   -0.016448
  92 H :    0.025193
  93 H :   -0.025995
  94 H :    0.001941
  95 H :    0.017908
  96 H :    0.010595
  97 H :    0.030364
  98 H :    0.033806
  99 H :    0.054874
 100 H :    0.022185
 101 H :    0.014852
 102 H :    0.023238
 103 H :    0.038549
 104 H :   -0.012796
 105 H :    0.006051
 106 H :   -0.000948
 107 H :   -0.005481
Sum of atomic charges:   -0.0000000

LOEWDIN ATOMIC CHARGES
----------------------
   0 C :   -0.032249
   1 C :    0.061417
   2 F :   -0.055036
   3 C :    0.063828
   4 F :   -0.055044
   5 C :   -0.027187
   6 C :   -0.007562
   7 C :   -0.010360
   8 C :    0.015922
   9 C :   -0.026305
  10 C :   -0.050658
  11 C :    0.026490
  12 C :    0.069965
  13 O :   -0.146049
  14 C :   -0.112727
  15 C :    0.074374
  16 C :   -0.145484
  17 C :   -0.017328
  18 N :   -0.059265
  19 C :   -0.024221
  20 N :   -0.054223
  21 C :    0.053117
  22 C :   -0.178850
  23 S :    0.450521
  24 C :   -0.158998
  25 C :   -0.056211
  26 C :   -0.043275
  27 C :   -0.002672
  28 C :   -0.012178
  29 C :   -0.004186
  30 C :   -0.021893
  31 C :   -0.034317
  32 C :   -0.163983
  33 S :    0.442317
  34 C :   -0.193091
  35 C :   -0.056717
  36 C :   -0.045313
  37 C :   -0.063066
  38 C :   -0.027522
  39 C :   -0.016047
  40 C :   -0.023758
  41 C :   -0.044019
  42 C :   -0.159220
  43 S :    0.440992
  44 C :   -0.194479
  45 C :   -0.053355
  46 C :   -0.043151
  47 C :   -0.074709
  48 C :    0.030070
  49 C :   -0.032441
  50 C :    0.032646
  51 C :   -0.025154
  52 C :    0.067190
  53 C :   -0.110987
  54 C :    0.085524
  55 O :   -0.157442
  56 C :   -0.053603
  57 C :    0.028837
  58 C :   -0.009910
  59 C :   -0.006535
  60 C :   -0.029933
  61 C :    0.066777
  62 C :    0.067245
  63 C :   -0.033213
  64 F :   -0.049888
  65 F :   -0.048732
  66 C :    0.014401
  67 C :   -0.020978
  68 C :    0.071527
  69 C :   -0.145371
  70 C :   -0.018396
  71 N :   -0.059155
  72 C :   -0.020176
  73 N :   -0.053693
  74 H :    0.046039
  75 H :    0.042518
  76 H :    0.038659
  77 H :    0.035198
  78 H :    0.044658
  79 H :    0.026749
  80 H :    0.032872
  81 H :    0.037082
  82 H :    0.039810
  83 H :    0.028042
  84 H :    0.032178
  85 H :    0.035878
  86 H :    0.021476
  87 H :    0.021515
  88 H :    0.034718
  89 H :    0.031604
  90 H :    0.034449
  91 H :    0.025263
  92 H :    0.030986
  93 H :    0.024705
  94 H :    0.033146
  95 H :    0.022555
  96 H :    0.033474
  97 H :    0.038392
  98 H :    0.039170
  99 H :    0.041757
 100 H :    0.037168
 101 H :    0.039176
 102 H :    0.039409
 103 H :    0.047588
 104 H :    0.039318
 105 H :    0.047365
 106 H :    0.044511
 107 H :    0.039726

  Mayer bond orders larger than 0.100000
B(  0-C ,  1-C ) :   1.4310 B(  0-C ,  5-C ) :   0.1099 B(  0-C ,  7-C ) :   1.1871
B(  0-C , 74-H ) :   1.0094 B(  1-C ,  2-F ) :   1.1282 B(  1-C ,  3-C ) :   1.2025
B(  3-C ,  4-F ) :   1.1206 B(  3-C ,  5-C ) :   1.4312 B(  5-C ,  6-C ) :   1.2060
B(  5-C , 75-H ) :   1.0049 B(  6-C ,  7-C ) :   1.2620 B(  6-C , 11-C ) :   1.1894
B(  7-C ,  8-C ) :   1.2015 B(  8-C ,  9-C ) :   1.4525 B(  8-C , 76-H ) :   0.9901
B(  9-C , 10-C ) :   1.2176 B(  9-C , 15-C ) :   0.9751 B( 10-C , 11-C ) :   1.4749
B( 10-C , 12-C ) :   0.9196 B( 11-C , 77-H ) :   1.0146 B( 12-C , 13-O ) :   2.1955
B( 12-C , 14-C ) :   0.9825 B( 14-C , 15-C ) :   1.0931 B( 14-C , 21-C ) :   1.5115
B( 15-C , 16-C ) :   1.6164 B( 16-C , 17-C ) :   1.1462 B( 16-C , 19-C ) :   1.1438
B( 17-C , 18-N ) :   2.9605 B( 19-C , 20-N ) :   2.9781 B( 21-C , 22-C ) :   1.2573
B( 21-C , 78-H ) :   0.9268 B( 22-C , 23-S ) :   1.1030 B( 22-C , 27-C ) :   1.3444
B( 23-S , 24-C ) :   1.1725 B( 24-C , 25-C ) :   1.5544 B( 24-C , 79-H ) :   0.9655
B( 25-C , 26-C ) :   1.0984 B( 25-C , 27-C ) :   1.2567 B( 26-C , 80-H ) :   0.9461
B( 26-C , 81-H ) :   0.9414 B( 26-C , 82-H ) :   0.9424 B( 27-C , 28-C ) :   1.1643
B( 28-C , 29-C ) :   1.6645 B( 28-C , 83-H ) :   0.9203 B( 29-C , 30-C ) :   1.1512
B( 29-C , 84-H ) :   0.9830 B( 30-C , 31-C ) :   1.6921 B( 30-C , 85-H ) :   0.9756
B( 31-C , 32-C ) :   1.1333 B( 31-C , 86-H ) :   0.9241 B( 32-C , 33-S ) :   1.1433
B( 32-C , 37-C ) :   1.4552 B( 33-S , 34-C ) :   1.1442 B( 34-C , 35-C ) :   1.5804
B( 34-C , 87-H ) :   0.9669 B( 35-C , 36-C ) :   1.0993 B( 35-C , 37-C ) :   1.2379
B( 36-C , 88-H ) :   0.9494 B( 36-C , 89-H ) :   0.9405 B( 36-C , 90-H ) :   0.9415
B( 37-C , 38-C ) :   1.0606 B( 38-C , 39-C ) :   1.6940 B( 38-C , 91-H ) :   0.9555
B( 39-C , 40-C ) :   1.1403 B( 39-C , 92-H ) :   0.9746 B( 40-C , 41-C ) :   1.6708
B( 40-C , 93-H ) :   0.9802 B( 41-C , 42-C ) :   1.1036 B( 41-C , 94-H ) :   0.9572
B( 42-C , 43-S ) :   1.1512 B( 42-C , 47-C ) :   1.4694 B( 43-S , 44-C ) :   1.1379
B( 44-C , 45-C ) :   1.5907 B( 44-C , 95-H ) :   0.9658 B( 45-C , 46-C ) :   1.1020
B( 45-C , 47-C ) :   1.2517 B( 46-C , 96-H ) :   0.9501 B( 46-C , 97-H ) :   0.9393
B( 46-C , 98-H ) :   0.9410 B( 47-C , 48-C ) :   1.0518 B( 48-C , 49-C ) :   1.7224
B( 48-C , 99-H ) :   0.9336 B( 49-C , 50-C ) :   1.1463 B( 49-C ,100-H ) :   0.9561
B( 50-C , 51-C ) :   1.6593 B( 50-C ,101-H ) :   0.9665 B( 51-C , 52-C ) :   1.1531
B( 51-C ,102-H ) :   0.9619 B( 52-C , 53-C ) :   1.5912 B( 52-C ,103-H ) :   0.9194
B( 53-C , 54-C ) :   0.9574 B( 53-C , 68-C ) :   1.0663 B( 54-C , 55-O ) :   2.2227
B( 54-C , 56-C ) :   0.9223 B( 56-C , 57-C ) :   1.4802 B( 56-C , 67-C ) :   1.2175
B( 57-C , 58-C ) :   1.1892 B( 57-C ,104-H ) :   1.0150 B( 58-C , 59-C ) :   1.2598
B( 58-C , 63-C ) :   1.1953 B( 59-C , 60-C ) :   1.1894 B( 59-C , 66-C ) :   1.2098
B( 60-C , 61-C ) :   1.4400 B( 60-C , 63-C ) :   0.1089 B( 60-C ,105-H ) :   1.0066
B( 61-C , 62-C ) :   1.1933 B( 61-C , 65-F ) :   1.1353 B( 62-C , 63-C ) :   1.4412
B( 62-C , 64-F ) :   1.1323 B( 63-C ,106-H ) :   1.0065 B( 66-C , 67-C ) :   1.4604
B( 66-C ,107-H ) :   0.9930 B( 67-C , 68-C ) :   0.9961 B( 68-C , 69-C ) :   1.6273
B( 69-C , 70-C ) :   1.1708 B( 69-C , 72-C ) :   1.1301 B( 70-C , 71-N ) :   2.9688
B( 72-C , 73-N ) :   2.9761

-----------------------------------------------------------------------------
         ABSORPTION SPECTRUM VIA TRANSITION ELECTRIC DIPOLE MOMENTS
-----------------------------------------------------------------------------
State   Energy  Wavelength   fosc         T2         TX        TY        TZ
        (cm-1)    (nm)                  (au**2)     (au)      (au)      (au)
-----------------------------------------------------------------------------
   0   14010.9    713.7   0.211905534   4.97912   1.34155   1.11654   1.39022
   1   16336.5    612.1   0.059912388   1.20735  -0.21508  -0.80168  -0.72000
   2   21070.5    474.6   0.016160890   0.25250  -0.45824   0.20565  -0.01513
   3   21464.3    465.9   0.003818298   0.05856  -0.19031  -0.13252  -0.06915
   4   22370.1    447.0   0.295423841   4.34763  -0.38592   1.26179   1.61449
   5   23408.2    427.2   0.236078040   3.32019  -0.74926  -1.64914   0.19783
   6   23865.4    419.0   0.060952153   0.84081  -0.56972   0.69163   0.19463
   7   24350.3    410.7   0.093041557   1.25791   0.50412  -0.11194   0.99561
   8   25169.6    397.3   0.510001183   6.67069   1.37298  -0.69827  -2.07317
   9   25961.7    385.2   0.065704928   0.83318   0.74168  -0.52805  -0.06527
  10   27731.3    360.6   0.032680401   0.38796   0.19167  -0.21758   0.55126
  11   27806.0    359.6   0.119705712   1.41727   0.21549  -1.16294   0.13562
  12   28181.4    354.8   0.042154507   0.49244  -0.54771  -0.04905   0.43595
  13   28318.0    353.1   0.007731678   0.08988  -0.06274  -0.28645  -0.06243
  14   28895.3    346.1   0.071935378   0.81958  -0.23391  -0.78849  -0.37835
  15   29389.2    340.3   0.225334562   2.52415   1.38169  -0.14579  -0.77061
  16   29474.3    339.3   0.046213396   0.51618  -0.71028   0.09175   0.05717
  17   29785.5    335.7   0.036545856   0.40393  -0.09135   0.61313   0.14023
  18   29985.2    333.5   0.016375881   0.17979  -0.38160   0.12423   0.13689
  19   30194.7    331.2   0.166840845   1.81906  -0.10069  -1.16671   0.66911
  20   30287.0    330.2   0.003812489   0.04144  -0.05248  -0.19464   0.02834
  21   30509.9    327.8   0.119528967   1.28976   0.53867   0.70829  -0.70563
  22   30833.9    324.3   0.112204593   1.19800   0.79398   0.74678   0.09962
  23   31426.6    318.2   0.036739812   0.38487   0.31683   0.35523  -0.39787
  24   31654.3    315.9   0.373811886   3.88772  -1.67884   1.03391   0.01590
  25   31848.2    314.0   0.079815557   0.82505   0.60275   0.25387  -0.63031
  26   32533.1    307.4   0.027032762   0.27355   0.48578   0.16448   0.10253
  27   32690.3    305.9   0.194037842   1.95409  -1.38337   0.19189   0.05968
  28   32971.8    303.3   0.107437342   1.07272   0.16903   1.01603  -0.10883
  29   33220.7    301.0   0.044014742   0.43618   0.59493  -0.27627   0.07685
  30   33734.4    296.4   0.092539233   0.90308  -0.61037   0.24083   0.68741
  31   33806.8    295.8   0.509210313   4.95871   0.52249  -1.76134   1.25833
  32   34043.5    293.7   0.307252631   2.97124   1.71108  -0.08235  -0.19149
  33   34499.6    289.9   0.327082544   3.12118  -0.16203   1.24393  -1.24401
  34   34667.9    288.5   0.445403953   4.22963  -1.88477   0.09241   0.81777
  35   34740.5    287.8   0.071171952   0.67445  -0.43617  -0.54779   0.42911
  36   35039.9    285.4   0.526899785   4.95040   2.10596  -0.71739  -0.02644
  37   35649.0    280.5   0.012678898   0.11709   0.28739  -0.15429   0.10339
  38   35835.1    279.1   0.001124274   0.01033   0.07255  -0.07100  -0.00490
  39   36357.9    275.0   0.260210875   2.35615  -0.00081  -1.34436   0.74084
  40   36607.5    273.2   0.111542680   1.00310  -0.96614  -0.26397  -0.00015
  41   37000.0    270.3   0.018269247   0.16255  -0.33892  -0.16255   0.14583
  42   37132.5    269.3   0.017054741   0.15121  -0.06329  -0.36938   0.10374
  43   37713.4    265.2   0.037764508   0.32966  -0.54948  -0.05937   0.15559
  44   37752.2    264.9   0.105617685   0.92102   0.91665   0.25618   0.12304
  45   37906.7    263.8   0.072324157   0.62812  -0.27158  -0.68014   0.30294
  46   38016.2    263.0   0.056146263   0.48621   0.67443  -0.06544   0.16454
  47   38086.6    262.6   0.085058403   0.73522   0.45845  -0.68568   0.23428
  48   38750.7    258.1   0.155556940   1.32156   0.20720  -0.46465   1.03089
  49   38918.7    256.9   0.114164616   0.96571   0.68540  -0.58707   0.38896
  50   39049.8    256.1   0.038358520   0.32338  -0.03322  -0.40202   0.40083
  51   39137.1    255.5   0.014564679   0.12251   0.12667  -0.06600  -0.31955
  52   39191.6    255.2   0.028126050   0.23626  -0.43424  -0.19304  -0.10211
  53   39399.4    253.8   0.095440726   0.79748   0.26308   0.85175   0.05286
  54   39585.1    252.6   0.416752044   3.46595  -0.11548  -1.81639  -0.39160
  55   39852.5    250.9   0.148438787   1.22622   0.54063  -0.83327   0.48948
  56   40015.0    249.9   0.085818801   0.70605  -0.30176  -0.14170  -0.77131
  57   40217.3    248.6   0.118322459   0.96857   0.65576  -0.52518  -0.51256
  58   40251.8    248.4   0.079595963   0.65100   0.34115  -0.51220  -0.52180

FINAL SINGLE POINT ENERGY     -4303.921119194392

DIPOLE MOMENT
-------------
                                X             Y             Z
Electronic contribution:     27.92300      19.60300     -18.61221
Nuclear contribution   :    -29.43198     -21.12348      18.46112
                        -----------------------------------------
Total Dipole Moment    :     -1.50897      -1.52048      -0.15109
                        -----------------------------------------
Magnitude (a.u.)       :      2.14748
Magnitude (Debye)      :      5.45846

Rotational constants in cm-1:     0.001009     0.000517     0.000462
Rotational constants in MHz :    30.242807    15.505100    13.864700

                             ****ORCA TERMINATED NORMALLY****
TOTAL RUN TIME: 0 days 0 hours 12 minutes 27 seconds 873 msec
