                         Program Version 4.2.0 -  RELEASE  -
|  1> # ORCA input file
|  2> # SCF done       -218.450504579444          0.000476520691
|  3> ! CAM-B3LYP def2-SVP def2/J RIJCOSX Grid4 TightSCF
|  4> %maxcore 5000
|  5> %tddft
|  6>     Mode sTDDFT
|  7>     Ethresh 5.0
|  8>     maxcore 5000
|  9> end
| 10>
| 11> %pal
| 12>   nprocs 6
| 13>   end
| 14> * xyz 0 1
| 15>    C        6.67236        -3.04131         4.65140
| 16>    C        7.40773        -3.22968         5.78800
| 17>    F        8.35543        -2.34602         6.13160
| 18>    C        7.18113        -4.35028         6.61090
| 19>    F        7.91731        -4.51015         7.72026
| 20>    C        6.22181        -5.26811         6.28580
| 21>    C        5.44799        -5.10189         5.12126
| 22>    C        5.67552        -3.96885         4.28835
| 23>    C        4.91025        -3.78004         3.11383
| 24>    C        3.94797        -4.69651         2.78260
| 25>    C        3.73107        -5.82604         3.61973
| 26>    C        4.45101        -6.03573         4.75927
| 27>    C        2.65706        -6.65466         3.04031
| 28>    O        2.21813        -7.69052         3.50835
| 29>    C        2.24381        -5.98261         1.80616
| 30>    C        3.01939        -4.77002         1.65484
| 31>    C        2.91905        -3.82962         0.65917
| 32>    C        2.02304        -3.86772        -0.42810
| 33>    N        1.32645        -3.81741        -1.34102
| 34>    C        3.71006        -2.66423         0.59140
| 35>    N        4.31800        -1.69692         0.47440
| 36>    C        1.29054        -6.43939         0.92547
| 37>    C        0.48107        -7.57902         0.96375
| 38>    C       -0.42794        -7.85781        -0.06772
| 39>    C       -1.13334        -9.01879         0.16330
| 40>    C       -0.77828        -9.65292         1.38685
| 41>    S        0.44492        -8.79817         2.24052
| 42>    C       -1.57189       -10.79418         1.47765
| 43>    C       -2.38704       -10.83683         0.32069
| 44>    N       -2.10808        -9.75169        -0.46675
| 45>    C       -3.24445       -11.93189         0.27575
| 46>    C       -3.10060       -12.73828         1.39452
| 47>    S       -1.88486       -12.13287         2.51266
| 48>    C       -3.78447       -13.92712         1.74849
| 49>    C       -4.74097       -14.54327         1.00904
| 50>    C       -5.43743       -15.72186         1.39754
| 51>    C       -6.40103       -16.29173         0.59455
| 52>    C       -7.14365       -17.42659         0.91261
| 53>    C       -6.95329       -18.12030         2.18960
| 54>    C       -6.05645       -17.74908         3.12846
| 55>    S       -5.01210       -16.40069         2.96718
| 56>    C       -7.88417       -19.19313         2.17732
| 57>    C       -8.61420       -19.18126         0.98632
| 58>    C       -9.52932       -20.25827         0.93295
| 59>    C       -9.47604       -21.02453         2.05363
| 60>    S       -8.31829       -20.48657         3.22018
| 61>    C       -8.16066       -18.07435         0.17909
| 62>    C       -8.60420       -17.69122        -1.10572
| 63>    C       -9.69026       -18.18510        -1.75685
| 64>    C      -10.08184       -17.81536        -3.06334
| 65>    C      -11.21515       -18.25449        -3.72887
| 66>    C      -11.29882       -17.72916        -5.01496
| 67>    C      -10.21789       -16.88160        -5.35441
| 68>    S       -9.10279       -16.72785        -4.04766
| 69>    C      -10.42708       -16.46258        -6.66424
| 70>    C      -11.64152       -17.05788        -7.09682
| 71>    N      -12.15656       -17.81647        -6.07796
| 72>    C      -11.98725       -16.74588        -8.40246
| 73>    C      -11.04118       -15.92476        -9.00284
| 74>    S       -9.71266       -15.52182        -7.91223
| 75>    C      -10.98848       -15.45814       -10.32864
| 76>    C      -11.99401       -15.56830       -11.24702
| 77>    C      -11.92069       -15.12223       -12.57957
| 78>    C      -10.83049       -14.87823       -13.37622
| 79>    C      -11.00879       -14.01170       -14.56730
| 80>    O      -12.05693       -13.61511       -15.02802
| 81>    C       -9.64286       -13.70019       -15.03854
| 82>    C       -9.24890       -12.86117       -16.03950
| 83>    C       -7.86851       -12.70178       -16.29828
| 84>    C       -6.92317       -13.41190       -15.50358
| 85>    C       -5.54813       -13.24501       -15.76235
| 86>    C       -5.13145       -12.41582       -16.76560
| 87>    C       -6.06703       -11.71534       -17.55169
| 88>    C       -7.40754       -11.85401       -17.32389
| 89>    F       -5.62996       -10.90727       -18.52897
| 90>    F       -3.82236       -12.26078       -17.01137
| 91>    C       -7.36324       -14.27809       -14.47573
| 92>    C       -8.70532       -14.42782       -14.25319
| 93>    C       -9.44377       -15.26689       -13.30753
| 94>    C       -8.91748       -16.37399       -12.68557
| 95>    C       -9.67643       -17.32439       -11.97787
| 96>    N      -10.24192       -18.15279       -11.41818
| 97>    C       -7.55913       -16.74027       -12.74921
| 98>    N       -6.46042       -17.07522       -12.75307
| 99>    H        6.85846        -2.17758         4.03235
|100>    H        6.06052        -6.12116         6.92609
|101>    H        5.10952        -2.91249         2.50625
|102>    H        4.26340        -6.90191         5.37537
|103>    H        1.12192        -5.83356         0.04345
|104>    H       -0.53612        -7.21679        -0.92415
|105>    H       -2.53821        -9.53076        -1.34767
|106>    H       -3.93871       -12.13692        -0.51744
|107>    H       -3.50137       -14.35549         2.70104
|108>    H       -5.02518       -14.13103         0.05094
|109>    H       -6.58920       -15.80365        -0.35256
|110>    H       -5.93457       -18.28111         4.05873
|111>    H      -10.19082       -20.48228         0.11670
|112>    H      -10.05696       -21.89813         2.27668
|113>    H       -8.02295       -16.92936        -1.61054
|114>    H      -10.33240       -18.90296        -1.27010
|115>    H      -11.92953       -18.92356        -3.28510
|116>    H      -12.99218       -18.37311        -6.12127
|117>    H      -12.85483       -17.11433        -8.91635
|118>    H      -10.08114       -14.93819       -10.60937
|119>    H      -12.95160       -15.95090       -10.92375
|120>    H      -12.86683       -14.87073       -13.05086
|121>    H       -9.97946       -12.32714       -16.62781
|122>    H       -4.81863       -13.77764       -15.17244
|123>    H       -8.11149       -11.31085       -17.93475
|124>    H       -6.62428       -14.79667       -13.88626
|125> *
|126>
|127>                          ****END OF INPUT****

CARTESIAN COORDINATES (ANGSTROEM)
---------------------------------
  C      6.672360   -3.041310    4.651400
  C      7.407730   -3.229680    5.788000
  F      8.355430   -2.346020    6.131600
  C      7.181130   -4.350280    6.610900
  F      7.917310   -4.510150    7.720260
  C      6.221810   -5.268110    6.285800
  C      5.447990   -5.101890    5.121260
  C      5.675520   -3.968850    4.288350
  C      4.910250   -3.780040    3.113830
  C      3.947970   -4.696510    2.782600
  C      3.731070   -5.826040    3.619730
  C      4.451010   -6.035730    4.759270
  C      2.657060   -6.654660    3.040310
  O      2.218130   -7.690520    3.508350
  C      2.243810   -5.982610    1.806160
  C      3.019390   -4.770020    1.654840
  C      2.919050   -3.829620    0.659170
  C      2.023040   -3.867720   -0.428100
  N      1.326450   -3.817410   -1.341020
  C      3.710060   -2.664230    0.591400
  N      4.318000   -1.696920    0.474400
  C      1.290540   -6.439390    0.925470
  C      0.481070   -7.579020    0.963750
  C     -0.427940   -7.857810   -0.067720
  C     -1.133340   -9.018790    0.163300
  C     -0.778280   -9.652920    1.386850
  S      0.444920   -8.798170    2.240520
  C     -1.571890  -10.794180    1.477650
  C     -2.387040  -10.836830    0.320690
  N     -2.108080   -9.751690   -0.466750
  C     -3.244450  -11.931890    0.275750
  C     -3.100600  -12.738280    1.394520
  S     -1.884860  -12.132870    2.512660
  C     -3.784470  -13.927120    1.748490
  C     -4.740970  -14.543270    1.009040
  C     -5.437430  -15.721860    1.397540
  C     -6.401030  -16.291730    0.594550
  C     -7.143650  -17.426590    0.912610
  C     -6.953290  -18.120300    2.189600
  C     -6.056450  -17.749080    3.128460
  S     -5.012100  -16.400690    2.967180
  C     -7.884170  -19.193130    2.177320
  C     -8.614200  -19.181260    0.986320
  C     -9.529320  -20.258270    0.932950
  C     -9.476040  -21.024530    2.053630
  S     -8.318290  -20.486570    3.220180
  C     -8.160660  -18.074350    0.179090
  C     -8.604200  -17.691220   -1.105720
  C     -9.690260  -18.185100   -1.756850
  C    -10.081840  -17.815360   -3.063340
  C    -11.215150  -18.254490   -3.728870
  C    -11.298820  -17.729160   -5.014960
  C    -10.217890  -16.881600   -5.354410
  S     -9.102790  -16.727850   -4.047660
  C    -10.427080  -16.462580   -6.664240
  C    -11.641520  -17.057880   -7.096820
  N    -12.156560  -17.816470   -6.077960
  C    -11.987250  -16.745880   -8.402460
  C    -11.041180  -15.924760   -9.002840
  S     -9.712660  -15.521820   -7.912230
  C    -10.988480  -15.458140  -10.328640
  C    -11.994010  -15.568300  -11.247020
  C    -11.920690  -15.122230  -12.579570
  C    -10.830490  -14.878230  -13.376220
  C    -11.008790  -14.011700  -14.567300
  O    -12.056930  -13.615110  -15.028020
  C     -9.642860  -13.700190  -15.038540
  C     -9.248900  -12.861170  -16.039500
  C     -7.868510  -12.701780  -16.298280
  C     -6.923170  -13.411900  -15.503580
  C     -5.548130  -13.245010  -15.762350
  C     -5.131450  -12.415820  -16.765600
  C     -6.067030  -11.715340  -17.551690
  C     -7.407540  -11.854010  -17.323890
  F     -5.629960  -10.907270  -18.528970
  F     -3.822360  -12.260780  -17.011370
  C     -7.363240  -14.278090  -14.475730
  C     -8.705320  -14.427820  -14.253190
  C     -9.443770  -15.266890  -13.307530
  C     -8.917480  -16.373990  -12.685570
  C     -9.676430  -17.324390  -11.977870
  N    -10.241920  -18.152790  -11.418180
  C     -7.559130  -16.740270  -12.749210
  N     -6.460420  -17.075220  -12.753070
  H      6.858460   -2.177580    4.032350
  H      6.060520   -6.121160    6.926090
  H      5.109520   -2.912490    2.506250
  H      4.263400   -6.901910    5.375370
  H      1.121920   -5.833560    0.043450
  H     -0.536120   -7.216790   -0.924150
  H     -2.538210   -9.530760   -1.347670
  H     -3.938710  -12.136920   -0.517440
  H     -3.501370  -14.355490    2.701040
  H     -5.025180  -14.131030    0.050940
  H     -6.589200  -15.803650   -0.352560
  H     -5.934570  -18.281110    4.058730
  H    -10.190820  -20.482280    0.116700
  H    -10.056960  -21.898130    2.276680
  H     -8.022950  -16.929360   -1.610540
  H    -10.332400  -18.902960   -1.270100
  H    -11.929530  -18.923560   -3.285100
  H    -12.992180  -18.373110   -6.121270
  H    -12.854830  -17.114330   -8.916350
  H    -10.081140  -14.938190  -10.609370
  H    -12.951600  -15.950900  -10.923750
  H    -12.866830  -14.870730  -13.050860
  H     -9.979460  -12.327140  -16.627810
  H     -4.818630  -13.777640  -15.172440
  H     -8.111490  -11.310850  -17.934750
  H     -6.624280  -14.796670  -13.886260

 Total Charge           Charge          ....    0
 Multiplicity           Mult            ....    1
 Number of Electrons    NEL             ....  612
 Basis Dimension        Dim             .... 1330

ORBITAL ENERGIES
----------------

  NO   OCC          E(Eh)            E(eV)
   0   2.0000     -88.976345     -2421.1694
   1   2.0000     -88.967341     -2420.9244
   2   2.0000     -88.964508     -2420.8473
   3   2.0000     -88.961411     -2420.7631
   4   2.0000     -88.961228     -2420.7581
   5   2.0000     -88.960615     -2420.7414
   6   2.0000     -24.793811      -674.6739
   7   2.0000     -24.792732      -674.6445
   8   2.0000     -24.792326      -674.6335
   9   2.0000     -24.791516      -674.6114
  10   2.0000     -19.213990      -522.8393
  11   2.0000     -19.204072      -522.5694
  12   2.0000     -14.476584      -393.9279
  13   2.0000     -14.474336      -393.8667
  14   2.0000     -14.411678      -392.1617
  15   2.0000     -14.407459      -392.0469
  16   2.0000     -14.407420      -392.0458
  17   2.0000     -14.406926      -392.0324
  18   2.0000     -10.376433      -282.3571
  19   2.0000     -10.375515      -282.3321
  20   2.0000     -10.374758      -282.3115
  21   2.0000     -10.374243      -282.2975
  22   2.0000     -10.362584      -281.9802
  23   2.0000     -10.355503      -281.7876
  24   2.0000     -10.335193      -281.2349
  25   2.0000     -10.333910      -281.2000
  26   2.0000     -10.332870      -281.1717
  27   2.0000     -10.331480      -281.1339
  28   2.0000     -10.331358      -281.1306
  29   2.0000     -10.330402      -281.1045
  30   2.0000     -10.325552      -280.9726
  31   2.0000     -10.322712      -280.8953
  32   2.0000     -10.322374      -280.8861
  33   2.0000     -10.321803      -280.8705
  34   2.0000     -10.321025      -280.8494
  35   2.0000     -10.317342      -280.7492
  36   2.0000     -10.315339      -280.6947
  37   2.0000     -10.314457      -280.6706
  38   2.0000     -10.313036      -280.6320
  39   2.0000     -10.311337      -280.5857
  40   2.0000     -10.310730      -280.5692
  41   2.0000     -10.309653      -280.5399
  42   2.0000     -10.309413      -280.5334
  43   2.0000     -10.309226      -280.5283
  44   2.0000     -10.308181      -280.4999
  45   2.0000     -10.306699      -280.4595
  46   2.0000     -10.306692      -280.4593
  47   2.0000     -10.305026      -280.4140
  48   2.0000     -10.304764      -280.4069
  49   2.0000     -10.304366      -280.3961
  50   2.0000     -10.303216      -280.3647
  51   2.0000     -10.302913      -280.3565
  52   2.0000     -10.301477      -280.3174
  53   2.0000     -10.301231      -280.3107
  54   2.0000     -10.301212      -280.3102
  55   2.0000     -10.300743      -280.2975
  56   2.0000     -10.300542      -280.2920
  57   2.0000     -10.300506      -280.2910
  58   2.0000     -10.300052      -280.2787
  59   2.0000     -10.299465      -280.2627
  60   2.0000     -10.297711      -280.2150
  61   2.0000     -10.296381      -280.1788
  62   2.0000     -10.296251      -280.1752
  63   2.0000     -10.295845      -280.1642
  64   2.0000     -10.295391      -280.1518
  65   2.0000     -10.294887      -280.1381
  66   2.0000     -10.294785      -280.1354
  67   2.0000     -10.294540      -280.1287
  68   2.0000     -10.294200      -280.1194
  69   2.0000     -10.294064      -280.1157
  70   2.0000     -10.292783      -280.0809
  71   2.0000     -10.292031      -280.0604
  72   2.0000     -10.289002      -279.9780
  73   2.0000     -10.288598      -279.9670
  74   2.0000     -10.286809      -279.9183
  75   2.0000     -10.286030      -279.8971
  76   2.0000     -10.284893      -279.8662
  77   2.0000     -10.284761      -279.8626
  78   2.0000     -10.284165      -279.8463
  79   2.0000     -10.282944      -279.8131
  80   2.0000     -10.282253      -279.7943
  81   2.0000     -10.282035      -279.7884
  82   2.0000     -10.280202      -279.7385
  83   2.0000     -10.279310      -279.7143
  84   2.0000      -8.071737      -219.6431
  85   2.0000      -8.062338      -219.3874
  86   2.0000      -8.059438      -219.3085
  87   2.0000      -8.056943      -219.2406
  88   2.0000      -8.055220      -219.1937
  89   2.0000      -8.053951      -219.1591
  90   2.0000      -6.041230      -164.3902
  91   2.0000      -6.036834      -164.2706
  92   2.0000      -6.033629      -164.1834
  93   2.0000      -6.031911      -164.1366
  94   2.0000      -6.029028      -164.0582
  95   2.0000      -6.027869      -164.0267
  96   2.0000      -6.026334      -163.9849
  97   2.0000      -6.025022      -163.9492
  98   2.0000      -6.024911      -163.9462
  99   2.0000      -6.023859      -163.9175
 100   2.0000      -6.023834      -163.9168
 101   2.0000      -6.022124      -163.8703
 102   2.0000      -6.020933      -163.8379
 103   2.0000      -6.020919      -163.8375
 104   2.0000      -6.019187      -163.7904
 105   2.0000      -6.019002      -163.7854
 106   2.0000      -6.016560      -163.7189
 107   2.0000      -6.015402      -163.6874
 108   2.0000      -1.315819       -35.8052
 109   2.0000      -1.314358       -35.7655
 110   2.0000      -1.300986       -35.4016
 111   2.0000      -1.299560       -35.3628
 112   2.0000      -1.129633       -30.7389
 113   2.0000      -1.118982       -30.4491
 114   2.0000      -1.097831       -29.8735
 115   2.0000      -1.094993       -29.7963
 116   2.0000      -1.013648       -27.5828
 117   2.0000      -1.011212       -27.5165
 118   2.0000      -1.010046       -27.4847
 119   2.0000      -0.998939       -27.1825
 120   2.0000      -0.996377       -27.1128
 121   2.0000      -0.988346       -26.8943
 122   2.0000      -0.987285       -26.8654
 123   2.0000      -0.986484       -26.8436
 124   2.0000      -0.982161       -26.7259
 125   2.0000      -0.981115       -26.6975
 126   2.0000      -0.976679       -26.5768
 127   2.0000      -0.975749       -26.5515
 128   2.0000      -0.973789       -26.4981
 129   2.0000      -0.973033       -26.4776
 130   2.0000      -0.935468       -25.4554
 131   2.0000      -0.927919       -25.2500
 132   2.0000      -0.925769       -25.1915
 133   2.0000      -0.915430       -24.9101
 134   2.0000      -0.911947       -24.8153
 135   2.0000      -0.901697       -24.5364
 136   2.0000      -0.895162       -24.3586
 137   2.0000      -0.890055       -24.2196
 138   2.0000      -0.888378       -24.1740
 139   2.0000      -0.885104       -24.0849
 140   2.0000      -0.883210       -24.0334
 141   2.0000      -0.875317       -23.8186
 142   2.0000      -0.868818       -23.6417
 143   2.0000      -0.853318       -23.2200
 144   2.0000      -0.850315       -23.1383
 145   2.0000      -0.848228       -23.0815
 146   2.0000      -0.842894       -22.9363
 147   2.0000      -0.837820       -22.7982
 148   2.0000      -0.834947       -22.7201
 149   2.0000      -0.833049       -22.6684
 150   2.0000      -0.826835       -22.4993
 151   2.0000      -0.821989       -22.3675
 152   2.0000      -0.818330       -22.2679
 153   2.0000      -0.809155       -22.0182
 154   2.0000      -0.804132       -21.8815
 155   2.0000      -0.794979       -21.6325
 156   2.0000      -0.775410       -21.1000
 157   2.0000      -0.764309       -20.7979
 158   2.0000      -0.761982       -20.7346
 159   2.0000      -0.757693       -20.6179
 160   2.0000      -0.749114       -20.3844
 161   2.0000      -0.741942       -20.1893
 162   2.0000      -0.729189       -19.8423
 163   2.0000      -0.726490       -19.7688
 164   2.0000      -0.717500       -19.5242
 165   2.0000      -0.712713       -19.3939
 166   2.0000      -0.709465       -19.3055
 167   2.0000      -0.702761       -19.1231
 168   2.0000      -0.697848       -18.9894
 169   2.0000      -0.690168       -18.7804
 170   2.0000      -0.688560       -18.7367
 171   2.0000      -0.681361       -18.5408
 172   2.0000      -0.676564       -18.4103
 173   2.0000      -0.674858       -18.3638
 174   2.0000      -0.672533       -18.3005
 175   2.0000      -0.660740       -17.9796
 176   2.0000      -0.658035       -17.9060
 177   2.0000      -0.654744       -17.8165
 178   2.0000      -0.650746       -17.7077
 179   2.0000      -0.648291       -17.6409
 180   2.0000      -0.648032       -17.6339
 181   2.0000      -0.646886       -17.6027
 182   2.0000      -0.637226       -17.3398
 183   2.0000      -0.635157       -17.2835
 184   2.0000      -0.631608       -17.1869
 185   2.0000      -0.628512       -17.1027
 186   2.0000      -0.626520       -17.0485
 187   2.0000      -0.625106       -17.0100
 188   2.0000      -0.619813       -16.8660
 189   2.0000      -0.617381       -16.7998
 190   2.0000      -0.612779       -16.6746
 191   2.0000      -0.608091       -16.5470
 192   2.0000      -0.605741       -16.4830
 193   2.0000      -0.599019       -16.3001
 194   2.0000      -0.590316       -16.0633
 195   2.0000      -0.587643       -15.9906
 196   2.0000      -0.583575       -15.8799
 197   2.0000      -0.580500       -15.7962
 198   2.0000      -0.579142       -15.7593
 199   2.0000      -0.578074       -15.7302
 200   2.0000      -0.574625       -15.6363
 201   2.0000      -0.571402       -15.5486
 202   2.0000      -0.570742       -15.5307
 203   2.0000      -0.567143       -15.4327
 204   2.0000      -0.561838       -15.2884
 205   2.0000      -0.555150       -15.1064
 206   2.0000      -0.549851       -14.9622
 207   2.0000      -0.548099       -14.9145
 208   2.0000      -0.547843       -14.9076
 209   2.0000      -0.546859       -14.8808
 210   2.0000      -0.545279       -14.8378
 211   2.0000      -0.544140       -14.8068
 212   2.0000      -0.542237       -14.7550
 213   2.0000      -0.540927       -14.7194
 214   2.0000      -0.539198       -14.6723
 215   2.0000      -0.533981       -14.5304
 216   2.0000      -0.531690       -14.4680
 217   2.0000      -0.530222       -14.4281
 218   2.0000      -0.528565       -14.3830
 219   2.0000      -0.526886       -14.3373
 220   2.0000      -0.525693       -14.3048
 221   2.0000      -0.523379       -14.2419
 222   2.0000      -0.522356       -14.2140
 223   2.0000      -0.516453       -14.0534
 224   2.0000      -0.515606       -14.0303
 225   2.0000      -0.514695       -14.0056
 226   2.0000      -0.511110       -13.9080
 227   2.0000      -0.509620       -13.8675
 228   2.0000      -0.507903       -13.8207
 229   2.0000      -0.505683       -13.7603
 230   2.0000      -0.502129       -13.6636
 231   2.0000      -0.499118       -13.5817
 232   2.0000      -0.497663       -13.5421
 233   2.0000      -0.493618       -13.4320
 234   2.0000      -0.492115       -13.3911
 235   2.0000      -0.491904       -13.3854
 236   2.0000      -0.488320       -13.2879
 237   2.0000      -0.485953       -13.2234
 238   2.0000      -0.483410       -13.1543
 239   2.0000      -0.482371       -13.1260
 240   2.0000      -0.479888       -13.0584
 241   2.0000      -0.479152       -13.0384
 242   2.0000      -0.477182       -12.9848
 243   2.0000      -0.472769       -12.8647
 244   2.0000      -0.470776       -12.8105
 245   2.0000      -0.467648       -12.7253
 246   2.0000      -0.464465       -12.6387
 247   2.0000      -0.464177       -12.6309
 248   2.0000      -0.461877       -12.5683
 249   2.0000      -0.460525       -12.5315
 250   2.0000      -0.458986       -12.4897
 251   2.0000      -0.456645       -12.4259
 252   2.0000      -0.456172       -12.4131
 253   2.0000      -0.453989       -12.3537
 254   2.0000      -0.451512       -12.2863
 255   2.0000      -0.446385       -12.1468
 256   2.0000      -0.445669       -12.1273
 257   2.0000      -0.445109       -12.1120
 258   2.0000      -0.443440       -12.0666
 259   2.0000      -0.441984       -12.0270
 260   2.0000      -0.439113       -11.9489
 261   2.0000      -0.437898       -11.9158
 262   2.0000      -0.437033       -11.8923
 263   2.0000      -0.435340       -11.8462
 264   2.0000      -0.431947       -11.7539
 265   2.0000      -0.428145       -11.6504
 266   2.0000      -0.427077       -11.6214
 267   2.0000      -0.426350       -11.6016
 268   2.0000      -0.425228       -11.5710
 269   2.0000      -0.423791       -11.5319
 270   2.0000      -0.421493       -11.4694
 271   2.0000      -0.421177       -11.4608
 272   2.0000      -0.420182       -11.4337
 273   2.0000      -0.417865       -11.3707
 274   2.0000      -0.416520       -11.3341
 275   2.0000      -0.414473       -11.2784
 276   2.0000      -0.412732       -11.2310
 277   2.0000      -0.409328       -11.1384
 278   2.0000      -0.406303       -11.0561
 279   2.0000      -0.400643       -10.9020
 280   2.0000      -0.399457       -10.8698
 281   2.0000      -0.395528       -10.7629
 282   2.0000      -0.386665       -10.5217
 283   2.0000      -0.384263       -10.4563
 284   2.0000      -0.379226       -10.3193
 285   2.0000      -0.375806       -10.2262
 286   2.0000      -0.365320        -9.9409
 287   2.0000      -0.352626        -9.5954
 288   2.0000      -0.349118        -9.5000
 289   2.0000      -0.339340        -9.2339
 290   2.0000      -0.337252        -9.1771
 291   2.0000      -0.333952        -9.0873
 292   2.0000      -0.330111        -8.9828
 293   2.0000      -0.326407        -8.8820
 294   2.0000      -0.317407        -8.6371
 295   2.0000      -0.312037        -8.4910
 296   2.0000      -0.310727        -8.4553
 297   2.0000      -0.304163        -8.2767
 298   2.0000      -0.295526        -8.0417
 299   2.0000      -0.293283        -7.9806
 300   2.0000      -0.288807        -7.8588
 301   2.0000      -0.287485        -7.8229
 302   2.0000      -0.281903        -7.6710
 303   2.0000      -0.263305        -7.1649
 304   2.0000      -0.245017        -6.6672
 305   2.0000      -0.217110        -5.9079
 306   0.0000      -0.099427        -2.7055
 307   0.0000      -0.091976        -2.5028
 308   0.0000      -0.069050        -1.8789
 309   0.0000      -0.054915        -1.4943
 310   0.0000      -0.050999        -1.3878

MULLIKEN ATOMIC CHARGES
-----------------------
   0 C :   -0.109496
   1 C :    0.241898
   2 F :   -0.173626
   3 C :    0.237373
   4 F :   -0.174226
   5 C :   -0.106990
   6 C :    0.118160
   7 C :    0.113421
   8 C :   -0.087334
   9 C :    0.044835
  10 C :    0.001485
  11 C :   -0.088068
  12 C :    0.160877
  13 O :   -0.180553
  14 C :   -0.103135
  15 C :    0.339070
  16 C :   -0.366827
  17 C :   -0.184384
  18 N :    0.134444
  19 C :   -0.184867
  20 N :    0.140979
  21 C :   -0.026683
  22 C :   -0.052662
  23 C :   -0.110809
  24 C :    0.176548
  25 C :   -0.091438
  26 S :    0.202886
  27 C :   -0.127174
  28 C :    0.129371
  29 N :   -0.018218
  30 C :   -0.072195
  31 C :   -0.071433
  32 S :    0.154472
  33 C :    0.051123
  34 C :   -0.015949
  35 C :   -0.025516
  36 C :   -0.048830
  37 C :    0.059024
  38 C :    0.060123
  39 C :   -0.115505
  40 S :    0.107348
  41 C :   -0.112259
  42 C :    0.055758
  43 C :   -0.006644
  44 C :   -0.067579
  45 S :    0.130329
  46 C :    0.089869
  47 C :   -0.034129
  48 C :    0.003723
  49 C :   -0.030737
  50 C :   -0.094389
  51 C :    0.147403
  52 C :   -0.123809
  53 S :    0.117598
  54 C :   -0.102505
  55 C :    0.111531
  56 N :   -0.015025
  57 C :   -0.025089
  58 C :   -0.107900
  59 S :    0.150972
  60 C :    0.084802
  61 C :   -0.008862
  62 C :    0.050897
  63 C :   -0.143117
  64 C :    0.132599
  65 O :   -0.150797
  66 C :    0.017945
  67 C :   -0.086610
  68 C :    0.113102
  69 C :    0.109771
  70 C :   -0.105868
  71 C :    0.238508
  72 C :    0.235484
  73 C :   -0.103672
  74 F :   -0.175320
  75 F :   -0.174636
  76 C :   -0.082186
  77 C :    0.027405
  78 C :    0.281246
  79 C :   -0.354332
  80 C :   -0.204257
  81 N :    0.166811
  82 C :   -0.173279
  83 N :    0.141536
  84 H :    0.006132
  85 H :   -0.002017
  86 H :   -0.008092
  87 H :   -0.012881
  88 H :    0.003968
  89 H :   -0.001353
  90 H :    0.127879
  91 H :   -0.025822
  92 H :    0.001552
  93 H :   -0.010093
  94 H :   -0.024316
  95 H :    0.035799
  96 H :   -0.015016
  97 H :    0.025283
  98 H :   -0.022362
  99 H :   -0.033267
 100 H :   -0.027682
 101 H :    0.127145
 102 H :   -0.015277
 103 H :    0.008452
 104 H :   -0.006884
 105 H :    0.023105
 106 H :   -0.011915
 107 H :    0.003852
 108 H :   -0.001508
 109 H :   -0.006494
Sum of atomic charges:   -0.0000000

LOEWDIN ATOMIC CHARGES
----------------------
   0 C :   -0.029380
   1 C :    0.065011
   2 F :   -0.051169
   3 C :    0.066190
   4 F :   -0.051730
   5 C :   -0.034453
   6 C :   -0.009578
   7 C :   -0.007752
   8 C :    0.015957
   9 C :   -0.021415
  10 C :   -0.049589
  11 C :    0.026079
  12 C :    0.081582
  13 O :   -0.170205
  14 C :   -0.121612
  15 C :    0.078119
  16 C :   -0.152456
  17 C :   -0.020014
  18 N :   -0.064196
  19 C :   -0.017746
  20 N :   -0.062638
  21 C :    0.054298
  22 C :   -0.177257
  23 C :   -0.031116
  24 C :   -0.021823
  25 C :   -0.199683
  26 S :    0.485022
  27 C :   -0.232654
  28 C :    0.006418
  29 N :    0.055819
  30 C :   -0.080897
  31 C :   -0.142428
  32 S :    0.429685
  33 C :   -0.057976
  34 C :   -0.031807
  35 C :   -0.164565
  36 C :   -0.017615
  37 C :   -0.024116
  38 C :   -0.052359
  39 C :   -0.138069
  40 S :    0.448314
  41 C :   -0.197335
  42 C :   -0.039262
  43 C :   -0.067038
  44 C :   -0.166514
  45 S :    0.425852
  46 C :   -0.044577
  47 C :   -0.019179
  48 C :   -0.053911
  49 C :   -0.138349
  50 C :   -0.083567
  51 C :   -0.003528
  52 C :   -0.227880
  53 S :    0.405442
  54 C :   -0.203371
  55 C :   -0.016080
  56 N :    0.061626
  57 C :   -0.036802
  58 C :   -0.172197
  59 S :    0.424459
  60 C :    0.027444
  61 C :   -0.056749
  62 C :    0.069542
  63 C :   -0.111842
  64 C :    0.079753
  65 O :   -0.152579
  66 C :   -0.051867
  67 C :    0.026479
  68 C :   -0.010545
  69 C :   -0.007267
  70 C :   -0.030924
  71 C :    0.064987
  72 C :    0.065215
  73 C :   -0.033891
  74 F :   -0.052517
  75 F :   -0.052024
  76 C :    0.010802
  77 C :   -0.019392
  78 C :    0.064799
  79 C :   -0.153323
  80 C :   -0.016186
  81 N :   -0.051309
  82 C :   -0.020050
  83 N :   -0.063995
  84 H :    0.047213
  85 H :    0.043941
  86 H :    0.039465
  87 H :    0.039052
  88 H :    0.049529
  89 H :    0.039735
  90 H :    0.094596
  91 H :    0.029949
  92 H :    0.021038
  93 H :    0.033063
  94 H :    0.035546
  95 H :    0.036547
  96 H :    0.027683
  97 H :    0.023582
  98 H :    0.019378
  99 H :    0.031042
 100 H :    0.030378
 101 H :    0.094672
 102 H :    0.035352
 103 H :    0.034776
 104 H :    0.031110
 105 H :    0.045540
 106 H :    0.039320
 107 H :    0.046360
 108 H :    0.044053
 109 H :    0.038532

  Mayer bond orders larger than 0.100000
B(  0-C ,  1-C ) :   1.4368 B(  0-C ,  5-C ) :   0.1087 B(  0-C ,  7-C ) :   1.1932
B(  0-C , 84-H ) :   1.0069 B(  1-C ,  2-F ) :   1.1327 B(  1-C ,  3-C ) :   1.1935
B(  3-C ,  4-F ) :   1.1313 B(  3-C ,  5-C ) :   1.4415 B(  5-C ,  6-C ) :   1.1923
B(  5-C , 85-H ) :   1.0072 B(  6-C ,  7-C ) :   1.2592 B(  6-C , 11-C ) :   1.1832
B(  7-C ,  8-C ) :   1.2092 B(  8-C ,  9-C ) :   1.4599 B(  8-C , 86-H ) :   0.9893
B(  9-C , 10-C ) :   1.2225 B(  9-C , 15-C ) :   0.9759 B( 10-C , 11-C ) :   1.4727
B( 10-C , 12-C ) :   0.9530 B( 11-C , 87-H ) :   1.0172 B( 12-C , 13-O ) :   2.1356
B( 12-C , 14-C ) :   0.9857 B( 14-C , 15-C ) :   1.1029 B( 14-C , 21-C ) :   1.4389
B( 15-C , 16-C ) :   1.6004 B( 16-C , 17-C ) :   1.1481 B( 16-C , 19-C ) :   1.1529
B( 17-C , 18-N ) :   2.9532 B( 19-C , 20-N ) :   2.9571 B( 21-C , 22-C ) :   1.3189
B( 21-C , 88-H ) :   0.9368 B( 22-C , 23-C ) :   1.3024 B( 22-C , 26-S ) :   1.0638
B( 23-C , 24-C ) :   1.2775 B( 23-C , 89-H ) :   1.0345 B( 24-C , 25-C ) :   1.3176
B( 24-C , 29-N ) :   1.1391 B( 25-C , 26-S ) :   1.0272 B( 25-C , 27-C ) :   1.4086
B( 27-C , 28-C ) :   1.3767 B( 27-C , 32-S ) :   1.0289 B( 28-C , 29-N ) :   1.1738
B( 28-C , 30-C ) :   1.2456 B( 29-N , 90-H ) :   0.9349 B( 30-C , 31-C ) :   1.4609
B( 30-C , 91-H ) :   1.0093 B( 31-C , 32-S ) :   1.1105 B( 31-C , 33-C ) :   1.1484
B( 33-C , 34-C ) :   1.6422 B( 33-C , 92-H ) :   0.9448 B( 34-C , 35-C ) :   1.1670
B( 34-C , 93-H ) :   0.9865 B( 35-C , 36-C ) :   1.5126 B( 35-C , 40-S ) :   1.0355
B( 36-C , 37-C ) :   1.2174 B( 36-C , 94-H ) :   0.9775 B( 37-C , 38-C ) :   1.0479
B( 37-C , 46-C ) :   1.3719 B( 38-C , 39-C ) :   1.6124 B( 38-C , 41-C ) :   1.1787
B( 39-C , 40-S ) :   1.1387 B( 39-C , 95-H ) :   0.9406 B( 41-C , 42-C ) :   1.4503
B( 41-C , 45-S ) :   1.0817 B( 42-C , 43-C ) :   1.2091 B( 42-C , 46-C ) :   1.0851
B( 43-C , 44-C ) :   1.5883 B( 43-C , 96-H ) :   0.9985 B( 44-C , 45-S ) :   1.1546
B( 44-C , 97-H ) :   0.9653 B( 46-C , 47-C ) :   1.1927 B( 47-C , 48-C ) :   1.5905
B( 47-C , 98-H ) :   0.9549 B( 48-C , 49-C ) :   1.1772 B( 48-C , 99-H ) :   0.9801
B( 49-C , 50-C ) :   1.4383 B( 49-C , 53-S ) :   1.0892 B( 50-C , 51-C ) :   1.2107
B( 50-C ,100-H ) :   1.0240 B( 51-C , 52-C ) :   1.3879 B( 51-C , 56-N ) :   1.1705
B( 52-C , 53-S ) :   1.0227 B( 52-C , 54-C ) :   1.4122 B( 54-C , 55-C ) :   1.3522
B( 54-C , 59-S ) :   1.0591 B( 55-C , 56-N ) :   1.1561 B( 55-C , 57-C ) :   1.2876
B( 56-N ,101-H ) :   0.9346 B( 57-C , 58-C ) :   1.4133 B( 57-C ,102-H ) :   1.0051
B( 58-C , 59-S ) :   1.0717 B( 58-C , 60-C ) :   1.2256 B( 60-C , 61-C ) :   1.5653
B( 60-C ,103-H ) :   0.9504 B( 61-C , 62-C ) :   1.2303 B( 61-C ,104-H ) :   0.9597
B( 62-C , 63-C ) :   1.5643 B( 62-C ,105-H ) :   0.9317 B( 63-C , 64-C ) :   0.9630
B( 63-C , 78-C ) :   1.0711 B( 64-C , 65-O ) :   2.2594 B( 64-C , 66-C ) :   0.9140
B( 66-C , 67-C ) :   1.4799 B( 66-C , 77-C ) :   1.2239 B( 67-C , 68-C ) :   1.1895
B( 67-C ,106-H ) :   1.0158 B( 68-C , 69-C ) :   1.2592 B( 68-C , 73-C ) :   1.1939
B( 69-C , 70-C ) :   1.1925 B( 69-C , 76-C ) :   1.2124 B( 70-C , 71-C ) :   1.4409
B( 70-C , 73-C ) :   0.1087 B( 70-C ,107-H ) :   1.0066 B( 71-C , 72-C ) :   1.1943
B( 71-C , 75-F ) :   1.1309 B( 72-C , 73-C ) :   1.4437 B( 72-C , 74-F ) :   1.1301
B( 73-C ,108-H ) :   1.0064 B( 76-C , 77-C ) :   1.4641 B( 76-C ,109-H ) :   0.9922
B( 77-C , 78-C ) :   0.9894 B( 78-C , 79-C ) :   1.6122 B( 79-C , 80-C ) :   1.1758
B( 79-C , 82-C ) :   1.1347 B( 80-C , 81-N ) :   2.9944 B( 82-C , 83-N ) :   2.9776

-----------------------------------------------------------------------------
         ABSORPTION SPECTRUM VIA TRANSITION ELECTRIC DIPOLE MOMENTS
-----------------------------------------------------------------------------
State   Energy  Wavelength   fosc         T2         TX        TY        TZ
        (cm-1)    (nm)                  (au**2)     (au)      (au)      (au)
-----------------------------------------------------------------------------
   0   12769.2    783.1   1.667232338  42.98420  -2.96750  -1.96272  -5.50689
   1   15918.7    628.2   1.760049024  36.39921  -3.93097  -4.31269   1.53211
   2   19765.2    505.9   0.194252190   3.23550   1.45785   1.00969  -0.30117
   3   19867.2    503.3   0.357824164   5.92936   0.64103   2.12199  -1.00778
   4   21651.9    461.9   0.070677209   1.07463  -0.04501   0.95270   0.40615
   5   23213.4    430.8   0.286433415   4.06219   1.07692   0.27427   1.68143
   6   24126.6    414.5   0.314273197   4.28833  -0.03461  -1.32332   1.59247
   7   25146.9    397.7   0.018443460   0.24145  -0.39632   0.14544  -0.25145
   8   25235.1    396.3   0.015452228   0.20159  -0.04480  -0.27644   0.35094
   9   25582.8    390.9   0.047744732   0.61440   0.31148  -0.38710   0.60625
  10   26009.4    384.5   0.079543242   1.00681   0.20628  -0.48397   0.85442
  11   26320.5    379.9   0.179953654   2.25083   0.94310  -0.19352   1.15063
  12   27339.3    365.8   0.221002960   2.66125   0.27419   1.06324  -1.20648
  13   28051.6    356.5   0.010845273   0.12728   0.02603   0.22889  -0.27242
  14   28210.0    354.5   0.130661403   1.52482  -0.24754   0.56000  -1.07236
  15   28548.4    350.3   0.075235560   0.86759  -0.77301  -0.43170   0.28928
  16   28611.4    349.5   0.259043958   2.98065  -1.26083  -0.43480  -1.09631
  17   28772.7    347.6   0.006046424   0.06918  -0.11938  -0.09837  -0.21273
  18   28830.4    346.9   0.030764482   0.35130   0.17234  -0.35830   0.43956
  19   29721.3    336.5   0.006164903   0.06829  -0.21154  -0.13676  -0.06952
  20   29871.6    334.8   0.033409214   0.36820  -0.34936  -0.39644   0.29831
  21   30105.4    332.2   0.128113352   1.40096  -0.71569   0.18399  -0.92460
  22   30903.4    323.6   0.029826310   0.31774  -0.29165  -0.04440  -0.48032
  23   31535.0    317.1   0.008502384   0.08876  -0.20119  -0.21762   0.03037
  24   31620.6    316.2   0.099139227   1.03217   0.43277   0.89642  -0.20322
  25   31900.7    313.5   0.187999630   1.94014   0.26745   1.10539  -0.80419
  26   32318.4    309.4   0.061745806   0.62897  -0.08458  -0.39566  -0.68211
  27   32499.5    307.7   0.033226216   0.33657   0.48363   0.30568   0.09610
  28   32694.8    305.9   0.039562404   0.39836   0.52165   0.23197   0.26913
  29   32997.8    303.1   0.002741426   0.02735   0.13241   0.08908   0.04341
  30   33068.8    302.4   0.168581697   1.67829   1.05791   0.22758   0.71227
  31   33414.0    299.3   0.257728312   2.53927  -0.12342  -1.09398   1.15206
  32   33670.8    297.0   0.142656701   1.39481  -1.02427  -0.22345  -0.54383
  33   34451.8    290.3   0.576343101   5.50738   1.05119  -0.57519   2.01780
  34   34581.5    289.2   0.108426108   1.03220   0.62379   0.79578  -0.09910
  35   34736.9    287.9   0.353711930   3.35223   0.85863   1.15445  -1.13235
  36   35007.0    285.7   0.023124047   0.21746  -0.22029  -0.37447   0.16943
  37   35589.4    281.0   0.086344000   0.79871   0.31978   0.57894  -0.60106
  38   35727.9    279.9   0.004535590   0.04179  -0.11496  -0.14132  -0.09276
  39   35960.5    278.1   0.013217771   0.12101   0.30489  -0.03077   0.16463
  40   36106.5    277.0   0.051303849   0.46778  -0.41004  -0.49583   0.23195
  41   36357.9    275.0   0.026876219   0.24336  -0.33005  -0.23478  -0.28161
  42   36622.1    273.1   0.083430304   0.74999   0.60656   0.03228   0.61728
  43   36944.6    270.7   0.054409495   0.48484   0.16893  -0.11234   0.66610
  44   37061.6    269.8   0.078203421   0.69467  -0.01856   0.38044  -0.74134
  45   37320.2    268.0   0.022189155   0.19574   0.38692   0.20770   0.05375
  46   37459.2    267.0   0.030515494   0.26819  -0.26126   0.11103  -0.43313
  47   37756.8    264.9   0.085494054   0.74545   0.23524   0.66480  -0.49814
  48   37880.2    264.0   0.012406024   0.10782  -0.27080  -0.18142  -0.03968
  49   38033.5    262.9   0.015577129   0.13483   0.16814  -0.04078   0.32388
  50   38263.1    261.3   0.030588799   0.26318   0.10224   0.46524  -0.19047
  51   38664.7    258.6   0.004802926   0.04089   0.17972   0.09244   0.00704
  52   38813.7    257.6   0.069302243   0.58781  -0.03554  -0.54255   0.54055
  53   39065.4    256.0   0.002032801   0.01713  -0.11961  -0.03369  -0.04111
  54   39185.3    255.2   0.068445168   0.57504  -0.62873  -0.41459  -0.08860
  55   39681.2    252.0   0.062866142   0.52156  -0.30483  -0.65311  -0.04567
  56   39906.6    250.6   0.121270355   1.00043   0.17052   0.96119  -0.21784
  57   40004.7    250.0   0.090591944   0.74551  -0.28625  -0.75169   0.31390
  58   40300.2    248.1   0.118184109   0.96545   0.92461  -0.07121   0.32477

FINAL SINGLE POINT ENERGY     -5793.057958432923

DIPOLE MOMENT
-------------
                                X             Y             Z
Electronic contribution:     51.53643      37.29977       1.47127
Nuclear contribution   :    -54.91982     -40.10510       1.32452
                        -----------------------------------------
Total Dipole Moment    :     -3.38339      -2.80533       2.79579
                        -----------------------------------------
Magnitude (a.u.)       :      5.20900
Magnitude (Debye)      :     13.24022

Rotational constants in cm-1:     0.000460     0.000152     0.000117
Rotational constants in MHz :    13.794207     4.547001     3.494104

                             ****ORCA TERMINATED NORMALLY****
TOTAL RUN TIME: 0 days 0 hours 12 minutes 13 seconds 911 msec
