                         Program Version 4.2.0 -  RELEASE  -
|  1> # ORCA input file
|  2> # SCF done       -168.590733049965          0.000645905735
|  3> ! CAM-B3LYP def2-SVP def2/J RIJCOSX Grid4 TightSCF
|  4> %maxcore 5000
|  5> %tddft
|  6>     Mode sTDDFT
|  7>     Ethresh 5.0
|  8>     maxcore 5000
|  9> end
| 10>
| 11> %pal
| 12>   nprocs 6
| 13>   end
| 14> * xyz 0 1
| 15>    C       -1.97388         1.56309         0.72131
| 16>    C       -2.28515         0.67079         1.71125
| 17>    C       -2.09379        -0.69967         1.52317
| 18>    C       -1.58748        -1.22488         0.34575
| 19>    C       -1.25294        -0.30922        -0.70112
| 20>    N       -0.74779        -0.74527        -1.86986
| 21>    C       -0.46083         0.13491        -2.79064
| 22>    C       -0.66601         1.51336        -2.58707
| 23>    N       -1.14873         1.97516        -1.46682
| 24>    C       -1.45365         1.08671        -0.49716
| 25>    C       -1.40869        -2.64600         0.19691
| 26>    C       -0.98640        -3.35529        -0.90762
| 27>    C       -0.93322        -4.73011        -0.67169
| 28>    C       -1.32331        -5.07577         0.63355
| 29>    S       -1.75375        -3.71144         1.56149
| 30>    C       -1.23443        -6.47966         0.77537
| 31>    C       -0.78692        -7.03092        -0.44301
| 32>    C       -0.61047        -5.94507        -1.40035
| 33>    C       -0.26886        -6.04448        -2.71586
| 34>    C       -0.09552        -7.28066        -3.37731
| 35>    N        0.00338        -8.26473        -3.95592
| 36>    C       -0.11499        -4.90678        -3.53798
| 37>    N        0.01818        -3.99337        -4.21813
| 38>    C       -0.62464        -8.41003        -0.39205
| 39>    C       -0.96324        -8.92011         0.85643
| 40>    S       -1.48688        -7.66546         1.97570
| 41>    C       -0.91474       -10.26574         1.26228
| 42>    C       -0.38893       -11.35295         0.54996
| 43>    C       -0.49555       -12.59961         1.26244
| 44>    N       -0.01408       -13.73207         0.74517
| 45>    C        0.56648       -13.65365        -0.43179
| 46>    C        1.13209       -14.90781        -0.99188
| 47>    O        1.22511       -15.92943        -0.34757
| 48>    C        1.59399       -14.80578        -2.38854
| 49>    C        1.69728       -13.64781        -3.04798
| 50>    C        1.36113       -12.34068        -2.45379
| 51>    O        1.64108       -11.29036        -2.98839
| 52>    C        0.67488       -12.41476        -1.13841
| 53>    N        0.19707       -11.29240        -0.64794
| 54>    C       -1.10012       -12.46460         2.52025
| 55>    S       -1.51132       -10.80132         2.80288
| 56>    C       -1.34070       -13.47803         3.46525
| 57>    C       -1.17241       -14.84635         3.28433
| 58>    C       -1.49039       -15.55796         4.43462
| 59>    C       -1.88541       -14.73161         5.50678
| 60>    S       -1.90096       -13.07820         5.08616
| 61>    C       -2.13217       -15.54274         6.63826
| 62>    C       -1.89615       -16.88390         6.29040
| 63>    C       -1.51631       -16.94332         4.88921
| 64>    C       -1.29034       -18.06446         4.14818
| 65>    C       -1.33205       -19.35752         4.71394
| 66>    N       -1.35856       -20.41438         5.15814
| 67>    C       -1.05587       -18.03391         2.75538
| 68>    N       -0.91645       -18.04641         1.61795
| 69>    C       -2.10738       -17.76503         7.35233
| 70>    C       -2.49782       -17.11780         8.50559
| 71>    S       -2.61367       -15.37284         8.26521
| 72>    C       -2.79947       -17.67536         9.79860
| 73>    C       -3.26161       -16.86557        10.82284
| 74>    C       -3.56608       -17.36267        12.09186
| 75>    C       -3.41646       -18.69294        12.37666
| 76>    C       -2.94793       -19.56378        11.37449
| 77>    N       -2.80225       -20.87388        11.66599
| 78>    C       -2.36413       -21.66296        10.72437
| 79>    C       -2.04516       -21.17649         9.44167
| 80>    N       -2.17765       -19.91462         9.13334
| 81>    C       -2.63292       -19.06873        10.07596
| 82>    H       -2.11219         2.62590         0.83723
| 83>    H       -2.68496         1.01837         2.65196
| 84>    H       -2.35368        -1.37370         2.32739
| 85>    H       -0.05741        -0.25278        -3.71611
| 86>    H       -0.42855         2.23966        -3.35253
| 87>    H       -0.73028        -2.86572        -1.82869
| 88>    H       -0.27446        -9.04362        -1.18739
| 89>    H        1.88719       -15.74251        -2.84295
| 90>    H        2.07785       -13.60604        -4.05958
| 91>    H       -0.82431       -15.25670         2.35322
| 92>    H       -1.98303       -18.83132         7.31772
| 93>    H       -3.39500       -15.80938        10.63494
| 94>    H       -3.92393       -16.68052        12.84830
| 95>    H       -3.64492       -19.10533        13.34614
| 96>    H       -2.25489       -22.70923        10.97577
| 97>    H       -1.67730       -21.82580         8.65897
| 98> *
| 99>
|100>                          ****END OF INPUT****

CARTESIAN COORDINATES (ANGSTROEM)
---------------------------------
  C     -1.973880    1.563090    0.721310
  C     -2.285150    0.670790    1.711250
  C     -2.093790   -0.699670    1.523170
  C     -1.587480   -1.224880    0.345750
  C     -1.252940   -0.309220   -0.701120
  N     -0.747790   -0.745270   -1.869860
  C     -0.460830    0.134910   -2.790640
  C     -0.666010    1.513360   -2.587070
  N     -1.148730    1.975160   -1.466820
  C     -1.453650    1.086710   -0.497160
  C     -1.408690   -2.646000    0.196910
  C     -0.986400   -3.355290   -0.907620
  C     -0.933220   -4.730110   -0.671690
  C     -1.323310   -5.075770    0.633550
  S     -1.753750   -3.711440    1.561490
  C     -1.234430   -6.479660    0.775370
  C     -0.786920   -7.030920   -0.443010
  C     -0.610470   -5.945070   -1.400350
  C     -0.268860   -6.044480   -2.715860
  C     -0.095520   -7.280660   -3.377310
  N      0.003380   -8.264730   -3.955920
  C     -0.114990   -4.906780   -3.537980
  N      0.018180   -3.993370   -4.218130
  C     -0.624640   -8.410030   -0.392050
  C     -0.963240   -8.920110    0.856430
  S     -1.486880   -7.665460    1.975700
  C     -0.914740  -10.265740    1.262280
  C     -0.388930  -11.352950    0.549960
  C     -0.495550  -12.599610    1.262440
  N     -0.014080  -13.732070    0.745170
  C      0.566480  -13.653650   -0.431790
  C      1.132090  -14.907810   -0.991880
  O      1.225110  -15.929430   -0.347570
  C      1.593990  -14.805780   -2.388540
  C      1.697280  -13.647810   -3.047980
  C      1.361130  -12.340680   -2.453790
  O      1.641080  -11.290360   -2.988390
  C      0.674880  -12.414760   -1.138410
  N      0.197070  -11.292400   -0.647940
  C     -1.100120  -12.464600    2.520250
  S     -1.511320  -10.801320    2.802880
  C     -1.340700  -13.478030    3.465250
  C     -1.172410  -14.846350    3.284330
  C     -1.490390  -15.557960    4.434620
  C     -1.885410  -14.731610    5.506780
  S     -1.900960  -13.078200    5.086160
  C     -2.132170  -15.542740    6.638260
  C     -1.896150  -16.883900    6.290400
  C     -1.516310  -16.943320    4.889210
  C     -1.290340  -18.064460    4.148180
  C     -1.332050  -19.357520    4.713940
  N     -1.358560  -20.414380    5.158140
  C     -1.055870  -18.033910    2.755380
  N     -0.916450  -18.046410    1.617950
  C     -2.107380  -17.765030    7.352330
  C     -2.497820  -17.117800    8.505590
  S     -2.613670  -15.372840    8.265210
  C     -2.799470  -17.675360    9.798600
  C     -3.261610  -16.865570   10.822840
  C     -3.566080  -17.362670   12.091860
  C     -3.416460  -18.692940   12.376660
  C     -2.947930  -19.563780   11.374490
  N     -2.802250  -20.873880   11.665990
  C     -2.364130  -21.662960   10.724370
  C     -2.045160  -21.176490    9.441670
  N     -2.177650  -19.914620    9.133340
  C     -2.632920  -19.068730   10.075960
  H     -2.112190    2.625900    0.837230
  H     -2.684960    1.018370    2.651960
  H     -2.353680   -1.373700    2.327390
  H     -0.057410   -0.252780   -3.716110
  H     -0.428550    2.239660   -3.352530
  H     -0.730280   -2.865720   -1.828690
  H     -0.274460   -9.043620   -1.187390
  H      1.887190  -15.742510   -2.842950
  H      2.077850  -13.606040   -4.059580
  H     -0.824310  -15.256700    2.353220
  H     -1.983030  -18.831320    7.317720
  H     -3.395000  -15.809380   10.634940
  H     -3.923930  -16.680520   12.848300
  H     -3.644920  -19.105330   13.346140
  H     -2.254890  -22.709230   10.975770
  H     -1.677300  -21.825800    8.658970

 Total Charge           Charge          ....    0
 Multiplicity           Mult            ....    1
 Number of Electrons    NEL             ....  482
 Basis Dimension        Dim             .... 1038

ORBITAL ENERGIES
----------------

  NO   OCC          E(Eh)            E(eV)
   0   2.0000     -88.996936     -2421.7297
   1   2.0000     -88.987962     -2421.4856
   2   2.0000     -88.987830     -2421.4820
   3   2.0000     -88.980547     -2421.2838
   4   2.0000     -88.980336     -2421.2780
   5   2.0000     -19.219971      -523.0020
   6   2.0000     -19.219945      -523.0013
   7   2.0000     -14.445010      -393.0687
   8   2.0000     -14.444879      -393.0652
   9   2.0000     -14.425483      -392.5374
  10   2.0000     -14.425442      -392.5362
  11   2.0000     -14.423744      -392.4900
  12   2.0000     -14.423694      -392.4887
  13   2.0000     -14.422557      -392.4577
  14   2.0000     -14.422504      -392.4563
  15   2.0000     -14.418428      -392.3454
  16   2.0000     -14.418403      -392.3447
  17   2.0000     -10.368946      -282.1534
  18   2.0000     -10.368815      -282.1498
  19   2.0000     -10.357043      -281.8295
  20   2.0000     -10.357033      -281.8292
  21   2.0000     -10.342867      -281.4437
  22   2.0000     -10.342847      -281.4432
  23   2.0000     -10.336331      -281.2659
  24   2.0000     -10.336063      -281.2586
  25   2.0000     -10.333886      -281.1993
  26   2.0000     -10.333783      -281.1965
  27   2.0000     -10.331076      -281.1229
  28   2.0000     -10.330805      -281.1155
  29   2.0000     -10.329005      -281.0665
  30   2.0000     -10.328995      -281.0663
  31   2.0000     -10.326305      -280.9930
  32   2.0000     -10.326239      -280.9912
  33   2.0000     -10.324549      -280.9452
  34   2.0000     -10.324456      -280.9427
  35   2.0000     -10.322767      -280.8968
  36   2.0000     -10.322712      -280.8953
  37   2.0000     -10.321716      -280.8682
  38   2.0000     -10.321688      -280.8674
  39   2.0000     -10.319291      -280.8022
  40   2.0000     -10.319155      -280.7985
  41   2.0000     -10.317825      -280.7623
  42   2.0000     -10.317778      -280.7610
  43   2.0000     -10.317571      -280.7554
  44   2.0000     -10.317514      -280.7538
  45   2.0000     -10.317069      -280.7417
  46   2.0000     -10.317015      -280.7403
  47   2.0000     -10.314200      -280.6637
  48   2.0000     -10.314171      -280.6629
  49   2.0000     -10.302738      -280.3518
  50   2.0000     -10.302734      -280.3517
  51   2.0000     -10.302369      -280.3417
  52   2.0000     -10.301659      -280.3224
  53   2.0000     -10.298186      -280.2279
  54   2.0000     -10.298184      -280.2278
  55   2.0000     -10.293881      -280.1108
  56   2.0000     -10.293848      -280.1098
  57   2.0000     -10.292447      -280.0717
  58   2.0000     -10.292439      -280.0715
  59   2.0000     -10.289642      -279.9954
  60   2.0000     -10.289590      -279.9940
  61   2.0000     -10.287302      -279.9317
  62   2.0000     -10.287140      -279.9273
  63   2.0000     -10.281752      -279.7807
  64   2.0000     -10.281726      -279.7800
  65   2.0000     -10.280377      -279.7433
  66   2.0000     -10.280349      -279.7425
  67   2.0000      -8.091719      -220.1869
  68   2.0000      -8.082805      -219.9443
  69   2.0000      -8.082720      -219.9420
  70   2.0000      -8.075042      -219.7331
  71   2.0000      -8.074909      -219.7294
  72   2.0000      -6.060810      -164.9230
  73   2.0000      -6.056703      -164.8113
  74   2.0000      -6.054349      -164.7472
  75   2.0000      -6.052080      -164.6855
  76   2.0000      -6.052030      -164.6841
  77   2.0000      -6.047970      -164.5736
  78   2.0000      -6.047871      -164.5709
  79   2.0000      -6.045040      -164.4939
  80   2.0000      -6.044933      -164.4910
  81   2.0000      -6.044254      -164.4725
  82   2.0000      -6.044161      -164.4700
  83   2.0000      -6.040153      -164.3609
  84   2.0000      -6.039990      -164.3565
  85   2.0000      -6.037458      -164.2876
  86   2.0000      -6.037292      -164.2831
  87   2.0000      -1.137621       -30.9562
  88   2.0000      -1.132876       -30.8271
  89   2.0000      -1.096229       -29.8299
  90   2.0000      -1.081273       -29.4229
  91   2.0000      -1.081216       -29.4214
  92   2.0000      -1.037819       -28.2405
  93   2.0000      -1.037479       -28.2312
  94   2.0000      -1.023283       -27.8450
  95   2.0000      -1.014542       -27.6071
  96   2.0000      -1.012758       -27.5585
  97   2.0000      -1.008869       -27.4527
  98   2.0000      -1.004648       -27.3379
  99   2.0000      -1.003600       -27.3093
 100   2.0000      -0.997188       -27.1349
 101   2.0000      -0.997129       -27.1333
 102   2.0000      -0.991167       -26.9710
 103   2.0000      -0.983562       -26.7641
 104   2.0000      -0.961605       -26.1666
 105   2.0000      -0.958405       -26.0795
 106   2.0000      -0.945636       -25.7321
 107   2.0000      -0.944474       -25.7005
 108   2.0000      -0.933302       -25.3964
 109   2.0000      -0.911751       -24.8100
 110   2.0000      -0.902884       -24.5687
 111   2.0000      -0.876931       -23.8625
 112   2.0000      -0.872813       -23.7505
 113   2.0000      -0.867322       -23.6010
 114   2.0000      -0.865030       -23.5387
 115   2.0000      -0.860434       -23.4136
 116   2.0000      -0.859975       -23.4011
 117   2.0000      -0.855466       -23.2784
 118   2.0000      -0.845691       -23.0124
 119   2.0000      -0.843888       -22.9634
 120   2.0000      -0.840829       -22.8801
 121   2.0000      -0.802206       -21.8291
 122   2.0000      -0.796160       -21.6646
 123   2.0000      -0.787857       -21.4387
 124   2.0000      -0.773580       -21.0502
 125   2.0000      -0.770236       -20.9592
 126   2.0000      -0.769647       -20.9431
 127   2.0000      -0.760491       -20.6940
 128   2.0000      -0.757826       -20.6215
 129   2.0000      -0.746397       -20.3105
 130   2.0000      -0.743882       -20.2421
 131   2.0000      -0.741080       -20.1658
 132   2.0000      -0.738691       -20.1008
 133   2.0000      -0.709360       -19.3027
 134   2.0000      -0.699183       -19.0257
 135   2.0000      -0.689076       -18.7507
 136   2.0000      -0.683856       -18.6087
 137   2.0000      -0.678887       -18.4735
 138   2.0000      -0.676885       -18.4190
 139   2.0000      -0.672555       -18.3011
 140   2.0000      -0.661391       -17.9974
 141   2.0000      -0.661270       -17.9941
 142   2.0000      -0.647604       -17.6222
 143   2.0000      -0.645681       -17.5699
 144   2.0000      -0.634307       -17.2604
 145   2.0000      -0.633684       -17.2434
 146   2.0000      -0.627853       -17.0848
 147   2.0000      -0.624505       -16.9937
 148   2.0000      -0.619199       -16.8493
 149   2.0000      -0.616446       -16.7744
 150   2.0000      -0.611128       -16.6296
 151   2.0000      -0.608218       -16.5504
 152   2.0000      -0.604223       -16.4417
 153   2.0000      -0.600745       -16.3471
 154   2.0000      -0.594902       -16.1881
 155   2.0000      -0.589921       -16.0526
 156   2.0000      -0.588246       -16.0070
 157   2.0000      -0.564568       -15.3627
 158   2.0000      -0.563841       -15.3429
 159   2.0000      -0.560850       -15.2615
 160   2.0000      -0.556616       -15.1463
 161   2.0000      -0.554869       -15.0987
 162   2.0000      -0.551418       -15.0049
 163   2.0000      -0.551290       -15.0014
 164   2.0000      -0.542163       -14.7530
 165   2.0000      -0.540708       -14.7134
 166   2.0000      -0.540544       -14.7089
 167   2.0000      -0.530967       -14.4483
 168   2.0000      -0.530913       -14.4469
 169   2.0000      -0.530262       -14.4292
 170   2.0000      -0.528820       -14.3899
 171   2.0000      -0.523251       -14.2384
 172   2.0000      -0.519507       -14.1365
 173   2.0000      -0.519153       -14.1269
 174   2.0000      -0.516644       -14.0586
 175   2.0000      -0.509804       -13.8725
 176   2.0000      -0.509129       -13.8541
 177   2.0000      -0.505444       -13.7538
 178   2.0000      -0.499481       -13.5916
 179   2.0000      -0.498140       -13.5551
 180   2.0000      -0.494580       -13.4582
 181   2.0000      -0.492241       -13.3946
 182   2.0000      -0.491862       -13.3842
 183   2.0000      -0.489622       -13.3233
 184   2.0000      -0.486747       -13.2451
 185   2.0000      -0.486460       -13.2372
 186   2.0000      -0.483358       -13.1528
 187   2.0000      -0.479213       -13.0401
 188   2.0000      -0.477772       -13.0008
 189   2.0000      -0.473549       -12.8859
 190   2.0000      -0.465604       -12.6697
 191   2.0000      -0.465348       -12.6628
 192   2.0000      -0.463182       -12.6038
 193   2.0000      -0.462837       -12.5944
 194   2.0000      -0.455347       -12.3906
 195   2.0000      -0.453519       -12.3409
 196   2.0000      -0.453458       -12.3392
 197   2.0000      -0.451306       -12.2807
 198   2.0000      -0.450394       -12.2559
 199   2.0000      -0.450093       -12.2477
 200   2.0000      -0.446515       -12.1503
 201   2.0000      -0.444245       -12.0885
 202   2.0000      -0.442510       -12.0413
 203   2.0000      -0.437746       -11.9117
 204   2.0000      -0.434043       -11.8109
 205   2.0000      -0.433186       -11.7876
 206   2.0000      -0.430015       -11.7013
 207   2.0000      -0.429986       -11.7005
 208   2.0000      -0.428930       -11.6718
 209   2.0000      -0.428710       -11.6658
 210   2.0000      -0.427188       -11.6244
 211   2.0000      -0.426541       -11.6068
 212   2.0000      -0.425444       -11.5769
 213   2.0000      -0.425347       -11.5743
 214   2.0000      -0.415592       -11.3088
 215   2.0000      -0.415246       -11.2994
 216   2.0000      -0.404614       -11.0101
 217   2.0000      -0.402708       -10.9582
 218   2.0000      -0.400571       -10.9001
 219   2.0000      -0.382830       -10.4173
 220   2.0000      -0.382692       -10.4136
 221   2.0000      -0.381357       -10.3773
 222   2.0000      -0.370302       -10.0764
 223   2.0000      -0.366837        -9.9821
 224   2.0000      -0.357607        -9.7310
 225   2.0000      -0.348617        -9.4864
 226   2.0000      -0.345442        -9.4000
 227   2.0000      -0.342025        -9.3070
 228   2.0000      -0.340765        -9.2727
 229   2.0000      -0.339221        -9.2307
 230   2.0000      -0.332476        -9.0471
 231   2.0000      -0.332231        -9.0405
 232   2.0000      -0.330968        -9.0061
 233   2.0000      -0.323656        -8.8071
 234   2.0000      -0.320640        -8.7251
 235   2.0000      -0.320557        -8.7228
 236   2.0000      -0.315004        -8.5717
 237   2.0000      -0.313366        -8.5271
 238   2.0000      -0.291244        -7.9251
 239   2.0000      -0.263022        -7.1572
 240   2.0000      -0.227795        -6.1986
 241   0.0000      -0.110074        -2.9953
 242   0.0000      -0.096348        -2.6218
 243   0.0000      -0.084176        -2.2905
 244   0.0000      -0.079321        -2.1584
 245   0.0000      -0.052584        -1.4309

MULLIKEN ATOMIC CHARGES
-----------------------
   0 C :    0.002495
   1 C :    0.047540
   2 C :   -0.074915
   3 C :    0.163066
   4 C :   -0.032762
   5 N :   -0.030268
   6 C :    0.040455
   7 C :    0.021845
   8 N :   -0.018662
   9 C :   -0.024956
  10 C :   -0.119076
  11 C :   -0.050122
  12 C :    0.029022
  13 C :   -0.085722
  14 S :    0.145457
  15 C :   -0.094508
  16 C :    0.024354
  17 C :    0.312501
  18 C :   -0.301002
  19 C :   -0.200222
  20 N :    0.196065
  21 C :   -0.187086
  22 N :    0.169059
  23 C :   -0.060042
  24 C :   -0.090587
  25 S :    0.168568
  26 C :   -0.115765
  27 C :    0.025002
  28 C :    0.020484
  29 N :    0.065333
  30 C :   -0.114935
  31 C :    0.136976
  32 O :   -0.097063
  33 C :   -0.014984
  34 C :   -0.012920
  35 C :    0.136351
  36 O :   -0.096568
  37 C :   -0.117899
  38 N :    0.066008
  39 C :   -0.114651
  40 S :    0.190173
  41 C :   -0.091355
  42 C :   -0.059381
  43 C :    0.023758
  44 C :   -0.094391
  45 S :    0.169758
  46 C :   -0.086118
  47 C :    0.031151
  48 C :    0.309769
  49 C :   -0.300503
  50 C :   -0.186133
  51 N :    0.168094
  52 C :   -0.199340
  53 N :    0.195186
  54 C :   -0.052763
  55 C :   -0.118764
  56 S :    0.145787
  57 C :    0.163976
  58 C :   -0.077809
  59 C :    0.047392
  60 C :    0.005957
  61 C :   -0.028056
  62 N :   -0.016937
  63 C :    0.020310
  64 C :    0.039701
  65 N :   -0.032252
  66 C :   -0.030407
  67 H :   -0.021423
  68 H :   -0.006916
  69 H :   -0.008244
  70 H :    0.022960
  71 H :    0.015835
  72 H :    0.020194
  73 H :    0.028733
  74 H :    0.020593
  75 H :    0.020604
  76 H :    0.028584
  77 H :    0.021939
  78 H :   -0.007154
  79 H :   -0.005643
  80 H :   -0.022449
  81 H :    0.015856
  82 H :    0.023864
Sum of atomic charges:   -0.0000000

LOEWDIN ATOMIC CHARGES
----------------------
   0 C :   -0.012851
   1 C :   -0.013044
   2 C :   -0.024990
   3 C :   -0.033394
   4 C :   -0.003704
   5 N :   -0.028883
   6 C :    0.013889
   7 C :    0.004100
   8 N :   -0.035913
   9 C :   -0.009068
  10 C :   -0.155250
  11 C :   -0.020843
  12 C :   -0.070967
  13 C :   -0.181719
  14 S :    0.463417
  15 C :   -0.176964
  16 C :   -0.066278
  17 C :    0.078585
  18 C :   -0.095064
  19 C :   -0.024636
  20 N :   -0.016230
  21 C :   -0.013126
  22 N :   -0.035407
  23 C :   -0.007942
  24 C :   -0.186406
  25 S :    0.454589
  26 C :   -0.191900
  27 C :   -0.044931
  28 C :   -0.045193
  29 N :    0.007982
  30 C :   -0.039768
  31 C :    0.054519
  32 O :   -0.092207
  33 C :   -0.012937
  34 C :   -0.012851
  35 C :    0.054566
  36 O :   -0.091734
  37 C :   -0.039792
  38 N :    0.007762
  39 C :   -0.191872
  40 S :    0.481399
  41 C :   -0.186613
  42 C :   -0.007724
  43 C :   -0.066000
  44 C :   -0.177110
  45 S :    0.454899
  46 C :   -0.181843
  47 C :   -0.071039
  48 C :    0.078592
  49 C :   -0.095089
  50 C :   -0.013121
  51 N :   -0.035491
  52 C :   -0.024253
  53 N :   -0.016774
  54 C :   -0.020965
  55 C :   -0.155265
  56 S :    0.463769
  57 C :   -0.033359
  58 C :   -0.025121
  59 C :   -0.013244
  60 C :   -0.012551
  61 C :   -0.009142
  62 N :   -0.035914
  63 C :    0.004122
  64 C :    0.013634
  65 N :   -0.029207
  66 C :   -0.003450
  67 H :    0.036161
  68 H :    0.033799
  69 H :    0.020314
  70 H :    0.031319
  71 H :    0.027532
  72 H :    0.036703
  73 H :    0.044590
  74 H :    0.045952
  75 H :    0.046009
  76 H :    0.044524
  77 H :    0.036938
  78 H :    0.020423
  79 H :    0.034076
  80 H :    0.035972
  81 H :    0.027475
  82 H :    0.031528

  Mayer bond orders larger than 0.100000
B(  0-C ,  1-C ) :   1.4347 B(  0-C ,  3-C ) :   0.1071 B(  0-C ,  9-C ) :   1.2563
B(  0-C , 67-H ) :   1.0107 B(  1-C ,  2-C ) :   1.2629 B(  1-C , 68-H ) :   0.9855
B(  2-C ,  3-C ) :   1.4404 B(  2-C , 69-H ) :   0.9870 B(  3-C ,  4-C ) :   1.2060
B(  3-C , 10-C ) :   1.0942 B(  4-C ,  5-N ) :   1.4668 B(  4-C ,  9-C ) :   1.2369
B(  5-N ,  6-C ) :   1.6387 B(  6-C ,  7-C ) :   1.2261 B(  6-C , 70-H ) :   0.9743
B(  7-C ,  8-N ) :   1.6729 B(  7-C , 71-H ) :   0.9754 B(  8-N ,  9-C ) :   1.4222
B( 10-C , 11-C ) :   1.5008 B( 10-C , 14-S ) :   1.0871 B( 11-C , 12-C ) :   1.2163
B( 11-C , 72-H ) :   0.9768 B( 12-C , 13-C ) :   1.4344 B( 12-C , 17-C ) :   1.0046
B( 13-C , 14-S ) :   1.1203 B( 13-C , 15-C ) :   1.1940 B( 15-C , 16-C ) :   1.4253
B( 15-C , 25-S ) :   1.1208 B( 16-C , 17-C ) :   0.9818 B( 16-C , 23-C ) :   1.2735
B( 17-C , 18-C ) :   1.7110 B( 18-C , 19-C ) :   1.1315 B( 18-C , 21-C ) :   1.1404
B( 19-C , 20-N ) :   3.0059 B( 21-C , 22-N ) :   2.9889 B( 23-C , 24-C ) :   1.4543
B( 23-C , 73-H ) :   0.9883 B( 24-C , 25-S ) :   1.0764 B( 24-C , 26-C ) :   1.1914
B( 26-C , 27-C ) :   1.3710 B( 26-C , 39-C ) :   0.1523 B( 26-C , 40-S ) :   1.1474
B( 27-C , 28-C ) :   1.1833 B( 27-C , 38-N ) :   1.4405 B( 28-C , 29-N ) :   1.4433
B( 28-C , 39-C ) :   1.3711 B( 29-N , 30-C ) :   1.7145 B( 30-C , 31-C ) :   0.8917
B( 30-C , 37-C ) :   1.0875 B( 31-C , 32-O ) :   2.2421 B( 31-C , 33-C ) :   1.0225
B( 33-C , 34-C ) :   1.6953 B( 33-C , 74-H ) :   0.9943 B( 34-C , 35-C ) :   1.0230
B( 34-C , 75-H ) :   0.9931 B( 35-C , 36-O ) :   2.2423 B( 35-C , 37-C ) :   0.8915
B( 37-C , 38-N ) :   1.7173 B( 39-C , 40-S ) :   1.1481 B( 39-C , 41-C ) :   1.1895
B( 41-C , 42-C ) :   1.4535 B( 41-C , 45-S ) :   1.0778 B( 42-C , 43-C ) :   1.2733
B( 42-C , 76-H ) :   0.9884 B( 43-C , 44-C ) :   1.4265 B( 43-C , 48-C ) :   0.9811
B( 44-C , 45-S ) :   1.1202 B( 44-C , 46-C ) :   1.1938 B( 46-C , 47-C ) :   1.4356
B( 46-C , 56-S ) :   1.1214 B( 47-C , 48-C ) :   1.0024 B( 47-C , 54-C ) :   1.2177
B( 48-C , 49-C ) :   1.7129 B( 49-C , 50-C ) :   1.1394 B( 49-C , 52-C ) :   1.1310
B( 50-C , 51-N ) :   2.9883 B( 52-C , 53-N ) :   3.0057 B( 54-C , 55-C ) :   1.4989
B( 54-C , 77-H ) :   0.9781 B( 55-C , 56-S ) :   1.0866 B( 55-C , 57-C ) :   1.0941
B( 57-C , 58-C ) :   1.4406 B( 57-C , 60-C ) :   0.1066 B( 57-C , 66-C ) :   1.2067
B( 58-C , 59-C ) :   1.2640 B( 58-C , 78-H ) :   0.9869 B( 59-C , 60-C ) :   1.4356
B( 59-C , 79-H ) :   0.9847 B( 60-C , 61-C ) :   1.2585 B( 60-C , 80-H ) :   1.0091
B( 61-C , 62-N ) :   1.4232 B( 61-C , 66-C ) :   1.2378 B( 62-N , 63-C ) :   1.6711
B( 63-C , 64-C ) :   1.2267 B( 63-C , 81-H ) :   0.9753 B( 64-C , 65-N ) :   1.6395
B( 64-C , 82-H ) :   0.9742 B( 65-N , 66-C ) :   1.4633

-----------------------------------------------------------------------------
         ABSORPTION SPECTRUM VIA TRANSITION ELECTRIC DIPOLE MOMENTS
-----------------------------------------------------------------------------
State   Energy  Wavelength   fosc         T2         TX        TY        TZ
        (cm-1)    (nm)                  (au**2)     (au)      (au)      (au)
-----------------------------------------------------------------------------
   0   10085.0    991.6   0.656836512  21.44158  -0.30441  -4.01053   2.29447
   1   11967.6    835.6   0.039441860   1.08499  -0.37709   0.48192   0.84294
   2   13946.1    717.0   0.148733663   3.51101  -0.13175  -1.62191   0.92901
   3   17348.0    576.4   0.141369085   2.68275  -0.75396   0.77771   1.22860
   4   19233.2    519.9   0.046063274   0.78846   0.30308  -0.43254  -0.71380
   5   21562.9    463.8   0.078524805   1.19888   0.07824   0.94743  -0.54326
   6   24374.7    410.3   1.130536176  15.26936   0.11765   3.53072  -1.67019
   7   24394.0    409.9   0.258446833   3.48789   0.64788  -0.19535  -1.74068
   8   24868.6    402.1   0.004676332   0.06191   0.12698   0.11167   0.18251
   9   25514.3    391.9   0.089547036   1.15543   0.19403  -0.50996  -0.92613
  10   25944.0    385.4   0.000057524   0.00073  -0.00150  -0.02312   0.01390
  11   26503.7    377.3   0.055250022   0.68628   0.05824   0.71840  -0.40839
  12   26761.8    373.7   0.002144420   0.02638  -0.09487  -0.06984  -0.11181
  13   27680.7    361.3   0.030041984   0.35729   0.04144   0.51766  -0.29599
  14   29088.7    343.8   0.130856897   1.48097   0.25182  -0.60322  -1.02649
  15   29265.6    341.7   0.265295614   2.98434   0.13753   1.49980  -0.84618
  16   29613.4    337.7   0.018949174   0.21066  -0.06726  -0.39453   0.22467
  17   29949.6    333.9   0.180432359   1.98335  -0.27341   0.69300   1.19513
  18   30024.9    333.1   0.011428129   0.12531  -0.27361   0.05281   0.21829
  19   30043.9    332.8   0.006321169   0.06927  -0.11904   0.23469   0.00385
  20   30790.8    324.8   0.000075871   0.00081   0.00326   0.02124  -0.01870
  21   31280.5    319.7   0.000228235   0.00240  -0.00527  -0.03682   0.03192
  22   31466.8    317.8   0.230629052   2.41289  -0.11128  -1.35436   0.75248
  23   31763.9    314.8   0.380484851   3.94347  -0.50207   0.98839   1.64757
  24   32375.6    308.9   0.111804419   1.13689   0.04448   0.90661  -0.55944
  25   32530.1    307.4   0.001303054   0.01319  -0.06157   0.03810   0.08914
  26   33279.7    300.5   0.017170738   0.16986   0.24006   0.14323   0.30284
  27   33326.3    300.1   0.003025925   0.02989  -0.01472  -0.11701   0.12642
  28   33352.0    299.8   0.013288866   0.13117  -0.02545   0.22494   0.28272
  29   33762.8    296.2   0.220586514   2.15088   0.37199  -0.76719  -1.19328
  30   33806.8    295.8   0.137028547   1.33439   0.11446   0.96221  -0.62884
  31   33858.2    295.3   0.009151576   0.08898   0.01883   0.27130  -0.12259
  32   34148.3    292.8   0.022476619   0.21669  -0.24083   0.22052   0.33176
  33   34374.3    290.9   0.001211197   0.01160   0.02060   0.09881  -0.03757
  34   34581.9    289.2   0.103952985   0.98961  -0.32462   0.45578   0.82249
  35   34616.0    288.9   0.014626562   0.13910  -0.00873   0.36156  -0.09110
  36   34690.1    288.3   0.009023951   0.08564  -0.06110   0.14652   0.24584
  37   35112.4    284.8   0.274492185   2.57362  -0.54105   0.78624   1.28946
  38   35549.0    281.3   0.052329610   0.48461   0.03905   0.62168  -0.31082
  39   35568.9    281.1   0.229636489   2.12543   0.61412  -0.67077  -1.13945
  40   35660.8    280.4   0.181206543   1.67285  -0.41393   0.63677   1.04692
  41   36182.1    276.4   0.000986588   0.00898  -0.00321  -0.09084   0.02672
  42   36877.0    271.2   0.003619300   0.03231   0.00961   0.16402  -0.07290
  43   36919.7    270.9   0.019680519   0.17549  -0.15395   0.06703   0.38379
  44   36929.8    270.8   0.034011479   0.30320  -0.00183  -0.51882   0.18443
  45   37238.3    268.5   0.024521219   0.21678   0.10234  -0.21451  -0.40037
  46   37459.6    267.0   0.020824411   0.18301   0.10913  -0.24214  -0.33537
  47   37534.7    266.4   0.049555473   0.43464   0.04045   0.55721  -0.35003
  48   37924.4    263.7   0.000030521   0.00026   0.01276  -0.01007  -0.00081
  49   38061.5    262.7   0.071178767   0.61566  -0.36781   0.33949   0.60425
  50   38422.0    260.3   0.259609178   2.22441   0.07928   1.28896  -0.74613
  51   38778.5    257.9   0.001307272   0.01110  -0.00222  -0.10532  -0.00030
  52   38807.6    257.7   0.010991646   0.09324   0.00339  -0.16138  -0.25921
  53   38950.6    256.7   0.027058230   0.22870  -0.02570   0.25495   0.40378
  54   39026.0    256.2   0.093057294   0.78500   0.05151   0.76086  -0.45104
  55   39400.3    253.8   0.005988351   0.05004  -0.14192   0.04287   0.16750
  56   39440.3    253.5   0.014241645   0.11888  -0.00754   0.31704  -0.13530
  57   39463.6    253.4   0.002435285   0.02032   0.09494  -0.01019  -0.10582
  58   39531.4    253.0   0.070549652   0.58753  -0.05609  -0.65347   0.39669
  59   39564.4    252.8   0.038995366   0.32448   0.27138  -0.28908  -0.40898
  60   40137.9    249.1   0.000227535   0.00187   0.00585  -0.03998   0.01529

FINAL SINGLE POINT ENERGY     -4599.860015256912

DIPOLE MOMENT
-------------
                                X             Y             Z
Electronic contribution:      2.10544      -5.72232      -9.70798
Nuclear contribution   :     -3.14226       7.56400      12.78569
                        -----------------------------------------
Total Dipole Moment    :     -1.03682       1.84168       3.07771
                        -----------------------------------------
Magnitude (a.u.)       :      3.73351
Magnitude (Debye)      :      9.48983

Rotational constants in cm-1:     0.001856     0.000315     0.000270
Rotational constants in MHz :    55.652976     9.448269     8.099985

                             ****ORCA TERMINATED NORMALLY****
TOTAL RUN TIME: 0 days 0 hours 7 minutes 47 seconds 592 msec
