                         Program Version 4.2.0 -  RELEASE  -
|  1> # ORCA input file
|  2> # SCF done       -202.520590141565          0.000351093738
|  3> ! CAM-B3LYP def2-SVP def2/J RIJCOSX Grid4 TightSCF
|  4> %maxcore 5000
|  5> %tddft
|  6>     Mode sTDDFT
|  7>     Ethresh 5.0
|  8>     maxcore 5000
|  9> end
| 10>
| 11> %pal
| 12>   nprocs 6
| 13>   end
| 14> * xyz 0 1
| 15>    C        6.56632         6.25028        -8.73854
| 16>    C        7.35029         7.04422        -9.53107
| 17>    C        8.68274         7.30347        -9.17702
| 18>    C        9.21281         6.76556        -8.03602
| 19>    C        8.43326         5.94493        -7.19594
| 20>    C        8.97294         5.39502        -6.01054
| 21>    C        8.18564         4.60368        -5.21921
| 22>    C        6.83816         4.32597        -5.59481
| 23>    C        6.28964         4.85134        -6.72901
| 24>    C        7.08039         5.67990        -7.55737
| 25>    C        6.22968         3.42302        -4.60038
| 26>    O        5.09252         3.01532        -4.55443
| 27>    C        7.34674         3.04960        -3.68403
| 28>    C        8.45405         3.94503        -3.94670
| 29>    C        9.41696         4.32160        -3.04647
| 30>    C        9.45827         3.85073        -1.71845
| 31>    N        9.49778         3.51169        -0.62216
| 32>    C       10.41307         5.27961        -3.32035
| 33>    N       11.25573         6.03727        -3.50347
| 34>    C        7.22462         1.95686        -2.88446
| 35>    C        8.23967         1.17745        -2.28005
| 36>    C        8.07210         0.29410        -1.22510
| 37>    C        9.25556        -0.35346        -0.88437
| 38>    C       10.33205         0.00860        -1.71821
| 39>    S        9.89118         1.15105        -2.89779
| 40>    C       11.48620        -0.69586        -1.30129
| 41>    C       11.14766        -1.49821        -0.19805
| 42>    C        9.73474        -1.31322         0.09784
| 43>    C        9.01656        -1.91475         1.08838
| 44>    C        9.59788        -2.83224         1.98997
| 45>    N       10.05814        -3.58145         2.72559
| 46>    C        7.63917        -1.66822         1.27338
| 47>    N        6.51825        -1.47898         1.42129
| 48>    C       12.22887        -2.22271         0.29916
| 49>    C       13.39244        -1.98570        -0.40925
| 50>    S       13.13036        -0.83781        -1.72354
| 51>    C       14.70501        -2.52479        -0.20003
| 52>    C       15.75468        -2.16635        -1.03623
| 53>    C       17.04054        -2.64629        -0.86193
| 54>    C       17.37743        -3.52095         0.16315
| 55>    C       16.32634        -3.92782         1.04454
| 56>    N       16.58670        -4.78309         2.04912
| 57>    C       15.61732        -5.14304         2.84605
| 58>    C       14.31162        -4.65481         2.66959
| 59>    N       14.02487        -3.82660         1.70198
| 60>    C       15.00082        -3.43427         0.86407
| 61>    C       18.72856        -3.97849         0.31404
| 62>    C       19.26377        -4.80973         1.28024
| 63>    C       20.62889        -5.02353         1.10082
| 64>    C       21.14759        -4.34703        -0.01718
| 65>    S       19.95379        -3.45162        -0.84133
| 66>    C       22.53174        -4.62312        -0.11280
| 67>    C       22.89281        -5.48355         0.94909
| 68>    C       21.70883        -5.74942         1.75227
| 69>    C       21.62096        -6.49752         2.88825
| 70>    C       22.73311        -7.13157         3.48495
| 71>    N       23.61611        -7.64179         4.00769
| 72>    C       20.39883        -6.67731         3.57255
| 73>    N       19.41224        -6.83257         4.13570
| 74>    C       24.23572        -5.83465         0.93380
| 75>    C       24.91849        -5.25077        -0.12647
| 76>    S       23.85072        -4.23402        -1.10846
| 77>    C       26.26988        -5.27494        -0.52507
| 78>    C       27.31530        -6.05121        -0.10700
| 79>    C       28.68197        -5.88455        -0.57595
| 80>    C       29.19362        -4.80742        -1.25370
| 81>    C       30.53905        -4.70191        -1.66536
| 82>    N       31.61531        -4.55272        -2.03609
| 83>    C       28.48548        -3.64020        -1.60858
| 84>    N       27.98962        -2.65039        -1.91602
| 85>    C       29.45389        -7.03606        -0.12606
| 86>    C       28.61124        -7.85802         0.67346
| 87>    C       29.05993        -9.01038         1.25122
| 88>    C       30.40117        -9.40429         1.04722
| 89>    C       30.92321       -10.58129         1.61845
| 90>    C       32.22447       -10.94593         1.40194
| 91>    C       33.06033       -10.14919         0.60530
| 92>    C       32.58437        -8.99917         0.03664
| 93>    C       31.24967        -8.59315         0.23944
| 94>    C       30.75581        -7.40333        -0.34315
| 95>    C       27.26368        -7.26949         0.74128
| 96>    O       26.31408        -7.73186         1.33771
| 97>    H        5.53975         6.04745        -9.00647
| 98>    H        6.94814         7.47658       -10.43500
| 99>    H        9.28735         7.93269        -9.81282
|100>    H       10.23696         6.96515        -7.75680
|101>    H       10.00216         5.60302        -5.76194
|102>    H        5.26429         4.63857        -6.99260
|103>    H        6.21235         1.58515        -2.75473
|104>    H        7.13033         0.16968        -0.72166
|105>    H       12.20476        -2.89495         1.13643
|106>    H       15.56591        -1.48418        -1.85260
|107>    H       17.80889        -2.32126        -1.54860
|108>    H       15.87538        -5.83102         3.63902
|109>    H       13.49489        -4.94062         3.31768
|110>    H       18.65949        -5.22491         2.06496
|111>    H       24.71583        -6.48893         1.63882
|112>    H       26.49081        -4.55857        -1.30832
|113>    H       28.39869        -9.61213         1.85685
|114>    H       30.27458       -11.19044         2.23079
|115>    H       32.61672       -11.85006         1.84299
|116>    H       34.08441       -10.45117         0.44454
|117>    H       33.22461        -8.38158        -0.57609
|118>    H       31.42277        -6.81502        -0.95289
|119> *
|120>
|121>                          ****END OF INPUT****

CARTESIAN COORDINATES (ANGSTROEM)
---------------------------------
  C      6.566320    6.250280   -8.738540
  C      7.350290    7.044220   -9.531070
  C      8.682740    7.303470   -9.177020
  C      9.212810    6.765560   -8.036020
  C      8.433260    5.944930   -7.195940
  C      8.972940    5.395020   -6.010540
  C      8.185640    4.603680   -5.219210
  C      6.838160    4.325970   -5.594810
  C      6.289640    4.851340   -6.729010
  C      7.080390    5.679900   -7.557370
  C      6.229680    3.423020   -4.600380
  O      5.092520    3.015320   -4.554430
  C      7.346740    3.049600   -3.684030
  C      8.454050    3.945030   -3.946700
  C      9.416960    4.321600   -3.046470
  C      9.458270    3.850730   -1.718450
  N      9.497780    3.511690   -0.622160
  C     10.413070    5.279610   -3.320350
  N     11.255730    6.037270   -3.503470
  C      7.224620    1.956860   -2.884460
  C      8.239670    1.177450   -2.280050
  C      8.072100    0.294100   -1.225100
  C      9.255560   -0.353460   -0.884370
  C     10.332050    0.008600   -1.718210
  S      9.891180    1.151050   -2.897790
  C     11.486200   -0.695860   -1.301290
  C     11.147660   -1.498210   -0.198050
  C      9.734740   -1.313220    0.097840
  C      9.016560   -1.914750    1.088380
  C      9.597880   -2.832240    1.989970
  N     10.058140   -3.581450    2.725590
  C      7.639170   -1.668220    1.273380
  N      6.518250   -1.478980    1.421290
  C     12.228870   -2.222710    0.299160
  C     13.392440   -1.985700   -0.409250
  S     13.130360   -0.837810   -1.723540
  C     14.705010   -2.524790   -0.200030
  C     15.754680   -2.166350   -1.036230
  C     17.040540   -2.646290   -0.861930
  C     17.377430   -3.520950    0.163150
  C     16.326340   -3.927820    1.044540
  N     16.586700   -4.783090    2.049120
  C     15.617320   -5.143040    2.846050
  C     14.311620   -4.654810    2.669590
  N     14.024870   -3.826600    1.701980
  C     15.000820   -3.434270    0.864070
  C     18.728560   -3.978490    0.314040
  C     19.263770   -4.809730    1.280240
  C     20.628890   -5.023530    1.100820
  C     21.147590   -4.347030   -0.017180
  S     19.953790   -3.451620   -0.841330
  C     22.531740   -4.623120   -0.112800
  C     22.892810   -5.483550    0.949090
  C     21.708830   -5.749420    1.752270
  C     21.620960   -6.497520    2.888250
  C     22.733110   -7.131570    3.484950
  N     23.616110   -7.641790    4.007690
  C     20.398830   -6.677310    3.572550
  N     19.412240   -6.832570    4.135700
  C     24.235720   -5.834650    0.933800
  C     24.918490   -5.250770   -0.126470
  S     23.850720   -4.234020   -1.108460
  C     26.269880   -5.274940   -0.525070
  C     27.315300   -6.051210   -0.107000
  C     28.681970   -5.884550   -0.575950
  C     29.193620   -4.807420   -1.253700
  C     30.539050   -4.701910   -1.665360
  N     31.615310   -4.552720   -2.036090
  C     28.485480   -3.640200   -1.608580
  N     27.989620   -2.650390   -1.916020
  C     29.453890   -7.036060   -0.126060
  C     28.611240   -7.858020    0.673460
  C     29.059930   -9.010380    1.251220
  C     30.401170   -9.404290    1.047220
  C     30.923210  -10.581290    1.618450
  C     32.224470  -10.945930    1.401940
  C     33.060330  -10.149190    0.605300
  C     32.584370   -8.999170    0.036640
  C     31.249670   -8.593150    0.239440
  C     30.755810   -7.403330   -0.343150
  C     27.263680   -7.269490    0.741280
  O     26.314080   -7.731860    1.337710
  H      5.539750    6.047450   -9.006470
  H      6.948140    7.476580  -10.435000
  H      9.287350    7.932690   -9.812820
  H     10.236960    6.965150   -7.756800
  H     10.002160    5.603020   -5.761940
  H      5.264290    4.638570   -6.992600
  H      6.212350    1.585150   -2.754730
  H      7.130330    0.169680   -0.721660
  H     12.204760   -2.894950    1.136430
  H     15.565910   -1.484180   -1.852600
  H     17.808890   -2.321260   -1.548600
  H     15.875380   -5.831020    3.639020
  H     13.494890   -4.940620    3.317680
  H     18.659490   -5.224910    2.064960
  H     24.715830   -6.488930    1.638820
  H     26.490810   -4.558570   -1.308320
  H     28.398690   -9.612130    1.856850
  H     30.274580  -11.190440    2.230790
  H     32.616720  -11.850060    1.842990
  H     34.084410  -10.451170    0.444540
  H     33.224610   -8.381580   -0.576090
  H     31.422770   -6.815020   -0.952890

 Total Charge           Charge          ....    0
 Multiplicity           Mult            ....    1
 Number of Electrons    NEL             ....  568
 Basis Dimension        Dim             .... 1274

ORBITAL ENERGIES
----------------

  NO   OCC          E(Eh)            E(eV)
   0   2.0000     -88.997071     -2421.7334
   1   2.0000     -88.996504     -2421.7180
   2   2.0000     -88.994398     -2421.6607
   3   2.0000     -88.994180     -2421.6548
   4   2.0000     -19.216960      -522.9201
   5   2.0000     -19.215851      -522.8899
   6   2.0000     -14.440827      -392.9549
   7   2.0000     -14.440697      -392.9513
   8   2.0000     -14.433178      -392.7467
   9   2.0000     -14.432875      -392.7385
  10   2.0000     -14.432795      -392.7363
  11   2.0000     -14.429171      -392.6377
  12   2.0000     -14.418614      -392.3504
  13   2.0000     -14.417483      -392.3197
  14   2.0000     -14.416214      -392.2851
  15   2.0000     -14.412712      -392.1898
  16   2.0000     -10.368585      -282.1435
  17   2.0000     -10.368360      -282.1374
  18   2.0000     -10.368165      -282.1321
  19   2.0000     -10.368001      -282.1277
  20   2.0000     -10.355685      -281.7925
  21   2.0000     -10.354513      -281.7606
  22   2.0000     -10.346949      -281.5548
  23   2.0000     -10.346212      -281.5347
  24   2.0000     -10.345826      -281.5242
  25   2.0000     -10.344984      -281.5013
  26   2.0000     -10.340375      -281.3759
  27   2.0000     -10.340124      -281.3691
  28   2.0000     -10.339806      -281.3604
  29   2.0000     -10.339794      -281.3601
  30   2.0000     -10.336960      -281.2830
  31   2.0000     -10.336581      -281.2727
  32   2.0000     -10.334245      -281.2091
  33   2.0000     -10.333936      -281.2007
  34   2.0000     -10.333303      -281.1835
  35   2.0000     -10.332891      -281.1723
  36   2.0000     -10.332837      -281.1708
  37   2.0000     -10.331453      -281.1331
  38   2.0000     -10.330554      -281.1087
  39   2.0000     -10.329877      -281.0902
  40   2.0000     -10.329231      -281.0727
  41   2.0000     -10.328309      -281.0476
  42   2.0000     -10.327803      -281.0338
  43   2.0000     -10.326701      -281.0038
  44   2.0000     -10.321162      -280.8531
  45   2.0000     -10.319447      -280.8064
  46   2.0000     -10.319427      -280.8059
  47   2.0000     -10.318358      -280.7768
  48   2.0000     -10.318166      -280.7716
  49   2.0000     -10.315952      -280.7113
  50   2.0000     -10.315168      -280.6900
  51   2.0000     -10.309511      -280.5360
  52   2.0000     -10.309305      -280.5304
  53   2.0000     -10.309237      -280.5286
  54   2.0000     -10.308311      -280.5034
  55   2.0000     -10.307220      -280.4737
  56   2.0000     -10.307102      -280.4705
  57   2.0000     -10.306751      -280.4610
  58   2.0000     -10.306143      -280.4444
  59   2.0000     -10.301178      -280.3093
  60   2.0000     -10.301116      -280.3076
  61   2.0000     -10.301114      -280.3076
  62   2.0000     -10.300339      -280.2865
  63   2.0000     -10.299929      -280.2753
  64   2.0000     -10.299556      -280.2652
  65   2.0000     -10.299339      -280.2593
  66   2.0000     -10.296214      -280.1742
  67   2.0000     -10.296067      -280.1702
  68   2.0000     -10.295974      -280.1677
  69   2.0000     -10.295966      -280.1675
  70   2.0000     -10.295376      -280.1514
  71   2.0000     -10.294746      -280.1343
  72   2.0000     -10.291963      -280.0585
  73   2.0000     -10.288651      -279.9684
  74   2.0000     -10.288337      -279.9599
  75   2.0000     -10.288061      -279.9524
  76   2.0000     -10.287700      -279.9426
  77   2.0000     -10.286727      -279.9161
  78   2.0000     -10.285230      -279.8753
  79   2.0000     -10.284697      -279.8608
  80   2.0000     -10.284517      -279.8559
  81   2.0000     -10.284091      -279.8443
  82   2.0000      -8.091350      -220.1768
  83   2.0000      -8.091324      -220.1761
  84   2.0000      -8.088855      -220.1089
  85   2.0000      -8.088631      -220.1028
  86   2.0000      -6.060589      -164.9170
  87   2.0000      -6.060411      -164.9122
  88   2.0000      -6.058074      -164.8486
  89   2.0000      -6.057853      -164.8426
  90   2.0000      -6.056374      -164.8023
  91   2.0000      -6.056281      -164.7998
  92   2.0000      -6.053954      -164.7365
  93   2.0000      -6.053886      -164.7346
  94   2.0000      -6.053754      -164.7310
  95   2.0000      -6.053696      -164.7294
  96   2.0000      -6.051263      -164.6632
  97   2.0000      -6.051060      -164.6577
  98   2.0000      -1.132423       -30.8148
  99   2.0000      -1.131431       -30.7878
 100   2.0000      -1.099440       -29.9173
 101   2.0000      -1.050759       -28.5926
 102   2.0000      -1.050192       -28.5772
 103   2.0000      -1.025580       -27.9075
 104   2.0000      -1.023925       -27.8624
 105   2.0000      -1.022946       -27.8358
 106   2.0000      -1.021229       -27.7890
 107   2.0000      -1.017813       -27.6961
 108   2.0000      -1.010408       -27.4946
 109   2.0000      -1.008011       -27.4294
 110   2.0000      -1.006190       -27.3798
 111   2.0000      -1.002680       -27.2843
 112   2.0000      -1.000804       -27.2333
 113   2.0000      -0.997756       -27.1503
 114   2.0000      -0.995866       -27.0989
 115   2.0000      -0.992691       -27.0125
 116   2.0000      -0.980302       -26.6754
 117   2.0000      -0.974076       -26.5059
 118   2.0000      -0.970505       -26.4088
 119   2.0000      -0.963840       -26.2274
 120   2.0000      -0.957190       -26.0465
 121   2.0000      -0.930390       -25.3172
 122   2.0000      -0.927700       -25.2440
 123   2.0000      -0.922299       -25.0970
 124   2.0000      -0.917411       -24.9640
 125   2.0000      -0.904317       -24.6077
 126   2.0000      -0.897908       -24.4333
 127   2.0000      -0.887594       -24.1526
 128   2.0000      -0.884198       -24.0602
 129   2.0000      -0.881849       -23.9963
 130   2.0000      -0.879960       -23.9449
 131   2.0000      -0.877881       -23.8884
 132   2.0000      -0.875560       -23.8252
 133   2.0000      -0.867979       -23.6189
 134   2.0000      -0.860439       -23.4137
 135   2.0000      -0.857748       -23.3405
 136   2.0000      -0.856842       -23.3159
 137   2.0000      -0.830821       -22.6078
 138   2.0000      -0.826982       -22.5033
 139   2.0000      -0.823984       -22.4218
 140   2.0000      -0.813922       -22.1479
 141   2.0000      -0.797786       -21.7089
 142   2.0000      -0.785292       -21.3689
 143   2.0000      -0.781371       -21.2622
 144   2.0000      -0.774485       -21.0748
 145   2.0000      -0.772542       -21.0219
 146   2.0000      -0.763007       -20.7625
 147   2.0000      -0.761647       -20.7255
 148   2.0000      -0.761099       -20.7105
 149   2.0000      -0.746712       -20.3191
 150   2.0000      -0.728269       -19.8172
 151   2.0000      -0.716229       -19.4896
 152   2.0000      -0.710180       -19.3250
 153   2.0000      -0.704103       -19.1596
 154   2.0000      -0.703796       -19.1513
 155   2.0000      -0.702129       -19.1059
 156   2.0000      -0.698518       -19.0076
 157   2.0000      -0.695154       -18.9161
 158   2.0000      -0.689107       -18.7516
 159   2.0000      -0.685455       -18.6522
 160   2.0000      -0.682203       -18.5637
 161   2.0000      -0.678985       -18.4761
 162   2.0000      -0.673209       -18.3189
 163   2.0000      -0.667455       -18.1624
 164   2.0000      -0.656344       -17.8600
 165   2.0000      -0.652304       -17.7501
 166   2.0000      -0.645330       -17.5603
 167   2.0000      -0.642367       -17.4797
 168   2.0000      -0.635648       -17.2969
 169   2.0000      -0.632095       -17.2002
 170   2.0000      -0.631786       -17.1918
 171   2.0000      -0.627286       -17.0693
 172   2.0000      -0.620975       -16.8976
 173   2.0000      -0.617019       -16.7900
 174   2.0000      -0.613516       -16.6946
 175   2.0000      -0.610121       -16.6022
 176   2.0000      -0.608180       -16.5494
 177   2.0000      -0.605279       -16.4705
 178   2.0000      -0.598355       -16.2821
 179   2.0000      -0.592332       -16.1182
 180   2.0000      -0.587408       -15.9842
 181   2.0000      -0.578347       -15.7376
 182   2.0000      -0.573692       -15.6110
 183   2.0000      -0.563552       -15.3350
 184   2.0000      -0.559732       -15.2311
 185   2.0000      -0.556328       -15.1385
 186   2.0000      -0.553777       -15.0690
 187   2.0000      -0.552335       -15.0298
 188   2.0000      -0.549643       -14.9565
 189   2.0000      -0.548112       -14.9149
 190   2.0000      -0.547668       -14.9028
 191   2.0000      -0.546561       -14.8727
 192   2.0000      -0.545683       -14.8488
 193   2.0000      -0.540633       -14.7114
 194   2.0000      -0.538621       -14.6566
 195   2.0000      -0.536481       -14.5984
 196   2.0000      -0.535983       -14.5848
 197   2.0000      -0.531078       -14.4514
 198   2.0000      -0.524375       -14.2690
 199   2.0000      -0.522710       -14.2237
 200   2.0000      -0.520809       -14.1719
 201   2.0000      -0.519280       -14.1303
 202   2.0000      -0.517532       -14.0828
 203   2.0000      -0.515226       -14.0200
 204   2.0000      -0.514396       -13.9974
 205   2.0000      -0.512183       -13.9372
 206   2.0000      -0.509251       -13.8574
 207   2.0000      -0.507642       -13.8136
 208   2.0000      -0.506222       -13.7750
 209   2.0000      -0.504094       -13.7171
 210   2.0000      -0.503242       -13.6939
 211   2.0000      -0.501909       -13.6576
 212   2.0000      -0.498890       -13.5755
 213   2.0000      -0.496442       -13.5089
 214   2.0000      -0.495501       -13.4833
 215   2.0000      -0.493569       -13.4307
 216   2.0000      -0.491800       -13.3826
 217   2.0000      -0.490665       -13.3517
 218   2.0000      -0.483906       -13.1678
 219   2.0000      -0.483817       -13.1653
 220   2.0000      -0.482120       -13.1192
 221   2.0000      -0.481495       -13.1022
 222   2.0000      -0.473612       -12.8876
 223   2.0000      -0.469404       -12.7731
 224   2.0000      -0.467404       -12.7187
 225   2.0000      -0.464110       -12.6291
 226   2.0000      -0.463752       -12.6193
 227   2.0000      -0.463021       -12.5995
 228   2.0000      -0.462679       -12.5901
 229   2.0000      -0.460145       -12.5212
 230   2.0000      -0.456443       -12.4205
 231   2.0000      -0.453767       -12.3476
 232   2.0000      -0.452050       -12.3009
 233   2.0000      -0.451022       -12.2729
 234   2.0000      -0.449628       -12.2350
 235   2.0000      -0.448609       -12.2073
 236   2.0000      -0.446572       -12.1518
 237   2.0000      -0.444514       -12.0958
 238   2.0000      -0.443298       -12.0628
 239   2.0000      -0.442906       -12.0521
 240   2.0000      -0.442041       -12.0285
 241   2.0000      -0.441515       -12.0142
 242   2.0000      -0.440435       -11.9849
 243   2.0000      -0.440029       -11.9738
 244   2.0000      -0.438652       -11.9363
 245   2.0000      -0.437155       -11.8956
 246   2.0000      -0.436289       -11.8720
 247   2.0000      -0.433545       -11.7974
 248   2.0000      -0.432762       -11.7761
 249   2.0000      -0.432112       -11.7584
 250   2.0000      -0.429924       -11.6988
 251   2.0000      -0.428338       -11.6557
 252   2.0000      -0.427190       -11.6244
 253   2.0000      -0.426459       -11.6045
 254   2.0000      -0.425880       -11.5888
 255   2.0000      -0.422165       -11.4877
 256   2.0000      -0.418902       -11.3989
 257   2.0000      -0.418233       -11.3807
 258   2.0000      -0.409658       -11.1474
 259   2.0000      -0.406992       -11.0748
 260   2.0000      -0.403846       -10.9892
 261   2.0000      -0.401323       -10.9206
 262   2.0000      -0.394128       -10.7248
 263   2.0000      -0.390359       -10.6222
 264   2.0000      -0.384390       -10.4598
 265   2.0000      -0.377370       -10.2688
 266   2.0000      -0.373046       -10.1511
 267   2.0000      -0.361467        -9.8360
 268   2.0000      -0.355546        -9.6749
 269   2.0000      -0.352839        -9.6012
 270   2.0000      -0.349337        -9.5060
 271   2.0000      -0.343927        -9.3587
 272   2.0000      -0.338624        -9.2144
 273   2.0000      -0.335002        -9.1159
 274   2.0000      -0.334685        -9.1072
 275   2.0000      -0.327024        -8.8988
 276   2.0000      -0.324682        -8.8350
 277   2.0000      -0.319802        -8.7023
 278   2.0000      -0.316625        -8.6158
 279   2.0000      -0.310091        -8.4380
 280   2.0000      -0.297437        -8.0937
 281   2.0000      -0.293140        -7.9767
 282   2.0000      -0.277072        -7.5395
 283   2.0000      -0.253195        -6.8898
 284   0.0000      -0.120115        -3.2685
 285   0.0000      -0.111571        -3.0360
 286   0.0000      -0.090958        -2.4751
 287   0.0000      -0.089646        -2.4394
 288   0.0000      -0.074324        -2.0224

MULLIKEN ATOMIC CHARGES
-----------------------
   0 C :   -0.014130
   1 C :    0.035867
   2 C :    0.034307
   3 C :   -0.016751
   4 C :    0.094911
   5 C :   -0.079147
   6 C :    0.034909
   7 C :    0.011900
   8 C :   -0.079861
   9 C :    0.092246
  10 C :    0.143030
  11 O :   -0.139858
  12 C :   -0.140458
  13 C :    0.246716
  14 C :   -0.321901
  15 C :   -0.206978
  16 N :    0.169073
  17 C :   -0.173437
  18 N :    0.151575
  19 C :    0.047956
  20 C :   -0.097742
  21 C :    0.012323
  22 C :    0.022653
  23 C :   -0.079075
  24 S :    0.203523
  25 C :   -0.088292
  26 C :    0.040754
  27 C :    0.304810
  28 C :   -0.294869
  29 C :   -0.183066
  30 N :    0.172286
  31 C :   -0.192320
  32 N :    0.178993
  33 C :   -0.060257
  34 C :   -0.110201
  35 S :    0.161118
  36 C :    0.173132
  37 C :   -0.073742
  38 C :   -0.069645
  39 C :    0.170110
  40 C :   -0.044128
  41 N :   -0.031730
  42 C :    0.043752
  43 C :    0.045953
  44 N :   -0.034597
  45 C :   -0.042362
  46 C :   -0.108664
  47 C :   -0.061284
  48 C :    0.044488
  49 C :   -0.089733
  50 S :    0.159551
  51 C :   -0.081992
  52 C :   -0.012661
  53 C :    0.315505
  54 C :   -0.302211
  55 C :   -0.193478
  56 N :    0.196589
  57 C :   -0.186602
  58 N :    0.169807
  59 C :    0.001323
  60 C :   -0.111579
  61 S :    0.205231
  62 C :    0.030471
  63 C :   -0.092350
  64 C :    0.313381
  65 C :   -0.357232
  66 C :   -0.182509
  67 N :    0.147523
  68 C :   -0.200367
  69 N :    0.155268
  70 C :    0.047818
  71 C :   -0.004007
  72 C :   -0.083435
  73 C :    0.100583
  74 C :   -0.018494
  75 C :    0.037023
  76 C :    0.036950
  77 C :   -0.021561
  78 C :    0.098804
  79 C :   -0.086634
  80 C :    0.157896
  81 O :   -0.149435
  82 H :   -0.016463
  83 H :   -0.004837
  84 H :   -0.003187
  85 H :   -0.011263
  86 H :   -0.006344
  87 H :   -0.010836
  88 H :    0.033919
  89 H :    0.018409
  90 H :    0.025149
  91 H :   -0.002225
  92 H :   -0.003095
  93 H :    0.031898
  94 H :    0.032219
  95 H :    0.024634
  96 H :    0.038827
  97 H :    0.013834
  98 H :   -0.009238
  99 H :   -0.015503
 100 H :   -0.005554
 101 H :   -0.005105
 102 H :   -0.008778
 103 H :   -0.007793
Sum of atomic charges:   -0.0000000

LOEWDIN ATOMIC CHARGES
----------------------
   0 C :   -0.008806
   1 C :   -0.012458
   2 C :   -0.012695
   3 C :   -0.006661
   4 C :   -0.005599
   5 C :    0.015361
   6 C :   -0.023480
   7 C :   -0.056815
   8 C :    0.033119
   9 C :   -0.008998
  10 C :    0.083390
  11 O :   -0.141820
  12 C :   -0.099663
  13 C :    0.060412
  14 C :   -0.145935
  15 C :   -0.036468
  16 N :   -0.049016
  17 C :   -0.019757
  18 N :   -0.052022
  19 C :    0.051119
  20 C :   -0.178731
  21 C :    0.014942
  22 C :   -0.071541
  23 C :   -0.151190
  24 S :    0.508419
  25 C :   -0.184845
  26 C :   -0.059174
  27 C :    0.080924
  28 C :   -0.096492
  29 C :   -0.013926
  30 N :   -0.032014
  31 C :   -0.017377
  32 N :   -0.028000
  33 C :   -0.018726
  34 C :   -0.148187
  35 S :    0.477077
  36 C :   -0.033597
  37 C :   -0.018138
  38 C :   -0.017070
  39 C :   -0.035413
  40 C :    0.002865
  41 N :   -0.024393
  42 C :    0.021502
  43 C :    0.021230
  44 N :   -0.024409
  45 C :    0.002644
  46 C :   -0.146259
  47 C :   -0.020691
  48 C :   -0.057469
  49 C :   -0.188000
  50 S :    0.474624
  51 C :   -0.158728
  52 C :   -0.073924
  53 C :    0.076426
  54 C :   -0.093439
  55 C :   -0.022778
  56 N :   -0.016263
  57 C :   -0.012984
  58 N :   -0.033160
  59 C :    0.019120
  60 C :   -0.176236
  61 S :    0.495313
  62 C :    0.041555
  63 C :   -0.095477
  64 C :    0.077368
  65 C :   -0.144640
  66 C :   -0.017341
  67 N :   -0.055785
  68 C :   -0.024921
  69 N :   -0.056193
  70 C :   -0.026703
  71 C :   -0.055185
  72 C :    0.033179
  73 C :   -0.008173
  74 C :   -0.009248
  75 C :   -0.012217
  76 C :   -0.013706
  77 C :   -0.005689
  78 C :   -0.006449
  79 C :    0.019248
  80 C :    0.086084
  81 O :   -0.138287
  82 H :    0.032199
  83 H :    0.032990
  84 H :    0.033488
  85 H :    0.034110
  86 H :    0.038381
  87 H :    0.039815
  88 H :    0.055033
  89 H :    0.047439
  90 H :    0.038000
  91 H :    0.024614
  92 H :    0.024679
  93 H :    0.035009
  94 H :    0.035053
  95 H :    0.037835
  96 H :    0.044083
  97 H :    0.042776
  98 H :    0.040225
  99 H :    0.032396
 100 H :    0.032697
 101 H :    0.033069
 102 H :    0.034657
 103 H :    0.038895

  Mayer bond orders larger than 0.100000
B(  0-C ,  1-C ) :   1.4886 B(  0-C ,  9-C ) :   1.2460 B(  0-C , 82-H ) :   0.9976
B(  1-C ,  2-C ) :   1.2605 B(  1-C , 83-H ) :   0.9892 B(  2-C ,  3-C ) :   1.4893
B(  2-C , 84-H ) :   0.9890 B(  3-C ,  4-C ) :   1.2410 B(  3-C , 85-H ) :   0.9974
B(  4-C ,  5-C ) :   1.2039 B(  4-C ,  9-C ) :   1.2565 B(  5-C ,  6-C ) :   1.4578
B(  5-C , 86-H ) :   0.9942 B(  6-C ,  7-C ) :   1.2145 B(  6-C , 13-C ) :   1.0037
B(  7-C ,  8-C ) :   1.4761 B(  7-C , 10-C ) :   0.9198 B(  8-C ,  9-C ) :   1.1846
B(  8-C , 87-H ) :   1.0159 B( 10-C , 11-O ) :   2.2755 B( 10-C , 12-C ) :   0.9362
B( 12-C , 13-C ) :   1.0348 B( 12-C , 19-C ) :   1.6410 B( 13-C , 14-C ) :   1.6519
B( 14-C , 15-C ) :   1.1523 B( 14-C , 17-C ) :   1.1348 B( 15-C , 16-N ) :   3.0195
B( 17-C , 18-N ) :   2.9899 B( 19-C , 20-C ) :   1.1373 B( 19-C , 88-H ) :   0.9484
B( 20-C , 21-C ) :   1.4016 B( 20-C , 24-S ) :   1.0857 B( 21-C , 22-C ) :   1.3053
B( 21-C , 89-H ) :   1.0005 B( 22-C , 23-C ) :   1.4022 B( 22-C , 27-C ) :   0.9884
B( 23-C , 24-S ) :   1.1553 B( 23-C , 25-C ) :   1.2021 B( 25-C , 26-C ) :   1.4292
B( 25-C , 35-S ) :   1.1216 B( 26-C , 27-C ) :   0.9979 B( 26-C , 33-C ) :   1.2284
B( 27-C , 28-C ) :   1.7174 B( 28-C , 29-C ) :   1.1372 B( 28-C , 31-C ) :   1.1319
B( 29-C , 30-N ) :   2.9884 B( 31-C , 32-N ) :   2.9950 B( 33-C , 34-C ) :   1.4760
B( 33-C , 90-H ) :   0.9805 B( 34-C , 35-S ) :   1.0979 B( 34-C , 36-C ) :   1.1191
B( 36-C , 37-C ) :   1.3840 B( 36-C , 39-C ) :   0.1211 B( 36-C , 45-C ) :   1.2109
B( 37-C , 38-C ) :   1.3138 B( 37-C , 91-H ) :   0.9849 B( 38-C , 39-C ) :   1.3838
B( 38-C , 92-H ) :   0.9844 B( 39-C , 40-C ) :   1.2117 B( 39-C , 46-C ) :   1.1193
B( 40-C , 41-N ) :   1.4785 B( 40-C , 45-C ) :   1.2360 B( 41-N , 42-C ) :   1.6280
B( 42-C , 43-C ) :   1.2300 B( 42-C , 93-H ) :   0.9754 B( 43-C , 44-N ) :   1.6281
B( 43-C , 94-H ) :   0.9749 B( 44-N , 45-C ) :   1.4772 B( 46-C , 47-C ) :   1.4770
B( 46-C , 50-S ) :   1.0974 B( 47-C , 48-C ) :   1.2272 B( 47-C , 95-H ) :   0.9795
B( 48-C , 49-C ) :   1.4288 B( 48-C , 53-C ) :   0.9989 B( 49-C , 50-S ) :   1.1190
B( 49-C , 51-C ) :   1.1961 B( 51-C , 52-C ) :   1.3821 B( 51-C , 61-S ) :   1.1654
B( 52-C , 53-C ) :   0.9911 B( 52-C , 59-C ) :   1.3166 B( 53-C , 54-C ) :   1.7139
B( 54-C , 55-C ) :   1.1334 B( 54-C , 57-C ) :   1.1418 B( 55-C , 56-N ) :   2.9994
B( 57-C , 58-N ) :   2.9860 B( 59-C , 60-C ) :   1.3985 B( 59-C , 96-H ) :   0.9716
B( 60-C , 61-S ) :   1.0756 B( 60-C , 62-C ) :   1.2127 B( 62-C , 63-C ) :   1.5912
B( 62-C , 97-H ) :   0.9161 B( 63-C , 64-C ) :   1.0796 B( 63-C , 80-C ) :   0.9384
B( 64-C , 65-C ) :   1.6210 B( 64-C , 70-C ) :   0.9851 B( 65-C , 66-C ) :   1.1500
B( 65-C , 68-C ) :   1.1404 B( 66-C , 67-N ) :   2.9651 B( 68-C , 69-N ) :   2.9826
B( 70-C , 71-C ) :   1.2144 B( 70-C , 79-C ) :   1.4490 B( 71-C , 72-C ) :   1.4709
B( 71-C , 80-C ) :   0.9530 B( 72-C , 73-C ) :   1.1756 B( 72-C , 98-H ) :   1.0175
B( 73-C , 74-C ) :   1.2448 B( 73-C , 78-C ) :   1.2550 B( 74-C , 75-C ) :   1.4877
B( 74-C , 99-H ) :   0.9981 B( 75-C , 76-C ) :   1.2593 B( 75-C ,100-H ) :   0.9892
B( 76-C , 77-C ) :   1.4886 B( 76-C ,101-H ) :   0.9887 B( 77-C , 78-C ) :   1.2406
B( 77-C ,102-H ) :   0.9974 B( 78-C , 79-C ) :   1.2055 B( 79-C ,103-H ) :   0.9902
B( 80-C , 81-O ) :   2.1776

-----------------------------------------------------------------------------
         ABSORPTION SPECTRUM VIA TRANSITION ELECTRIC DIPOLE MOMENTS
-----------------------------------------------------------------------------
State   Energy  Wavelength   fosc         T2         TX        TY        TZ
        (cm-1)    (nm)                  (au**2)     (au)      (au)      (au)
-----------------------------------------------------------------------------
   0   12925.6    773.7   0.783940089  19.96672   3.87121  -2.07109   0.83126
   1   14143.1    707.1   0.111891309   2.60452  -1.54329  -0.10757   0.45956
   2   19270.6    518.9   1.393354194  23.80359   4.03917  -2.53251   1.03685
   3   20977.8    476.7   0.728904152  11.43892  -2.99242  -0.98853   1.22766
   4   21774.8    459.2   0.000734237   0.01110   0.01582   0.05360   0.08932
   5   23282.8    429.5   0.040908894   0.57844  -0.47810   0.04263   0.58996
   6   23913.2    418.2   0.009619297   0.13243  -0.32484   0.11795  -0.11401
   7   25225.2    396.4   0.059202835   0.77265  -0.05314   0.26811  -0.83543
   8   25495.3    392.2   0.055920355   0.72208  -0.64682   0.53461  -0.13374
   9   27442.6    364.4   0.008769000   0.10520   0.23329   0.17526   0.14162
  10   27561.7    362.8   0.003331648   0.03980   0.18457   0.05447  -0.05254
  11   27667.7    361.4   0.003495354   0.04159   0.02568   0.16313   0.11966
  12   28234.6    354.2   0.007377176   0.08602  -0.25715   0.13398  -0.04405
  13   28485.3    351.1   0.016389176   0.18941   0.39393  -0.18336  -0.02483
  14   28616.6    349.4   0.048818727   0.56162   0.48088  -0.52942   0.22382
  15   28990.5    344.9   0.111837075   1.27001  -0.51697   0.30540  -0.95367
  16   29246.6    341.9   0.011470274   0.12911   0.24073  -0.20477  -0.17098
  17   29387.9    340.3   0.026855400   0.30084   0.23430   0.45972  -0.18602
  18   29951.2    333.9   0.157316609   1.72916  -0.81293   0.71016  -0.75099
  19   30005.5    333.3   0.392949971   4.31134   0.93614   0.73983  -1.69931
  20   30359.0    329.4   0.162289739   1.75986   1.08827  -0.60844   0.45315
  21   30456.5    328.3   0.330022411   3.56729   0.06846  -1.58257   1.02863
  22   30718.6    325.5   0.145842165   1.56300  -0.00495   0.91118  -0.85599
  23   31127.9    321.3   0.463932453   4.90661  -1.38627   1.12997  -1.30691
  24   31405.2    318.4   0.139746453   1.46492   0.75383   0.17735  -0.93017
  25   32143.3    311.1   0.154975989   1.58727   1.13988  -0.17415  -0.50755
  26   32354.1    309.1   0.115709670   1.17738   0.29117   0.59606  -0.85867
  27   32655.7    306.2   0.386592237   3.89735  -1.31576   1.31779  -0.65542
  28   32744.9    305.4   0.308698367   3.10361   1.08065  -0.81337   1.12882
  29   32900.6    303.9   0.016421133   0.16431   0.18576  -0.01079  -0.36013
  30   32954.9    303.4   0.040383359   0.40342  -0.49052   0.20212   0.34923
  31   33309.5    300.2   0.002349885   0.02322  -0.14137  -0.01679  -0.05438
  32   33409.9    299.3   0.012664681   0.12479   0.23584   0.04781   0.25863
  33   33627.6    297.4   0.013381056   0.13100   0.32657  -0.10735   0.11326
  34   33813.8    295.7   0.041094984   0.40010  -0.45742   0.34565  -0.26720
  35   34145.0    292.9   0.315702443   3.04387  -1.64298   0.46719  -0.35530
  36   34355.8    291.1   0.028114241   0.26940   0.06947  -0.25650  -0.44585
  37   34535.2    289.6   0.026126112   0.24905   0.12438  -0.44382   0.19132
  38   34750.1    287.8   0.609764118   5.77672  -0.28064  -1.48317   1.87034
  39   34874.2    286.7   0.241276073   2.27765  -0.29635   1.40266  -0.47156
  40   35034.6    285.4   0.095928431   0.90142   0.91337   0.04657  -0.25494
  41   35183.0    284.2   0.076556292   0.71635   0.31302  -0.22024   0.75489
  42   35493.4    281.7   0.058901784   0.54633   0.24984  -0.07815  -0.69123
  43   35724.5    279.9   0.086596107   0.79801  -0.08009   0.01041  -0.88966
  44   36252.3    275.8   0.132052801   1.19919   0.27044  -0.40870   0.97929
  45   36670.2    272.7   0.255741030   2.29595   0.37154   0.89552  -1.16446
  46   36696.9    272.5   0.091736534   0.82298  -0.45880   0.47919  -0.61876
  47   37227.3    268.6   0.032669837   0.28891   0.14860  -0.08319   0.50981
  48   37319.2    268.0   0.062849192   0.55443   0.66617   0.21136  -0.25686
  49   37480.4    266.8   0.031733908   0.27874  -0.34743   0.39437   0.05005
  50   37512.8    266.6   0.050470911   0.44293   0.57355   0.11032   0.31906
  51   37713.1    265.2   0.120465306   1.05159   0.24635   0.76366  -0.63853
  52   38046.9    262.8   0.013969309   0.12087  -0.31360   0.14747   0.02803
  53   38239.8    261.5   0.010075087   0.08674  -0.27620  -0.08214   0.06085
  54   38257.3    261.4   0.014219431   0.12236   0.12947   0.29191  -0.14278
  55   38348.6    260.8   0.023405065   0.20093  -0.44122   0.05755   0.05425
  56   38682.1    258.5   0.011832088   0.10070  -0.27168   0.06934   0.14859
  57   38836.1    257.5   0.104244939   0.88368  -0.56591   0.58232  -0.47363
  58   39068.9    256.0   0.011754277   0.09905   0.31146  -0.04266   0.01470
  59   39425.8    253.6   0.055739896   0.46544   0.33535   0.34268  -0.48534
  60   39601.7    252.5   0.080107875   0.66594  -0.70468  -0.21870   0.34862
  61   39794.5    251.3   0.039299330   0.32512   0.27339   0.25620  -0.42981
  62   39966.9    250.2   0.179407278   1.47780   1.03093   0.55547  -0.32624
  63   40084.4    249.5   0.053810626   0.44195  -0.21763  -0.45237   0.43583

FINAL SINGLE POINT ENERGY     -4814.248665616907

DIPOLE MOMENT
-------------
                                X             Y             Z
Electronic contribution:    -15.05982       0.72266      14.80086
Nuclear contribution   :     14.98222      -1.72658     -17.84966
                        -----------------------------------------
Total Dipole Moment    :     -0.07759      -1.00392      -3.04880
                        -----------------------------------------
Magnitude (a.u.)       :      3.21077
Magnitude (Debye)      :      8.16113

Rotational constants in cm-1:     0.001391     0.000162     0.000147
Rotational constants in MHz :    41.714868     4.853772     4.402322

                             ****ORCA TERMINATED NORMALLY****
TOTAL RUN TIME: 0 days 0 hours 10 minutes 57 seconds 713 msec
