                         Program Version 4.2.0 -  RELEASE  -
|  1> # ORCA input file
|  2> # SCF done       -171.461643567634          0.000912021302
|  3> ! CAM-B3LYP def2-SVP def2/J RIJCOSX Grid4 TightSCF
|  4> %maxcore 5000
|  5> %tddft
|  6>     Mode sTDDFT
|  7>     Ethresh 5.0
|  8>     maxcore 5000
|  9> end
| 10>
| 11> %pal
| 12>   nprocs 6
| 13>   end
| 14> * xyz 0 1
| 15>    C        4.25689         0.33917         1.77776
| 16>    C        3.41079         1.03106         0.94690
| 17>    N        3.53776         2.44623         0.82113
| 18>    O        4.53523         2.94944         1.29854
| 19>    O        2.65697         3.06279         0.26077
| 20>    C        2.46299         0.20918         0.26885
| 21>    C        1.49223         0.69571        -0.74795
| 22>    C        2.61868        -1.11058         0.63527
| 23>    S        3.92382        -1.32151         1.78213
| 24>    C        1.87900        -2.25918         0.20999
| 25>    C        0.57943        -2.32739        -0.24500
| 26>    C        0.20399        -3.63637        -0.56468
| 27>    C        1.23028        -4.56935        -0.34415
| 28>    S        2.65221        -3.83919         0.25454
| 29>    C        0.75834        -5.85573        -0.70139
| 30>    C       -0.57359        -5.73854        -1.14623
| 31>    C       -0.95312        -4.33198        -1.10198
| 32>    C       -2.11425        -3.77185        -1.54443
| 33>    C       -2.34278        -2.38173        -1.45560
| 34>    N       -2.51974        -1.25138        -1.38021
| 35>    C       -3.13618        -4.51417        -2.17676
| 36>    N       -3.95990        -5.08138        -2.73557
| 37>    C       -1.13991        -6.95561        -1.50398
| 38>    C       -0.23624        -8.00246        -1.35886
| 39>    S        1.32596        -7.46410        -0.75487
| 40>    C       -0.47054        -9.35335        -1.67532
| 41>    C       -1.69388        -9.93034        -2.04453
| 42>    C       -1.56944       -11.32217        -2.37746
| 43>    N       -2.61355       -12.04328        -2.78317
| 44>    C       -3.77768       -11.43204        -2.82815
| 45>    C       -4.94139       -12.22225        -3.30195
| 46>    O       -4.85228       -13.38916        -3.61975
| 47>    C       -6.21218       -11.47947        -3.36377
| 48>    C       -6.35099       -10.21248        -2.96017
| 49>    C       -5.25086        -9.40909        -2.39684
| 50>    O       -5.42598        -8.31179        -1.91481
| 51>    C       -3.91625       -10.06192        -2.43668
| 52>    N       -2.88652        -9.33038        -2.07054
| 53>    C       -0.26781       -11.81661        -2.24213
| 54>    S        0.79062       -10.55357        -1.70093
| 55>    C        0.13424       -13.13029        -2.53388
| 56>    C        1.40103       -13.68629        -2.40568
| 57>    C        1.42067       -15.00710        -2.83317
| 58>    C        0.16177       -15.45385        -3.29248
| 59>    S       -1.05126       -14.25685        -3.18081
| 60>    C        0.29239       -16.79521        -3.73201
| 61>    C        1.63388       -17.19202        -3.54535
| 62>    C        2.38186       -16.08880        -2.96641
| 63>    C        3.70187       -16.07045        -2.62212
| 64>    C        4.31484       -14.92754        -2.06745
| 65>    N        4.81463       -13.99789        -1.61875
| 66>    C        4.53645       -17.19385        -2.79864
| 67>    N        5.21236       -18.10852        -2.94489
| 68>    C        1.86526       -18.48904        -3.97358
| 69>    C        0.72141       -19.08733        -4.49904
| 70>    S       -0.66943       -18.01259        -4.43733
| 71>    C        0.71740       -20.41067        -5.01737
| 72>    C       -0.19896       -21.14547        -5.77944
| 73>    N       -1.46238       -20.67443        -6.15740
| 74>    O       -1.90572       -19.68474        -5.57853
| 75>    O       -2.07642       -21.25442        -7.03028
| 76>    C        0.27203       -22.44667        -6.15374
| 77>    C       -0.48496       -23.44350        -6.95796
| 78>    C        1.51319       -22.68051        -5.66043
| 79>    S        2.15330       -21.35871        -4.76784
| 80>    H        5.03951         0.75738         2.37976
| 81>    H        1.87621         1.58196        -1.24599
| 82>    H        0.55249         0.97825        -0.27362
| 83>    H        1.29205        -0.07788        -1.48539
| 84>    H       -0.07451        -1.47859        -0.30158
| 85>    H       -2.14504        -7.11665        -1.85055
| 86>    H       -7.05074       -12.04185        -3.75191
| 87>    H       -7.30686        -9.70836        -3.00575
| 88>    H        2.24193       -13.13552        -2.02346
| 89>    H        2.81615       -18.98956        -3.92927
| 90>    H       -1.46404       -23.62875        -6.51999
| 91>    H        0.06991       -24.37674        -7.00794
| 92>    H       -0.65200       -23.06924        -7.96635
| 93>    H        2.10294       -23.56794        -5.77330
| 94> *
| 95>
| 96>                          ****END OF INPUT****

CARTESIAN COORDINATES (ANGSTROEM)
---------------------------------
  C      4.256890    0.339170    1.777760
  C      3.410790    1.031060    0.946900
  N      3.537760    2.446230    0.821130
  O      4.535230    2.949440    1.298540
  O      2.656970    3.062790    0.260770
  C      2.462990    0.209180    0.268850
  C      1.492230    0.695710   -0.747950
  C      2.618680   -1.110580    0.635270
  S      3.923820   -1.321510    1.782130
  C      1.879000   -2.259180    0.209990
  C      0.579430   -2.327390   -0.245000
  C      0.203990   -3.636370   -0.564680
  C      1.230280   -4.569350   -0.344150
  S      2.652210   -3.839190    0.254540
  C      0.758340   -5.855730   -0.701390
  C     -0.573590   -5.738540   -1.146230
  C     -0.953120   -4.331980   -1.101980
  C     -2.114250   -3.771850   -1.544430
  C     -2.342780   -2.381730   -1.455600
  N     -2.519740   -1.251380   -1.380210
  C     -3.136180   -4.514170   -2.176760
  N     -3.959900   -5.081380   -2.735570
  C     -1.139910   -6.955610   -1.503980
  C     -0.236240   -8.002460   -1.358860
  S      1.325960   -7.464100   -0.754870
  C     -0.470540   -9.353350   -1.675320
  C     -1.693880   -9.930340   -2.044530
  C     -1.569440  -11.322170   -2.377460
  N     -2.613550  -12.043280   -2.783170
  C     -3.777680  -11.432040   -2.828150
  C     -4.941390  -12.222250   -3.301950
  O     -4.852280  -13.389160   -3.619750
  C     -6.212180  -11.479470   -3.363770
  C     -6.350990  -10.212480   -2.960170
  C     -5.250860   -9.409090   -2.396840
  O     -5.425980   -8.311790   -1.914810
  C     -3.916250  -10.061920   -2.436680
  N     -2.886520   -9.330380   -2.070540
  C     -0.267810  -11.816610   -2.242130
  S      0.790620  -10.553570   -1.700930
  C      0.134240  -13.130290   -2.533880
  C      1.401030  -13.686290   -2.405680
  C      1.420670  -15.007100   -2.833170
  C      0.161770  -15.453850   -3.292480
  S     -1.051260  -14.256850   -3.180810
  C      0.292390  -16.795210   -3.732010
  C      1.633880  -17.192020   -3.545350
  C      2.381860  -16.088800   -2.966410
  C      3.701870  -16.070450   -2.622120
  C      4.314840  -14.927540   -2.067450
  N      4.814630  -13.997890   -1.618750
  C      4.536450  -17.193850   -2.798640
  N      5.212360  -18.108520   -2.944890
  C      1.865260  -18.489040   -3.973580
  C      0.721410  -19.087330   -4.499040
  S     -0.669430  -18.012590   -4.437330
  C      0.717400  -20.410670   -5.017370
  C     -0.198960  -21.145470   -5.779440
  N     -1.462380  -20.674430   -6.157400
  O     -1.905720  -19.684740   -5.578530
  O     -2.076420  -21.254420   -7.030280
  C      0.272030  -22.446670   -6.153740
  C     -0.484960  -23.443500   -6.957960
  C      1.513190  -22.680510   -5.660430
  S      2.153300  -21.358710   -4.767840
  H      5.039510    0.757380    2.379760
  H      1.876210    1.581960   -1.245990
  H      0.552490    0.978250   -0.273620
  H      1.292050   -0.077880   -1.485390
  H     -0.074510   -1.478590   -0.301580
  H     -2.145040   -7.116650   -1.850550
  H     -7.050740  -12.041850   -3.751910
  H     -7.306860   -9.708360   -3.005750
  H      2.241930  -13.135520   -2.023460
  H      2.816150  -18.989560   -3.929270
  H     -1.464040  -23.628750   -6.519990
  H      0.069910  -24.376740   -7.007940
  H     -0.652000  -23.069240   -7.966350
  H      2.102940  -23.567940   -5.773300

 Total Charge           Charge          ....    0
 Multiplicity           Mult            ....    1
 Number of Electrons    NEL             ....  494
 Basis Dimension        Dim             .... 1008

ORBITAL ENERGIES
----------------

  NO   OCC          E(Eh)            E(eV)
   0   2.0000     -89.005055     -2421.9507
   1   2.0000     -88.996719     -2421.7238
   2   2.0000     -88.995076     -2421.6791
   3   2.0000     -88.989359     -2421.5236
   4   2.0000     -88.987527     -2421.4737
   5   2.0000     -88.987389     -2421.4700
   6   2.0000     -88.980902     -2421.2934
   7   2.0000     -19.247585      -523.7534
   8   2.0000     -19.247489      -523.7508
   9   2.0000     -19.244330      -523.6648
  10   2.0000     -19.240690      -523.5658
  11   2.0000     -19.230423      -523.2864
  12   2.0000     -19.228584      -523.2364
  13   2.0000     -14.655619      -398.7997
  14   2.0000     -14.651755      -398.6945
  15   2.0000     -14.457490      -393.4083
  16   2.0000     -14.454405      -393.3244
  17   2.0000     -14.433184      -392.7469
  18   2.0000     -14.431708      -392.7067
  19   2.0000     -14.431095      -392.6901
  20   2.0000     -14.428334      -392.6149
  21   2.0000     -10.380209      -282.4599
  22   2.0000     -10.377468      -282.3853
  23   2.0000     -10.368023      -282.1282
  24   2.0000     -10.363902      -282.0161
  25   2.0000     -10.353811      -281.7415
  26   2.0000     -10.352991      -281.7192
  27   2.0000     -10.350251      -281.6446
  28   2.0000     -10.347572      -281.5717
  29   2.0000     -10.345736      -281.5218
  30   2.0000     -10.342215      -281.4260
  31   2.0000     -10.340295      -281.3737
  32   2.0000     -10.339488      -281.3518
  33   2.0000     -10.337972      -281.3105
  34   2.0000     -10.337895      -281.3084
  35   2.0000     -10.337020      -281.2846
  36   2.0000     -10.335915      -281.2546
  37   2.0000     -10.334787      -281.2239
  38   2.0000     -10.334407      -281.2135
  39   2.0000     -10.333740      -281.1954
  40   2.0000     -10.333265      -281.1824
  41   2.0000     -10.332520      -281.1622
  42   2.0000     -10.332170      -281.1526
  43   2.0000     -10.331791      -281.1423
  44   2.0000     -10.331382      -281.1312
  45   2.0000     -10.328433      -281.0509
  46   2.0000     -10.327830      -281.0345
  47   2.0000     -10.327628      -281.0290
  48   2.0000     -10.327315      -281.0205
  49   2.0000     -10.324747      -280.9507
  50   2.0000     -10.311752      -280.5970
  51   2.0000     -10.311533      -280.5911
  52   2.0000     -10.310721      -280.5690
  53   2.0000     -10.307630      -280.4849
  54   2.0000     -10.307552      -280.4828
  55   2.0000     -10.307228      -280.4739
  56   2.0000     -10.307037      -280.4687
  57   2.0000     -10.306197      -280.4459
  58   2.0000     -10.305498      -280.4269
  59   2.0000     -10.305231      -280.4196
  60   2.0000     -10.304550      -280.4011
  61   2.0000     -10.302522      -280.3459
  62   2.0000     -10.302349      -280.3412
  63   2.0000     -10.272317      -279.5240
  64   2.0000     -10.272304      -279.5236
  65   2.0000      -8.099481      -220.3981
  66   2.0000      -8.091448      -220.1795
  67   2.0000      -8.089935      -220.1383
  68   2.0000      -8.083390      -219.9602
  69   2.0000      -8.081434      -219.9070
  70   2.0000      -8.080728      -219.8878
  71   2.0000      -8.076625      -219.7761
  72   2.0000      -6.068596      -165.1349
  73   2.0000      -6.064480      -165.0229
  74   2.0000      -6.062090      -164.9579
  75   2.0000      -6.060747      -164.9213
  76   2.0000      -6.059196      -164.8791
  77   2.0000      -6.056586      -164.8081
  78   2.0000      -6.055029      -164.7657
  79   2.0000      -6.053696      -164.7295
  80   2.0000      -6.052538      -164.6979
  81   2.0000      -6.052218      -164.6892
  82   2.0000      -6.050968      -164.6552
  83   2.0000      -6.050099      -164.6316
  84   2.0000      -6.048281      -164.5821
  85   2.0000      -6.046130      -164.5236
  86   2.0000      -6.046072      -164.5220
  87   2.0000      -6.045801      -164.5146
  88   2.0000      -6.045629      -164.5099
  89   2.0000      -6.043923      -164.4635
  90   2.0000      -6.043106      -164.4413
  91   2.0000      -6.041519      -164.3981
  92   2.0000      -6.038733      -164.3223
  93   2.0000      -1.327193       -36.1148
  94   2.0000      -1.324800       -36.0497
  95   2.0000      -1.147518       -31.2256
  96   2.0000      -1.143708       -31.1219
  97   2.0000      -1.142702       -31.0945
  98   2.0000      -1.142339       -31.0846
  99   2.0000      -1.106913       -30.1206
 100   2.0000      -1.049349       -28.5542
 101   2.0000      -1.044732       -28.4286
 102   2.0000      -1.034701       -28.1557
 103   2.0000      -1.024493       -27.8779
 104   2.0000      -1.023852       -27.8604
 105   2.0000      -1.022559       -27.8252
 106   2.0000      -1.018879       -27.7251
 107   2.0000      -1.013614       -27.5818
 108   2.0000      -1.009215       -27.4621
 109   2.0000      -1.007603       -27.4183
 110   2.0000      -0.997443       -27.1418
 111   2.0000      -0.988377       -26.8951
 112   2.0000      -0.962127       -26.1808
 113   2.0000      -0.957172       -26.0460
 114   2.0000      -0.942512       -25.6471
 115   2.0000      -0.924241       -25.1499
 116   2.0000      -0.917800       -24.9746
 117   2.0000      -0.913138       -24.8477
 118   2.0000      -0.905755       -24.6469
 119   2.0000      -0.888956       -24.1897
 120   2.0000      -0.885410       -24.0932
 121   2.0000      -0.881988       -24.0001
 122   2.0000      -0.878094       -23.8942
 123   2.0000      -0.867501       -23.6059
 124   2.0000      -0.859220       -23.3806
 125   2.0000      -0.858561       -23.3626
 126   2.0000      -0.854518       -23.2526
 127   2.0000      -0.827639       -22.5212
 128   2.0000      -0.817221       -22.2377
 129   2.0000      -0.801695       -21.8152
 130   2.0000      -0.796086       -21.6626
 131   2.0000      -0.793824       -21.6010
 132   2.0000      -0.779179       -21.2025
 133   2.0000      -0.776768       -21.1369
 134   2.0000      -0.769179       -20.9304
 135   2.0000      -0.764682       -20.8081
 136   2.0000      -0.762120       -20.7383
 137   2.0000      -0.746578       -20.3154
 138   2.0000      -0.739314       -20.1178
 139   2.0000      -0.711476       -19.3603
 140   2.0000      -0.708700       -19.2847
 141   2.0000      -0.699132       -19.0244
 142   2.0000      -0.692095       -18.8329
 143   2.0000      -0.686489       -18.6803
 144   2.0000      -0.683895       -18.6097
 145   2.0000      -0.683385       -18.5958
 146   2.0000      -0.671649       -18.2765
 147   2.0000      -0.665945       -18.1213
 148   2.0000      -0.660989       -17.9864
 149   2.0000      -0.650822       -17.7098
 150   2.0000      -0.646075       -17.5806
 151   2.0000      -0.637097       -17.3363
 152   2.0000      -0.635959       -17.3053
 153   2.0000      -0.634216       -17.2579
 154   2.0000      -0.630083       -17.1454
 155   2.0000      -0.629474       -17.1289
 156   2.0000      -0.622104       -16.9283
 157   2.0000      -0.619113       -16.8469
 158   2.0000      -0.617723       -16.8091
 159   2.0000      -0.613583       -16.6965
 160   2.0000      -0.608707       -16.5638
 161   2.0000      -0.602328       -16.3902
 162   2.0000      -0.598202       -16.2779
 163   2.0000      -0.587447       -15.9852
 164   2.0000      -0.582647       -15.8546
 165   2.0000      -0.574221       -15.6253
 166   2.0000      -0.570913       -15.5353
 167   2.0000      -0.565845       -15.3974
 168   2.0000      -0.562021       -15.2934
 169   2.0000      -0.561095       -15.2682
 170   2.0000      -0.553174       -15.0526
 171   2.0000      -0.549621       -14.9560
 172   2.0000      -0.547993       -14.9117
 173   2.0000      -0.547362       -14.8945
 174   2.0000      -0.533478       -14.5167
 175   2.0000      -0.532055       -14.4780
 176   2.0000      -0.528084       -14.3699
 177   2.0000      -0.525789       -14.3074
 178   2.0000      -0.524287       -14.2666
 179   2.0000      -0.521710       -14.1965
 180   2.0000      -0.517066       -14.0701
 181   2.0000      -0.513154       -13.9636
 182   2.0000      -0.510925       -13.9030
 183   2.0000      -0.507579       -13.8119
 184   2.0000      -0.506271       -13.7763
 185   2.0000      -0.504063       -13.7163
 186   2.0000      -0.502851       -13.6833
 187   2.0000      -0.501684       -13.6515
 188   2.0000      -0.499400       -13.5894
 189   2.0000      -0.496477       -13.5098
 190   2.0000      -0.495380       -13.4800
 191   2.0000      -0.494159       -13.4467
 192   2.0000      -0.492418       -13.3994
 193   2.0000      -0.487391       -13.2626
 194   2.0000      -0.486343       -13.2341
 195   2.0000      -0.483478       -13.1561
 196   2.0000      -0.477493       -12.9932
 197   2.0000      -0.471252       -12.8234
 198   2.0000      -0.470282       -12.7970
 199   2.0000      -0.469118       -12.7653
 200   2.0000      -0.465762       -12.6740
 201   2.0000      -0.463216       -12.6047
 202   2.0000      -0.463183       -12.6038
 203   2.0000      -0.462635       -12.5890
 204   2.0000      -0.460045       -12.5185
 205   2.0000      -0.459158       -12.4943
 206   2.0000      -0.455215       -12.3870
 207   2.0000      -0.453022       -12.3274
 208   2.0000      -0.450456       -12.2575
 209   2.0000      -0.445547       -12.1239
 210   2.0000      -0.444100       -12.0846
 211   2.0000      -0.441747       -12.0206
 212   2.0000      -0.440716       -11.9925
 213   2.0000      -0.440655       -11.9908
 214   2.0000      -0.440076       -11.9751
 215   2.0000      -0.439654       -11.9636
 216   2.0000      -0.435676       -11.8553
 217   2.0000      -0.433730       -11.8024
 218   2.0000      -0.427331       -11.6283
 219   2.0000      -0.426078       -11.5942
 220   2.0000      -0.417580       -11.3629
 221   2.0000      -0.411578       -11.1996
 222   2.0000      -0.405775       -11.0417
 223   2.0000      -0.394523       -10.7355
 224   2.0000      -0.393345       -10.7035
 225   2.0000      -0.387459       -10.5433
 226   2.0000      -0.386609       -10.5202
 227   2.0000      -0.384476       -10.4621
 228   2.0000      -0.380972       -10.3668
 229   2.0000      -0.375532       -10.2188
 230   2.0000      -0.370143       -10.0721
 231   2.0000      -0.368097       -10.0164
 232   2.0000      -0.365802        -9.9540
 233   2.0000      -0.358971        -9.7681
 234   2.0000      -0.356319        -9.6959
 235   2.0000      -0.352379        -9.5887
 236   2.0000      -0.349474        -9.5097
 237   2.0000      -0.345639        -9.4053
 238   2.0000      -0.345137        -9.3917
 239   2.0000      -0.343068        -9.3354
 240   2.0000      -0.340147        -9.2559
 241   2.0000      -0.333132        -9.0650
 242   2.0000      -0.325525        -8.8580
 243   2.0000      -0.321535        -8.7494
 244   2.0000      -0.300792        -8.1850
 245   2.0000      -0.272382        -7.4119
 246   2.0000      -0.236848        -6.4450
 247   0.0000      -0.118157        -3.2152
 248   0.0000      -0.105010        -2.8575
 249   0.0000      -0.094244        -2.5645
 250   0.0000      -0.089490        -2.4352
 251   0.0000      -0.067361        -1.8330

MULLIKEN ATOMIC CHARGES
-----------------------
   0 C :   -0.087506
   1 C :    0.107186
   2 N :    0.259587
   3 O :   -0.245217
   4 O :   -0.236139
   5 C :   -0.065833
   6 C :    0.136627
   7 C :   -0.158274
   8 S :    0.165867
   9 C :   -0.078227
  10 C :   -0.039614
  11 C :    0.003321
  12 C :   -0.097694
  13 S :    0.185230
  14 C :   -0.094615
  15 C :    0.024815
  16 C :    0.302059
  17 C :   -0.293929
  18 C :   -0.188459
  19 N :    0.169404
  20 C :   -0.194160
  21 N :    0.199769
  22 C :   -0.057125
  23 C :   -0.091186
  24 S :    0.183371
  25 C :   -0.126684
  26 C :    0.036977
  27 C :    0.012746
  28 N :    0.032612
  29 C :   -0.115582
  30 C :    0.138885
  31 O :   -0.104912
  32 C :   -0.018078
  33 C :   -0.011298
  34 C :    0.137228
  35 O :   -0.094818
  36 C :   -0.113166
  37 N :    0.066353
  38 C :   -0.110557
  39 S :    0.214329
  40 C :   -0.075272
  41 C :   -0.084445
  42 C :    0.026943
  43 C :   -0.089949
  44 S :    0.247610
  45 C :   -0.079022
  46 C :    0.036395
  47 C :    0.306849
  48 C :   -0.303170
  49 C :   -0.188213
  50 N :    0.169070
  51 C :   -0.190466
  52 N :    0.168428
  53 C :   -0.086904
  54 C :   -0.062714
  55 S :    0.253121
  56 C :   -0.146212
  57 C :    0.130582
  58 N :    0.286293
  59 O :   -0.286170
  60 O :   -0.238813
  61 C :   -0.102781
  62 C :    0.161428
  63 C :   -0.115868
  64 S :    0.149394
  65 H :    0.046538
  66 H :    0.036139
  67 H :    0.048613
  68 H :    0.021716
  69 H :    0.008834
  70 H :    0.028932
  71 H :    0.019223
  72 H :    0.021948
  73 H :    0.006416
  74 H :    0.022239
  75 H :    0.029403
  76 H :    0.001813
  77 H :    0.040194
  78 H :    0.028588
Sum of atomic charges:   -0.0000000

LOEWDIN ATOMIC CHARGES
----------------------
   0 C :   -0.151120
   1 C :   -0.075526
   2 N :    0.285896
   3 O :   -0.208724
   4 O :   -0.195766
   5 C :   -0.033674
   6 C :   -0.048272
   7 C :   -0.198977
   8 S :    0.472098
   9 C :   -0.179041
  10 C :   -0.029304
  11 C :   -0.067514
  12 C :   -0.181627
  13 S :    0.466156
  14 C :   -0.178703
  15 C :   -0.066140
  16 C :    0.078056
  17 C :   -0.092946
  18 C :   -0.014260
  19 N :   -0.032003
  20 C :   -0.023557
  21 N :   -0.013547
  22 C :   -0.007156
  23 C :   -0.185993
  24 S :    0.464034
  25 C :   -0.190485
  26 C :   -0.044178
  27 C :   -0.055178
  28 N :   -0.010990
  29 C :   -0.038294
  30 C :    0.055253
  31 O :   -0.102395
  32 C :   -0.014634
  33 C :   -0.008831
  34 C :    0.054665
  35 O :   -0.089802
  36 C :   -0.038881
  37 N :    0.009867
  38 C :   -0.191140
  39 S :    0.502770
  40 C :   -0.181661
  41 C :   -0.030947
  42 C :   -0.069169
  43 C :   -0.179481
  44 S :    0.534163
  45 C :   -0.184964
  46 C :   -0.072287
  47 C :    0.083415
  48 C :   -0.109216
  49 C :   -0.015924
  50 N :   -0.038854
  51 C :   -0.016587
  52 N :   -0.036574
  53 C :   -0.025753
  54 C :   -0.201308
  55 S :    0.549115
  56 C :   -0.141721
  57 C :   -0.089066
  58 N :    0.292027
  59 O :   -0.244421
  60 O :   -0.190568
  61 C :   -0.043430
  62 C :   -0.043814
  63 C :   -0.190003
  64 S :    0.480590
  65 H :    0.039455
  66 H :    0.038166
  67 H :    0.048145
  68 H :    0.033876
  69 H :    0.041824
  70 H :    0.044382
  71 H :    0.046201
  72 H :    0.047215
  73 H :    0.036204
  74 H :    0.031819
  75 H :    0.039100
  76 H :    0.028861
  77 H :    0.042516
  78 H :    0.028541

  Mayer bond orders larger than 0.100000
B(  0-C ,  1-C ) :   1.5269 B(  0-C ,  8-S ) :   1.2016 B(  0-C , 65-H ) :   0.9562
B(  1-C ,  2-N ) :   0.9129 B(  1-C ,  5-C ) :   1.2460 B(  2-N ,  3-O ) :   1.5471
B(  2-N ,  4-O ) :   1.5274 B(  3-O ,  4-O ) :   0.2664 B(  5-C ,  6-C ) :   1.1295
B(  5-C ,  7-C ) :   1.5598 B(  6-C , 66-H ) :   0.9250 B(  6-C , 67-H ) :   0.9283
B(  6-C , 68-H ) :   0.9318 B(  7-C ,  8-S ) :   1.1247 B(  7-C ,  9-C ) :   1.0827
B(  9-C , 10-C ) :   1.4931 B(  9-C , 13-S ) :   1.1038 B( 10-C , 11-C ) :   1.2698
B( 10-C , 69-H ) :   0.9954 B( 11-C , 12-C ) :   1.4457 B( 11-C , 16-C ) :   0.9998
B( 12-C , 13-S ) :   1.1178 B( 12-C , 14-C ) :   1.1967 B( 14-C , 15-C ) :   1.4268
B( 14-C , 24-S ) :   1.1232 B( 15-C , 16-C ) :   0.9869 B( 15-C , 22-C ) :   1.2739
B( 16-C , 17-C ) :   1.7163 B( 17-C , 18-C ) :   1.1373 B( 17-C , 20-C ) :   1.1330
B( 18-C , 19-N ) :   2.9860 B( 20-C , 21-N ) :   3.0039 B( 22-C , 23-C ) :   1.4553
B( 22-C , 70-H ) :   0.9871 B( 23-C , 24-S ) :   1.0825 B( 23-C , 25-C ) :   1.1872
B( 25-C , 26-C ) :   1.3707 B( 25-C , 38-C ) :   0.1329 B( 25-C , 39-S ) :   1.1522
B( 26-C , 27-C ) :   1.1829 B( 26-C , 37-N ) :   1.4382 B( 27-C , 28-N ) :   1.4167
B( 27-C , 38-C ) :   1.3233 B( 28-N , 29-C ) :   1.7001 B( 29-C , 30-C ) :   0.8939
B( 29-C , 36-C ) :   1.0977 B( 30-C , 31-O ) :   2.2502 B( 30-C , 32-C ) :   1.0248
B( 32-C , 33-C ) :   1.6838 B( 32-C , 71-H ) :   0.9967 B( 33-C , 34-C ) :   1.0212
B( 33-C , 72-H ) :   0.9961 B( 34-C , 35-O ) :   2.2436 B( 34-C , 36-C ) :   0.8927
B( 36-C , 37-N ) :   1.7150 B( 38-C , 39-S ) :   1.1530 B( 38-C , 40-C ) :   1.2372
B( 40-C , 41-C ) :   1.3914 B( 40-C , 44-S ) :   1.1135 B( 41-C , 42-C ) :   1.3208
B( 41-C , 73-H ) :   0.9940 B( 42-C , 43-C ) :   1.4051 B( 42-C , 47-C ) :   0.9945
B( 43-C , 44-S ) :   1.1051 B( 43-C , 45-C ) :   1.1913 B( 45-C , 46-C ) :   1.3910
B( 45-C , 55-S ) :   1.1138 B( 46-C , 47-C ) :   0.9918 B( 46-C , 53-C ) :   1.3480
B( 47-C , 48-C ) :   1.7058 B( 48-C , 49-C ) :   1.1348 B( 48-C , 51-C ) :   1.1355
B( 49-C , 50-N ) :   2.9929 B( 51-C , 52-N ) :   2.9880 B( 53-C , 54-C ) :   1.3870
B( 53-C , 74-H ) :   0.9801 B( 54-C , 55-S ) :   1.1058 B( 54-C , 56-C ) :   1.2016
B( 56-C , 57-C ) :   1.4078 B( 56-C , 64-S ) :   1.2137 B( 57-C , 58-N ) :   0.9905
B( 57-C , 61-C ) :   1.2181 B( 58-N , 59-O ) :   1.4181 B( 58-N , 60-O ) :   1.5281
B( 59-O , 60-O ) :   0.2391 B( 61-C , 62-C ) :   1.1020 B( 61-C , 63-C ) :   1.6283
B( 62-C , 75-H ) :   0.9388 B( 62-C , 76-H ) :   0.9394 B( 62-C , 77-H ) :   0.9364
B( 63-C , 64-S ) :   1.1030 B( 63-C , 78-H ) :   0.9651

-----------------------------------------------------------------------------
         ABSORPTION SPECTRUM VIA TRANSITION ELECTRIC DIPOLE MOMENTS
-----------------------------------------------------------------------------
State   Energy  Wavelength   fosc         T2         TX        TY        TZ
        (cm-1)    (nm)                  (au**2)     (au)      (au)      (au)
-----------------------------------------------------------------------------
   0   10190.3    981.3   0.677589050  21.89054   0.00311  -4.53041  -1.16873
   1   12041.0    830.5   0.017236080   0.47125   0.65364  -0.19357  -0.08087
   2   13693.8    730.3   0.128431469   3.08761  -0.31942   1.68950   0.36217
   3   16960.3    589.6   0.113995033   2.21273  -1.46755  -0.18251  -0.16038
   4   19512.4    512.5   0.032923591   0.55548  -0.65139   0.32561   0.15858
   5   21539.9    464.3   0.279564181   4.27281   0.28305   1.92463   0.69891
   6   22464.8    445.1   0.464221649   6.80298   0.21333   2.39600   1.00829
   7   24463.1    408.8   0.175859572   2.36663   0.78275   1.26047   0.40639
   8   24782.6    403.5   0.002323490   0.03087   0.00316   0.08497  -0.15374
   9   25773.6    388.0   0.001211066   0.01547  -0.01609  -0.12066  -0.02554
  10   26401.5    378.8   0.409311834   5.10390  -0.10949  -2.20945  -0.45853
  11   26653.6    375.2   0.008035802   0.09925  -0.05467  -0.24252  -0.19352
  12   27086.7    369.2   0.054115017   0.65771  -0.20252  -0.76229  -0.18872
  13   27962.6    357.6   0.282840384   3.32996   0.03567   1.78273   0.38802
  14   29186.3    342.6   0.009263121   0.10449  -0.11294  -0.30287  -0.00016
  15   29312.2    341.2   0.001867877   0.02098  -0.10362  -0.01367  -0.10027
  16   29508.4    338.9   0.297580243   3.31997   1.52534  -0.90141   0.42515
  17   30177.0    331.4   0.124054572   1.35336   1.00540  -0.38412   0.44157
  18   30753.7    325.2   0.000290170   0.00311   0.05042  -0.02041  -0.01214
  19   30940.3    323.2   0.302501706   3.21868   1.32109   1.08129   0.55157
  20   31286.9    319.6   0.241709067   2.54335   0.51723  -1.49865  -0.17284
  21   32070.6    311.8   0.013224540   0.13575  -0.11347  -0.28955  -0.19757
  22   32530.8    307.4   0.069493720   0.70328   0.09062  -0.77186  -0.31512
  23   32668.6    306.1   0.698564720   7.03966  -2.44421  -0.59263  -0.84515
  24   33099.1    302.1   0.008114795   0.08071   0.06365   0.05285   0.27179
  25   33437.4    299.1   0.572254525   5.63420  -2.32946  -0.06386  -0.45140
  26   33687.0    296.9   0.014145340   0.13824  -0.34014  -0.08735  -0.12213
  27   33933.6    294.7   0.017713994   0.17186   0.25959   0.02377   0.32234
  28   34024.5    293.9   0.009012015   0.08720  -0.27861   0.09112   0.03565
  29   34121.7    293.1   0.024169282   0.23319  -0.33702  -0.32656   0.11388
  30   34285.3    291.7   0.013953567   0.13398   0.27622  -0.17634   0.16307
  31   34801.5    287.3   0.004134108   0.03911  -0.15018   0.11097  -0.06510
  32   35054.4    285.3   0.042294220   0.39720  -0.60461   0.02677  -0.17589
  33   35353.7    282.9   0.011603954   0.10806  -0.29136   0.00814  -0.15198
  34   35659.8    280.4   0.004811595   0.04442  -0.08512   0.15208   0.11851
  35   35717.2    280.0   0.075134826   0.69253  -0.31038   0.74021   0.21975
  36   35870.0    278.8   0.053013462   0.48655  -0.41244  -0.49276  -0.27135
  37   36110.0    276.9   0.215096970   1.96102   1.05036  -0.92486   0.04903
  38   36338.8    275.2   0.017278085   0.15653   0.05730   0.39054   0.02694
  39   36375.3    274.9   0.026084894   0.23608  -0.44809   0.04674  -0.18195
  40   36590.9    273.3   0.194530239   1.75021   0.08584  -1.28766  -0.29116
  41   36906.3    271.0   0.009820695   0.08760  -0.19601  -0.12833  -0.18086
  42   36929.1    270.8   0.116533131   1.03886   0.37039   0.86767   0.38578
  43   37023.4    270.1   0.002345858   0.02086   0.06776  -0.11410  -0.05700
  44   37382.0    267.5   0.180897558   1.59311   1.19598   0.10730   0.38889
  45   37486.4    266.8   0.053247424   0.46763   0.64739  -0.15228   0.15913
  46   37770.9    264.8   0.011498884   0.10022  -0.04716  -0.31201  -0.02550
  47   38216.1    261.7   0.024680738   0.21261  -0.15777  -0.36979  -0.22577
  48   38453.0    260.1   0.009897102   0.08473  -0.16083  -0.03358  -0.24029
  49   38520.1    259.6   0.010313196   0.08814  -0.25627  -0.10207  -0.10978
  50   38643.6    258.8   0.016161968   0.13769  -0.28687  -0.20521  -0.11525
  51   38747.4    258.1   0.127207348   1.08080   0.60887   0.80564   0.24702
  52   39104.8    255.7   0.011567987   0.09739   0.23328  -0.17234   0.11518
  53   39339.5    254.2   0.019679384   0.16469  -0.39573  -0.06221  -0.06489
  54   39746.2    251.6   0.044038835   0.36477  -0.54869   0.13490  -0.21334
  55   39902.9    250.6   0.025106263   0.20713   0.43390  -0.13049   0.04285
  56   40097.7    249.4   0.096634827   0.79340  -0.85448  -0.00260  -0.25150
  57   40201.5    248.7   0.031677826   0.25941  -0.47590   0.13838  -0.11738

FINAL SINGLE POINT ENERGY     -5357.441398586209

DIPOLE MOMENT
-------------
                                X             Y             Z
Electronic contribution:      5.67197       4.36392      10.82866
Nuclear contribution   :     -5.02540      -6.92845     -10.57864
                        -----------------------------------------
Total Dipole Moment    :      0.64657      -2.56453       0.25002
                        -----------------------------------------
Magnitude (a.u.)       :      2.65657
Magnitude (Debye)      :      6.75246

Rotational constants in cm-1:     0.002074     0.000293     0.000259
Rotational constants in MHz :    62.176409     8.783108     7.777211

                             ****ORCA TERMINATED NORMALLY****
TOTAL RUN TIME: 0 days 0 hours 7 minutes 30 seconds 723 msec
