                         Program Version 4.2.0 -  RELEASE  -
|  1> # ORCA input file
|  2> # SCF done       -218.111837939512          0.000966169038
|  3> ! CAM-B3LYP def2-SVP def2/J RIJCOSX Grid4 TightSCF
|  4> %maxcore 5000
|  5> %tddft
|  6>     Mode sTDDFT
|  7>     Ethresh 5.0
|  8>     maxcore 5000
|  9> end
| 10>
| 11> %pal
| 12>   nprocs 6
| 13>   end
| 14> * xyz 0 1
| 15>    C       -4.18640         3.16067         2.60425
| 16>    C       -4.64175         3.83534         3.70202
| 17>    F       -4.56458         5.17133         3.75089
| 18>    C       -5.19752         3.13784         4.79375
| 19>    F       -5.63724         3.82600         5.85534
| 20>    C       -5.28968         1.77435         4.77256
| 21>    C       -4.83001         1.05061         3.65516
| 22>    C       -4.26742         1.75447         2.55076
| 23>    C       -3.79807         1.04965         1.41887
| 24>    C       -3.88917        -0.31746         1.39252
| 25>    C       -4.45791        -1.00995         2.49621
| 26>    C       -4.91844        -0.35808         3.60366
| 27>    C       -4.46085        -2.46033         2.22501
| 28>    O       -4.89635        -3.31972         2.95992
| 29>    C       -3.89642        -2.61144         0.86081
| 30>    C       -3.49268        -1.29846         0.38753
| 31>    C       -2.79017        -1.01892        -0.75597
| 32>    C       -2.31498        -1.97217        -1.68163
| 33>    N       -1.87908        -2.68648        -2.46824
| 34>    C       -2.41071         0.28229        -1.14904
| 35>    N       -2.07981         1.31402        -1.52769
| 36>    C       -3.89820        -3.73843         0.08406
| 37>    C       -4.16485        -5.07847         0.42586
| 38>    C       -4.23355        -5.73572         1.64904
| 39>    C       -4.47733        -7.09345         1.50072
| 40>    C       -4.60630        -7.49019         0.14993
| 41>    S       -4.39254        -6.19563        -0.92871
| 42>    C       -4.89012        -8.87456         0.11520
| 43>    C       -4.93358        -9.36305         1.43496
| 44>    C       -4.66048        -8.26210         2.34801
| 45>    C       -4.57398        -8.32031         3.70631
| 46>    C       -4.77835        -9.51943         4.42466
| 47>    N       -4.94491       -10.48442         5.01981
| 48>    C       -4.25043        -7.19779         4.50086
| 49>    N       -3.96951        -6.30941         5.16759
| 50>    C       -5.21688       -10.72554         1.49929
| 51>    C       -5.39527       -11.27704         0.24162
| 52>    S       -5.19998       -10.09097        -1.04018
| 53>    C       -5.71915       -12.63147        -0.07077
| 54>    C       -5.92232       -13.09091        -1.36352
| 55>    C       -6.27092       -14.40778        -1.66623
| 56>    C       -6.44219       -15.39305        -0.70545
| 57>    C       -6.22362       -14.97410         0.63710
| 58>    C       -5.87198       -13.61072         0.95064
| 59>    N       -5.75239       -13.53525         2.26157
| 60>    O       -6.00723       -14.74863         2.73234
| 61>    N       -6.29303       -15.62700         1.78057
| 62>    C       -6.83420       -16.73120        -1.00957
| 63>    C       -6.97211       -17.78685        -0.12460
| 64>    C       -7.41275       -18.94497        -0.76120
| 65>    C       -7.61568       -18.76915        -2.14373
| 66>    S       -7.24718       -17.18576        -2.65692
| 67>    C       -8.09704       -19.98184        -2.69351
| 68>    C       -8.19859       -20.92840        -1.65286
| 69>    C       -7.75138       -20.31588        -0.41272
| 70>    C       -7.64603       -20.92582         0.80176
| 71>    C       -7.99786       -22.28276         0.96844
| 72>    N       -8.29576       -23.38375         1.08518
| 73>    C       -7.18160       -20.25640         1.95453
| 74>    N       -6.80788       -19.72031         2.89566
| 75>    C       -8.67249       -22.15817        -2.08519
| 76>    C       -8.93475       -22.17155        -3.44902
| 77>    S       -8.60039       -20.61125        -4.19185
| 78>    C       -9.47959       -23.20864        -4.23479
| 79>    C       -9.58851       -24.53557        -3.94287
| 80>    C      -10.60193       -25.34370        -4.68135
| 81>    O      -11.19021       -25.01746        -5.68536
| 82>    C      -10.76606       -26.57617        -3.88651
| 83>    C      -11.67376       -27.58397        -4.04217
| 84>    C      -11.67226       -28.65657        -3.12237
| 85>    C      -10.72885       -28.66151        -2.05365
| 86>    C      -10.73981       -29.72989        -1.13458
| 87>    C      -11.64343       -30.74616        -1.27075
| 88>    C      -12.57618       -30.74011        -2.32772
| 89>    C      -12.59102       -29.71824        -3.23522
| 90>    F      -13.45228       -31.74753        -2.43473
| 91>    F      -11.65235       -31.76102        -0.39771
| 92>    C       -9.79586       -27.60744        -1.92197
| 93>    C       -9.81098       -26.58331        -2.83017
| 94>    C       -8.97444       -25.39122        -2.95035
| 95>    C       -7.72214       -25.25668        -2.40962
| 96>    C       -6.85024       -24.19280        -2.71101
| 97>    N       -6.10794       -23.35081        -2.95232
| 98>    C       -7.12738       -26.21556        -1.56221
| 99>    N       -6.59858       -26.96777        -0.87647
|100>    H       -3.76249         3.71003         1.77816
|101>    H       -5.71716         1.25479         5.61576
|102>    H       -3.38346         1.61230         0.59832
|103>    H       -5.34273        -0.91136         4.42759
|104>    H       -3.68387        -3.59875        -0.96942
|105>    H       -4.11652        -5.22760         2.58827
|106>    H       -5.29966       -11.31188         2.39637
|107>    H       -5.81439       -12.39340        -2.18151
|108>    H       -6.41842       -14.66871        -2.70420
|109>    H       -6.76221       -17.68504         0.92473
|110>    H       -8.87289       -22.99573        -1.44271
|111>    H       -9.95276       -22.90772        -5.16478
|112>    H      -12.38586       -27.56181        -4.85298
|113>    H      -10.03109       -29.75097        -0.32152
|114>    H      -13.31153       -29.72826        -4.03803
|115>    H       -9.10190       -27.62760        -1.09684
|116> *
|117>
|118>                          ****END OF INPUT****

CARTESIAN COORDINATES (ANGSTROEM)
---------------------------------
  C     -4.186400    3.160670    2.604250
  C     -4.641750    3.835340    3.702020
  F     -4.564580    5.171330    3.750890
  C     -5.197520    3.137840    4.793750
  F     -5.637240    3.826000    5.855340
  C     -5.289680    1.774350    4.772560
  C     -4.830010    1.050610    3.655160
  C     -4.267420    1.754470    2.550760
  C     -3.798070    1.049650    1.418870
  C     -3.889170   -0.317460    1.392520
  C     -4.457910   -1.009950    2.496210
  C     -4.918440   -0.358080    3.603660
  C     -4.460850   -2.460330    2.225010
  O     -4.896350   -3.319720    2.959920
  C     -3.896420   -2.611440    0.860810
  C     -3.492680   -1.298460    0.387530
  C     -2.790170   -1.018920   -0.755970
  C     -2.314980   -1.972170   -1.681630
  N     -1.879080   -2.686480   -2.468240
  C     -2.410710    0.282290   -1.149040
  N     -2.079810    1.314020   -1.527690
  C     -3.898200   -3.738430    0.084060
  C     -4.164850   -5.078470    0.425860
  C     -4.233550   -5.735720    1.649040
  C     -4.477330   -7.093450    1.500720
  C     -4.606300   -7.490190    0.149930
  S     -4.392540   -6.195630   -0.928710
  C     -4.890120   -8.874560    0.115200
  C     -4.933580   -9.363050    1.434960
  C     -4.660480   -8.262100    2.348010
  C     -4.573980   -8.320310    3.706310
  C     -4.778350   -9.519430    4.424660
  N     -4.944910  -10.484420    5.019810
  C     -4.250430   -7.197790    4.500860
  N     -3.969510   -6.309410    5.167590
  C     -5.216880  -10.725540    1.499290
  C     -5.395270  -11.277040    0.241620
  S     -5.199980  -10.090970   -1.040180
  C     -5.719150  -12.631470   -0.070770
  C     -5.922320  -13.090910   -1.363520
  C     -6.270920  -14.407780   -1.666230
  C     -6.442190  -15.393050   -0.705450
  C     -6.223620  -14.974100    0.637100
  C     -5.871980  -13.610720    0.950640
  N     -5.752390  -13.535250    2.261570
  O     -6.007230  -14.748630    2.732340
  N     -6.293030  -15.627000    1.780570
  C     -6.834200  -16.731200   -1.009570
  C     -6.972110  -17.786850   -0.124600
  C     -7.412750  -18.944970   -0.761200
  C     -7.615680  -18.769150   -2.143730
  S     -7.247180  -17.185760   -2.656920
  C     -8.097040  -19.981840   -2.693510
  C     -8.198590  -20.928400   -1.652860
  C     -7.751380  -20.315880   -0.412720
  C     -7.646030  -20.925820    0.801760
  C     -7.997860  -22.282760    0.968440
  N     -8.295760  -23.383750    1.085180
  C     -7.181600  -20.256400    1.954530
  N     -6.807880  -19.720310    2.895660
  C     -8.672490  -22.158170   -2.085190
  C     -8.934750  -22.171550   -3.449020
  S     -8.600390  -20.611250   -4.191850
  C     -9.479590  -23.208640   -4.234790
  C     -9.588510  -24.535570   -3.942870
  C    -10.601930  -25.343700   -4.681350
  O    -11.190210  -25.017460   -5.685360
  C    -10.766060  -26.576170   -3.886510
  C    -11.673760  -27.583970   -4.042170
  C    -11.672260  -28.656570   -3.122370
  C    -10.728850  -28.661510   -2.053650
  C    -10.739810  -29.729890   -1.134580
  C    -11.643430  -30.746160   -1.270750
  C    -12.576180  -30.740110   -2.327720
  C    -12.591020  -29.718240   -3.235220
  F    -13.452280  -31.747530   -2.434730
  F    -11.652350  -31.761020   -0.397710
  C     -9.795860  -27.607440   -1.921970
  C     -9.810980  -26.583310   -2.830170
  C     -8.974440  -25.391220   -2.950350
  C     -7.722140  -25.256680   -2.409620
  C     -6.850240  -24.192800   -2.711010
  N     -6.107940  -23.350810   -2.952320
  C     -7.127380  -26.215560   -1.562210
  N     -6.598580  -26.967770   -0.876470
  H     -3.762490    3.710030    1.778160
  H     -5.717160    1.254790    5.615760
  H     -3.383460    1.612300    0.598320
  H     -5.342730   -0.911360    4.427590
  H     -3.683870   -3.598750   -0.969420
  H     -4.116520   -5.227600    2.588270
  H     -5.299660  -11.311880    2.396370
  H     -5.814390  -12.393400   -2.181510
  H     -6.418420  -14.668710   -2.704200
  H     -6.762210  -17.685040    0.924730
  H     -8.872890  -22.995730   -1.442710
  H     -9.952760  -22.907720   -5.164780
  H    -12.385860  -27.561810   -4.852980
  H    -10.031090  -29.750970   -0.321520
  H    -13.311530  -29.728260   -4.038030
  H     -9.101900  -27.627600   -1.096840

 Total Charge           Charge          ....    0
 Multiplicity           Mult            ....    1
 Number of Electrons    NEL             ....  594
 Basis Dimension        Dim             .... 1286

ORBITAL ENERGIES
----------------

  NO   OCC          E(Eh)            E(eV)
   0   2.0000     -89.004866     -2421.9455
   1   2.0000     -89.004727     -2421.9417
   2   2.0000     -89.004584     -2421.9379
   3   2.0000     -89.003876     -2421.9186
   4   2.0000     -24.800315      -674.8509
   5   2.0000     -24.800300      -674.8505
   6   2.0000     -24.799752      -674.8356
   7   2.0000     -24.799309      -674.8235
   8   2.0000     -19.375486      -527.2338
   9   2.0000     -19.224444      -523.1237
  10   2.0000     -19.222141      -523.0611
  11   2.0000     -14.500396      -394.5758
  12   2.0000     -14.500178      -394.5699
  13   2.0000     -14.439711      -392.9245
  14   2.0000     -14.435652      -392.8141
  15   2.0000     -14.435459      -392.8088
  16   2.0000     -14.435113      -392.7994
  17   2.0000     -14.424137      -392.5007
  18   2.0000     -14.422651      -392.4603
  19   2.0000     -14.419813      -392.3830
  20   2.0000     -14.418930      -392.3590
  21   2.0000     -10.383925      -282.5610
  22   2.0000     -10.383690      -282.5546
  23   2.0000     -10.383303      -282.5440
  24   2.0000     -10.383123      -282.5392
  25   2.0000     -10.376205      -282.3509
  26   2.0000     -10.375261      -282.3252
  27   2.0000     -10.375066      -282.3199
  28   2.0000     -10.373722      -282.2833
  29   2.0000     -10.361312      -281.9456
  30   2.0000     -10.360446      -281.9221
  31   2.0000     -10.353902      -281.7440
  32   2.0000     -10.351542      -281.6798
  33   2.0000     -10.350424      -281.6494
  34   2.0000     -10.349061      -281.6123
  35   2.0000     -10.348083      -281.5857
  36   2.0000     -10.347928      -281.5814
  37   2.0000     -10.347772      -281.5772
  38   2.0000     -10.347696      -281.5751
  39   2.0000     -10.347346      -281.5656
  40   2.0000     -10.347126      -281.5596
  41   2.0000     -10.342661      -281.4381
  42   2.0000     -10.340960      -281.3918
  43   2.0000     -10.339648      -281.3561
  44   2.0000     -10.336636      -281.2742
  45   2.0000     -10.336591      -281.2729
  46   2.0000     -10.336476      -281.2698
  47   2.0000     -10.336168      -281.2614
  48   2.0000     -10.335242      -281.2362
  49   2.0000     -10.334717      -281.2220
  50   2.0000     -10.334404      -281.2134
  51   2.0000     -10.334014      -281.2028
  52   2.0000     -10.332723      -281.1677
  53   2.0000     -10.325604      -280.9740
  54   2.0000     -10.325031      -280.9584
  55   2.0000     -10.322696      -280.8948
  56   2.0000     -10.321903      -280.8733
  57   2.0000     -10.321174      -280.8534
  58   2.0000     -10.321084      -280.8510
  59   2.0000     -10.320343      -280.8308
  60   2.0000     -10.320104      -280.8243
  61   2.0000     -10.318345      -280.7764
  62   2.0000     -10.316735      -280.7326
  63   2.0000     -10.316688      -280.7313
  64   2.0000     -10.314984      -280.6850
  65   2.0000     -10.313632      -280.6482
  66   2.0000     -10.313414      -280.6423
  67   2.0000     -10.313373      -280.6411
  68   2.0000     -10.313144      -280.6349
  69   2.0000     -10.311760      -280.5973
  70   2.0000     -10.311614      -280.5933
  71   2.0000     -10.311594      -280.5927
  72   2.0000     -10.310989      -280.5763
  73   2.0000     -10.308599      -280.5113
  74   2.0000     -10.307916      -280.4927
  75   2.0000     -10.306842      -280.4634
  76   2.0000     -10.305855      -280.4366
  77   2.0000     -10.305723      -280.4330
  78   2.0000     -10.305325      -280.4222
  79   2.0000     -10.303687      -280.3776
  80   2.0000     -10.303423      -280.3704
  81   2.0000     -10.302849      -280.3548
  82   2.0000     -10.302557      -280.3468
  83   2.0000     -10.298104      -280.2257
  84   2.0000     -10.296583      -280.1843
  85   2.0000      -8.099428      -220.3966
  86   2.0000      -8.099289      -220.3929
  87   2.0000      -8.099043      -220.3862
  88   2.0000      -8.098634      -220.3750
  89   2.0000      -6.068588      -165.1347
  90   2.0000      -6.068549      -165.1336
  91   2.0000      -6.068312      -165.1272
  92   2.0000      -6.067739      -165.1116
  93   2.0000      -6.064432      -165.0216
  94   2.0000      -6.064383      -165.0203
  95   2.0000      -6.064118      -165.0130
  96   2.0000      -6.063622      -164.9996
  97   2.0000      -6.061962      -164.9544
  98   2.0000      -6.061638      -164.9455
  99   2.0000      -6.061461      -164.9407
 100   2.0000      -6.061172      -164.9329
 101   2.0000      -1.331475       -36.2313
 102   2.0000      -1.323081       -36.0029
 103   2.0000      -1.322970       -35.9998
 104   2.0000      -1.308179       -35.5974
 105   2.0000      -1.308084       -35.5948
 106   2.0000      -1.140429       -31.0327
 107   2.0000      -1.138050       -30.9679
 108   2.0000      -1.058941       -28.8153
 109   2.0000      -1.058569       -28.8051
 110   2.0000      -1.034894       -28.1609
 111   2.0000      -1.031588       -28.0709
 112   2.0000      -1.029484       -28.0137
 113   2.0000      -1.027655       -27.9639
 114   2.0000      -1.025701       -27.9107
 115   2.0000      -1.025021       -27.8922
 116   2.0000      -1.014971       -27.6188
 117   2.0000      -1.012864       -27.5614
 118   2.0000      -1.011364       -27.5206
 119   2.0000      -1.008814       -27.4512
 120   2.0000      -1.008609       -27.4456
 121   2.0000      -1.006206       -27.3802
 122   2.0000      -0.999781       -27.2054
 123   2.0000      -0.999042       -27.1853
 124   2.0000      -0.986051       -26.8318
 125   2.0000      -0.985728       -26.8230
 126   2.0000      -0.972404       -26.4605
 127   2.0000      -0.969862       -26.3913
 128   2.0000      -0.943632       -25.6775
 129   2.0000      -0.939640       -25.5689
 130   2.0000      -0.937971       -25.5235
 131   2.0000      -0.932527       -25.3754
 132   2.0000      -0.924716       -25.1628
 133   2.0000      -0.912834       -24.8395
 134   2.0000      -0.905749       -24.6467
 135   2.0000      -0.899324       -24.4719
 136   2.0000      -0.895908       -24.3789
 137   2.0000      -0.894977       -24.3536
 138   2.0000      -0.886868       -24.1329
 139   2.0000      -0.885950       -24.1079
 140   2.0000      -0.876971       -23.8636
 141   2.0000      -0.869929       -23.6720
 142   2.0000      -0.868859       -23.6429
 143   2.0000      -0.867375       -23.6025
 144   2.0000      -0.844073       -22.9684
 145   2.0000      -0.843713       -22.9586
 146   2.0000      -0.835025       -22.7222
 147   2.0000      -0.823626       -22.4120
 148   2.0000      -0.811410       -22.0796
 149   2.0000      -0.792265       -21.5586
 150   2.0000      -0.790891       -21.5212
 151   2.0000      -0.783398       -21.3173
 152   2.0000      -0.781571       -21.2676
 153   2.0000      -0.772103       -21.0100
 154   2.0000      -0.770873       -20.9765
 155   2.0000      -0.769233       -20.9319
 156   2.0000      -0.755637       -20.5619
 157   2.0000      -0.747461       -20.3395
 158   2.0000      -0.734868       -19.9968
 159   2.0000      -0.726090       -19.7579
 160   2.0000      -0.722489       -19.6599
 161   2.0000      -0.718445       -19.5499
 162   2.0000      -0.716556       -19.4985
 163   2.0000      -0.710693       -19.3389
 164   2.0000      -0.701823       -19.0976
 165   2.0000      -0.698062       -18.9952
 166   2.0000      -0.695345       -18.9213
 167   2.0000      -0.693535       -18.8720
 168   2.0000      -0.687351       -18.7038
 169   2.0000      -0.685455       -18.6522
 170   2.0000      -0.672161       -18.2904
 171   2.0000      -0.667582       -18.1658
 172   2.0000      -0.661494       -18.0002
 173   2.0000      -0.659633       -17.9495
 174   2.0000      -0.658023       -17.9057
 175   2.0000      -0.655761       -17.8442
 176   2.0000      -0.645943       -17.5770
 177   2.0000      -0.645542       -17.5661
 178   2.0000      -0.643941       -17.5225
 179   2.0000      -0.640847       -17.4383
 180   2.0000      -0.636512       -17.3204
 181   2.0000      -0.627890       -17.0857
 182   2.0000      -0.627371       -17.0716
 183   2.0000      -0.626115       -17.0375
 184   2.0000      -0.623904       -16.9773
 185   2.0000      -0.620561       -16.8863
 186   2.0000      -0.616224       -16.7683
 187   2.0000      -0.610096       -16.6016
 188   2.0000      -0.601600       -16.3704
 189   2.0000      -0.600649       -16.3445
 190   2.0000      -0.592286       -16.1169
 191   2.0000      -0.589093       -16.0300
 192   2.0000      -0.587583       -15.9889
 193   2.0000      -0.587450       -15.9853
 194   2.0000      -0.584828       -15.9140
 195   2.0000      -0.580431       -15.7943
 196   2.0000      -0.579738       -15.7755
 197   2.0000      -0.573877       -15.6160
 198   2.0000      -0.560445       -15.2505
 199   2.0000      -0.560312       -15.2469
 200   2.0000      -0.558227       -15.1901
 201   2.0000      -0.556952       -15.1554
 202   2.0000      -0.555875       -15.1261
 203   2.0000      -0.550694       -14.9851
 204   2.0000      -0.549123       -14.9424
 205   2.0000      -0.548952       -14.9378
 206   2.0000      -0.546940       -14.8830
 207   2.0000      -0.543929       -14.8010
 208   2.0000      -0.542989       -14.7755
 209   2.0000      -0.542535       -14.7631
 210   2.0000      -0.539195       -14.6722
 211   2.0000      -0.534455       -14.5433
 212   2.0000      -0.533891       -14.5279
 213   2.0000      -0.530298       -14.4302
 214   2.0000      -0.526452       -14.3255
 215   2.0000      -0.524318       -14.2674
 216   2.0000      -0.521291       -14.1850
 217   2.0000      -0.519641       -14.1401
 218   2.0000      -0.519091       -14.1252
 219   2.0000      -0.516514       -14.0551
 220   2.0000      -0.515280       -14.0215
 221   2.0000      -0.514377       -13.9969
 222   2.0000      -0.512699       -13.9512
 223   2.0000      -0.510927       -13.9030
 224   2.0000      -0.510328       -13.8867
 225   2.0000      -0.509373       -13.8607
 226   2.0000      -0.506652       -13.7867
 227   2.0000      -0.502922       -13.6852
 228   2.0000      -0.501556       -13.6480
 229   2.0000      -0.499588       -13.5945
 230   2.0000      -0.498381       -13.5616
 231   2.0000      -0.494854       -13.4657
 232   2.0000      -0.490470       -13.3464
 233   2.0000      -0.490326       -13.3425
 234   2.0000      -0.487869       -13.2756
 235   2.0000      -0.484277       -13.1778
 236   2.0000      -0.482083       -13.1181
 237   2.0000      -0.479320       -13.0430
 238   2.0000      -0.472856       -12.8671
 239   2.0000      -0.471039       -12.8176
 240   2.0000      -0.468836       -12.7577
 241   2.0000      -0.466238       -12.6870
 242   2.0000      -0.466029       -12.6813
 243   2.0000      -0.464914       -12.6510
 244   2.0000      -0.464686       -12.6448
 245   2.0000      -0.462648       -12.5893
 246   2.0000      -0.461952       -12.5703
 247   2.0000      -0.458870       -12.4865
 248   2.0000      -0.457792       -12.4572
 249   2.0000      -0.456147       -12.4124
 250   2.0000      -0.454963       -12.3802
 251   2.0000      -0.453239       -12.3333
 252   2.0000      -0.450922       -12.2702
 253   2.0000      -0.450243       -12.2517
 254   2.0000      -0.449981       -12.2446
 255   2.0000      -0.448388       -12.2012
 256   2.0000      -0.447139       -12.1673
 257   2.0000      -0.446861       -12.1597
 258   2.0000      -0.445795       -12.1307
 259   2.0000      -0.444307       -12.0902
 260   2.0000      -0.443863       -12.0781
 261   2.0000      -0.436377       -11.8744
 262   2.0000      -0.435331       -11.8460
 263   2.0000      -0.434429       -11.8214
 264   2.0000      -0.433704       -11.8017
 265   2.0000      -0.432237       -11.7618
 266   2.0000      -0.431106       -11.7310
 267   2.0000      -0.430832       -11.7235
 268   2.0000      -0.428545       -11.6613
 269   2.0000      -0.425969       -11.5912
 270   2.0000      -0.423280       -11.5180
 271   2.0000      -0.422364       -11.4931
 272   2.0000      -0.416770       -11.3409
 273   2.0000      -0.414652       -11.2833
 274   2.0000      -0.410594       -11.1728
 275   2.0000      -0.409282       -11.1371
 276   2.0000      -0.406774       -11.0689
 277   2.0000      -0.392817       -10.6891
 278   2.0000      -0.391452       -10.6519
 279   2.0000      -0.388815       -10.5802
 280   2.0000      -0.384752       -10.4696
 281   2.0000      -0.378756       -10.3065
 282   2.0000      -0.364309        -9.9133
 283   2.0000      -0.363052        -9.8791
 284   2.0000      -0.360591        -9.8122
 285   2.0000      -0.351066        -9.5530
 286   2.0000      -0.345669        -9.4061
 287   2.0000      -0.341148        -9.2831
 288   2.0000      -0.333490        -9.0747
 289   2.0000      -0.331636        -9.0243
 290   2.0000      -0.321919        -8.7599
 291   2.0000      -0.320953        -8.7336
 292   2.0000      -0.317411        -8.6372
 293   2.0000      -0.305458        -8.3119
 294   2.0000      -0.303134        -8.2487
 295   2.0000      -0.284594        -7.7442
 296   2.0000      -0.260158        -7.0793
 297   0.0000      -0.128796        -3.5047
 298   0.0000      -0.118054        -3.2124
 299   0.0000      -0.097846        -2.6625
 300   0.0000      -0.096048        -2.6136
 301   0.0000      -0.086557        -2.3553

MULLIKEN ATOMIC CHARGES
-----------------------
   0 C :   -0.109937
   1 C :    0.243422
   2 F :   -0.170058
   3 C :    0.239822
   4 F :   -0.171067
   5 C :   -0.104756
   6 C :    0.119004
   7 C :    0.115648
   8 C :   -0.084856
   9 C :    0.050130
  10 C :   -0.006245
  11 C :   -0.081626
  12 C :    0.158958
  13 O :   -0.148240
  14 C :   -0.097621
  15 C :    0.311848
  16 C :   -0.348620
  17 C :   -0.202799
  18 N :    0.156196
  19 C :   -0.179332
  20 N :    0.148264
  21 C :    0.033367
  22 C :   -0.113446
  23 C :    0.017727
  24 C :   -0.012659
  25 C :   -0.082141
  26 S :    0.208400
  27 C :   -0.091968
  28 C :    0.035006
  29 C :    0.307064
  30 C :   -0.291134
  31 C :   -0.193810
  32 N :    0.190600
  33 C :   -0.188131
  34 N :    0.191058
  35 C :   -0.060320
  36 C :   -0.108745
  37 S :    0.174867
  38 C :    0.157166
  39 C :   -0.068077
  40 C :   -0.069541
  41 C :    0.154861
  42 C :   -0.045673
  43 C :   -0.049001
  44 N :    0.051119
  45 O :   -0.070448
  46 N :    0.051428
  47 C :   -0.113711
  48 C :   -0.057043
  49 C :    0.033738
  50 C :   -0.091912
  51 S :    0.175234
  52 C :   -0.071455
  53 C :   -0.004237
  54 C :    0.306627
  55 C :   -0.289070
  56 C :   -0.183809
  57 N :    0.172400
  58 C :   -0.191359
  59 N :    0.195313
  60 C :    0.002384
  61 C :   -0.110107
  62 S :    0.216588
  63 C :    0.084441
  64 C :   -0.145147
  65 C :    0.138155
  66 O :   -0.141031
  67 C :    0.018077
  68 C :   -0.083529
  69 C :    0.113693
  70 C :    0.109678
  71 C :   -0.105382
  72 C :    0.241571
  73 C :    0.238267
  74 C :   -0.103736
  75 F :   -0.171557
  76 F :   -0.170225
  77 C :   -0.077298
  78 C :    0.029098
  79 C :    0.269044
  80 C :   -0.325131
  81 C :   -0.200883
  82 N :    0.165046
  83 C :   -0.169030
  84 N :    0.161192
  85 H :    0.007117
  86 H :    0.001730
  87 H :   -0.005161
  88 H :   -0.006142
  89 H :    0.018287
  90 H :    0.036971
  91 H :    0.031068
  92 H :   -0.001147
  93 H :   -0.001571
  94 H :    0.032069
  95 H :    0.025660
  96 H :    0.021856
  97 H :   -0.007205
  98 H :    0.009445
  99 H :    0.001299
 100 H :    0.005126
Sum of atomic charges:   -0.0000000

LOEWDIN ATOMIC CHARGES
----------------------
   0 C :   -0.029324
   1 C :    0.067220
   2 F :   -0.047984
   3 C :    0.068304
   4 F :   -0.048413
   5 C :   -0.032297
   6 C :   -0.008141
   7 C :   -0.006247
   8 C :    0.017912
   9 C :   -0.023874
  10 C :   -0.052428
  11 C :    0.032198
  12 C :    0.085344
  13 O :   -0.136354
  14 C :   -0.095450
  15 C :    0.075813
  16 C :   -0.140970
  17 C :   -0.024948
  18 N :   -0.052529
  19 C :   -0.017641
  20 N :   -0.052319
  21 C :    0.043717
  22 C :   -0.175052
  23 C :    0.022266
  24 C :   -0.070447
  25 C :   -0.161343
  26 S :    0.495883
  27 C :   -0.183360
  28 C :   -0.052987
  29 C :    0.071986
  30 C :   -0.086150
  31 C :   -0.020718
  32 N :   -0.015533
  33 C :   -0.020513
  34 N :   -0.014621
  35 C :   -0.017304
  36 C :   -0.154141
  37 S :    0.478384
  38 C :   -0.039885
  39 C :   -0.013810
  40 C :   -0.016831
  41 C :   -0.036447
  42 C :   -0.042924
  43 C :   -0.042764
  44 N :   -0.012608
  45 O :    0.094582
  46 N :   -0.012321
  47 C :   -0.158523
  48 C :   -0.014084
  49 C :   -0.057601
  50 C :   -0.176823
  51 S :    0.479684
  52 C :   -0.162442
  53 C :   -0.061803
  54 C :    0.078030
  55 C :   -0.090081
  56 C :   -0.011698
  57 N :   -0.029760
  58 C :   -0.021777
  59 N :   -0.014261
  60 C :    0.010266
  61 C :   -0.178609
  62 S :    0.501031
  63 C :    0.043042
  64 C :   -0.089801
  65 C :    0.083366
  66 O :   -0.142098
  67 C :   -0.055152
  68 C :    0.031154
  69 C :   -0.009266
  70 C :   -0.005114
  71 C :   -0.028821
  72 C :    0.067849
  73 C :    0.067705
  74 C :   -0.033056
  75 F :   -0.048722
  76 F :   -0.047520
  77 C :    0.017874
  78 C :   -0.020529
  79 C :    0.064097
  80 C :   -0.134262
  81 C :   -0.015690
  82 N :   -0.045177
  83 C :   -0.018769
  84 N :   -0.043516
  85 H :    0.047763
  86 H :    0.045738
  87 H :    0.040107
  88 H :    0.041867
  89 H :    0.043665
  90 H :    0.045042
  91 H :    0.043344
  92 H :    0.029391
  93 H :    0.029406
  94 H :    0.043809
  95 H :    0.042907
  96 H :    0.046179
  97 H :    0.041004
  98 H :    0.048501
  99 H :    0.045098
 100 H :    0.042115

  Mayer bond orders larger than 0.100000
B(  0-C ,  1-C ) :   1.4401 B(  0-C ,  5-C ) :   0.1088 B(  0-C ,  7-C ) :   1.1886
B(  0-C , 85-H ) :   1.0069 B(  1-C ,  2-F ) :   1.1365 B(  1-C ,  3-C ) :   1.1914
B(  3-C ,  4-F ) :   1.1336 B(  3-C ,  5-C ) :   1.4425 B(  5-C ,  6-C ) :   1.1920
B(  5-C , 86-H ) :   1.0069 B(  6-C ,  7-C ) :   1.2554 B(  6-C , 11-C ) :   1.1871
B(  7-C ,  8-C ) :   1.2167 B(  8-C ,  9-C ) :   1.4489 B(  8-C , 87-H ) :   0.9899
B(  9-C , 10-C ) :   1.2213 B(  9-C , 15-C ) :   0.9834 B( 10-C , 11-C ) :   1.4708
B( 10-C , 12-C ) :   0.9461 B( 11-C , 88-H ) :   1.0169 B( 12-C , 13-O ) :   2.1895
B( 12-C , 14-C ) :   0.9424 B( 14-C , 15-C ) :   1.0784 B( 14-C , 21-C ) :   1.5910
B( 15-C , 16-C ) :   1.6303 B( 16-C , 17-C ) :   1.1402 B( 16-C , 19-C ) :   1.1449
B( 17-C , 18-N ) :   2.9851 B( 19-C , 20-N ) :   2.9639 B( 21-C , 22-C ) :   1.2090
B( 21-C , 89-H ) :   0.9195 B( 22-C , 23-C ) :   1.3969 B( 22-C , 26-S ) :   1.0759
B( 23-C , 24-C ) :   1.3301 B( 23-C , 90-H ) :   0.9734 B( 24-C , 25-C ) :   1.3818
B( 24-C , 29-C ) :   0.9923 B( 25-C , 26-S ) :   1.1634 B( 25-C , 27-C ) :   1.2017
B( 27-C , 28-C ) :   1.4345 B( 27-C , 37-S ) :   1.1170 B( 28-C , 29-C ) :   0.9938
B( 28-C , 35-C ) :   1.2555 B( 29-C , 30-C ) :   1.7230 B( 30-C , 31-C ) :   1.1359
B( 30-C , 33-C ) :   1.1347 B( 31-C , 32-N ) :   2.9900 B( 33-C , 34-N ) :   2.9922
B( 35-C , 36-C ) :   1.4731 B( 35-C , 91-H ) :   0.9823 B( 36-C , 37-S ) :   1.0974
B( 36-C , 38-C ) :   1.1319 B( 38-C , 39-C ) :   1.4569 B( 38-C , 41-C ) :   0.1129
B( 38-C , 43-C ) :   1.1476 B( 39-C , 40-C ) :   1.2526 B( 39-C , 92-H ) :   0.9849
B( 40-C , 41-C ) :   1.4573 B( 40-C , 93-H ) :   0.9850 B( 41-C , 42-C ) :   1.1473
B( 41-C , 47-C ) :   1.1325 B( 42-C , 43-C ) :   1.1473 B( 42-C , 46-N ) :   1.5961
B( 43-C , 44-N ) :   1.5969 B( 44-N , 45-O ) :   1.0736 B( 44-N , 46-N ) :   0.1803
B( 45-O , 46-N ) :   1.0740 B( 47-C , 48-C ) :   1.4751 B( 47-C , 51-S ) :   1.0944
B( 48-C , 49-C ) :   1.2571 B( 48-C , 94-H ) :   0.9825 B( 49-C , 50-C ) :   1.4356
B( 49-C , 54-C ) :   0.9927 B( 50-C , 51-S ) :   1.1237 B( 50-C , 52-C ) :   1.1949
B( 52-C , 53-C ) :   1.4088 B( 52-C , 62-S ) :   1.1520 B( 53-C , 54-C ) :   0.9953
B( 53-C , 60-C ) :   1.3647 B( 54-C , 55-C ) :   1.7227 B( 55-C , 56-C ) :   1.1352
B( 55-C , 58-C ) :   1.1351 B( 56-C , 57-N ) :   2.9813 B( 58-C , 59-N ) :   2.9950
B( 60-C , 61-C ) :   1.3886 B( 60-C , 95-H ) :   0.9784 B( 61-C , 62-S ) :   1.0915
B( 61-C , 63-C ) :   1.1429 B( 63-C , 64-C ) :   1.6652 B( 63-C , 96-H ) :   0.9278
B( 64-C , 65-C ) :   0.9426 B( 64-C , 79-C ) :   1.0402 B( 65-C , 66-O ) :   2.2692
B( 65-C , 67-C ) :   0.9179 B( 67-C , 68-C ) :   1.4738 B( 67-C , 78-C ) :   1.2206
B( 68-C , 69-C ) :   1.1960 B( 68-C , 97-H ) :   1.0164 B( 69-C , 70-C ) :   1.2547
B( 69-C , 74-C ) :   1.1938 B( 70-C , 71-C ) :   1.1916 B( 70-C , 77-C ) :   1.2157
B( 71-C , 72-C ) :   1.4427 B( 71-C , 74-C ) :   0.1078 B( 71-C , 98-H ) :   1.0068
B( 72-C , 73-C ) :   1.1904 B( 72-C , 76-F ) :   1.1347 B( 73-C , 74-C ) :   1.4446
B( 73-C , 75-F ) :   1.1334 B( 74-C , 99-H ) :   1.0067 B( 77-C , 78-C ) :   1.4620
B( 77-C ,100-H ) :   0.9940 B( 78-C , 79-C ) :   0.9933 B( 79-C , 80-C ) :   1.6530
B( 80-C , 81-C ) :   1.1691 B( 80-C , 83-C ) :   1.1277 B( 81-C , 82-N ) :   2.9940
B( 83-C , 84-N ) :   2.9912

-----------------------------------------------------------------------------
         ABSORPTION SPECTRUM VIA TRANSITION ELECTRIC DIPOLE MOMENTS
-----------------------------------------------------------------------------
State   Energy  Wavelength   fosc         T2         TX        TY        TZ
        (cm-1)    (nm)                  (au**2)     (au)      (au)      (au)
-----------------------------------------------------------------------------
   0   12999.3    769.3   1.194945445  30.26233   1.25613   5.27084   0.95012
   1   14430.6    693.0   0.058061339   1.32458  -0.13568  -1.12589   0.19634
   2   18812.5    531.6   1.631314106  28.54743   1.11082   5.15677   0.84925
   3   21104.6    473.8   0.080319317   1.25290  -0.32854  -0.96572   0.46082
   4   21457.4    466.0   0.000706002   0.01083   0.02815  -0.10020  -0.00013
   5   23096.0    433.0   0.147511408   2.10263   0.07609  -1.31062   0.61573
   6   23611.9    423.5   0.018019917   0.25124  -0.04114  -0.49952  -0.00596
   7   25563.8    391.2   0.035167330   0.45289   0.54828   0.38473  -0.06522
   8   25867.3    386.6   0.057370212   0.73015  -0.13009   0.75281   0.38275
   9   27244.7    367.0   0.004256235   0.05143   0.05696   0.03232   0.21712
  10   27751.0    360.3   0.004746312   0.05631   0.23149   0.01677  -0.04938
  11   27905.7    358.3   0.011609328   0.13696  -0.03434   0.17629  -0.32358
  12   28443.5    351.6   0.004233532   0.04900   0.03801   0.21788  -0.00919
  13   28517.5    350.7   0.022315653   0.25762  -0.19069   0.19494   0.42808
  14   29070.4    344.0   0.013020675   0.14745  -0.25666   0.11908  -0.25962
  15   29147.5    343.1   0.045779620   0.51707   0.63904  -0.29500   0.14719
  16   29385.0    340.3   0.146186594   1.63779  -0.45290  -0.32490  -1.15200
  17   29669.9    337.0   0.282556094   3.13520   0.20812  -0.06725   1.75709
  18   29874.9    334.7   0.129236702   1.42415  -0.36104   1.11027   0.24720
  19   30037.3    332.9   0.266230086   2.91791  -0.89764  -1.45312  -0.02434
  20   30450.4    328.4   0.355777737   3.84646  -0.65087  -0.73265   1.69884
  21   30920.7    323.4   0.019499648   0.20761   0.16705   0.17693   0.38523
  22   31041.2    322.2   0.505861381   5.36498   0.36452   1.93454   1.22052
  23   31510.6    317.4   0.111762644   1.16766   0.52747  -0.94169  -0.05158
  24   32152.2    311.0   0.033152685   0.33946   0.46952   0.33436  -0.08495
  25   32349.9    309.1   0.349830863   3.56009   0.64963   1.76701  -0.12548
  26   32670.5    306.1   0.093730092   0.94449   0.09488   0.58240   0.77221
  27   32885.9    304.1   0.162355372   1.62530   0.12888  -1.26232  -0.12346
  28   33754.7    296.3   0.007559900   0.07373   0.15639   0.18038  -0.12938
  29   33938.7    294.6   0.024778829   0.24036   0.31805   0.36369  -0.08327
  30   34010.6    294.0   0.061051609   0.59096   0.41403   0.64582   0.04952
  31   34270.1    291.8   0.218213994   2.09625  -0.55825  -1.31911  -0.21105
  32   34353.7    291.1   0.087983732   0.84315   0.20668   0.89026   0.08870
  33   34507.6    289.8   0.116682119   1.11318  -1.00395  -0.28270   0.15921
  34   34687.2    288.3   0.577784999   5.48368   0.23248   0.37728   2.29941
  35   34928.6    286.3   0.220025243   2.07380  -0.18442   1.12736   0.87684
  36   35043.1    285.4   0.051802725   0.48666   0.30583  -0.62428  -0.05832
  37   35130.8    284.7   0.372060947   3.48660  -1.15510  -0.51292   1.37450
  38   35428.0    282.3   0.042229666   0.39242   0.15675  -0.12701   0.59306
  39   35543.4    281.3   0.146213934   1.35427   0.99370   0.32694   0.50984
  40   35747.7    279.7   0.013688124   0.12606   0.24025   0.14318   0.21871
  41   36047.4    277.4   0.180710742   1.65039   0.47182   1.16247   0.27647
  42   36583.5    273.3   0.050092635   0.45078  -0.30118  -0.56713   0.19604
  43   37127.9    269.3   0.076707232   0.68016   0.32852   0.74332  -0.14038
  44   37189.0    268.9   0.138897997   1.22958   0.28547  -0.02685  -1.07115
  45   37303.2    268.1   0.044692703   0.39443  -0.53953  -0.25866   0.19086
  46   37703.9    265.2   0.071273280   0.62232   0.06335   0.02495  -0.78593
  47   37759.8    264.8   0.008622794   0.07518  -0.27136  -0.01372   0.03679
  48   37985.2    263.3   0.050108706   0.43428   0.25082   0.48283  -0.37182
  49   38069.7    262.7   0.049668464   0.42951   0.24046   0.26638  -0.54839
  50   38342.8    260.8   0.028391038   0.24377   0.24655   0.32540  -0.27765
  51   38571.9    259.3   0.050176592   0.42826   0.15252   0.49132   0.40447
  52   38717.3    258.3   0.090810828   0.77216   0.12846   0.86103   0.11949
  53   38934.7    256.8   0.002334655   0.01974  -0.10158   0.08384  -0.04891
  54   39183.4    255.2   0.051983245   0.43675   0.11958  -0.20736   0.61600
  55   39380.5    253.9   0.004689503   0.03920  -0.11760   0.14942  -0.05518
  56   39467.0    253.4   0.122726321   1.02371   0.39441  -0.43879   0.82196
  57   39523.3    253.0   0.121563410   1.01257   0.33707   0.84121  -0.43740
  58   39802.0    251.2   0.059551521   0.49256   0.40981   0.51943   0.23412
  59   40073.2    249.5   0.028756522   0.23624  -0.30412  -0.28664  -0.24817

FINAL SINGLE POINT ENERGY     -5208.533655196943

DIPOLE MOMENT
-------------
                                X             Y             Z
Electronic contribution:     -3.49653      -0.07715       6.29578
Nuclear contribution   :      0.93394       0.45263      -9.06508
                        -----------------------------------------
Total Dipole Moment    :     -2.56259       0.37548      -2.76930
                        -----------------------------------------
Magnitude (a.u.)       :      3.79169
Magnitude (Debye)      :      9.63770

Rotational constants in cm-1:     0.002585     0.000114     0.000112
Rotational constants in MHz :    77.495432     3.424152     3.354740

                             ****ORCA TERMINATED NORMALLY****
TOTAL RUN TIME: 0 days 0 hours 10 minutes 19 seconds 217 msec
