                         Program Version 4.2.0 -  RELEASE  -
|  1> # ORCA input file
|  2> # SCF done       -199.828349616177          0.000459490311
|  3> ! CAM-B3LYP def2-SVP def2/J RIJCOSX Grid4 TightSCF
|  4> %maxcore 5000
|  5> %tddft
|  6>     Mode sTDDFT
|  7>     Ethresh 5.0
|  8>     maxcore 5000
|  9> end
| 10>
| 11> %pal
| 12>   nprocs 6
| 13>   end
| 14> * xyz 0 1
| 15>    C       -0.48061         1.59552         4.73631
| 16>    C       -1.20505         2.60011         5.32204
| 17>    C       -2.09203         2.40986         6.39962
| 18>    N       -2.85807         2.31146         7.24969
| 19>    C       -1.11192         3.95450         4.94851
| 20>    N       -1.05758         5.07243         4.69395
| 21>    C       -0.34944         0.23905         5.25787
| 22>    C        0.78000        -0.37683         4.64478
| 23>    C        1.17164        -1.64366         4.96802
| 24>    C        0.43075        -2.37072         5.92733
| 25>    C       -0.70924        -1.76735         6.53202
| 26>    C       -1.08560        -0.44939         6.18389
| 27>    C       -1.44415        -2.50541         7.48180
| 28>    C       -1.07120        -3.77718         7.82194
| 29>    C        0.05250        -4.36989         7.22732
| 30>    C        0.78736        -3.68145         6.30058
| 31>    C        1.36608         0.55656         3.66717
| 32>    O        2.36235         0.40537         2.99667
| 33>    C        0.43964         1.72859         3.62989
| 34>    C        0.56201         2.59707         2.59275
| 35>    C       -0.29327         3.62007         2.06642
| 36>    C       -1.70036         3.62961         2.20172
| 37>    O       -2.27230         2.57516         2.83325
| 38>    C       -3.67825         2.50448         2.90616
| 39>    C       -2.42026         4.68790         1.66840
| 40>    C       -1.80142         5.73136         0.99507
| 41>    C       -0.41129         5.67423         0.75384
| 42>    C        0.30711         4.62547         1.29339
| 43>    O        0.10944         6.62733        -0.05635
| 44>    C        1.50854         6.69450        -0.20577
| 45>    C       -2.60572         6.86651         0.55491
| 46>    C       -2.21066         8.19287         0.77706
| 47>    C       -3.02658         9.30705         0.37643
| 48>    N       -2.54208        10.56860         0.50079
| 49>    C       -1.40587        10.74105         1.07642
| 50>    C       -0.66367         9.64108         1.60664
| 51>    N       -1.05178         8.42729         1.44262
| 52>    F        0.46751         9.85275         2.27768
| 53>    F       -0.92277        11.98070         1.15211
| 54>    C       -4.30357         9.13548        -0.17415
| 55>    C       -4.69032         7.81262        -0.43312
| 56>    C       -3.85462         6.68981        -0.05983
| 57>    N       -4.43137         5.52251        -0.37650
| 58>    S       -5.85037         5.81023        -1.05718
| 59>    N       -5.83598         7.40880        -0.99722
| 60>    C       -5.20581        10.25651        -0.41192
| 61>    C       -5.41250        11.22450         0.59512
| 62>    O       -4.79478        11.02526         1.78327
| 63>    C       -5.05898        11.92849         2.83511
| 64>    C       -6.27710        12.27429         0.34072
| 65>    C       -6.99778        12.36552        -0.85213
| 66>    C       -6.79875        11.37742        -1.85092
| 67>    C       -5.90775        10.34504        -1.60929
| 68>    O       -7.53543        11.50389        -2.98042
| 69>    C       -7.35087        10.57285        -4.02130
| 70>    C       -7.90064        13.43916        -1.14020
| 71>    C       -8.63452        14.22054        -0.29994
| 72>    C       -9.48048        15.31503        -0.75964
| 73>    C       -9.38888        15.95978        -1.96439
| 74>    C      -10.22616        17.02783        -2.34981
| 75>    N      -10.87773        17.89601        -2.72404
| 76>    C       -8.43632        15.69155        -2.97131
| 77>    N       -7.68667        15.57042        -3.83301
| 78>    C      -10.39101        15.66812         0.32081
| 79>    C      -10.05699        14.88471         1.46034
| 80>    C       -8.92718        13.99365         1.14138
| 81>    O       -8.40366        13.21811         1.91448
| 82>    C      -10.73389        14.99942         2.64024
| 83>    C      -11.80152        15.91943         2.73462
| 84>    C      -12.14984        16.70052         1.59508
| 85>    C      -11.42782        16.56131         0.38759
| 86>    C      -13.22228        17.60986         1.69838
| 87>    C      -13.91614        17.74445         2.86993
| 88>    C      -13.57047        16.97652         3.99199
| 89>    C      -12.53546        16.08383         3.92579
| 90>    H        2.03637        -2.08801         4.49781
| 91>    H       -1.95601        -0.01942         6.65447
| 92>    H       -2.30679        -2.04349         7.93945
| 93>    H       -1.63993        -4.33340         8.55210
| 94>    H        0.33275        -5.37445         7.50708
| 95>    H        1.65368        -4.13280         5.83932
| 96>    H        1.47958         2.44974         2.02677
| 97>    H       -3.89760         1.55384         3.39086
| 98>    H       -4.13086         2.52097         1.91078
| 99>    H       -4.08824         3.31952         3.51040
|100>    H       -3.48633         4.74397         1.80732
|101>    H        1.37609         4.57381         1.16170
|102>    H        2.00465         6.82656         0.75972
|103>    H        1.69524         7.56784        -0.82884
|104>    H        1.90430         5.80517        -0.70688
|105>    H       -4.63733        12.91572         2.62377
|106>    H       -4.56667        11.50776         3.71067
|107>    H       -6.13203        12.02033         3.02454
|108>    H       -6.40619        13.05391         1.06821
|109>    H       -5.73064         9.58347        -2.34996
|110>    H       -8.02247        10.89038        -4.81728
|111>    H       -7.61526         9.56025        -3.70208
|112>    H       -6.32123        10.58473        -4.39034
|113>    H       -8.04537        13.59712        -2.20283
|114>    H      -10.45763        14.39495         3.49161
|115>    H      -11.71958        17.16263        -0.45870
|116>    H      -13.48360        18.20020         0.83238
|117>    H      -14.73566        18.44407         2.93889
|118>    H      -14.12860        17.09565         4.90866
|119>    H      -12.26463        15.48949         4.78630
|120> *
|121>
|122>                          ****END OF INPUT****

CARTESIAN COORDINATES (ANGSTROEM)
---------------------------------
  C     -0.480610    1.595520    4.736310
  C     -1.205050    2.600110    5.322040
  C     -2.092030    2.409860    6.399620
  N     -2.858070    2.311460    7.249690
  C     -1.111920    3.954500    4.948510
  N     -1.057580    5.072430    4.693950
  C     -0.349440    0.239050    5.257870
  C      0.780000   -0.376830    4.644780
  C      1.171640   -1.643660    4.968020
  C      0.430750   -2.370720    5.927330
  C     -0.709240   -1.767350    6.532020
  C     -1.085600   -0.449390    6.183890
  C     -1.444150   -2.505410    7.481800
  C     -1.071200   -3.777180    7.821940
  C      0.052500   -4.369890    7.227320
  C      0.787360   -3.681450    6.300580
  C      1.366080    0.556560    3.667170
  O      2.362350    0.405370    2.996670
  C      0.439640    1.728590    3.629890
  C      0.562010    2.597070    2.592750
  C     -0.293270    3.620070    2.066420
  C     -1.700360    3.629610    2.201720
  O     -2.272300    2.575160    2.833250
  C     -3.678250    2.504480    2.906160
  C     -2.420260    4.687900    1.668400
  C     -1.801420    5.731360    0.995070
  C     -0.411290    5.674230    0.753840
  C      0.307110    4.625470    1.293390
  O      0.109440    6.627330   -0.056350
  C      1.508540    6.694500   -0.205770
  C     -2.605720    6.866510    0.554910
  C     -2.210660    8.192870    0.777060
  C     -3.026580    9.307050    0.376430
  N     -2.542080   10.568600    0.500790
  C     -1.405870   10.741050    1.076420
  C     -0.663670    9.641080    1.606640
  N     -1.051780    8.427290    1.442620
  F      0.467510    9.852750    2.277680
  F     -0.922770   11.980700    1.152110
  C     -4.303570    9.135480   -0.174150
  C     -4.690320    7.812620   -0.433120
  C     -3.854620    6.689810   -0.059830
  N     -4.431370    5.522510   -0.376500
  S     -5.850370    5.810230   -1.057180
  N     -5.835980    7.408800   -0.997220
  C     -5.205810   10.256510   -0.411920
  C     -5.412500   11.224500    0.595120
  O     -4.794780   11.025260    1.783270
  C     -5.058980   11.928490    2.835110
  C     -6.277100   12.274290    0.340720
  C     -6.997780   12.365520   -0.852130
  C     -6.798750   11.377420   -1.850920
  C     -5.907750   10.345040   -1.609290
  O     -7.535430   11.503890   -2.980420
  C     -7.350870   10.572850   -4.021300
  C     -7.900640   13.439160   -1.140200
  C     -8.634520   14.220540   -0.299940
  C     -9.480480   15.315030   -0.759640
  C     -9.388880   15.959780   -1.964390
  C    -10.226160   17.027830   -2.349810
  N    -10.877730   17.896010   -2.724040
  C     -8.436320   15.691550   -2.971310
  N     -7.686670   15.570420   -3.833010
  C    -10.391010   15.668120    0.320810
  C    -10.056990   14.884710    1.460340
  C     -8.927180   13.993650    1.141380
  O     -8.403660   13.218110    1.914480
  C    -10.733890   14.999420    2.640240
  C    -11.801520   15.919430    2.734620
  C    -12.149840   16.700520    1.595080
  C    -11.427820   16.561310    0.387590
  C    -13.222280   17.609860    1.698380
  C    -13.916140   17.744450    2.869930
  C    -13.570470   16.976520    3.991990
  C    -12.535460   16.083830    3.925790
  H      2.036370   -2.088010    4.497810
  H     -1.956010   -0.019420    6.654470
  H     -2.306790   -2.043490    7.939450
  H     -1.639930   -4.333400    8.552100
  H      0.332750   -5.374450    7.507080
  H      1.653680   -4.132800    5.839320
  H      1.479580    2.449740    2.026770
  H     -3.897600    1.553840    3.390860
  H     -4.130860    2.520970    1.910780
  H     -4.088240    3.319520    3.510400
  H     -3.486330    4.743970    1.807320
  H      1.376090    4.573810    1.161700
  H      2.004650    6.826560    0.759720
  H      1.695240    7.567840   -0.828840
  H      1.904300    5.805170   -0.706880
  H     -4.637330   12.915720    2.623770
  H     -4.566670   11.507760    3.710670
  H     -6.132030   12.020330    3.024540
  H     -6.406190   13.053910    1.068210
  H     -5.730640    9.583470   -2.349960
  H     -8.022470   10.890380   -4.817280
  H     -7.615260    9.560250   -3.702080
  H     -6.321230   10.584730   -4.390340
  H     -8.045370   13.597120   -2.202830
  H    -10.457630   14.394950    3.491610
  H    -11.719580   17.162630   -0.458700
  H    -13.483600   18.200200    0.832380
  H    -14.735660   18.444070    2.938890
  H    -14.128600   17.095650    4.908660
  H    -12.264630   15.489490    4.786300

 Total Charge           Charge          ....    0
 Multiplicity           Mult            ....    1
 Number of Electrons    NEL             ....  516
 Basis Dimension        Dim             .... 1204

ORBITAL ENERGIES
----------------

  NO   OCC          E(Eh)            E(eV)
   0   2.0000     -89.037393     -2422.8306
   1   2.0000     -24.803178      -674.9288
   2   2.0000     -24.802997      -674.9239
   3   2.0000     -19.258070      -524.0387
   4   2.0000     -19.252270      -523.8809
   5   2.0000     -19.243530      -523.6431
   6   2.0000     -19.239634      -523.5371
   7   2.0000     -19.211861      -522.7813
   8   2.0000     -19.206626      -522.6389
   9   2.0000     -14.444880      -393.0652
  10   2.0000     -14.444379      -393.0515
  11   2.0000     -14.438518      -392.8920
  12   2.0000     -14.438102      -392.8807
  13   2.0000     -14.409826      -392.1113
  14   2.0000     -14.408208      -392.0673
  15   2.0000     -14.406548      -392.0221
  16   2.0000     -14.405135      -391.9836
  17   2.0000     -10.417352      -283.4706
  18   2.0000     -10.417088      -283.4634
  19   2.0000     -10.364205      -282.0244
  20   2.0000     -10.356578      -281.8168
  21   2.0000     -10.340078      -281.3678
  22   2.0000     -10.337935      -281.3095
  23   2.0000     -10.334223      -281.2085
  24   2.0000     -10.333291      -281.1831
  25   2.0000     -10.333135      -281.1789
  26   2.0000     -10.332805      -281.1699
  27   2.0000     -10.332696      -281.1670
  28   2.0000     -10.332176      -281.1528
  29   2.0000     -10.331939      -281.1464
  30   2.0000     -10.331882      -281.1448
  31   2.0000     -10.329423      -281.0779
  32   2.0000     -10.328655      -281.0570
  33   2.0000     -10.327231      -281.0182
  34   2.0000     -10.324903      -280.9549
  35   2.0000     -10.322004      -280.8760
  36   2.0000     -10.313887      -280.6551
  37   2.0000     -10.312793      -280.6254
  38   2.0000     -10.311320      -280.5853
  39   2.0000     -10.309642      -280.5396
  40   2.0000     -10.308057      -280.4965
  41   2.0000     -10.306134      -280.4442
  42   2.0000     -10.304761      -280.4068
  43   2.0000     -10.303919      -280.3839
  44   2.0000     -10.302461      -280.3442
  45   2.0000     -10.297348      -280.2051
  46   2.0000     -10.295450      -280.1534
  47   2.0000     -10.293864      -280.1103
  48   2.0000     -10.293575      -280.1024
  49   2.0000     -10.292419      -280.0710
  50   2.0000     -10.292292      -280.0675
  51   2.0000     -10.292161      -280.0639
  52   2.0000     -10.291912      -280.0572
  53   2.0000     -10.291735      -280.0524
  54   2.0000     -10.291388      -280.0429
  55   2.0000     -10.291209      -280.0380
  56   2.0000     -10.290580      -280.0209
  57   2.0000     -10.288939      -279.9763
  58   2.0000     -10.288690      -279.9695
  59   2.0000     -10.286306      -279.9046
  60   2.0000     -10.284593      -279.8580
  61   2.0000     -10.283638      -279.8320
  62   2.0000     -10.283352      -279.8242
  63   2.0000     -10.282837      -279.8102
  64   2.0000     -10.282605      -279.8039
  65   2.0000     -10.281995      -279.7873
  66   2.0000     -10.281616      -279.7770
  67   2.0000     -10.281371      -279.7703
  68   2.0000     -10.281047      -279.7615
  69   2.0000     -10.280750      -279.7534
  70   2.0000     -10.280143      -279.7369
  71   2.0000     -10.277034      -279.6523
  72   2.0000     -10.275862      -279.6204
  73   2.0000     -10.274107      -279.5727
  74   2.0000     -10.271231      -279.4944
  75   2.0000      -8.128916      -221.1991
  76   2.0000      -6.099883      -165.9863
  77   2.0000      -6.092101      -165.7745
  78   2.0000      -6.091925      -165.7697
  79   2.0000      -1.330771       -36.2121
  80   2.0000      -1.316642       -35.8277
  81   2.0000      -1.162625       -31.6366
  82   2.0000      -1.157349       -31.4931
  83   2.0000      -1.150360       -31.3029
  84   2.0000      -1.146405       -31.1953
  85   2.0000      -1.133275       -30.8380
  86   2.0000      -1.126711       -30.6594
  87   2.0000      -1.121370       -30.5140
  88   2.0000      -1.098580       -29.8939
  89   2.0000      -1.024209       -27.8701
  90   2.0000      -1.010980       -27.5102
  91   2.0000      -1.009233       -27.4626
  92   2.0000      -0.992461       -27.0062
  93   2.0000      -0.990666       -26.9574
  94   2.0000      -0.988302       -26.8931
  95   2.0000      -0.986218       -26.8364
  96   2.0000      -0.985835       -26.8259
  97   2.0000      -0.973679       -26.4952
  98   2.0000      -0.966955       -26.3122
  99   2.0000      -0.964078       -26.2339
 100   2.0000      -0.956833       -26.0367
 101   2.0000      -0.948613       -25.8131
 102   2.0000      -0.919840       -25.0301
 103   2.0000      -0.916829       -24.9482
 104   2.0000      -0.906209       -24.6592
 105   2.0000      -0.896537       -24.3960
 106   2.0000      -0.885268       -24.0894
 107   2.0000      -0.878670       -23.9098
 108   2.0000      -0.875887       -23.8341
 109   2.0000      -0.874156       -23.7870
 110   2.0000      -0.872737       -23.7484
 111   2.0000      -0.858673       -23.3657
 112   2.0000      -0.849016       -23.1029
 113   2.0000      -0.846081       -23.0230
 114   2.0000      -0.837720       -22.7955
 115   2.0000      -0.824479       -22.4352
 116   2.0000      -0.823473       -22.4078
 117   2.0000      -0.821853       -22.3638
 118   2.0000      -0.810858       -22.0646
 119   2.0000      -0.805560       -21.9204
 120   2.0000      -0.800211       -21.7748
 121   2.0000      -0.789116       -21.4729
 122   2.0000      -0.784579       -21.3495
 123   2.0000      -0.765848       -20.8398
 124   2.0000      -0.760041       -20.6818
 125   2.0000      -0.755853       -20.5678
 126   2.0000      -0.753382       -20.5006
 127   2.0000      -0.747996       -20.3540
 128   2.0000      -0.742469       -20.2036
 129   2.0000      -0.729366       -19.8471
 130   2.0000      -0.718711       -19.5571
 131   2.0000      -0.703697       -19.1486
 132   2.0000      -0.700126       -19.0514
 133   2.0000      -0.696590       -18.9552
 134   2.0000      -0.696001       -18.9391
 135   2.0000      -0.689363       -18.7585
 136   2.0000      -0.682574       -18.5738
 137   2.0000      -0.680133       -18.5074
 138   2.0000      -0.670327       -18.2405
 139   2.0000      -0.669738       -18.2245
 140   2.0000      -0.666808       -18.1448
 141   2.0000      -0.664638       -18.0857
 142   2.0000      -0.661326       -17.9956
 143   2.0000      -0.653472       -17.7819
 144   2.0000      -0.647068       -17.6076
 145   2.0000      -0.634943       -17.2777
 146   2.0000      -0.632167       -17.2021
 147   2.0000      -0.627203       -17.0670
 148   2.0000      -0.621013       -16.8986
 149   2.0000      -0.619738       -16.8639
 150   2.0000      -0.613481       -16.6937
 151   2.0000      -0.610796       -16.6206
 152   2.0000      -0.604073       -16.4377
 153   2.0000      -0.603631       -16.4256
 154   2.0000      -0.602212       -16.3870
 155   2.0000      -0.600527       -16.3412
 156   2.0000      -0.600062       -16.3285
 157   2.0000      -0.592211       -16.1149
 158   2.0000      -0.584211       -15.8972
 159   2.0000      -0.581354       -15.8194
 160   2.0000      -0.578643       -15.7457
 161   2.0000      -0.575676       -15.6649
 162   2.0000      -0.567459       -15.4413
 163   2.0000      -0.559878       -15.2351
 164   2.0000      -0.559252       -15.2180
 165   2.0000      -0.557351       -15.1663
 166   2.0000      -0.552810       -15.0427
 167   2.0000      -0.549392       -14.9497
 168   2.0000      -0.546814       -14.8796
 169   2.0000      -0.544589       -14.8190
 170   2.0000      -0.542417       -14.7599
 171   2.0000      -0.541225       -14.7275
 172   2.0000      -0.540524       -14.7084
 173   2.0000      -0.538300       -14.6479
 174   2.0000      -0.536935       -14.6107
 175   2.0000      -0.534881       -14.5549
 176   2.0000      -0.533608       -14.5202
 177   2.0000      -0.531387       -14.4598
 178   2.0000      -0.529349       -14.4043
 179   2.0000      -0.525941       -14.3116
 180   2.0000      -0.524444       -14.2708
 181   2.0000      -0.521540       -14.1918
 182   2.0000      -0.519432       -14.1345
 183   2.0000      -0.515438       -14.0258
 184   2.0000      -0.510430       -13.8895
 185   2.0000      -0.509718       -13.8701
 186   2.0000      -0.508505       -13.8371
 187   2.0000      -0.507308       -13.8045
 188   2.0000      -0.505817       -13.7640
 189   2.0000      -0.503216       -13.6932
 190   2.0000      -0.501784       -13.6542
 191   2.0000      -0.500585       -13.6216
 192   2.0000      -0.496311       -13.5053
 193   2.0000      -0.492434       -13.3998
 194   2.0000      -0.490136       -13.3373
 195   2.0000      -0.488746       -13.2995
 196   2.0000      -0.486365       -13.2347
 197   2.0000      -0.485187       -13.2026
 198   2.0000      -0.483230       -13.1494
 199   2.0000      -0.479992       -13.0612
 200   2.0000      -0.479590       -13.0503
 201   2.0000      -0.478176       -13.0118
 202   2.0000      -0.475588       -12.9414
 203   2.0000      -0.472233       -12.8501
 204   2.0000      -0.470267       -12.7966
 205   2.0000      -0.460462       -12.5298
 206   2.0000      -0.459277       -12.4976
 207   2.0000      -0.452947       -12.3253
 208   2.0000      -0.449007       -12.2181
 209   2.0000      -0.444831       -12.1045
 210   2.0000      -0.441326       -12.0091
 211   2.0000      -0.440203       -11.9785
 212   2.0000      -0.438101       -11.9213
 213   2.0000      -0.437602       -11.9078
 214   2.0000      -0.436598       -11.8804
 215   2.0000      -0.435071       -11.8389
 216   2.0000      -0.433318       -11.7912
 217   2.0000      -0.430948       -11.7267
 218   2.0000      -0.428767       -11.6673
 219   2.0000      -0.427801       -11.6411
 220   2.0000      -0.426782       -11.6133
 221   2.0000      -0.425357       -11.5745
 222   2.0000      -0.421257       -11.4630
 223   2.0000      -0.419210       -11.4073
 224   2.0000      -0.418177       -11.3792
 225   2.0000      -0.418022       -11.3750
 226   2.0000      -0.415747       -11.3131
 227   2.0000      -0.412355       -11.2208
 228   2.0000      -0.410998       -11.1838
 229   2.0000      -0.409125       -11.1329
 230   2.0000      -0.406393       -11.0585
 231   2.0000      -0.402989       -10.9659
 232   2.0000      -0.402277       -10.9465
 233   2.0000      -0.401814       -10.9339
 234   2.0000      -0.397969       -10.8293
 235   2.0000      -0.394656       -10.7391
 236   2.0000      -0.392833       -10.6895
 237   2.0000      -0.390778       -10.6336
 238   2.0000      -0.379575       -10.3288
 239   2.0000      -0.376749       -10.2519
 240   2.0000      -0.374745       -10.1973
 241   2.0000      -0.369860       -10.0644
 242   2.0000      -0.364788        -9.9264
 243   2.0000      -0.356563        -9.7026
 244   2.0000      -0.351993        -9.5782
 245   2.0000      -0.349028        -9.4975
 246   2.0000      -0.335422        -9.1273
 247   2.0000      -0.329935        -8.9780
 248   2.0000      -0.328790        -8.9468
 249   2.0000      -0.315580        -8.5874
 250   2.0000      -0.313247        -8.5239
 251   2.0000      -0.306426        -8.3383
 252   2.0000      -0.300492        -8.1768
 253   2.0000      -0.290454        -7.9037
 254   2.0000      -0.287451        -7.8219
 255   2.0000      -0.281209        -7.6521
 256   2.0000      -0.269142        -7.3237
 257   2.0000      -0.256132        -6.9697
 258   0.0000      -0.099156        -2.6982
 259   0.0000      -0.079535        -2.1643
 260   0.0000      -0.074567        -2.0291
 261   0.0000      -0.051801        -1.4096
 262   0.0000      -0.046512        -1.2656

MULLIKEN ATOMIC CHARGES
-----------------------
   0 C :    0.317942
   1 C :   -0.336153
   2 C :   -0.190021
   3 N :    0.144291
   4 C :   -0.216777
   5 N :    0.176127
   6 C :    0.038943
   7 C :    0.015241
   8 C :   -0.082544
   9 C :    0.093584
  10 C :    0.096959
  11 C :   -0.092096
  12 C :   -0.018861
  13 C :    0.032896
  14 C :    0.034710
  15 C :   -0.015751
  16 C :    0.131518
  17 O :   -0.148574
  18 C :   -0.103841
  19 C :   -0.000567
  20 C :    0.095741
  21 C :    0.195117
  22 O :   -0.312972
  23 C :    0.176455
  24 C :   -0.090861
  25 C :   -0.012255
  26 C :    0.265671
  27 C :   -0.170339
  28 O :   -0.309676
  29 C :    0.179332
  30 C :    0.091819
  31 C :   -0.043677
  32 C :   -0.055192
  33 N :    0.036874
  34 C :    0.119850
  35 C :    0.122243
  36 N :    0.040196
  37 F :   -0.145133
  38 F :   -0.146240
  39 C :    0.079606
  40 C :    0.000572
  41 C :   -0.015360
  42 N :   -0.281182
  43 S :    0.525716
  44 N :   -0.277693
  45 C :   -0.029129
  46 C :    0.241375
  47 O :   -0.316910
  48 C :    0.172358
  49 C :   -0.111075
  50 C :    0.016430
  51 C :    0.242517
  52 C :   -0.114990
  53 O :   -0.308423
  54 C :    0.177702
  55 C :   -0.013397
  56 C :   -0.075352
  57 C :    0.298337
  58 C :   -0.341131
  59 C :   -0.186376
  60 N :    0.141227
  61 C :   -0.206437
  62 N :    0.161844
  63 C :    0.047554
  64 C :   -0.004569
  65 C :    0.157249
  66 O :   -0.157305
  67 C :   -0.082156
  68 C :    0.097530
  69 C :    0.094288
  70 C :   -0.080423
  71 C :   -0.018310
  72 C :    0.034070
  73 C :    0.035490
  74 C :   -0.015077
  75 H :   -0.015307
  76 H :   -0.012383
  77 H :   -0.013303
  78 H :   -0.006574
  79 H :   -0.007936
  80 H :   -0.019646
  81 H :    0.018361
  82 H :    0.040526
  83 H :    0.034671
  84 H :    0.036280
  85 H :   -0.032351
  86 H :   -0.032257
  87 H :    0.032270
  88 H :    0.034145
  89 H :    0.023366
  90 H :    0.023977
  91 H :    0.031903
  92 H :    0.043132
  93 H :   -0.021013
  94 H :   -0.033442
  95 H :    0.044076
  96 H :    0.029004
  97 H :    0.028024
  98 H :    0.037967
  99 H :   -0.016936
 100 H :   -0.008444
 101 H :   -0.010211
 102 H :   -0.004932
 103 H :   -0.006461
 104 H :   -0.019054
Sum of atomic charges:   -0.0000000

LOEWDIN ATOMIC CHARGES
----------------------
   0 C :    0.069593
   1 C :   -0.135663
   2 C :   -0.018791
   3 N :   -0.062496
   4 C :   -0.020661
   5 N :   -0.048259
   6 C :   -0.019357
   7 C :   -0.057344
   8 C :    0.031339
   9 C :   -0.011390
  10 C :   -0.005691
  11 C :    0.008731
  12 C :   -0.008451
  13 C :   -0.015348
  14 C :   -0.016500
  15 C :   -0.009774
  16 C :    0.085370
  17 O :   -0.146728
  18 C :   -0.087729
  19 C :    0.074372
  20 C :   -0.047982
  21 C :    0.060075
  22 O :   -0.078871
  23 C :    0.078883
  24 C :   -0.031116
  25 C :   -0.007496
  26 C :    0.055789
  27 C :   -0.041026
  28 O :   -0.096952
  29 C :    0.077595
  30 C :   -0.010925
  31 C :   -0.000221
  32 C :   -0.000753
  33 N :   -0.028327
  34 C :    0.054645
  35 C :    0.054431
  36 N :   -0.025088
  37 F :   -0.034149
  38 F :   -0.035017
  39 C :   -0.014211
  40 C :   -0.042087
  41 C :   -0.043069
  42 N :   -0.292454
  43 S :    0.665692
  44 N :   -0.292008
  45 C :   -0.008293
  46 C :    0.050550
  47 O :   -0.099915
  48 C :    0.077173
  49 C :   -0.018537
  50 C :   -0.057196
  51 C :    0.065861
  52 C :   -0.048596
  53 O :   -0.093646
  54 C :    0.080081
  55 C :    0.093653
  56 C :   -0.097822
  57 C :    0.077375
  58 C :   -0.140134
  59 C :   -0.016277
  60 N :   -0.058353
  61 C :   -0.026403
  62 N :   -0.051075
  63 C :   -0.025833
  64 C :   -0.054856
  65 C :    0.086249
  66 O :   -0.147820
  67 C :    0.029997
  68 C :   -0.008997
  69 C :   -0.006491
  70 C :    0.018351
  71 C :   -0.005827
  72 C :   -0.014623
  73 C :   -0.013926
  74 C :   -0.010368
  75 H :    0.038124
  76 H :    0.036631
  77 H :    0.033156
  78 H :    0.032119
  79 H :    0.031557
  80 H :    0.031015
  81 H :    0.044670
  82 H :    0.030696
  83 H :    0.020962
  84 H :    0.020252
  85 H :    0.030967
  86 H :    0.031799
  87 H :    0.019557
  88 H :    0.028254
  89 H :    0.014747
  90 H :    0.016737
  91 H :    0.026901
  92 H :    0.023188
  93 H :    0.032146
  94 H :    0.030240
  95 H :    0.032167
  96 H :    0.018277
  97 H :    0.018265
  98 H :    0.045844
  99 H :    0.037352
 100 H :    0.038756
 101 H :    0.034479
 102 H :    0.032812
 103 H :    0.032212
 104 H :    0.031232

  Mayer bond orders larger than 0.100000
B(  0-C ,  1-C ) :   1.6389 B(  0-C ,  6-C ) :   1.0019 B(  0-C , 18-C ) :   1.0372
B(  1-C ,  2-C ) :   1.1422 B(  1-C ,  4-C ) :   1.1707 B(  2-C ,  3-N ) :   2.9749
B(  4-C ,  5-N ) :   3.0010 B(  6-C ,  7-C ) :   1.2135 B(  6-C , 11-C ) :   1.4558
B(  7-C ,  8-C ) :   1.4716 B(  7-C , 16-C ) :   0.9242 B(  8-C ,  9-C ) :   1.1815
B(  8-C , 75-H ) :   1.0169 B(  9-C , 10-C ) :   1.2627 B(  9-C , 15-C ) :   1.2423
B( 10-C , 11-C ) :   1.1981 B( 10-C , 12-C ) :   1.2413 B( 11-C , 76-H ) :   0.9940
B( 12-C , 13-C ) :   1.4873 B( 12-C , 77-H ) :   0.9980 B( 13-C , 14-C ) :   1.2612
B( 13-C , 78-H ) :   0.9890 B( 14-C , 15-C ) :   1.4893 B( 14-C , 79-H ) :   0.9883
B( 15-C , 80-H ) :   0.9980 B( 16-C , 17-O ) :   2.2527 B( 16-C , 18-C ) :   0.9369
B( 18-C , 19-C ) :   1.6633 B( 19-C , 20-C ) :   1.0906 B( 19-C , 81-H ) :   0.9334
B( 20-C , 21-C ) :   1.3200 B( 20-C , 27-C ) :   1.2697 B( 21-C , 22-O ) :   1.1600
B( 21-C , 24-C ) :   1.2797 B( 22-O , 23-C ) :   0.9430 B( 23-C , 82-H ) :   0.9766
B( 23-C , 83-H ) :   0.9698 B( 23-C , 84-H ) :   0.9684 B( 24-C , 25-C ) :   1.3960
B( 24-C , 85-H ) :   0.9895 B( 25-C , 26-C ) :   1.3465 B( 25-C , 30-C ) :   0.9431
B( 26-C , 27-C ) :   1.2998 B( 26-C , 28-O ) :   1.1662 B( 27-C , 86-H ) :   1.0037
B( 28-O , 29-C ) :   0.9592 B( 29-C , 87-H ) :   0.9679 B( 29-C , 88-H ) :   0.9784
B( 29-C , 89-H ) :   0.9684 B( 30-C , 31-C ) :   1.3880 B( 30-C , 39-C ) :   0.1418
B( 30-C , 41-C ) :   1.2646 B( 31-C , 32-C ) :   1.0898 B( 31-C , 36-N ) :   1.3881
B( 32-C , 33-N ) :   1.3881 B( 32-C , 39-C ) :   1.3840 B( 33-N , 34-C ) :   1.7290
B( 34-C , 35-C ) :   1.0670 B( 34-C , 38-F ) :   1.1696 B( 35-C , 36-N ) :   1.7274
B( 35-C , 37-F ) :   1.1689 B( 39-C , 40-C ) :   1.2790 B( 39-C , 45-C ) :   0.9456
B( 40-C , 41-C ) :   1.1054 B( 40-C , 44-N ) :   1.4891 B( 41-C , 42-N ) :   1.4865
B( 42-N , 43-S ) :   1.2897 B( 42-N , 44-N ) :   0.1613 B( 43-S , 44-N ) :   1.2892
B( 45-C , 46-C ) :   1.3669 B( 45-C , 52-C ) :   1.3585 B( 46-C , 47-O ) :   1.1593
B( 46-C , 49-C ) :   1.3142 B( 47-O , 48-C ) :   0.9521 B( 48-C , 90-H ) :   0.9691
B( 48-C , 91-H ) :   0.9773 B( 48-C , 92-H ) :   0.9668 B( 49-C , 50-C ) :   1.3084
B( 49-C , 93-H ) :   0.9833 B( 50-C , 51-C ) :   1.2950 B( 50-C , 55-C ) :   1.1437
B( 51-C , 52-C ) :   1.2911 B( 51-C , 53-O ) :   1.1668 B( 52-C , 94-H ) :   0.9981
B( 53-O , 54-C ) :   0.9544 B( 54-C , 95-H ) :   0.9779 B( 54-C , 96-H ) :   0.9696
B( 54-C , 97-H ) :   0.9694 B( 55-C , 56-C ) :   1.5888 B( 55-C , 98-H ) :   0.9349
B( 56-C , 57-C ) :   1.0562 B( 56-C , 65-C ) :   0.9373 B( 57-C , 58-C ) :   1.6417
B( 57-C , 63-C ) :   0.9896 B( 58-C , 59-C ) :   1.1440 B( 58-C , 61-C ) :   1.1372
B( 59-C , 60-N ) :   2.9670 B( 61-C , 62-N ) :   2.9985 B( 63-C , 64-C ) :   1.2141
B( 63-C , 70-C ) :   1.4479 B( 64-C , 65-C ) :   0.9484 B( 64-C , 67-C ) :   1.4718
B( 65-C , 66-O ) :   2.1899 B( 67-C , 68-C ) :   1.1776 B( 67-C , 99-H ) :   1.0159
B( 68-C , 69-C ) :   1.2574 B( 68-C , 74-C ) :   1.2450 B( 69-C , 70-C ) :   1.2071
B( 69-C , 71-C ) :   1.2380 B( 70-C ,100-H ) :   0.9900 B( 71-C , 72-C ) :   1.4903
B( 71-C ,101-H ) :   0.9971 B( 72-C , 73-C ) :   1.2594 B( 72-C ,102-H ) :   0.9889
B( 73-C , 74-C ) :   1.4887 B( 73-C ,103-H ) :   0.9885 B( 74-C ,104-H ) :   0.9973

-----------------------------------------------------------------------------
         ABSORPTION SPECTRUM VIA TRANSITION ELECTRIC DIPOLE MOMENTS
-----------------------------------------------------------------------------
State   Energy  Wavelength   fosc         T2         TX        TY        TZ
        (cm-1)    (nm)                  (au**2)     (au)      (au)      (au)
-----------------------------------------------------------------------------
   0   16588.2    602.8   0.582194861  11.55431  -1.93814   2.72957  -0.58939
   1   19169.2    521.7   0.049411024   0.84858  -0.27365   0.39866  -0.78407
   2   22142.7    451.6   0.459387059   6.83006   1.51350  -2.12963   0.06353
   3   22972.7    435.3   0.314598233   4.50838  -0.46219   1.38515  -1.54147
   4   23177.0    431.5   0.148892627   2.11491   0.68971  -1.08631   0.67760
   5   25901.9    386.1   0.043422935   0.55190  -0.66969   0.31132   0.08060
   6   27113.3    368.8   0.049296893   0.59857  -0.21797  -0.08186   0.73780
   7   27742.1    360.5   0.019158861   0.22736   0.26775  -0.35836   0.16506
   8   27795.7    359.8   0.010780686   0.12769   0.33618  -0.08955   0.08156
   9   28372.7    352.5   0.137586637   1.59643   0.79260  -0.59880  -0.78080
  10   28610.5    349.5   0.054695280   0.62936  -0.28675  -0.44738   0.58906
  11   28948.1    345.4   0.061562765   0.70012   0.69275   0.32096  -0.34235
  12   29599.9    337.8   0.003177289   0.03534  -0.03628  -0.07987  -0.16626
  13   30037.7    332.9   0.013271591   0.14546   0.04513   0.23165  -0.29959
  14   30418.2    328.8   0.057538547   0.62273  -0.48798   0.58490  -0.20613
  15   30672.5    326.0   0.039241646   0.42119  -0.41833   0.49046   0.07509
  16   30857.2    324.1   0.027849087   0.29712   0.05180   0.51526  -0.17011
  17   31393.0    318.5   0.073869450   0.77465   0.19421   0.10834  -0.85159
  18   31419.1    318.3   0.032779987   0.34347  -0.19467   0.42267  -0.35627
  19   31672.8    315.7   0.030574621   0.31780   0.00616  -0.34403  -0.44654
  20   32075.7    311.8   0.349994676   3.59221   1.32221   1.09615   0.80150
  21   32799.8    304.9   0.028869583   0.28976   0.25489   0.47367   0.02091
  22   33251.0    300.7   0.192886323   1.90973  -1.16300   0.43226   0.60853
  23   33506.4    298.5   0.058419388   0.57399  -0.41687   0.51580   0.36628
  24   33756.1    296.2   0.049134737   0.47919   0.19909  -0.63402  -0.19386
  25   33925.5    294.8   0.176624288   1.71395   0.19383   0.92777  -0.90312
  26   34231.0    292.1   0.519986628   5.00090  -0.87540   2.05443   0.11791
  27   34645.3    288.6   0.646687665   6.14505  -1.58118   0.78514   1.74025
  28   34882.0    286.7   0.504112079   4.75775  -0.04170   1.84999  -1.15479
  29   34989.6    285.8   0.072247412   0.67977  -0.58072  -0.16140   0.56256
  30   35144.2    284.5   0.031952376   0.29931  -0.16517   0.51955   0.04586
  31   36059.8    277.3   0.004698234   0.04289   0.00988  -0.17253  -0.11415
  32   36100.0    277.0   0.099945181   0.91144  -0.08600   0.81749  -0.48554
  33   37088.1    269.6   0.352713906   3.13086   0.97800  -1.46862   0.13246
  34   37182.6    268.9   0.018149469   0.16069   0.20226   0.33893   0.07007
  35   37358.1    267.7   0.137251787   1.20951  -0.18950  -0.75069   0.78106
  36   37581.6    266.1   0.159372798   1.39609   0.46421  -0.10876  -1.08110
  37   38032.2    262.9   0.018863739   0.16329   0.29786  -0.14910  -0.22877
  38   38089.2    262.5   0.010125347   0.08752   0.06607  -0.28397  -0.05009
  39   38445.6    260.1   0.094333988   0.80779  -0.37606   0.71209  -0.39912
  40   38858.4    257.3   0.008978073   0.07606  -0.18536   0.15682  -0.13082
  41   38950.6    256.7   0.016035332   0.13553  -0.08325  -0.10327   0.34342
  42   39256.1    254.7   0.003926075   0.03293   0.11124  -0.11748  -0.08215
  43   39360.3    254.1   0.072484951   0.60627  -0.55236   0.53059  -0.14017
  44   39412.3    253.7   0.025657552   0.21432  -0.22409   0.08612   0.39583
  45   39957.0    250.3   0.010219479   0.08420  -0.17947   0.22762  -0.01342
  46   40096.8    249.4   0.182254165   1.49639  -0.71036   0.90959  -0.40548

FINAL SINGLE POINT ENERGY     -3711.140561710649

DIPOLE MOMENT
-------------
                                X             Y             Z
Electronic contribution:     18.11069      17.27838     -11.45003
Nuclear contribution   :    -19.16147     -19.95833      12.10064
                        -----------------------------------------
Total Dipole Moment    :     -1.05078      -2.67995       0.65061
                        -----------------------------------------
Magnitude (a.u.)       :      2.95120
Magnitude (Debye)      :      7.50135

Rotational constants in cm-1:     0.001892     0.000288     0.000271
Rotational constants in MHz :    56.710602     8.630346     8.127632

                             ****ORCA TERMINATED NORMALLY****
TOTAL RUN TIME: 0 days 0 hours 10 minutes 47 seconds 397 msec
