                         Program Version 4.2.0 -  RELEASE  -
|  1> # ORCA input file
|  2> # SCF done       -214.635992641886          0.000245420568
|  3> ! CAM-B3LYP def2-SVP def2/J RIJCOSX Grid4 TightSCF
|  4> %maxcore 5000
|  5> %tddft
|  6>     Mode sTDDFT
|  7>     Ethresh 5.0
|  8>     maxcore 5000
|  9> end
| 10>
| 11> %pal
| 12>   nprocs 6
| 13>   end
| 14> * xyz 0 1
| 15>    C        4.77095        -0.25349        -4.68202
| 16>    C        5.65569        -1.24663        -4.70612
| 17>    C        5.59527        -2.41500        -3.86597
| 18>    O        6.68399        -3.21212        -3.79509
| 19>    C        6.46139        -4.19534        -2.90662
| 20>    C        7.53280        -5.11220        -2.63971
| 21>    C        7.67073        -5.76986        -1.47395
| 22>    C        8.75548        -6.64249        -1.08510
| 23>    C        9.83864        -6.88953        -1.94535
| 24>    C       10.91214        -7.61003        -1.48354
| 25>    C       10.96056        -8.07314        -0.16156
| 26>    C        9.91413        -7.85053         0.69964
| 27>    C        8.78081        -7.17062         0.23177
| 28>    C        7.66122        -7.01896         1.14556
| 29>    C        6.38127        -7.30682         0.83693
| 30>    C        5.26926        -7.05254         1.68373
| 31>    S        5.38437        -5.94601         3.00854
| 32>    C        3.70169        -6.08538         3.39730
| 33>    C        3.11507        -5.28107         4.41129
| 34>    C        3.68228        -4.14957         4.87666
| 35>    C        3.11515        -3.27794         5.88397
| 36>    C        2.47069        -3.82177         7.00191
| 37>    C        2.03381        -2.97255         7.99134
| 38>    C        2.22952        -1.58810         7.89296
| 39>    C        2.82887        -1.02990         6.78835
| 40>    C        3.26069        -1.87230         5.75474
| 41>    C        3.74478        -1.34093         4.50083
| 42>    C        4.25374        -0.11389         4.28272
| 43>    C        4.64149         0.34283         2.98435
| 44>    O        5.27651         1.53539         2.85741
| 45>    C        5.53343         1.73528         1.57552
| 46>    C        5.07709         0.68848         0.80756
| 47>    C        5.25365         0.64444        -0.66914
| 48>    F        5.93369         1.71713        -1.10506
| 49>    F        5.94767        -0.42788        -1.09966
| 50>    F        4.09844         0.64114        -1.35873
| 51>    C        4.48436        -0.23312         1.72328
| 52>    O        3.87126        -1.41288         1.55621
| 53>    C        3.60889        -1.89725         0.25274
| 54>    C        1.66920        -0.95932         9.10935
| 55>    O        1.63005         0.20282         9.42845
| 56>    N        1.17251        -2.00921         9.87105
| 57>    C        0.49893        -1.82413        11.13786
| 58>    C       -1.00468        -1.66001        10.94487
| 59>    C        1.34346        -3.24868         9.27052
| 60>    O        0.98688        -4.29999         9.74215
| 61>    C        3.07145        -6.99251         2.53552
| 62>    C        1.71290        -7.36239         2.53294
| 63>    C        1.24692        -8.22789         1.57745
| 64>    S       -0.42210        -8.75369         1.42905
| 65>    C       -1.27200        -7.89430         2.80324
| 66>    C       -2.74092        -8.27156         2.77630
| 67>    C        2.13782        -8.75448         0.59934
| 68>    S        1.49707        -9.86648        -0.63486
| 69>    C        1.45516       -11.41261         0.34836
| 70>    C        2.84557       -11.90377         0.69601
| 71>    C        3.45542        -8.40758         0.57415
| 72>    C        3.95846        -7.51834         1.54552
| 73>    C       12.24906        -8.77818         0.03122
| 74>    O       12.68793        -9.32518         1.01129
| 75>    N       12.89531        -8.70140        -1.19448
| 76>    C       14.21412        -9.24732        -1.43259
| 77>    C       15.30047        -8.22616        -1.11391
| 78>    C       12.16722        -8.01543        -2.15713
| 79>    O       12.52720        -7.82663        -3.29180
| 80>    C        5.16987        -4.07226        -2.41324
| 81>    C        4.45517        -4.98360        -1.48734
| 82>    F        4.77930        -4.78912        -0.18728
| 83>    F        3.12490        -4.85570        -1.54672
| 84>    F        4.71436        -6.28216        -1.73238
| 85>    C        4.61193        -2.91667        -3.02922
| 86>    O        3.37021        -2.41465        -2.79767
| 87>    C        2.41745        -2.69077        -3.81523
| 88>    H        4.87913         0.60179        -5.32502
| 89>    H        3.93388        -0.25277        -4.00629
| 90>    H        6.51795        -1.21439        -5.35795
| 91>    H        8.26152        -5.18260        -3.43347
| 92>    H        6.94424        -5.58229        -0.70021
| 93>    H        9.84044        -6.51656        -2.95648
| 94>    H        9.94569        -8.21933         1.71368
| 95>    H        7.90261        -6.69295         2.14979
| 96>    H        6.15343        -7.75675        -0.12062
| 97>    H        2.13068        -5.57157         4.75295
| 98>    H        4.62828        -3.83899         4.45242
| 99>    H        2.35085        -4.88980         7.10003
|100>    H        2.93047         0.04054         6.70747
|101>    H        3.65638        -2.00147         3.65254
|102>    H        4.42320         0.59176         5.08309
|103>    H        6.03890         2.63601         1.28803
|104>    H        3.06282        -2.82642         0.39866
|105>    H        4.53233        -2.10513        -0.28825
|106>    H        2.99097        -1.20690        -0.32287
|107>    H        0.92265        -0.93166        11.60464
|108>    H        0.70934        -2.70240        11.75312
|109>    H       -1.21015        -0.79463        10.31884
|110>    H       -1.48684        -1.51815        11.90789
|111>    H       -1.42035        -2.54667        10.47164
|112>    H        1.05963        -6.94534         3.28066
|113>    H       -1.14269        -6.82128         2.65877
|114>    H       -0.80660        -8.20839         3.73806
|115>    H       -3.19188        -7.97658         1.83165
|116>    H       -3.26644        -7.77071         3.58663
|117>    H       -2.86054        -9.34619         2.89378
|118>    H        0.93285       -12.12046        -0.29323
|119>    H        0.85604       -11.22491         1.23813
|120>    H        3.43017       -12.05762        -0.20808
|121>    H        2.78011       -12.84715         1.23460
|122>    H        3.36301       -11.18111         1.32482
|123>    H        4.09965        -8.80674        -0.19269
|124>    H       14.26220        -9.53859        -2.48463
|125>    H       14.32241       -10.12891        -0.79609
|126>    H       15.18164        -7.34436        -1.73935
|127>    H       16.27895        -8.65911        -1.30123
|128>    H       15.24228        -7.93034        -0.06892
|129>    H        2.76604        -2.34236        -4.79138
|130>    H        1.51717        -2.15241        -3.52864
|131>    H        2.20220        -3.76207        -3.86323
|132> *
|133>
|134>                          ****END OF INPUT****

CARTESIAN COORDINATES (ANGSTROEM)
---------------------------------
  C      4.770950   -0.253490   -4.682020
  C      5.655690   -1.246630   -4.706120
  C      5.595270   -2.415000   -3.865970
  O      6.683990   -3.212120   -3.795090
  C      6.461390   -4.195340   -2.906620
  C      7.532800   -5.112200   -2.639710
  C      7.670730   -5.769860   -1.473950
  C      8.755480   -6.642490   -1.085100
  C      9.838640   -6.889530   -1.945350
  C     10.912140   -7.610030   -1.483540
  C     10.960560   -8.073140   -0.161560
  C      9.914130   -7.850530    0.699640
  C      8.780810   -7.170620    0.231770
  C      7.661220   -7.018960    1.145560
  C      6.381270   -7.306820    0.836930
  C      5.269260   -7.052540    1.683730
  S      5.384370   -5.946010    3.008540
  C      3.701690   -6.085380    3.397300
  C      3.115070   -5.281070    4.411290
  C      3.682280   -4.149570    4.876660
  C      3.115150   -3.277940    5.883970
  C      2.470690   -3.821770    7.001910
  C      2.033810   -2.972550    7.991340
  C      2.229520   -1.588100    7.892960
  C      2.828870   -1.029900    6.788350
  C      3.260690   -1.872300    5.754740
  C      3.744780   -1.340930    4.500830
  C      4.253740   -0.113890    4.282720
  C      4.641490    0.342830    2.984350
  O      5.276510    1.535390    2.857410
  C      5.533430    1.735280    1.575520
  C      5.077090    0.688480    0.807560
  C      5.253650    0.644440   -0.669140
  F      5.933690    1.717130   -1.105060
  F      5.947670   -0.427880   -1.099660
  F      4.098440    0.641140   -1.358730
  C      4.484360   -0.233120    1.723280
  O      3.871260   -1.412880    1.556210
  C      3.608890   -1.897250    0.252740
  C      1.669200   -0.959320    9.109350
  O      1.630050    0.202820    9.428450
  N      1.172510   -2.009210    9.871050
  C      0.498930   -1.824130   11.137860
  C     -1.004680   -1.660010   10.944870
  C      1.343460   -3.248680    9.270520
  O      0.986880   -4.299990    9.742150
  C      3.071450   -6.992510    2.535520
  C      1.712900   -7.362390    2.532940
  C      1.246920   -8.227890    1.577450
  S     -0.422100   -8.753690    1.429050
  C     -1.272000   -7.894300    2.803240
  C     -2.740920   -8.271560    2.776300
  C      2.137820   -8.754480    0.599340
  S      1.497070   -9.866480   -0.634860
  C      1.455160  -11.412610    0.348360
  C      2.845570  -11.903770    0.696010
  C      3.455420   -8.407580    0.574150
  C      3.958460   -7.518340    1.545520
  C     12.249060   -8.778180    0.031220
  O     12.687930   -9.325180    1.011290
  N     12.895310   -8.701400   -1.194480
  C     14.214120   -9.247320   -1.432590
  C     15.300470   -8.226160   -1.113910
  C     12.167220   -8.015430   -2.157130
  O     12.527200   -7.826630   -3.291800
  C      5.169870   -4.072260   -2.413240
  C      4.455170   -4.983600   -1.487340
  F      4.779300   -4.789120   -0.187280
  F      3.124900   -4.855700   -1.546720
  F      4.714360   -6.282160   -1.732380
  C      4.611930   -2.916670   -3.029220
  O      3.370210   -2.414650   -2.797670
  C      2.417450   -2.690770   -3.815230
  H      4.879130    0.601790   -5.325020
  H      3.933880   -0.252770   -4.006290
  H      6.517950   -1.214390   -5.357950
  H      8.261520   -5.182600   -3.433470
  H      6.944240   -5.582290   -0.700210
  H      9.840440   -6.516560   -2.956480
  H      9.945690   -8.219330    1.713680
  H      7.902610   -6.692950    2.149790
  H      6.153430   -7.756750   -0.120620
  H      2.130680   -5.571570    4.752950
  H      4.628280   -3.838990    4.452420
  H      2.350850   -4.889800    7.100030
  H      2.930470    0.040540    6.707470
  H      3.656380   -2.001470    3.652540
  H      4.423200    0.591760    5.083090
  H      6.038900    2.636010    1.288030
  H      3.062820   -2.826420    0.398660
  H      4.532330   -2.105130   -0.288250
  H      2.990970   -1.206900   -0.322870
  H      0.922650   -0.931660   11.604640
  H      0.709340   -2.702400   11.753120
  H     -1.210150   -0.794630   10.318840
  H     -1.486840   -1.518150   11.907890
  H     -1.420350   -2.546670   10.471640
  H      1.059630   -6.945340    3.280660
  H     -1.142690   -6.821280    2.658770
  H     -0.806600   -8.208390    3.738060
  H     -3.191880   -7.976580    1.831650
  H     -3.266440   -7.770710    3.586630
  H     -2.860540   -9.346190    2.893780
  H      0.932850  -12.120460   -0.293230
  H      0.856040  -11.224910    1.238130
  H      3.430170  -12.057620   -0.208080
  H      2.780110  -12.847150    1.234600
  H      3.363010  -11.181110    1.324820
  H      4.099650   -8.806740   -0.192690
  H     14.262200   -9.538590   -2.484630
  H     14.322410  -10.128910   -0.796090
  H     15.181640   -7.344360   -1.739350
  H     16.278950   -8.659110   -1.301230
  H     15.242280   -7.930340   -0.068920
  H      2.766040   -2.342360   -4.791380
  H      1.517170   -2.152410   -3.528640
  H      2.202200   -3.762070   -3.863230

 Total Charge           Charge          ....    0
 Multiplicity           Mult            ....    1
 Number of Electrons    NEL             ....  548
 Basis Dimension        Dim             .... 1254

ORBITAL ENERGIES
----------------

  NO   OCC          E(Eh)            E(eV)
   0   2.0000     -88.963515     -2420.8203
   1   2.0000     -88.921741     -2419.6836
   2   2.0000     -88.908783     -2419.3310
   3   2.0000     -24.806734      -675.0255
   4   2.0000     -24.804749      -674.9715
   5   2.0000     -24.803949      -674.9498
   6   2.0000     -24.802613      -674.9134
   7   2.0000     -24.801966      -674.8958
   8   2.0000     -24.801174      -674.8743
   9   2.0000     -19.305412      -525.3270
  10   2.0000     -19.305229      -525.3220
  11   2.0000     -19.258362      -524.0467
  12   2.0000     -19.251973      -523.8728
  13   2.0000     -19.207076      -522.6511
  14   2.0000     -19.206726      -522.6416
  15   2.0000     -19.200705      -522.4777
  16   2.0000     -19.200337      -522.4677
  17   2.0000     -14.448541      -393.1648
  18   2.0000     -14.441686      -392.9782
  19   2.0000     -10.527525      -286.4685
  20   2.0000     -10.526071      -286.4290
  21   2.0000     -10.386903      -282.6420
  22   2.0000     -10.386719      -282.6370
  23   2.0000     -10.380269      -282.4615
  24   2.0000     -10.380019      -282.4547
  25   2.0000     -10.354048      -281.7480
  26   2.0000     -10.347638      -281.5736
  27   2.0000     -10.347186      -281.5613
  28   2.0000     -10.340787      -281.3871
  29   2.0000     -10.335301      -281.2378
  30   2.0000     -10.327073      -281.0139
  31   2.0000     -10.325158      -280.9618
  32   2.0000     -10.313951      -280.6569
  33   2.0000     -10.303771      -280.3799
  34   2.0000     -10.303574      -280.3745
  35   2.0000     -10.301926      -280.3296
  36   2.0000     -10.301894      -280.3288
  37   2.0000     -10.301856      -280.3278
  38   2.0000     -10.301414      -280.3157
  39   2.0000     -10.298531      -280.2373
  40   2.0000     -10.297383      -280.2060
  41   2.0000     -10.296557      -280.1836
  42   2.0000     -10.296322      -280.1772
  43   2.0000     -10.295114      -280.1443
  44   2.0000     -10.293799      -280.1085
  45   2.0000     -10.293199      -280.0922
  46   2.0000     -10.292897      -280.0840
  47   2.0000     -10.291105      -280.0352
  48   2.0000     -10.290943      -280.0308
  49   2.0000     -10.290444      -280.0172
  50   2.0000     -10.290111      -280.0081
  51   2.0000     -10.289802      -279.9998
  52   2.0000     -10.288927      -279.9759
  53   2.0000     -10.287836      -279.9463
  54   2.0000     -10.286398      -279.9071
  55   2.0000     -10.285469      -279.8818
  56   2.0000     -10.284913      -279.8667
  57   2.0000     -10.284849      -279.8650
  58   2.0000     -10.283615      -279.8314
  59   2.0000     -10.283516      -279.8287
  60   2.0000     -10.282219      -279.7934
  61   2.0000     -10.282154      -279.7916
  62   2.0000     -10.281811      -279.7823
  63   2.0000     -10.281294      -279.7682
  64   2.0000     -10.280996      -279.7601
  65   2.0000     -10.277707      -279.6706
  66   2.0000     -10.273914      -279.5674
  67   2.0000     -10.271431      -279.4999
  68   2.0000     -10.268603      -279.4229
  69   2.0000     -10.266732      -279.3720
  70   2.0000     -10.255656      -279.0706
  71   2.0000     -10.253120      -279.0016
  72   2.0000     -10.252138      -278.9749
  73   2.0000      -8.058495      -219.2828
  74   2.0000      -8.016638      -218.1438
  75   2.0000      -8.003917      -217.7976
  76   2.0000      -6.027408      -164.0141
  77   2.0000      -6.023417      -163.9055
  78   2.0000      -6.021360      -163.8495
  79   2.0000      -5.986900      -162.9118
  80   2.0000      -5.982781      -162.7997
  81   2.0000      -5.976653      -162.6330
  82   2.0000      -5.974407      -162.5719
  83   2.0000      -5.970627      -162.4690
  84   2.0000      -5.963252      -162.2683
  85   2.0000      -1.394653       -37.9504
  86   2.0000      -1.391750       -37.8714
  87   2.0000      -1.297455       -35.3055
  88   2.0000      -1.293860       -35.2077
  89   2.0000      -1.293235       -35.1907
  90   2.0000      -1.291957       -35.1559
  91   2.0000      -1.227509       -33.4022
  92   2.0000      -1.226685       -33.3798
  93   2.0000      -1.160839       -31.5880
  94   2.0000      -1.152789       -31.3690
  95   2.0000      -1.152424       -31.3591
  96   2.0000      -1.146141       -31.1881
  97   2.0000      -1.129110       -30.7246
  98   2.0000      -1.122425       -30.5427
  99   2.0000      -1.043805       -28.4034
 100   2.0000      -1.037003       -28.2183
 101   2.0000      -0.999098       -27.1868
 102   2.0000      -0.980102       -26.6699
 103   2.0000      -0.970868       -26.4187
 104   2.0000      -0.954034       -25.9606
 105   2.0000      -0.933001       -25.3882
 106   2.0000      -0.922406       -25.0999
 107   2.0000      -0.922311       -25.0973
 108   2.0000      -0.916321       -24.9344
 109   2.0000      -0.913429       -24.8557
 110   2.0000      -0.907207       -24.6864
 111   2.0000      -0.897147       -24.4126
 112   2.0000      -0.896010       -24.3817
 113   2.0000      -0.885818       -24.1043
 114   2.0000      -0.883472       -24.0405
 115   2.0000      -0.870079       -23.6761
 116   2.0000      -0.862119       -23.4595
 117   2.0000      -0.853076       -23.2134
 118   2.0000      -0.848488       -23.0885
 119   2.0000      -0.841061       -22.8864
 120   2.0000      -0.835477       -22.7345
 121   2.0000      -0.830760       -22.6061
 122   2.0000      -0.821527       -22.3549
 123   2.0000      -0.819289       -22.2940
 124   2.0000      -0.803635       -21.8680
 125   2.0000      -0.800671       -21.7874
 126   2.0000      -0.794751       -21.6263
 127   2.0000      -0.789934       -21.4952
 128   2.0000      -0.786759       -21.4088
 129   2.0000      -0.773700       -21.0534
 130   2.0000      -0.768790       -20.9198
 131   2.0000      -0.760569       -20.6961
 132   2.0000      -0.759576       -20.6691
 133   2.0000      -0.751801       -20.4575
 134   2.0000      -0.738460       -20.0945
 135   2.0000      -0.727793       -19.8043
 136   2.0000      -0.723820       -19.6962
 137   2.0000      -0.717757       -19.5312
 138   2.0000      -0.713644       -19.4192
 139   2.0000      -0.712316       -19.3831
 140   2.0000      -0.704675       -19.1752
 141   2.0000      -0.698881       -19.0175
 142   2.0000      -0.696929       -18.9644
 143   2.0000      -0.689602       -18.7650
 144   2.0000      -0.686126       -18.6704
 145   2.0000      -0.683425       -18.5969
 146   2.0000      -0.679963       -18.5027
 147   2.0000      -0.677067       -18.4239
 148   2.0000      -0.675382       -18.3781
 149   2.0000      -0.665809       -18.1176
 150   2.0000      -0.663249       -18.0479
 151   2.0000      -0.661211       -17.9925
 152   2.0000      -0.657779       -17.8991
 153   2.0000      -0.654399       -17.8071
 154   2.0000      -0.650103       -17.6902
 155   2.0000      -0.641315       -17.4511
 156   2.0000      -0.638951       -17.3867
 157   2.0000      -0.635365       -17.2892
 158   2.0000      -0.630653       -17.1609
 159   2.0000      -0.629631       -17.1331
 160   2.0000      -0.615728       -16.7548
 161   2.0000      -0.608833       -16.5672
 162   2.0000      -0.605939       -16.4884
 163   2.0000      -0.597462       -16.2578
 164   2.0000      -0.588687       -16.0190
 165   2.0000      -0.584876       -15.9153
 166   2.0000      -0.582701       -15.8561
 167   2.0000      -0.579588       -15.7714
 168   2.0000      -0.577394       -15.7117
 169   2.0000      -0.573614       -15.6088
 170   2.0000      -0.570100       -15.5132
 171   2.0000      -0.567623       -15.4458
 172   2.0000      -0.563821       -15.3423
 173   2.0000      -0.562427       -15.3044
 174   2.0000      -0.561741       -15.2857
 175   2.0000      -0.556256       -15.1365
 176   2.0000      -0.555608       -15.1189
 177   2.0000      -0.553362       -15.0578
 178   2.0000      -0.551914       -15.0183
 179   2.0000      -0.549252       -14.9459
 180   2.0000      -0.547968       -14.9110
 181   2.0000      -0.545294       -14.8382
 182   2.0000      -0.544866       -14.8266
 183   2.0000      -0.543757       -14.7964
 184   2.0000      -0.540797       -14.7158
 185   2.0000      -0.539801       -14.6887
 186   2.0000      -0.537887       -14.6367
 187   2.0000      -0.536879       -14.6092
 188   2.0000      -0.535365       -14.5680
 189   2.0000      -0.531750       -14.4697
 190   2.0000      -0.530773       -14.4431
 191   2.0000      -0.529598       -14.4111
 192   2.0000      -0.527083       -14.3426
 193   2.0000      -0.525223       -14.2921
 194   2.0000      -0.523665       -14.2496
 195   2.0000      -0.520366       -14.1599
 196   2.0000      -0.518822       -14.1179
 197   2.0000      -0.516382       -14.0515
 198   2.0000      -0.513336       -13.9686
 199   2.0000      -0.511273       -13.9124
 200   2.0000      -0.510777       -13.8990
 201   2.0000      -0.510062       -13.8795
 202   2.0000      -0.508601       -13.8397
 203   2.0000      -0.506196       -13.7743
 204   2.0000      -0.505674       -13.7601
 205   2.0000      -0.503463       -13.6999
 206   2.0000      -0.503151       -13.6914
 207   2.0000      -0.499712       -13.5979
 208   2.0000      -0.498332       -13.5603
 209   2.0000      -0.496729       -13.5167
 210   2.0000      -0.495484       -13.4828
 211   2.0000      -0.491391       -13.3714
 212   2.0000      -0.488600       -13.2955
 213   2.0000      -0.487741       -13.2721
 214   2.0000      -0.484069       -13.1722
 215   2.0000      -0.481177       -13.0935
 216   2.0000      -0.478826       -13.0295
 217   2.0000      -0.475968       -12.9517
 218   2.0000      -0.473507       -12.8848
 219   2.0000      -0.471988       -12.8434
 220   2.0000      -0.469968       -12.7885
 221   2.0000      -0.469482       -12.7753
 222   2.0000      -0.467277       -12.7153
 223   2.0000      -0.462868       -12.5953
 224   2.0000      -0.460274       -12.5247
 225   2.0000      -0.457374       -12.4458
 226   2.0000      -0.453929       -12.3520
 227   2.0000      -0.452452       -12.3118
 228   2.0000      -0.451731       -12.2922
 229   2.0000      -0.450466       -12.2578
 230   2.0000      -0.447643       -12.1810
 231   2.0000      -0.445682       -12.1276
 232   2.0000      -0.444108       -12.0848
 233   2.0000      -0.443434       -12.0665
 234   2.0000      -0.442736       -12.0475
 235   2.0000      -0.439442       -11.9578
 236   2.0000      -0.436720       -11.8837
 237   2.0000      -0.434369       -11.8198
 238   2.0000      -0.432842       -11.7782
 239   2.0000      -0.431629       -11.7452
 240   2.0000      -0.428890       -11.6707
 241   2.0000      -0.424464       -11.5503
 242   2.0000      -0.422626       -11.5002
 243   2.0000      -0.418679       -11.3928
 244   2.0000      -0.414765       -11.2863
 245   2.0000      -0.411125       -11.1873
 246   2.0000      -0.407405       -11.0860
 247   2.0000      -0.403633       -10.9834
 248   2.0000      -0.399958       -10.8834
 249   2.0000      -0.392994       -10.6939
 250   2.0000      -0.387228       -10.5370
 251   2.0000      -0.385040       -10.4775
 252   2.0000      -0.373648       -10.1675
 253   2.0000      -0.369213       -10.0468
 254   2.0000      -0.367374        -9.9968
 255   2.0000      -0.360638        -9.8134
 256   2.0000      -0.359033        -9.7698
 257   2.0000      -0.354704        -9.6520
 258   2.0000      -0.353546        -9.6205
 259   2.0000      -0.350703        -9.5431
 260   2.0000      -0.343532        -9.3480
 261   2.0000      -0.339218        -9.2306
 262   2.0000      -0.338441        -9.2095
 263   2.0000      -0.335550        -9.1308
 264   2.0000      -0.332563        -9.0495
 265   2.0000      -0.328649        -8.9430
 266   2.0000      -0.326382        -8.8813
 267   2.0000      -0.316441        -8.6108
 268   2.0000      -0.309844        -8.4313
 269   2.0000      -0.285717        -7.7748
 270   2.0000      -0.277655        -7.5554
 271   2.0000      -0.263117        -7.1598
 272   2.0000      -0.257447        -7.0055
 273   2.0000      -0.229880        -6.2554
 274   0.0000      -0.073269        -1.9938
 275   0.0000      -0.056314        -1.5324
 276   0.0000      -0.041271        -1.1230
 277   0.0000      -0.025610        -0.6969
 278   0.0000      -0.011581        -0.3151

MULLIKEN ATOMIC CHARGES
-----------------------
   0 C :   -0.019350
   1 C :   -0.024969
   2 C :    0.120627
   3 O :   -0.177992
   4 C :    0.133333
   5 C :    0.019321
   6 C :   -0.058817
   7 C :    0.111142
   8 C :   -0.094901
   9 C :    0.020547
  10 C :    0.015078
  11 C :   -0.079002
  12 C :    0.056125
  13 C :   -0.058513
  14 C :    0.000343
  15 C :   -0.120423
  16 S :    0.143648
  17 C :   -0.120589
  18 C :    0.016227
  19 C :   -0.054116
  20 C :    0.070372
  21 C :   -0.098361
  22 C :    0.011030
  23 C :    0.015650
  24 C :   -0.102275
  25 C :    0.123873
  26 C :   -0.079159
  27 C :    0.017297
  28 C :    0.087331
  29 O :   -0.164592
  30 C :    0.103184
  31 C :   -0.173555
  32 C :    0.532243
  33 F :   -0.159733
  34 F :   -0.161172
  35 F :   -0.159203
  36 C :    0.138567
  37 O :   -0.302462
  38 C :    0.173115
  39 C :    0.184895
  40 O :   -0.163249
  41 N :   -0.303495
  42 C :    0.136540
  43 C :   -0.007764
  44 C :    0.184135
  45 O :   -0.165072
  46 C :    0.158399
  47 C :   -0.109053
  48 C :    0.037571
  49 S :   -0.005080
  50 C :   -0.141012
  51 C :    0.034658
  52 C :   -0.134045
  53 S :   -0.026000
  54 C :   -0.103149
  55 C :    0.024797
  56 C :   -0.009341
  57 C :    0.132108
  58 C :    0.183080
  59 O :   -0.156875
  60 N :   -0.301459
  61 C :    0.134757
  62 C :   -0.007200
  63 C :    0.186083
  64 O :   -0.159762
  65 C :   -0.145575
  66 C :    0.533940
  67 F :   -0.167426
  68 F :   -0.148263
  69 F :   -0.165544
  70 C :    0.061664
  71 O :   -0.339160
  72 C :    0.200031
  73 H :    0.029176
  74 H :    0.033115
  75 H :    0.002344
  76 H :    0.000900
  77 H :    0.020612
  78 H :   -0.011651
  79 H :   -0.009110
  80 H :    0.013827
  81 H :    0.014378
  82 H :   -0.004249
  83 H :    0.017419
  84 H :   -0.012024
  85 H :   -0.013353
  86 H :    0.027838
  87 H :   -0.006737
  88 H :    0.023853
  89 H :    0.040143
  90 H :    0.033972
  91 H :    0.029770
  92 H :    0.029227
  93 H :    0.028594
  94 H :    0.024374
  95 H :    0.019281
  96 H :    0.025410
  97 H :   -0.043120
  98 H :    0.058862
  99 H :    0.055854
 100 H :    0.028379
 101 H :    0.029134
 102 H :    0.027498
 103 H :    0.048534
 104 H :    0.049800
 105 H :    0.018655
 106 H :    0.017688
 107 H :    0.029609
 108 H :   -0.028723
 109 H :    0.030524
 110 H :    0.030237
 111 H :    0.025764
 112 H :    0.020941
 113 H :    0.026154
 114 H :    0.023372
 115 H :    0.037114
 116 H :    0.022612
Sum of atomic charges:   -0.0000000

LOEWDIN ATOMIC CHARGES
----------------------
   0 C :   -0.032258
   1 C :   -0.038005
   2 C :    0.003769
   3 O :    0.035270
   4 C :    0.054604
   5 C :   -0.038706
   6 C :   -0.002822
   7 C :   -0.013931
   8 C :    0.023746
   9 C :   -0.054115
  10 C :   -0.050460
  11 C :    0.018361
  12 C :   -0.001625
  13 C :   -0.039002
  14 C :   -0.023423
  15 C :   -0.177323
  16 S :    0.482281
  17 C :   -0.180805
  18 C :   -0.029405
  19 C :   -0.030159
  20 C :   -0.011931
  21 C :    0.013239
  22 C :   -0.058380
  23 C :   -0.055380
  24 C :    0.016317
  25 C :   -0.006093
  26 C :   -0.032716
  27 C :   -0.019414
  28 C :   -0.016115
  29 O :    0.041640
  30 C :    0.063839
  31 C :   -0.165162
  32 C :    0.172775
  33 F :   -0.057771
  34 F :   -0.060262
  35 F :   -0.057576
  36 C :    0.030657
  37 O :   -0.080397
  38 C :    0.067967
  39 C :    0.088327
  40 O :   -0.164362
  41 N :   -0.038499
  42 C :    0.043965
  43 C :   -0.060218
  44 C :    0.087573
  45 O :   -0.166449
  46 C :   -0.035372
  47 C :   -0.062438
  48 C :   -0.160041
  49 S :    0.309103
  50 C :   -0.137624
  51 C :   -0.067478
  52 C :   -0.177558
  53 S :    0.255262
  54 C :   -0.129230
  55 C :   -0.073934
  56 C :   -0.014079
  57 C :   -0.049460
  58 C :    0.087239
  59 O :   -0.159811
  60 N :   -0.036252
  61 C :    0.044262
  62 C :   -0.059507
  63 C :    0.087900
  64 O :   -0.161554
  65 C :   -0.150016
  66 C :    0.176988
  67 F :   -0.059398
  68 F :   -0.044331
  69 F :   -0.057397
  70 C :    0.009279
  71 O :   -0.119353
  72 C :    0.085089
  73 H :    0.028446
  74 H :    0.023587
  75 H :    0.037695
  76 H :    0.034904
  77 H :    0.028255
  78 H :    0.036480
  79 H :    0.039855
  80 H :    0.026997
  81 H :    0.035017
  82 H :    0.032675
  83 H :    0.023975
  84 H :    0.036226
  85 H :    0.035764
  86 H :    0.031586
  87 H :    0.034774
  88 H :    0.030844
  89 H :    0.027128
  90 H :    0.011429
  91 H :    0.015362
  92 H :    0.031291
  93 H :    0.031070
  94 H :    0.027369
  95 H :    0.028802
  96 H :    0.027426
  97 H :    0.023195
  98 H :    0.021689
  99 H :    0.020670
 100 H :    0.028005
 101 H :    0.032691
 102 H :    0.027511
 103 H :    0.025302
 104 H :    0.011929
 105 H :    0.023054
 106 H :    0.026583
 107 H :    0.025260
 108 H :    0.028630
 109 H :    0.031788
 110 H :    0.031848
 111 H :    0.027777
 112 H :    0.029693
 113 H :    0.028017
 114 H :    0.015517
 115 H :    0.027005
 116 H :    0.015023

  Mayer bond orders larger than 0.100000
B(  0-C ,  1-C ) :   1.9256 B(  0-C , 73-H ) :   0.9471 B(  0-C , 74-H ) :   0.9491
B(  1-C ,  2-C ) :   1.1153 B(  1-C , 75-H ) :   0.9493 B(  2-C ,  3-O ) :   1.1127
B(  2-C ,  4-C ) :   0.1052 B(  2-C , 70-C ) :   1.4632 B(  3-O ,  4-C ) :   1.1811
B(  4-C ,  5-C ) :   1.1100 B(  4-C , 65-C ) :   1.4571 B(  5-C ,  6-C ) :   1.7124
B(  5-C , 76-H ) :   0.9455 B(  6-C ,  7-C ) :   1.0879 B(  6-C , 77-H ) :   0.9631
B(  7-C ,  8-C ) :   1.2805 B(  7-C , 12-C ) :   1.3469 B(  8-C ,  9-C ) :   1.4240
B(  8-C , 78-H ) :   1.0030 B(  9-C , 10-C ) :   1.3323 B(  9-C , 63-C ) :   0.8781
B( 10-C , 11-C ) :   1.4025 B( 10-C , 58-C ) :   0.8750 B( 11-C , 12-C ) :   1.3075
B( 11-C , 79-H ) :   1.0132 B( 12-C , 13-C ) :   1.0345 B( 13-C , 14-C ) :   1.7215
B( 13-C , 80-H ) :   0.9597 B( 14-C , 15-C ) :   1.1726 B( 14-C , 81-H ) :   0.9671
B( 15-C , 16-S ) :   1.1529 B( 15-C , 17-C ) :   0.1074 B( 15-C , 57-C ) :   1.3360
B( 16-S , 17-C ) :   1.1386 B( 17-C , 18-C ) :   1.1537 B( 17-C , 46-C ) :   1.3407
B( 18-C , 19-C ) :   1.7270 B( 18-C , 82-H ) :   0.9638 B( 19-C , 20-C ) :   1.0469
B( 19-C , 83-H ) :   0.9497 B( 20-C , 21-C ) :   1.3192 B( 20-C , 25-C ) :   1.3246
B( 21-C , 22-C ) :   1.3840 B( 21-C , 84-H ) :   1.0113 B( 22-C , 23-C ) :   1.3412
B( 22-C , 44-C ) :   0.8820 B( 23-C , 24-C ) :   1.4022 B( 23-C , 39-C ) :   0.8816
B( 24-C , 25-C ) :   1.3007 B( 24-C , 85-H ) :   1.0085 B( 25-C , 26-C ) :   1.0618
B( 26-C , 27-C ) :   1.6971 B( 26-C , 86-H ) :   0.9513 B( 27-C , 28-C ) :   1.1234
B( 27-C , 87-H ) :   0.9611 B( 28-C , 29-O ) :   1.1122 B( 28-C , 30-C ) :   0.1012
B( 28-C , 36-C ) :   1.4469 B( 29-O , 30-C ) :   1.2100 B( 30-C , 31-C ) :   1.4868
B( 30-C , 88-H ) :   1.0120 B( 31-C , 32-C ) :   0.9558 B( 31-C , 36-C ) :   1.2322
B( 32-C , 33-F ) :   1.1669 B( 32-C , 34-F ) :   1.1431 B( 32-C , 35-F ) :   1.1418
B( 36-C , 37-O ) :   1.1953 B( 37-O , 38-C ) :   0.9087 B( 38-C , 89-H ) :   0.9698
B( 38-C , 90-H ) :   0.9656 B( 38-C , 91-H ) :   0.9616 B( 39-C , 40-O ) :   2.2230
B( 39-C , 41-N ) :   1.0611 B( 41-N , 42-C ) :   0.9210 B( 41-N , 44-C ) :   1.0614
B( 42-C , 43-C ) :   1.1239 B( 42-C , 92-H ) :   0.9422 B( 42-C , 93-H ) :   0.9430
B( 43-C , 94-H ) :   0.9696 B( 43-C , 95-H ) :   0.9700 B( 43-C , 96-H ) :   0.9698
B( 44-C , 45-O ) :   2.2223 B( 46-C , 47-C ) :   1.1820 B( 46-C , 57-C ) :   1.2078
B( 47-C , 48-C ) :   1.5215 B( 47-C , 97-H ) :   0.9905 B( 48-C , 49-S ) :   1.0268
B( 48-C , 52-C ) :   1.2279 B( 49-S , 50-C ) :   0.9928 B( 50-C , 51-C ) :   1.0826
B( 50-C , 98-H ) :   0.9459 B( 50-C , 99-H ) :   0.9455 B( 51-C ,100-H ) :   0.9696
B( 51-C ,101-H ) :   0.9681 B( 51-C ,102-H ) :   0.9694 B( 52-C , 53-S ) :   1.0325
B( 52-C , 56-C ) :   1.5846 B( 53-S , 54-C ) :   0.9959 B( 54-C , 55-C ) :   1.0657
B( 54-C ,103-H ) :   0.9551 B( 54-C ,104-H ) :   0.9492 B( 55-C ,105-H ) :   0.9700
B( 55-C ,106-H ) :   0.9613 B( 55-C ,107-H ) :   0.9716 B( 56-C , 57-C ) :   1.1793
B( 56-C ,108-H ) :   0.9923 B( 58-C , 59-O ) :   2.2307 B( 58-C , 60-N ) :   1.0631
B( 60-N , 61-C ) :   0.9187 B( 60-N , 63-C ) :   1.0648 B( 61-C , 62-C ) :   1.1250
B( 61-C ,109-H ) :   0.9426 B( 61-C ,110-H ) :   0.9422 B( 62-C ,111-H ) :   0.9693
B( 62-C ,112-H ) :   0.9704 B( 62-C ,113-H ) :   0.9696 B( 63-C , 64-O ) :   2.2236
B( 65-C , 66-C ) :   0.9448 B( 65-C , 70-C ) :   1.2514 B( 66-C , 67-F ) :   1.0850
B( 66-C , 68-F ) :   1.1653 B( 66-C , 69-F ) :   1.1409 B( 70-C , 71-O ) :   1.1419
B( 71-O , 72-C ) :   0.9231 B( 72-C ,114-H ) :   0.9700 B( 72-C ,115-H ) :   0.9832
B( 72-C ,116-H ) :   0.9695

-----------------------------------------------------------------------------
         ABSORPTION SPECTRUM VIA TRANSITION ELECTRIC DIPOLE MOMENTS
-----------------------------------------------------------------------------
State   Energy  Wavelength   fosc         T2         TX        TY        TZ
        (cm-1)    (nm)                  (au**2)     (au)      (au)      (au)
-----------------------------------------------------------------------------
   0   18486.5    540.9   0.498897695   8.88450  -1.33349   1.57425   2.15128
   1   22885.0    437.0   0.282562702   4.06480   0.39973   1.95914  -0.25846
   2   24785.6    403.5   0.116192039   1.54331  -0.27063  -0.66737   1.01227
   3   25698.9    389.1   0.366676941   4.69726   0.84810   1.35451  -1.46399
   4   26297.4    380.3   0.188651867   2.36170  -0.97488   1.16876   0.21284
   5   29156.5    343.0   0.527191920   5.95263  -2.40915   0.19213   0.33426
   6   29860.4    334.9   0.044399684   0.48951  -0.15907  -0.40403  -0.54861
   7   30038.5    332.9   0.259841358   2.84777   1.58097  -0.37444  -0.45620
   8   30386.8    329.1   0.026149904   0.28331  -0.05189   0.24174   0.47136
   9   30657.9    326.2   0.708277601   7.60565  -1.65012   1.61380  -1.50943
  10   31607.3    316.4   0.274577607   2.85992   0.13005   0.01240  -1.68608
  11   32541.1    307.3   0.087687305   0.88711  -0.24005  -0.10216   0.90502
  12   34210.7    292.3   0.035410812   0.34076   0.20680  -0.29267  -0.46080
  13   34413.9    290.6   0.156594484   1.49802   0.44941   0.40699  -1.06321
  14   34903.7    286.5   0.059926668   0.56523  -0.13214  -0.53253   0.51399
  15   35263.4    283.6   0.036466349   0.34044   0.22677   0.31085  -0.43862
  16   35721.3    279.9   0.247403234   2.28010   0.91076   1.20407  -0.02880
  17   35762.6    279.6   0.012482834   0.11491   0.18493   0.21085   0.19040
  18   36351.4    275.1   0.078859273   0.71418  -0.66541  -0.48392  -0.19297
  19   36767.5    272.0   0.010462983   0.09368   0.12574  -0.27751   0.02937
  20   36985.5    270.4   0.216016388   1.92278   0.18599   1.03265   0.90655
  21   37276.6    268.3   0.072777715   0.64274   0.47272  -0.34276  -0.54936
  22   37504.6    266.6   0.032996998   0.28964   0.11437   0.37855   0.36506
  23   38594.4    259.1   0.204188672   1.74174   1.30307   0.20596   0.03651
  24   39032.0    256.2   0.077818399   0.65635  -0.12238  -0.78316  -0.16743
  25   39056.5    256.0   0.179174166   1.51028   1.04734  -0.58378   0.26939
  26   39459.2    253.4   0.039093001   0.32616  -0.18152   0.26998  -0.46938
  27   39670.5    252.1   0.090599259   0.75185   0.13464  -0.19987  -0.83293
  28   40054.3    249.7   0.035997917   0.29587  -0.43634  -0.21373   0.24453

FINAL SINGLE POINT ENERGY     -4584.764128647227

DIPOLE MOMENT
-------------
                                X             Y             Z
Electronic contribution:     23.43032      40.45841     -26.24307
Nuclear contribution   :    -24.20382     -40.00982      24.78357
                        -----------------------------------------
Total Dipole Moment    :     -0.77350       0.44860      -1.45950
                        -----------------------------------------
Magnitude (a.u.)       :      1.71163
Magnitude (Debye)      :      4.35061

Rotational constants in cm-1:     0.000856     0.000512     0.000459
Rotational constants in MHz :    25.654269    15.358730    13.762463

                             ****ORCA TERMINATED NORMALLY****
TOTAL RUN TIME: 0 days 0 hours 17 minutes 20 seconds 461 msec
