                         Program Version 4.2.0 -  RELEASE  -
|  1> # ORCA input file
|  2> # SCF done       -184.981023729084          0.000209706137
|  3> ! CAM-B3LYP def2-SVP def2/J RIJCOSX Grid4 TightSCF
|  4> %maxcore 5000
|  5> %tddft
|  6>     Mode sTDDFT
|  7>     Ethresh 5.0
|  8>     maxcore 5000
|  9> end
| 10>
| 11> %pal
| 12>   nprocs 6
| 13>   end
| 14> * xyz 0 1
| 15>    C        1.22238         1.97262        -1.05454
| 16>    O        0.77141         0.77156        -0.72954
| 17>    C        1.83466        -0.06761        -0.64594
| 18>    C        3.00201         0.62934        -0.93245
| 19>    C        2.58901         1.97087        -1.19594
| 20>    C        3.37148         3.19606        -1.50016
| 21>    F        2.58572         4.28036        -1.54985
| 22>    F        4.30926         3.46343        -0.56452
| 23>    F        4.03736         3.16465        -2.66893
| 24>    O        4.20670         0.03882        -0.91374
| 25>    C        5.26001         0.63147        -1.65063
| 26>    C        1.67986        -1.44471        -0.29750
| 27>    C        0.48683        -2.04310        -0.15039
| 28>    C        0.29205        -3.41968         0.24773
| 29>    C        1.10164        -4.10367         1.10683
| 30>    F        2.22578        -3.65349         1.66552
| 31>    S        0.53547        -5.67847         1.56126
| 32>    C       -0.84000        -5.41530         0.54741
| 33>    F       -1.75882        -6.37882         0.42930
| 34>    C       -0.85692        -4.21700        -0.11132
| 35>    C       -1.87747        -3.88139        -1.06956
| 36>    C       -1.69566        -3.02100        -2.09392
| 37>    C       -2.63763        -2.64754        -3.08985
| 38>    S       -1.99711        -1.93701        -4.53711
| 39>    C       -3.55524        -1.77270        -5.26898
| 40>    C       -4.55071        -2.23830        -4.40112
| 41>    C       -4.03583        -2.73302        -3.16083
| 42>    C       -4.92962        -3.18063        -2.16795
| 43>    C       -6.27680        -3.20373        -2.41969
| 44>    S       -7.49849        -3.73279        -1.27380
| 45>    C       -6.51997        -4.38604         0.12869
| 46>    C       -7.47008        -5.01055         1.13283
| 47>    C       -6.77486        -2.75747        -3.67514
| 48>    S       -8.53185        -2.78713        -3.95683
| 49>    C       -8.71913        -4.57284        -4.35656
| 50>    C      -10.18567        -4.94902        -4.32451
| 51>    C       -5.94050        -2.26667        -4.63379
| 52>    C       -3.72356        -1.21561        -6.56183
| 53>    C       -2.69257        -0.87539        -7.36532
| 54>    C       -2.79613        -0.29169        -8.67459
| 55>    C       -3.91012        -0.30587        -9.47007
| 56>    F       -5.10368        -0.81675        -9.16179
| 57>    S       -3.70274         0.35955       -11.05626
| 58>    C       -2.05382         0.66623       -10.65020
| 59>    F       -1.26289         1.25446       -11.54763
| 60>    C       -1.68800         0.31385        -9.38026
| 61>    C       -0.35250         0.56970        -8.90026
| 62>    C        0.02220         0.75098        -7.62056
| 63>    C        1.38444         1.00412        -7.25703
| 64>    O        2.31864         1.12877        -8.20842
| 65>    C        3.53005         1.36919        -7.63386
| 66>    C        3.36788         1.40180        -6.25527
| 67>    C        1.98420         1.15937        -6.01776
| 68>    C        1.39634         1.11634        -4.65850
| 69>    F        0.12298         0.69016        -4.63139
| 70>    F        2.07257         0.29809        -3.83141
| 71>    F        1.38840         2.32265        -4.05721
| 72>    O        4.20549         1.60120        -5.22328
| 73>    C        5.50755         2.08490        -5.47067
| 74>    C        4.66075         1.51871        -8.51516
| 75>    C        4.56223         1.47374        -9.84277
| 76>    H        0.51710         2.77129        -1.17489
| 77>    H        6.06015        -0.10679        -1.65339
| 78>    H        5.62159         1.54599        -1.17447
| 79>    H        4.94732         0.83869        -2.67678
| 80>    H        2.60806        -1.98263        -0.18280
| 81>    H       -0.41721        -1.47239        -0.31048
| 82>    H       -2.78976        -4.45135        -0.98105
| 83>    H       -0.71024        -2.59525        -2.23446
| 84>    H       -4.54301        -3.46586        -1.20652
| 85>    H       -5.97047        -3.55722         0.57620
| 86>    H       -5.82634        -5.12972        -0.26496
| 87>    H       -8.17476        -4.26919         1.50257
| 88>    H       -6.90807        -5.40995         1.97434
| 89>    H       -8.03201        -5.82005         0.67242
| 90>    H       -8.15215        -5.13288        -3.61440
| 91>    H       -8.28656        -4.72750        -5.34554
| 92>    H      -10.59652        -4.77057        -3.33382
| 93>    H      -10.30327        -6.00232        -4.57096
| 94>    H      -10.74595        -4.35554        -5.04305
| 95>    H       -6.35101        -1.90406        -5.56244
| 96>    H       -4.74359        -1.05141        -6.87413
| 97>    H       -1.68670        -1.06807        -7.02191
| 98>    H        0.39676         0.66927        -9.67490
| 99>    H       -0.68913         0.73936        -6.81242
|100>    H        5.89186         2.38951        -4.49870
|101>    H        5.48747         2.95005        -6.13711
|102>    H        6.14679         1.30112        -5.88759
|103>    H        5.62181         1.66283        -8.04941
|104>    H        3.61569         1.32951       -10.33278
|105>    H        5.42815         1.58188       -10.47031
|106> *
|107>
|108>                          ****END OF INPUT****

CARTESIAN COORDINATES (ANGSTROEM)
---------------------------------
  C      1.222380    1.972620   -1.054540
  O      0.771410    0.771560   -0.729540
  C      1.834660   -0.067610   -0.645940
  C      3.002010    0.629340   -0.932450
  C      2.589010    1.970870   -1.195940
  C      3.371480    3.196060   -1.500160
  F      2.585720    4.280360   -1.549850
  F      4.309260    3.463430   -0.564520
  F      4.037360    3.164650   -2.668930
  O      4.206700    0.038820   -0.913740
  C      5.260010    0.631470   -1.650630
  C      1.679860   -1.444710   -0.297500
  C      0.486830   -2.043100   -0.150390
  C      0.292050   -3.419680    0.247730
  C      1.101640   -4.103670    1.106830
  F      2.225780   -3.653490    1.665520
  S      0.535470   -5.678470    1.561260
  C     -0.840000   -5.415300    0.547410
  F     -1.758820   -6.378820    0.429300
  C     -0.856920   -4.217000   -0.111320
  C     -1.877470   -3.881390   -1.069560
  C     -1.695660   -3.021000   -2.093920
  C     -2.637630   -2.647540   -3.089850
  S     -1.997110   -1.937010   -4.537110
  C     -3.555240   -1.772700   -5.268980
  C     -4.550710   -2.238300   -4.401120
  C     -4.035830   -2.733020   -3.160830
  C     -4.929620   -3.180630   -2.167950
  C     -6.276800   -3.203730   -2.419690
  S     -7.498490   -3.732790   -1.273800
  C     -6.519970   -4.386040    0.128690
  C     -7.470080   -5.010550    1.132830
  C     -6.774860   -2.757470   -3.675140
  S     -8.531850   -2.787130   -3.956830
  C     -8.719130   -4.572840   -4.356560
  C    -10.185670   -4.949020   -4.324510
  C     -5.940500   -2.266670   -4.633790
  C     -3.723560   -1.215610   -6.561830
  C     -2.692570   -0.875390   -7.365320
  C     -2.796130   -0.291690   -8.674590
  C     -3.910120   -0.305870   -9.470070
  F     -5.103680   -0.816750   -9.161790
  S     -3.702740    0.359550  -11.056260
  C     -2.053820    0.666230  -10.650200
  F     -1.262890    1.254460  -11.547630
  C     -1.688000    0.313850   -9.380260
  C     -0.352500    0.569700   -8.900260
  C      0.022200    0.750980   -7.620560
  C      1.384440    1.004120   -7.257030
  O      2.318640    1.128770   -8.208420
  C      3.530050    1.369190   -7.633860
  C      3.367880    1.401800   -6.255270
  C      1.984200    1.159370   -6.017760
  C      1.396340    1.116340   -4.658500
  F      0.122980    0.690160   -4.631390
  F      2.072570    0.298090   -3.831410
  F      1.388400    2.322650   -4.057210
  O      4.205490    1.601200   -5.223280
  C      5.507550    2.084900   -5.470670
  C      4.660750    1.518710   -8.515160
  C      4.562230    1.473740   -9.842770
  H      0.517100    2.771290   -1.174890
  H      6.060150   -0.106790   -1.653390
  H      5.621590    1.545990   -1.174470
  H      4.947320    0.838690   -2.676780
  H      2.608060   -1.982630   -0.182800
  H     -0.417210   -1.472390   -0.310480
  H     -2.789760   -4.451350   -0.981050
  H     -0.710240   -2.595250   -2.234460
  H     -4.543010   -3.465860   -1.206520
  H     -5.970470   -3.557220    0.576200
  H     -5.826340   -5.129720   -0.264960
  H     -8.174760   -4.269190    1.502570
  H     -6.908070   -5.409950    1.974340
  H     -8.032010   -5.820050    0.672420
  H     -8.152150   -5.132880   -3.614400
  H     -8.286560   -4.727500   -5.345540
  H    -10.596520   -4.770570   -3.333820
  H    -10.303270   -6.002320   -4.570960
  H    -10.745950   -4.355540   -5.043050
  H     -6.351010   -1.904060   -5.562440
  H     -4.743590   -1.051410   -6.874130
  H     -1.686700   -1.068070   -7.021910
  H      0.396760    0.669270   -9.674900
  H     -0.689130    0.739360   -6.812420
  H      5.891860    2.389510   -4.498700
  H      5.487470    2.950050   -6.137110
  H      6.146790    1.301120   -5.887590
  H      5.621810    1.662830   -8.049410
  H      3.615690    1.329510  -10.332780
  H      5.428150    1.581880  -10.470310

 Total Charge           Charge          ....    0
 Multiplicity           Mult            ....    1
 Number of Electrons    NEL             ....  484
 Basis Dimension        Dim             .... 1024

ORBITAL ENERGIES
----------------

  NO   OCC          E(Eh)            E(eV)
   0   2.0000     -88.979197     -2421.2470
   1   2.0000     -88.967644     -2420.9327
   2   2.0000     -88.956234     -2420.6222
   3   2.0000     -88.916955     -2419.5534
   4   2.0000     -88.905144     -2419.2320
   5   2.0000     -24.807830      -675.0554
   6   2.0000     -24.807208      -675.0384
   7   2.0000     -24.800434      -674.8541
   8   2.0000     -24.796478      -674.7465
   9   2.0000     -24.794448      -674.6912
  10   2.0000     -24.793398      -674.6627
  11   2.0000     -24.792228      -674.6308
  12   2.0000     -24.791730      -674.6173
  13   2.0000     -24.791007      -674.5976
  14   2.0000     -24.789493      -674.5564
  15   2.0000     -19.296615      -525.0876
  16   2.0000     -19.293160      -524.9936
  17   2.0000     -19.263225      -524.1790
  18   2.0000     -19.245869      -523.7067
  19   2.0000     -10.518059      -286.2109
  20   2.0000     -10.514831      -286.1231
  21   2.0000     -10.384484      -282.5762
  22   2.0000     -10.380732      -282.4741
  23   2.0000     -10.370514      -282.1960
  24   2.0000     -10.369695      -282.1738
  25   2.0000     -10.352539      -281.7069
  26   2.0000     -10.347166      -281.5607
  27   2.0000     -10.334508      -281.2163
  28   2.0000     -10.333841      -281.1981
  29   2.0000     -10.332747      -281.1683
  30   2.0000     -10.332623      -281.1650
  31   2.0000     -10.316123      -280.7160
  32   2.0000     -10.312625      -280.6208
  33   2.0000     -10.297349      -280.2051
  34   2.0000     -10.297211      -280.2014
  35   2.0000     -10.295903      -280.1658
  36   2.0000     -10.295211      -280.1469
  37   2.0000     -10.295057      -280.1427
  38   2.0000     -10.293325      -280.0956
  39   2.0000     -10.291576      -280.0480
  40   2.0000     -10.290133      -280.0088
  41   2.0000     -10.288782      -279.9720
  42   2.0000     -10.287789      -279.9450
  43   2.0000     -10.284824      -279.8643
  44   2.0000     -10.283271      -279.8220
  45   2.0000     -10.282760      -279.8081
  46   2.0000     -10.282080      -279.7896
  47   2.0000     -10.281966      -279.7865
  48   2.0000     -10.279139      -279.7096
  49   2.0000     -10.278852      -279.7018
  50   2.0000     -10.277546      -279.6663
  51   2.0000     -10.277216      -279.6573
  52   2.0000     -10.276388      -279.6347
  53   2.0000     -10.275962      -279.6231
  54   2.0000     -10.275209      -279.6027
  55   2.0000     -10.271522      -279.5023
  56   2.0000     -10.267191      -279.3845
  57   2.0000     -10.267087      -279.3816
  58   2.0000     -10.265459      -279.3374
  59   2.0000     -10.262592      -279.2593
  60   2.0000     -10.254261      -279.0326
  61   2.0000      -8.076387      -219.7697
  62   2.0000      -8.064749      -219.4530
  63   2.0000      -8.051405      -219.0899
  64   2.0000      -8.011825      -218.0128
  65   2.0000      -8.000204      -217.6966
  66   2.0000      -6.045566      -164.5082
  67   2.0000      -6.041960      -164.4101
  68   2.0000      -6.037774      -164.2962
  69   2.0000      -6.033951      -164.1922
  70   2.0000      -6.030384      -164.0951
  71   2.0000      -6.026103      -163.9786
  72   2.0000      -6.020262      -163.8197
  73   2.0000      -6.016361      -163.7135
  74   2.0000      -6.014245      -163.6559
  75   2.0000      -5.982128      -162.7820
  76   2.0000      -5.977974      -162.6689
  77   2.0000      -5.971812      -162.5013
  78   2.0000      -5.970613      -162.4686
  79   2.0000      -5.966933      -162.3685
  80   2.0000      -5.959631      -162.1698
  81   2.0000      -1.384322       -37.6693
  82   2.0000      -1.381817       -37.6012
  83   2.0000      -1.323148       -36.0047
  84   2.0000      -1.321591       -35.9623
  85   2.0000      -1.310413       -35.6581
  86   2.0000      -1.309263       -35.6269
  87   2.0000      -1.287967       -35.0474
  88   2.0000      -1.285147       -34.9706
  89   2.0000      -1.281728       -34.8776
  90   2.0000      -1.280087       -34.8330
  91   2.0000      -1.219537       -33.1853
  92   2.0000      -1.214691       -33.0534
  93   2.0000      -1.165828       -31.7238
  94   2.0000      -1.149460       -31.2784
  95   2.0000      -0.999687       -27.2029
  96   2.0000      -0.991919       -26.9915
  97   2.0000      -0.987297       -26.8657
  98   2.0000      -0.948468       -25.8091
  99   2.0000      -0.928478       -25.2652
 100   2.0000      -0.918125       -24.9835
 101   2.0000      -0.911050       -24.7909
 102   2.0000      -0.909711       -24.7545
 103   2.0000      -0.901965       -24.5437
 104   2.0000      -0.895928       -24.3794
 105   2.0000      -0.890586       -24.2341
 106   2.0000      -0.886467       -24.1220
 107   2.0000      -0.878376       -23.9018
 108   2.0000      -0.863436       -23.4953
 109   2.0000      -0.851678       -23.1753
 110   2.0000      -0.847214       -23.0539
 111   2.0000      -0.836858       -22.7721
 112   2.0000      -0.830411       -22.5966
 113   2.0000      -0.820628       -22.3304
 114   2.0000      -0.814752       -22.1705
 115   2.0000      -0.806332       -21.9414
 116   2.0000      -0.800517       -21.7832
 117   2.0000      -0.787118       -21.4186
 118   2.0000      -0.782441       -21.2913
 119   2.0000      -0.779268       -21.2050
 120   2.0000      -0.778634       -21.1877
 121   2.0000      -0.766627       -20.8610
 122   2.0000      -0.755589       -20.5606
 123   2.0000      -0.728742       -19.8301
 124   2.0000      -0.723999       -19.7010
 125   2.0000      -0.716322       -19.4921
 126   2.0000      -0.714302       -19.4371
 127   2.0000      -0.708265       -19.2729
 128   2.0000      -0.705369       -19.1941
 129   2.0000      -0.696592       -18.9552
 130   2.0000      -0.687959       -18.7203
 131   2.0000      -0.682589       -18.5742
 132   2.0000      -0.682248       -18.5649
 133   2.0000      -0.680285       -18.5115
 134   2.0000      -0.675168       -18.3723
 135   2.0000      -0.667995       -18.1771
 136   2.0000      -0.667129       -18.1535
 137   2.0000      -0.664383       -18.0788
 138   2.0000      -0.662915       -18.0388
 139   2.0000      -0.658388       -17.9156
 140   2.0000      -0.651993       -17.7416
 141   2.0000      -0.647973       -17.6322
 142   2.0000      -0.643645       -17.5145
 143   2.0000      -0.637610       -17.3502
 144   2.0000      -0.628789       -17.1102
 145   2.0000      -0.620646       -16.8886
 146   2.0000      -0.616354       -16.7718
 147   2.0000      -0.607329       -16.5263
 148   2.0000      -0.602035       -16.3822
 149   2.0000      -0.598657       -16.2903
 150   2.0000      -0.595846       -16.2138
 151   2.0000      -0.591926       -16.1071
 152   2.0000      -0.587924       -15.9982
 153   2.0000      -0.582221       -15.8430
 154   2.0000      -0.579556       -15.7705
 155   2.0000      -0.578466       -15.7409
 156   2.0000      -0.572077       -15.5670
 157   2.0000      -0.570211       -15.5162
 158   2.0000      -0.568564       -15.4714
 159   2.0000      -0.566926       -15.4268
 160   2.0000      -0.564422       -15.3587
 161   2.0000      -0.561991       -15.2926
 162   2.0000      -0.554885       -15.0992
 163   2.0000      -0.553472       -15.0607
 164   2.0000      -0.551458       -15.0059
 165   2.0000      -0.550927       -14.9915
 166   2.0000      -0.547990       -14.9116
 167   2.0000      -0.545011       -14.8305
 168   2.0000      -0.543442       -14.7878
 169   2.0000      -0.542902       -14.7731
 170   2.0000      -0.539774       -14.6880
 171   2.0000      -0.539592       -14.6831
 172   2.0000      -0.538956       -14.6657
 173   2.0000      -0.535357       -14.5678
 174   2.0000      -0.532517       -14.4905
 175   2.0000      -0.530685       -14.4407
 176   2.0000      -0.526261       -14.3203
 177   2.0000      -0.525336       -14.2951
 178   2.0000      -0.524745       -14.2790
 179   2.0000      -0.522662       -14.2224
 180   2.0000      -0.519214       -14.1285
 181   2.0000      -0.513999       -13.9866
 182   2.0000      -0.512427       -13.9439
 183   2.0000      -0.506222       -13.7750
 184   2.0000      -0.504839       -13.7374
 185   2.0000      -0.500293       -13.6137
 186   2.0000      -0.498483       -13.5644
 187   2.0000      -0.497634       -13.5413
 188   2.0000      -0.496578       -13.5126
 189   2.0000      -0.496265       -13.5041
 190   2.0000      -0.493936       -13.4407
 191   2.0000      -0.486264       -13.2319
 192   2.0000      -0.479341       -13.0435
 193   2.0000      -0.477787       -13.0012
 194   2.0000      -0.476305       -12.9609
 195   2.0000      -0.473736       -12.8910
 196   2.0000      -0.469620       -12.7790
 197   2.0000      -0.465749       -12.6737
 198   2.0000      -0.464718       -12.6456
 199   2.0000      -0.463867       -12.6225
 200   2.0000      -0.459943       -12.5157
 201   2.0000      -0.459223       -12.4961
 202   2.0000      -0.454695       -12.3729
 203   2.0000      -0.452795       -12.3212
 204   2.0000      -0.450053       -12.2466
 205   2.0000      -0.446090       -12.1387
 206   2.0000      -0.445254       -12.1160
 207   2.0000      -0.444628       -12.0989
 208   2.0000      -0.442191       -12.0326
 209   2.0000      -0.440727       -11.9928
 210   2.0000      -0.438301       -11.9268
 211   2.0000      -0.433187       -11.7876
 212   2.0000      -0.431535       -11.7427
 213   2.0000      -0.428288       -11.6543
 214   2.0000      -0.426332       -11.6011
 215   2.0000      -0.423386       -11.5209
 216   2.0000      -0.420697       -11.4478
 217   2.0000      -0.416420       -11.3314
 218   2.0000      -0.415554       -11.3078
 219   2.0000      -0.412330       -11.2201
 220   2.0000      -0.410923       -11.1818
 221   2.0000      -0.408471       -11.1151
 222   2.0000      -0.398808       -10.8521
 223   2.0000      -0.397451       -10.8152
 224   2.0000      -0.384704       -10.4683
 225   2.0000      -0.381320       -10.3762
 226   2.0000      -0.377917       -10.2836
 227   2.0000      -0.371570       -10.1109
 228   2.0000      -0.371270       -10.1028
 229   2.0000      -0.352304        -9.5867
 230   2.0000      -0.344970        -9.3871
 231   2.0000      -0.337204        -9.1758
 232   2.0000      -0.333435        -9.0732
 233   2.0000      -0.315628        -8.5887
 234   2.0000      -0.310584        -8.4514
 235   2.0000      -0.299772        -8.1572
 236   2.0000      -0.283840        -7.7237
 237   2.0000      -0.281068        -7.6482
 238   2.0000      -0.269382        -7.3303
 239   2.0000      -0.255628        -6.9560
 240   2.0000      -0.244615        -6.6563
 241   2.0000      -0.220593        -6.0026
 242   0.0000      -0.057238        -1.5575
 243   0.0000      -0.036539        -0.9943
 244   0.0000      -0.006713        -0.1827
 245   0.0000       0.005339         0.1453
 246   0.0000       0.013813         0.3759

MULLIKEN ATOMIC CHARGES
-----------------------
   0 C :    0.113630
   1 O :   -0.174963
   2 C :    0.063822
   3 C :    0.156544
   4 C :   -0.176850
   5 C :    0.525689
   6 F :   -0.158003
   7 F :   -0.171143
   8 F :   -0.165262
   9 O :   -0.302302
  10 C :    0.168128
  11 C :   -0.009832
  12 C :   -0.038217
  13 C :    0.077326
  14 C :    0.044127
  15 F :   -0.163060
  16 S :    0.091816
  17 C :    0.052642
  18 F :   -0.169055
  19 C :    0.067218
  20 C :   -0.027111
  21 C :    0.029468
  22 C :   -0.139651
  23 S :    0.146249
  24 C :   -0.105923
  25 C :    0.111428
  26 C :    0.153342
  27 C :   -0.108628
  28 C :    0.034491
  29 S :   -0.008210
  30 C :   -0.141699
  31 C :    0.034604
  32 C :   -0.116235
  33 S :   -0.040571
  34 C :   -0.090544
  35 C :    0.016937
  36 C :   -0.018216
  37 C :    0.013198
  38 C :   -0.055228
  39 C :    0.113973
  40 C :    0.033094
  41 F :   -0.161886
  42 S :    0.109466
  43 C :    0.065770
  44 F :   -0.159725
  45 C :    0.059156
  46 C :    0.001567
  47 C :   -0.045859
  48 C :    0.123492
  49 O :   -0.204595
  50 C :    0.047452
  51 C :    0.163061
  52 C :   -0.138867
  53 C :    0.528532
  54 F :   -0.156367
  55 F :   -0.159723
  56 F :   -0.167026
  57 O :   -0.292694
  58 C :    0.172775
  59 C :   -0.039904
  60 C :   -0.004763
  61 H :    0.021167
  62 H :    0.031868
  63 H :    0.032454
  64 H :    0.031237
  65 H :    0.007465
  66 H :    0.017371
  67 H :   -0.009271
  68 H :    0.004020
  69 H :   -0.040512
  70 H :    0.062271
  71 H :    0.055964
  72 H :    0.028312
  73 H :    0.027819
  74 H :    0.025050
  75 H :    0.046738
  76 H :    0.040512
  77 H :    0.028966
  78 H :    0.023994
  79 H :    0.022999
  80 H :   -0.031223
  81 H :   -0.003701
  82 H :    0.002003
  83 H :    0.014143
  84 H :    0.016050
  85 H :    0.039529
  86 H :    0.037958
  87 H :    0.035225
  88 H :   -0.020753
  89 H :    0.026586
  90 H :    0.018868
Sum of atomic charges:   -0.0000000

LOEWDIN ATOMIC CHARGES
----------------------
   0 C :    0.067297
   1 O :    0.040906
   2 C :   -0.016775
   3 C :    0.023734
   4 C :   -0.166956
   5 C :    0.171191
   6 F :   -0.054942
   7 F :   -0.071156
   8 F :   -0.061477
   9 O :   -0.096353
  10 C :    0.073457
  11 C :   -0.021817
  12 C :   -0.037578
  13 C :   -0.086484
  14 C :   -0.085984
  15 F :   -0.052196
  16 S :    0.409756
  17 C :   -0.089296
  18 F :   -0.059725
  19 C :   -0.088465
  20 C :   -0.030866
  21 C :   -0.040584
  22 C :   -0.178602
  23 S :    0.482336
  24 C :   -0.179192
  25 C :   -0.048373
  26 C :   -0.037598
  27 C :   -0.060772
  28 C :   -0.160855
  29 S :    0.305278
  30 C :   -0.137458
  31 C :   -0.067718
  32 C :   -0.178681
  33 S :    0.247411
  34 C :   -0.123234
  35 C :   -0.070260
  36 C :   -0.015465
  37 C :   -0.026788
  38 C :   -0.042743
  39 C :   -0.082630
  40 C :   -0.084881
  41 F :   -0.049830
  42 S :    0.424311
  43 C :   -0.079451
  44 F :   -0.051143
  45 C :   -0.092881
  46 C :    0.005719
  47 C :   -0.049057
  48 C :    0.061452
  49 O :    0.023539
  50 C :   -0.017641
  51 C :    0.025899
  52 C :   -0.148156
  53 C :    0.174445
  54 F :   -0.056729
  55 F :   -0.055215
  56 F :   -0.062208
  57 O :   -0.089558
  58 C :    0.082060
  59 C :   -0.047387
  60 C :   -0.044315
  61 H :    0.029363
  62 H :    0.027327
  63 H :    0.012608
  64 H :    0.016008
  65 H :    0.038708
  66 H :    0.032579
  67 H :    0.027454
  68 H :    0.032993
  69 H :    0.023386
  70 H :    0.021580
  71 H :    0.021360
  72 H :    0.027784
  73 H :    0.032186
  74 H :    0.026483
  75 H :    0.012029
  76 H :    0.016692
  77 H :    0.027372
  78 H :    0.030059
  79 H :    0.024573
  80 H :    0.029191
  81 H :    0.030713
  82 H :    0.023299
  83 H :    0.036395
  84 H :    0.034662
  85 H :    0.027232
  86 H :    0.020570
  87 H :    0.017008
  88 H :    0.031459
  89 H :    0.024338
  90 H :    0.025274

  Mayer bond orders larger than 0.100000
B(  0-C ,  1-O ) :   1.1991 B(  0-C ,  2-C ) :   0.1010 B(  0-C ,  4-C ) :   1.4967
B(  0-C , 61-H ) :   1.0135 B(  1-O ,  2-C ) :   1.1189 B(  2-C ,  3-C ) :   1.4484
B(  2-C , 11-C ) :   1.1383 B(  3-C ,  4-C ) :   1.2133 B(  3-C ,  9-O ) :   1.2236
B(  4-C ,  5-C ) :   0.9533 B(  5-C ,  6-F ) :   1.1709 B(  5-C ,  7-F ) :   1.1502
B(  5-C ,  8-F ) :   1.1426 B(  9-O , 10-C ) :   0.9340 B( 10-C , 62-H ) :   0.9763
B( 10-C , 63-H ) :   0.9618 B( 10-C , 64-H ) :   0.9666 B( 11-C , 12-C ) :   1.7077
B( 11-C , 65-H ) :   0.9695 B( 12-C , 13-C ) :   1.0375 B( 12-C , 66-H ) :   0.9679
B( 13-C , 14-C ) :   1.4938 B( 13-C , 19-C ) :   1.1473 B( 14-C , 15-F ) :   1.1162
B( 14-C , 16-S ) :   1.1041 B( 16-S , 17-C ) :   1.1102 B( 17-C , 18-F ) :   1.1165
B( 17-C , 19-C ) :   1.4583 B( 19-C , 20-C ) :   1.1018 B( 20-C , 21-C ) :   1.6824
B( 20-C , 67-H ) :   0.9656 B( 21-C , 22-C ) :   1.1431 B( 21-C , 68-H ) :   0.9449
B( 22-C , 23-S ) :   1.1517 B( 22-C , 24-C ) :   0.1076 B( 22-C , 26-C ) :   1.3553
B( 23-S , 24-C ) :   1.1464 B( 24-C , 25-C ) :   1.3269 B( 24-C , 37-C ) :   1.1657
B( 25-C , 26-C ) :   1.2031 B( 25-C , 36-C ) :   1.1815 B( 26-C , 27-C ) :   1.1811
B( 27-C , 28-C ) :   1.5180 B( 27-C , 69-H ) :   0.9874 B( 28-C , 29-S ) :   1.0235
B( 28-C , 32-C ) :   1.2258 B( 29-S , 30-C ) :   0.9907 B( 30-C , 31-C ) :   1.0824
B( 30-C , 70-H ) :   0.9444 B( 30-C , 71-H ) :   0.9469 B( 31-C , 72-H ) :   0.9696
B( 31-C , 73-H ) :   0.9682 B( 31-C , 74-H ) :   0.9695 B( 32-C , 33-S ) :   1.0244
B( 32-C , 36-C ) :   1.5951 B( 33-S , 34-C ) :   0.9740 B( 34-C , 35-C ) :   1.0837
B( 34-C , 75-H ) :   0.9492 B( 34-C , 76-H ) :   0.9544 B( 35-C , 77-H ) :   0.9722
B( 35-C , 78-H ) :   0.9679 B( 35-C , 79-H ) :   0.9703 B( 36-C , 80-H ) :   0.9900
B( 37-C , 38-C ) :   1.6831 B( 37-C , 81-H ) :   0.9690 B( 38-C , 39-C ) :   1.0940
B( 38-C , 82-H ) :   0.9602 B( 39-C , 40-C ) :   1.4589 B( 39-C , 45-C ) :   1.1473
B( 40-C , 41-F ) :   1.1028 B( 40-C , 42-S ) :   1.1087 B( 42-S , 43-C ) :   1.1214
B( 43-C , 44-F ) :   1.1324 B( 43-C , 45-C ) :   1.4671 B( 45-C , 46-C ) :   1.0608
B( 46-C , 47-C ) :   1.6930 B( 46-C , 83-H ) :   0.9762 B( 47-C , 48-C ) :   1.1590
B( 47-C , 84-H ) :   0.9523 B( 48-C , 49-O ) :   1.1917 B( 48-C , 52-C ) :   1.4746
B( 49-O , 50-C ) :   1.0828 B( 50-C , 51-C ) :   1.3898 B( 50-C , 59-C ) :   1.1115
B( 51-C , 52-C ) :   1.2416 B( 51-C , 57-O ) :   1.2159 B( 52-C , 53-C ) :   0.9358
B( 53-C , 54-F ) :   1.1444 B( 53-C , 55-F ) :   1.1545 B( 53-C , 56-F ) :   1.1599
B( 57-O , 58-C ) :   0.9366 B( 58-C , 85-H ) :   0.9717 B( 58-C , 86-H ) :   0.9693
B( 58-C , 87-H ) :   0.9698 B( 59-C , 60-C ) :   1.9257 B( 59-C , 88-H ) :   0.9569
B( 60-C , 89-H ) :   0.9595 B( 60-C , 90-H ) :   0.9429

-----------------------------------------------------------------------------
         ABSORPTION SPECTRUM VIA TRANSITION ELECTRIC DIPOLE MOMENTS
-----------------------------------------------------------------------------
State   Energy  Wavelength   fosc         T2         TX        TY        TZ
        (cm-1)    (nm)                  (au**2)     (au)      (au)      (au)
-----------------------------------------------------------------------------
   0   19951.4    501.2   0.699762768  11.54659  -0.93854   1.30061  -2.99569
   1   25575.5    391.0   0.041163813   0.52987  -0.70306  -0.10149  -0.15899
   2   25977.0    385.0   0.018414314   0.23337   0.14903   0.38775  -0.24660
   3   28670.3    348.8   0.294107072   3.37714   1.30745   0.62577  -1.12966
   4   28872.1    346.4   0.061658398   0.70306  -0.78102  -0.10797  -0.28531
   5   30874.5    323.9   0.022220627   0.23694  -0.22174   0.41960  -0.10817
   6   31040.0    322.2   0.485475944   5.14898  -2.14935  -0.68002  -0.25856
   7   31138.6    321.1   0.266080358   2.81313   1.58156  -0.13640   0.54148
   8   31615.9    316.3   0.244158861   2.54239  -1.56304  -0.29825   0.10175
   9   32608.9    306.7   0.335061666   3.38270   0.39581   0.60540  -1.69101
  10   32963.2    303.4   0.037912098   0.37864  -0.34452  -0.29381   0.41668
  11   33550.8    298.1   0.216166503   2.12110   1.27616   0.49181  -0.50065
  12   35277.1    283.5   0.778037429   7.26078  -0.52030  -2.44216   1.01288
  13   36906.3    271.0   0.131564968   1.17359   0.81274  -0.39265   0.59905
  14   37783.4    264.7   0.018035741   0.15715   0.29348   0.04517  -0.26264
  15   39177.0    255.3   0.058481382   0.49143   0.62918   0.25941   0.16813
  16   39568.5    252.7   0.033467630   0.27845  -0.24295  -0.44080  -0.15849
  17   39982.4    250.1   0.076821590   0.63254   0.40332  -0.30227   0.61523

FINAL SINGLE POINT ENERGY     -4904.656878231339

DIPOLE MOMENT
-------------
                                X             Y             Z
Electronic contribution:     38.89034      31.60840      -4.16146
Nuclear contribution   :    -37.77338     -31.93060       3.07312
                        -----------------------------------------
Total Dipole Moment    :      1.11695      -0.32220      -1.08834
                        -----------------------------------------
Magnitude (a.u.)       :      1.59245
Magnitude (Debye)      :      4.04768

Rotational constants in cm-1:     0.001059     0.000802     0.000507
Rotational constants in MHz :    31.752278    24.053351    15.192429

                             ****ORCA TERMINATED NORMALLY****
TOTAL RUN TIME: 0 days 0 hours 7 minutes 58 seconds 26 msec
