                         Program Version 4.2.0 -  RELEASE  -
|  1> # ORCA input file
|  2> # SCF done       -174.802366248459          0.000535028522
|  3> ! CAM-B3LYP def2-SVP def2/J RIJCOSX Grid4 TightSCF
|  4> %maxcore 5000
|  5> %tddft
|  6>     Mode sTDDFT
|  7>     Ethresh 5.0
|  8>     maxcore 5000
|  9> end
| 10>
| 11> %pal
| 12>   nprocs 6
| 13>   end
| 14> * xyz 0 1
| 15>    C        6.30653        -0.87284        -1.74797
| 16>    C        6.06806        -0.20417        -0.39432
| 17>    C        6.76452        -0.92739         0.71683
| 18>    C        6.67684        -2.31902         0.89223
| 19>    C        7.46783        -2.81760         1.89984
| 20>    C        7.57886        -4.17996         2.30284
| 21>    C        8.40986        -4.60872         3.27265
| 22>    C        8.57483        -5.96818         3.71410
| 23>    C        7.80422        -7.03101         3.33202
| 24>    F        6.76368        -7.01125         2.49927
| 25>    S        8.24356        -8.55471         4.02912
| 26>    C        9.51525        -7.75247         4.86603
| 27>    F       10.30901        -8.48837         5.63831
| 28>    C        9.60621        -6.40033         4.64014
| 29>    C       10.57153        -5.52212         5.23050
| 30>    C       11.54071        -5.87320         6.10825
| 31>    C       12.44258        -4.92427         6.65060
| 32>    C       13.33259        -5.13420         7.65891
| 33>    C       14.47595        -4.20475         7.85487
| 34>    O       14.60861        -3.10185         7.38111
| 35>    C       15.43462        -4.95329         8.70019
| 36>    C       16.71296        -4.59135         9.07817
| 37>    C       17.43481        -5.48804         9.84916
| 38>    F       18.67808        -5.17970        10.23442
| 39>    C       16.88073        -6.71331        10.22449
| 40>    F       17.60741        -7.56439        10.95525
| 41>    C       15.59367        -7.07376         9.85475
| 42>    C       14.86484        -6.18049         9.08578
| 43>    C       13.49635        -6.24757         8.57182
| 44>    C       12.50977        -7.06797         9.04693
| 45>    C       12.73478        -8.10412         9.97915
| 46>    N       12.87065        -8.96718        10.72245
| 47>    C       11.13604        -6.90640         8.75823
| 48>    N       10.00517        -6.78602         8.60812
| 49>    S        8.36765        -1.53535         2.65293
| 50>    C        7.62623        -0.34347         1.62401
| 51>    C        8.02347         1.02558         1.81385
| 52>    C        7.26751         2.13226         1.73841
| 53>    C        5.82588         2.21311         1.59671
| 54>    C        4.91042         1.36777         2.14575
| 55>    F        5.15720         0.28537         2.87452
| 56>    S        3.25108         1.80429         1.86815
| 57>    C        3.80519         3.19441         1.02142
| 58>    F        2.91463         3.99979         0.44584
| 59>    C        5.16849         3.31713         0.93756
| 60>    C        5.88760         4.31206         0.19902
| 61>    C        5.55160         5.57740        -0.14399
| 62>    C        6.32869         6.24213        -1.23553
| 63>    O        7.37364         5.86520        -1.70555
| 64>    C        5.51483         7.40944        -1.63094
| 65>    C        5.72300         8.28970        -2.67586
| 66>    C        4.79153         9.29762        -2.86276
| 67>    F        4.95171        10.17057        -3.86181
| 68>    C        3.68245         9.40967        -2.02040
| 69>    F        2.79443        10.38317        -2.23553
| 70>    C        3.47784         8.53317        -0.96565
| 71>    C        4.40847         7.52479        -0.76987
| 72>    C        4.49087         6.48532         0.25502
| 73>    C        3.84935         6.51466         1.46092
| 74>    C        4.13774         5.62443         2.51520
| 75>    N        4.36337         4.92220         3.39373
| 76>    C        2.88407         7.48106         1.82014
| 77>    N        2.09016         8.23604         2.15790
| 78>    H        5.87788        -1.87055        -1.77689
| 79>    H        7.37269        -0.94952        -1.94840
| 80>    H        5.84861        -0.28198        -2.53760
| 81>    H        4.99261        -0.17658        -0.19074
| 82>    H        6.42800         0.82455        -0.44001
| 83>    H        6.04296        -2.95195         0.29745
| 84>    H        6.94754        -4.86638         1.75860
| 85>    H        9.02063        -3.86923         3.77066
| 86>    H       10.48479        -4.47723         4.96768
| 87>    H       11.66444        -6.90165         6.40588
| 88>    H       12.49296        -3.94959         6.17700
| 89>    H       17.14031        -3.64543         8.78584
| 90>    H       15.20937        -8.03186        10.16488
| 91>    H        9.06925         1.15531         2.06493
| 92>    H        7.75516         3.09250         1.83541
| 93>    H        6.83249         3.97073        -0.21494
| 94>    H        6.57827         8.20007        -3.32654
| 95>    H        2.60481         8.65518        -0.34544
| 96> *
| 97>
| 98>                          ****END OF INPUT****

CARTESIAN COORDINATES (ANGSTROEM)
---------------------------------
  C      6.306530   -0.872840   -1.747970
  C      6.068060   -0.204170   -0.394320
  C      6.764520   -0.927390    0.716830
  C      6.676840   -2.319020    0.892230
  C      7.467830   -2.817600    1.899840
  C      7.578860   -4.179960    2.302840
  C      8.409860   -4.608720    3.272650
  C      8.574830   -5.968180    3.714100
  C      7.804220   -7.031010    3.332020
  F      6.763680   -7.011250    2.499270
  S      8.243560   -8.554710    4.029120
  C      9.515250   -7.752470    4.866030
  F     10.309010   -8.488370    5.638310
  C      9.606210   -6.400330    4.640140
  C     10.571530   -5.522120    5.230500
  C     11.540710   -5.873200    6.108250
  C     12.442580   -4.924270    6.650600
  C     13.332590   -5.134200    7.658910
  C     14.475950   -4.204750    7.854870
  O     14.608610   -3.101850    7.381110
  C     15.434620   -4.953290    8.700190
  C     16.712960   -4.591350    9.078170
  C     17.434810   -5.488040    9.849160
  F     18.678080   -5.179700   10.234420
  C     16.880730   -6.713310   10.224490
  F     17.607410   -7.564390   10.955250
  C     15.593670   -7.073760    9.854750
  C     14.864840   -6.180490    9.085780
  C     13.496350   -6.247570    8.571820
  C     12.509770   -7.067970    9.046930
  C     12.734780   -8.104120    9.979150
  N     12.870650   -8.967180   10.722450
  C     11.136040   -6.906400    8.758230
  N     10.005170   -6.786020    8.608120
  S      8.367650   -1.535350    2.652930
  C      7.626230   -0.343470    1.624010
  C      8.023470    1.025580    1.813850
  C      7.267510    2.132260    1.738410
  C      5.825880    2.213110    1.596710
  C      4.910420    1.367770    2.145750
  F      5.157200    0.285370    2.874520
  S      3.251080    1.804290    1.868150
  C      3.805190    3.194410    1.021420
  F      2.914630    3.999790    0.445840
  C      5.168490    3.317130    0.937560
  C      5.887600    4.312060    0.199020
  C      5.551600    5.577400   -0.143990
  C      6.328690    6.242130   -1.235530
  O      7.373640    5.865200   -1.705550
  C      5.514830    7.409440   -1.630940
  C      5.723000    8.289700   -2.675860
  C      4.791530    9.297620   -2.862760
  F      4.951710   10.170570   -3.861810
  C      3.682450    9.409670   -2.020400
  F      2.794430   10.383170   -2.235530
  C      3.477840    8.533170   -0.965650
  C      4.408470    7.524790   -0.769870
  C      4.490870    6.485320    0.255020
  C      3.849350    6.514660    1.460920
  C      4.137740    5.624430    2.515200
  N      4.363370    4.922200    3.393730
  C      2.884070    7.481060    1.820140
  N      2.090160    8.236040    2.157900
  H      5.877880   -1.870550   -1.776890
  H      7.372690   -0.949520   -1.948400
  H      5.848610   -0.281980   -2.537600
  H      4.992610   -0.176580   -0.190740
  H      6.428000    0.824550   -0.440010
  H      6.042960   -2.951950    0.297450
  H      6.947540   -4.866380    1.758600
  H      9.020630   -3.869230    3.770660
  H     10.484790   -4.477230    4.967680
  H     11.664440   -6.901650    6.405880
  H     12.492960   -3.949590    6.177000
  H     17.140310   -3.645430    8.785840
  H     15.209370   -8.031860   10.164880
  H      9.069250    1.155310    2.064930
  H      7.755160    3.092500    1.835410
  H      6.832490    3.970730   -0.214940
  H      6.578270    8.200070   -3.326540
  H      2.604810    8.655180   -0.345440

 Total Charge           Charge          ....    0
 Multiplicity           Mult            ....    1
 Number of Electrons    NEL             ....  458
 Basis Dimension        Dim             ....  984

ORBITAL ENERGIES
----------------

  NO   OCC          E(Eh)            E(eV)
   0   2.0000     -88.994838     -2421.6727
   1   2.0000     -88.991965     -2421.5945
   2   2.0000     -88.953985     -2420.5610
   3   2.0000     -24.834387      -675.7780
   4   2.0000     -24.824875      -675.5192
   5   2.0000     -24.818167      -675.3367
   6   2.0000     -24.815396      -675.2613
   7   2.0000     -24.809104      -675.0900
   8   2.0000     -24.808940      -675.0856
   9   2.0000     -24.803999      -674.9511
  10   2.0000     -24.803478      -674.9369
  11   2.0000     -19.231449      -523.3143
  12   2.0000     -19.222293      -523.0652
  13   2.0000     -14.427544      -392.5934
  14   2.0000     -14.427214      -392.5844
  15   2.0000     -14.421602      -392.4317
  16   2.0000     -14.418546      -392.3486
  17   2.0000     -10.409862      -283.2668
  18   2.0000     -10.402547      -283.0677
  19   2.0000     -10.395802      -282.8842
  20   2.0000     -10.395420      -282.8738
  21   2.0000     -10.394615      -282.8519
  22   2.0000     -10.392131      -282.7843
  23   2.0000     -10.389874      -282.7228
  24   2.0000     -10.389097      -282.7017
  25   2.0000     -10.381936      -282.5068
  26   2.0000     -10.373779      -282.2849
  27   2.0000     -10.358053      -281.8569
  28   2.0000     -10.354311      -281.7551
  29   2.0000     -10.352074      -281.6943
  30   2.0000     -10.349066      -281.6124
  31   2.0000     -10.330927      -281.1188
  32   2.0000     -10.328877      -281.0630
  33   2.0000     -10.327825      -281.0344
  34   2.0000     -10.327197      -281.0173
  35   2.0000     -10.323560      -280.9184
  36   2.0000     -10.321073      -280.8507
  37   2.0000     -10.320622      -280.8384
  38   2.0000     -10.319424      -280.8058
  39   2.0000     -10.318254      -280.7740
  40   2.0000     -10.317388      -280.7504
  41   2.0000     -10.315595      -280.7016
  42   2.0000     -10.314355      -280.6679
  43   2.0000     -10.312613      -280.6205
  44   2.0000     -10.312406      -280.6148
  45   2.0000     -10.312222      -280.6098
  46   2.0000     -10.311924      -280.6017
  47   2.0000     -10.309492      -280.5355
  48   2.0000     -10.307338      -280.4769
  49   2.0000     -10.306505      -280.4543
  50   2.0000     -10.306325      -280.4494
  51   2.0000     -10.303371      -280.3690
  52   2.0000     -10.301683      -280.3230
  53   2.0000     -10.300637      -280.2946
  54   2.0000     -10.295350      -280.1507
  55   2.0000     -10.294734      -280.1340
  56   2.0000     -10.293623      -280.1037
  57   2.0000     -10.291636      -280.0497
  58   2.0000     -10.290951      -280.0310
  59   2.0000     -10.281374      -279.7704
  60   2.0000     -10.275234      -279.6033
  61   2.0000     -10.274785      -279.5911
  62   2.0000     -10.262249      -279.2500
  63   2.0000      -8.091810      -220.1893
  64   2.0000      -8.089277      -220.1204
  65   2.0000      -8.049794      -219.0460
  66   2.0000      -6.061024      -164.9288
  67   2.0000      -6.058400      -164.8574
  68   2.0000      -6.057331      -164.8283
  69   2.0000      -6.054712      -164.7571
  70   2.0000      -6.053181      -164.7154
  71   2.0000      -6.050791      -164.6504
  72   2.0000      -6.018997      -163.7852
  73   2.0000      -6.015050      -163.6778
  74   2.0000      -6.011894      -163.5920
  75   2.0000      -1.349020       -36.7087
  76   2.0000      -1.340777       -36.4844
  77   2.0000      -1.333596       -36.2890
  78   2.0000      -1.333304       -36.2811
  79   2.0000      -1.331682       -36.2369
  80   2.0000      -1.327842       -36.1324
  81   2.0000      -1.318278       -35.8722
  82   2.0000      -1.312567       -35.7168
  83   2.0000      -1.147712       -31.2308
  84   2.0000      -1.138035       -30.9675
  85   2.0000      -1.032806       -28.1041
  86   2.0000      -1.025826       -27.9142
  87   2.0000      -1.016862       -27.6702
  88   2.0000      -1.013006       -27.5653
  89   2.0000      -1.012576       -27.5536
  90   2.0000      -1.006483       -27.3878
  91   2.0000      -1.005234       -27.3538
  92   2.0000      -0.998597       -27.1732
  93   2.0000      -0.988826       -26.9073
  94   2.0000      -0.967685       -26.3321
  95   2.0000      -0.963023       -26.2052
  96   2.0000      -0.932412       -25.3722
  97   2.0000      -0.924782       -25.1646
  98   2.0000      -0.919395       -25.0180
  99   2.0000      -0.910743       -24.7826
 100   2.0000      -0.906744       -24.6738
 101   2.0000      -0.899661       -24.4810
 102   2.0000      -0.885585       -24.0980
 103   2.0000      -0.884221       -24.0609
 104   2.0000      -0.878545       -23.9064
 105   2.0000      -0.876402       -23.8481
 106   2.0000      -0.861233       -23.4353
 107   2.0000      -0.845112       -22.9967
 108   2.0000      -0.833317       -22.6757
 109   2.0000      -0.823734       -22.4149
 110   2.0000      -0.811906       -22.0931
 111   2.0000      -0.797530       -21.7019
 112   2.0000      -0.789744       -21.4900
 113   2.0000      -0.786906       -21.4128
 114   2.0000      -0.781539       -21.2668
 115   2.0000      -0.775977       -21.1154
 116   2.0000      -0.743243       -20.2247
 117   2.0000      -0.740660       -20.1544
 118   2.0000      -0.737619       -20.0716
 119   2.0000      -0.725778       -19.7494
 120   2.0000      -0.721110       -19.6224
 121   2.0000      -0.720172       -19.5969
 122   2.0000      -0.708927       -19.2909
 123   2.0000      -0.706039       -19.2123
 124   2.0000      -0.696648       -18.9567
 125   2.0000      -0.694646       -18.9023
 126   2.0000      -0.692913       -18.8551
 127   2.0000      -0.687294       -18.7022
 128   2.0000      -0.681569       -18.5464
 129   2.0000      -0.673935       -18.3387
 130   2.0000      -0.660389       -17.9701
 131   2.0000      -0.655337       -17.8326
 132   2.0000      -0.653278       -17.7766
 133   2.0000      -0.647169       -17.6104
 134   2.0000      -0.646274       -17.5860
 135   2.0000      -0.639777       -17.4092
 136   2.0000      -0.629049       -17.1173
 137   2.0000      -0.621630       -16.9154
 138   2.0000      -0.619244       -16.8505
 139   2.0000      -0.617494       -16.8029
 140   2.0000      -0.614716       -16.7273
 141   2.0000      -0.613147       -16.6846
 142   2.0000      -0.607683       -16.5359
 143   2.0000      -0.606873       -16.5139
 144   2.0000      -0.603205       -16.4140
 145   2.0000      -0.598249       -16.2792
 146   2.0000      -0.597022       -16.2458
 147   2.0000      -0.595822       -16.2132
 148   2.0000      -0.593865       -16.1599
 149   2.0000      -0.592607       -16.1257
 150   2.0000      -0.591457       -16.0944
 151   2.0000      -0.581991       -15.8368
 152   2.0000      -0.579971       -15.7818
 153   2.0000      -0.571794       -15.5593
 154   2.0000      -0.568706       -15.4753
 155   2.0000      -0.562353       -15.3024
 156   2.0000      -0.561432       -15.2773
 157   2.0000      -0.557810       -15.1788
 158   2.0000      -0.556304       -15.1378
 159   2.0000      -0.555455       -15.1147
 160   2.0000      -0.554180       -15.0800
 161   2.0000      -0.552473       -15.0335
 162   2.0000      -0.550842       -14.9892
 163   2.0000      -0.545622       -14.8471
 164   2.0000      -0.540449       -14.7064
 165   2.0000      -0.539279       -14.6745
 166   2.0000      -0.538149       -14.6438
 167   2.0000      -0.534622       -14.5478
 168   2.0000      -0.532359       -14.4862
 169   2.0000      -0.527709       -14.3597
 170   2.0000      -0.519422       -14.1342
 171   2.0000      -0.517272       -14.0757
 172   2.0000      -0.507159       -13.8005
 173   2.0000      -0.506487       -13.7822
 174   2.0000      -0.505374       -13.7519
 175   2.0000      -0.502500       -13.6737
 176   2.0000      -0.502412       -13.6713
 177   2.0000      -0.499215       -13.5843
 178   2.0000      -0.498278       -13.5588
 179   2.0000      -0.495967       -13.4960
 180   2.0000      -0.494508       -13.4563
 181   2.0000      -0.488554       -13.2942
 182   2.0000      -0.485335       -13.2066
 183   2.0000      -0.481235       -13.0951
 184   2.0000      -0.479692       -13.0531
 185   2.0000      -0.477245       -12.9865
 186   2.0000      -0.473445       -12.8831
 187   2.0000      -0.471176       -12.8214
 188   2.0000      -0.467996       -12.7348
 189   2.0000      -0.463668       -12.6171
 190   2.0000      -0.462443       -12.5837
 191   2.0000      -0.460269       -12.5246
 192   2.0000      -0.459764       -12.5108
 193   2.0000      -0.456946       -12.4341
 194   2.0000      -0.453718       -12.3463
 195   2.0000      -0.452175       -12.3043
 196   2.0000      -0.450808       -12.2671
 197   2.0000      -0.448575       -12.2063
 198   2.0000      -0.445554       -12.1241
 199   2.0000      -0.444652       -12.0996
 200   2.0000      -0.443165       -12.0591
 201   2.0000      -0.440912       -11.9978
 202   2.0000      -0.438846       -11.9416
 203   2.0000      -0.436598       -11.8804
 204   2.0000      -0.430917       -11.7258
 205   2.0000      -0.430058       -11.7025
 206   2.0000      -0.427201       -11.6247
 207   2.0000      -0.424965       -11.5639
 208   2.0000      -0.420861       -11.4522
 209   2.0000      -0.418911       -11.3991
 210   2.0000      -0.412685       -11.2297
 211   2.0000      -0.407987       -11.1019
 212   2.0000      -0.404731       -11.0133
 213   2.0000      -0.398330       -10.8391
 214   2.0000      -0.388303       -10.5663
 215   2.0000      -0.377714       -10.2781
 216   2.0000      -0.361068        -9.8252
 217   2.0000      -0.359129        -9.7724
 218   2.0000      -0.352694        -9.5973
 219   2.0000      -0.351457        -9.5636
 220   2.0000      -0.344126        -9.3641
 221   2.0000      -0.337457        -9.1827
 222   2.0000      -0.323967        -8.8156
 223   2.0000      -0.318774        -8.6743
 224   2.0000      -0.317403        -8.6370
 225   2.0000      -0.311670        -8.4810
 226   2.0000      -0.301645        -8.2082
 227   2.0000      -0.285978        -7.7819
 228   2.0000      -0.256951        -6.9920
 229   0.0000      -0.093996        -2.5578
 230   0.0000      -0.093289        -2.5385
 231   0.0000      -0.069403        -1.8886
 232   0.0000      -0.065948        -1.7945
 233   0.0000      -0.047294        -1.2869

MULLIKEN ATOMIC CHARGES
-----------------------
   0 C :    0.018278
   1 C :    0.099974
   2 C :   -0.015297
   3 C :   -0.057080
   4 C :   -0.039081
   5 C :    0.044947
   6 C :   -0.039563
   7 C :    0.126865
   8 C :    0.027306
   9 F :   -0.159339
  10 S :    0.131064
  11 C :    0.066467
  12 F :   -0.146538
  13 C :    0.093934
  14 C :    0.005638
  15 C :    0.005463
  16 C :    0.029687
  17 C :   -0.109239
  18 C :    0.142497
  19 O :   -0.134727
  20 C :   -0.002720
  21 C :   -0.100304
  22 C :    0.234077
  23 F :   -0.167182
  24 C :    0.236649
  25 F :   -0.164383
  26 C :   -0.088145
  27 C :    0.035575
  28 C :    0.260846
  29 C :   -0.318034
  30 C :   -0.184204
  31 N :    0.158791
  32 C :   -0.216411
  33 N :    0.174536
  34 S :    0.096841
  35 C :   -0.154791
  36 C :    0.036297
  37 C :   -0.023227
  38 C :    0.073091
  39 C :    0.055801
  40 F :   -0.140158
  41 S :    0.133620
  42 C :    0.069722
  43 F :   -0.146569
  44 C :    0.062348
  45 C :   -0.004121
  46 C :   -0.100261
  47 C :    0.128665
  48 O :   -0.132062
  49 C :    0.011777
  50 C :   -0.096731
  51 C :    0.232219
  52 F :   -0.165961
  53 C :    0.236748
  54 F :   -0.161602
  55 C :   -0.084761
  56 C :    0.026127
  57 C :    0.263911
  58 C :   -0.315227
  59 C :   -0.205633
  60 N :    0.177766
  61 C :   -0.180864
  62 N :    0.164491
  63 H :    0.012569
  64 H :    0.022003
  65 H :    0.013941
  66 H :    0.010567
  67 H :    0.008474
  68 H :   -0.024137
  69 H :   -0.004826
  70 H :   -0.009823
  71 H :   -0.001776
  72 H :    0.028366
  73 H :    0.015648
  74 H :    0.012812
  75 H :    0.017720
  76 H :    0.008609
  77 H :    0.013455
  78 H :    0.032415
  79 H :    0.015672
  80 H :    0.020511
Sum of atomic charges:    0.0000000

LOEWDIN ATOMIC CHARGES
----------------------
   0 C :   -0.048092
   1 C :   -0.031791
   2 C :   -0.052438
   3 C :   -0.051755
   4 C :   -0.166596
   5 C :   -0.018797
   6 C :   -0.041277
   7 C :   -0.079221
   8 C :   -0.083024
   9 F :   -0.045984
  10 S :    0.446358
  11 C :   -0.058741
  12 F :   -0.033246
  13 C :   -0.094781
  14 C :    0.037158
  15 C :   -0.031092
  16 C :    0.072427
  17 C :   -0.096038
  18 C :    0.082818
  19 O :   -0.136524
  20 C :   -0.046960
  21 C :   -0.004424
  22 C :    0.069896
  23 F :   -0.044462
  24 C :    0.074717
  25 F :   -0.041983
  26 C :   -0.020020
  27 C :   -0.012309
  28 C :    0.069316
  29 C :   -0.131856
  30 C :   -0.020762
  31 N :   -0.043963
  32 C :   -0.024136
  33 N :   -0.042527
  34 S :    0.424340
  35 C :   -0.181755
  36 C :   -0.028216
  37 C :   -0.034241
  38 C :   -0.084481
  39 C :   -0.069125
  40 F :   -0.029664
  41 S :    0.449949
  42 C :   -0.059943
  43 F :   -0.032703
  44 C :   -0.100435
  45 C :    0.067470
  46 C :   -0.083731
  47 C :    0.086114
  48 O :   -0.130769
  49 C :   -0.049609
  50 C :   -0.002622
  51 C :    0.069931
  52 F :   -0.042495
  53 C :    0.076763
  54 F :   -0.039322
  55 C :   -0.019550
  56 C :   -0.010240
  57 C :    0.063846
  58 C :   -0.126427
  59 C :   -0.020227
  60 N :   -0.037933
  61 C :   -0.020824
  62 N :   -0.039223
  63 H :    0.020502
  64 H :    0.027363
  65 H :    0.025455
  66 H :    0.028148
  67 H :    0.030348
  68 H :    0.027178
  69 H :    0.032546
  70 H :    0.020318
  71 H :    0.036387
  72 H :    0.029247
  73 H :    0.045009
  74 H :    0.052557
  75 H :    0.051449
  76 H :    0.036268
  77 H :    0.037589
  78 H :    0.049200
  79 H :    0.053418
  80 H :    0.052252

  Mayer bond orders larger than 0.100000
B(  0-C ,  1-C ) :   1.0982 B(  0-C , 63-H ) :   0.9681 B(  0-C , 64-H ) :   0.9719
B(  0-C , 65-H ) :   0.9655 B(  1-C ,  2-C ) :   1.0806 B(  1-C , 66-H ) :   0.9086
B(  1-C , 67-H ) :   0.9148 B(  2-C ,  3-C ) :   1.2277 B(  2-C , 35-C ) :   1.5588
B(  3-C ,  4-C ) :   1.4901 B(  3-C , 68-H ) :   1.0045 B(  4-C ,  5-C ) :   1.1294
B(  4-C , 34-S ) :   1.1138 B(  5-C ,  6-C ) :   1.7060 B(  5-C , 69-H ) :   0.9804
B(  6-C ,  7-C ) :   1.1040 B(  6-C , 70-H ) :   0.9609 B(  7-C ,  8-C ) :   1.4610
B(  7-C , 13-C ) :   1.1309 B(  8-C ,  9-F ) :   1.1037 B(  8-C , 10-S ) :   1.1094
B( 10-S , 11-C ) :   1.1504 B( 11-C , 12-F ) :   1.1116 B( 11-C , 13-C ) :   1.4229
B( 13-C , 14-C ) :   1.1037 B( 14-C , 15-C ) :   1.6797 B( 14-C , 71-H ) :   0.9745
B( 15-C , 16-C ) :   1.1194 B( 15-C , 72-H ) :   0.9571 B( 16-C , 17-C ) :   1.6145
B( 16-C , 73-H ) :   0.9610 B( 17-C , 18-C ) :   0.9431 B( 17-C , 28-C ) :   1.0392
B( 18-C , 19-O ) :   2.2760 B( 18-C , 20-C ) :   0.9292 B( 20-C , 21-C ) :   1.3236
B( 20-C , 27-C ) :   1.3420 B( 21-C , 22-C ) :   1.3223 B( 21-C , 26-C ) :   0.1044
B( 21-C , 74-H ) :   1.0197 B( 22-C , 23-F ) :   1.1325 B( 22-C , 24-C ) :   1.2887
B( 24-C , 25-F ) :   1.1426 B( 24-C , 26-C ) :   1.3374 B( 26-C , 27-C ) :   1.3161
B( 26-C , 75-H ) :   0.9943 B( 27-C , 28-C ) :   1.0199 B( 28-C , 29-C ) :   1.6585
B( 29-C , 30-C ) :   1.1266 B( 29-C , 32-C ) :   1.1531 B( 30-C , 31-N ) :   2.9949
B( 32-C , 33-N ) :   3.0159 B( 34-S , 35-C ) :   1.1097 B( 35-C , 36-C ) :   1.0471
B( 36-C , 37-C ) :   1.8407 B( 36-C , 76-H ) :   0.9486 B( 37-C , 38-C ) :   1.0338
B( 37-C , 77-H ) :   0.9524 B( 38-C , 39-C ) :   1.4860 B( 38-C , 44-C ) :   1.1644
B( 39-C , 40-F ) :   1.1379 B( 39-C , 41-S ) :   1.1004 B( 41-S , 42-C ) :   1.1508
B( 42-C , 43-F ) :   1.1225 B( 42-C , 44-C ) :   1.4211 B( 44-C , 45-C ) :   1.0618
B( 45-C , 46-C ) :   1.7191 B( 45-C , 78-H ) :   0.9293 B( 46-C , 47-C ) :   0.9326
B( 46-C , 57-C ) :   1.0243 B( 47-C , 48-O ) :   2.2696 B( 47-C , 49-C ) :   0.9347
B( 49-C , 50-C ) :   1.3164 B( 49-C , 56-C ) :   1.3387 B( 50-C , 51-C ) :   1.3273
B( 50-C , 55-C ) :   0.1032 B( 50-C , 79-H ) :   1.0197 B( 51-C , 52-F ) :   1.1340
B( 51-C , 53-C ) :   1.2841 B( 53-C , 54-F ) :   1.1451 B( 53-C , 55-C ) :   1.3398
B( 55-C , 56-C ) :   1.3202 B( 55-C , 80-H ) :   0.9929 B( 56-C , 57-C ) :   1.0189
B( 57-C , 58-C ) :   1.6749 B( 58-C , 59-C ) :   1.1703 B( 58-C , 61-C ) :   1.1200
B( 59-C , 60-N ) :   3.0111 B( 61-C , 62-N ) :   2.9984

-----------------------------------------------------------------------------
         ABSORPTION SPECTRUM VIA TRANSITION ELECTRIC DIPOLE MOMENTS
-----------------------------------------------------------------------------
State   Energy  Wavelength   fosc         T2         TX        TY        TZ
        (cm-1)    (nm)                  (au**2)     (au)      (au)      (au)
-----------------------------------------------------------------------------
   0   21717.2    460.5   0.099687812   1.51117  -0.71140   0.79046  -0.61665
   1   21877.7    457.1   0.004454871   0.06704  -0.01758   0.21155   0.14823
   2   23691.7    422.1   0.611919459   8.50304  -1.76790   0.56704  -2.24856
   3   26492.9    377.5   0.499806585   6.21080  -0.25068   2.45893  -0.31877
   4   28314.9    353.2   0.088149293   1.02489  -0.42258   0.85754  -0.33309
   5   28779.1    347.5   0.405278149   4.63608  -0.96873   1.75162  -0.79339
   6   29302.1    341.3   0.302746637   3.40139   0.37495  -1.80177  -0.12013
   7   30172.1    331.4   0.008515269   0.09291   0.21045   0.19677   0.09953
   8   30812.1    324.5   0.144040839   1.53900   0.28475   0.76544   0.93382
   9   30831.1    324.3   0.157716122   1.68408   0.92975   0.89349   0.14606
  10   31398.5    318.5   0.023600191   0.24745  -0.32185   0.27878  -0.25717
  11   31960.6    312.9   0.409426838   4.21733  -1.75788  -0.99110  -0.38070
  12   32187.6    310.7   0.028607603   0.29260   0.02759  -0.47184  -0.26307
  13   32717.2    305.6   0.016419958   0.16522   0.14725   0.33145  -0.18353
  14   33386.2    299.5   0.175813307   1.73365  -0.15199  -0.95117   0.89768
  15   33886.4    295.1   0.110650719   1.07499   0.78769   0.12898   0.66174
  16   33944.5    294.6   0.083934214   0.81404   0.38082   0.48454  -0.65897
  17   34597.7    289.0   0.000694170   0.00661   0.06427   0.04884  -0.00946
  18   35782.1    279.5   0.002857615   0.02629  -0.13275   0.02238  -0.09037
  19   36114.8    276.9   0.028370417   0.25862   0.13029  -0.35916   0.33563
  20   36271.8    275.7   0.057351041   0.52053  -0.27160   0.32807  -0.58236
  21   36633.3    273.0   0.667222407   5.99612   0.84414   0.91141  -2.11019
  22   36672.9    272.7   0.561326196   5.03902  -1.85318  -1.26342   0.09214
  23   36783.0    271.9   0.047873841   0.42848   0.58321   0.28261  -0.09202
  24   37481.4    266.8   0.092104753   0.80899  -0.57757  -0.64755   0.23682
  25   37538.3    266.4   0.003927125   0.03444   0.16614  -0.08046  -0.01906
  26   38209.3    261.7   0.088087450   0.75896  -0.79278   0.06263   0.35574
  27   38405.5    260.4   0.030240025   0.25922   0.43687   0.19885   0.16975
  28   38829.3    257.5   0.085201507   0.72238  -0.43837  -0.62536   0.37300
  29   40079.4    249.5   0.005080132   0.04173  -0.14967   0.11433  -0.07909
  30   40274.9    248.3   0.046326264   0.37868  -0.10838   0.55442  -0.24402

FINAL SINGLE POINT ENERGY     -4122.407608772135

DIPOLE MOMENT
-------------
                                X             Y             Z
Electronic contribution:      0.82788       4.42937      20.78158
Nuclear contribution   :     -0.75605      -4.82545     -23.79444
                        -----------------------------------------
Total Dipole Moment    :      0.07183      -0.39609      -3.01286
                        -----------------------------------------
Magnitude (a.u.)       :      3.03963
Magnitude (Debye)      :      7.72613

Rotational constants in cm-1:     0.001991     0.000289     0.000267
Rotational constants in MHz :    59.702356     8.651182     7.998500

                             ****ORCA TERMINATED NORMALLY****
TOTAL RUN TIME: 0 days 0 hours 8 minutes 39 seconds 267 msec
