                         Program Version 4.2.0 -  RELEASE  -
|  1> # ORCA input file
|  2> # SCF done       -168.370054733850          0.000791011906
|  3> ! CAM-B3LYP def2-SVP def2/J RIJCOSX Grid4 TightSCF
|  4> %maxcore 5000
|  5> %tddft
|  6>     Mode sTDDFT
|  7>     Ethresh 5.0
|  8>     maxcore 5000
|  9> end
| 10>
| 11> %pal
| 12>   nprocs 6
| 13>   end
| 14> * xyz 0 1
| 15>    C       -8.25894        -5.66688        -4.50630
| 16>    O       -7.62691        -4.77489        -3.70156
| 17>    C       -6.38935        -5.09366        -3.22004
| 18>    C       -5.72068        -4.24120        -2.39169
| 19>    F       -6.16294        -3.05660        -1.97370
| 20>    S       -4.17633        -4.82788        -1.88815
| 21>    C       -7.81609        -6.84774        -4.91431
| 22>    S       -6.25523        -7.55445        -4.49611
| 23>    C       -5.63644        -6.27354        -3.47032
| 24>    C       -4.41365        -6.29465        -2.82576
| 25>    C       -3.39192        -7.27770        -2.80508
| 26>    C       -2.23751        -7.20579        -2.05308
| 27>    C       -1.46455        -8.37564        -2.26959
| 28>    C       -2.23498        -9.16695        -3.23016
| 29>    C       -3.37443        -8.53396        -3.55417
| 30>    F       -1.83433       -10.35444        -3.70257
| 31>    C       -0.26126        -8.73147        -1.69204
| 32>    C        0.48972        -9.91712        -1.87547
| 33>    C        1.61152        -9.88262        -1.05881
| 34>    C        1.59660        -8.61303        -0.32743
| 35>    C        0.49651        -7.94829        -0.71111
| 36>    F        0.11528        -6.74102        -0.27780
| 37>    C        2.56713       -10.90601        -0.94968
| 38>    C        3.61654       -10.89905        -0.06832
| 39>    C        4.57067       -11.90921         0.10181
| 40>    S        5.70621       -11.74998         1.42223
| 41>    C        6.48546       -13.27767         1.09608
| 42>    C        5.88103       -13.85840        -0.01696
| 43>    C        4.81710       -13.11294        -0.58678
| 44>    C        4.28137       -13.76210        -1.72064
| 45>    C        4.90962       -14.94654        -1.98266
| 46>    C        4.64663       -15.89432        -3.06707
| 47>    O        5.25684       -16.92115        -3.23298
| 48>    O        3.64152       -15.48227        -3.85604
| 49>    C        3.32264       -16.34525        -4.93888
| 50>    S        6.18761       -15.33343        -0.86146
| 51>    C        7.53065       -13.75830         1.89919
| 52>    C        8.20895       -14.96049         1.77335
| 53>    C        9.16644       -15.05579         2.81255
| 54>    C        9.03129       -13.81517         3.58071
| 55>    C        8.06996       -13.04159         3.05254
| 56>    F        9.77605       -13.52393         4.65310
| 57>    C       10.03938       -16.09392         3.08040
| 58>    C       10.97419       -16.20806         4.14061
| 59>    C       11.62067       -17.42611         4.04562
| 60>    C       11.09346       -18.12999         2.87439
| 61>    C       10.16630       -17.33819         2.31536
| 62>    F        9.44468       -17.61036         1.22117
| 63>    C       12.61508       -17.98345         4.88619
| 64>    C       13.13372       -17.36654         5.97743
| 65>    C       14.12757       -17.88458         6.87020
| 66>    O       14.42258       -16.96833         7.85423
| 67>    C       15.33790       -17.27092         8.80824
| 68>    C       15.66391       -16.39700         9.80226
| 69>    F       15.16182       -15.17520         9.97315
| 70>    S       16.85160       -17.01276        10.90308
| 71>    C       14.69278       -19.10692         6.76542
| 72>    S       15.89237       -19.81453         7.81130
| 73>    C       16.07749       -18.48197         8.94310
| 74>    C       16.91648       -18.48382        10.00948
| 75>    H       -9.22676        -5.28653        -4.79797
| 76>    H       -8.40076        -7.48086        -5.55501
| 77>    H       -1.97102        -6.39867        -1.39910
| 78>    H       -4.12754        -8.87482        -4.23465
| 79>    H        0.22150       -10.72259        -2.53063
| 80>    H        2.33452        -8.28021         0.37498
| 81>    H        2.42014       -11.75984        -1.59387
| 82>    H        3.72164       -10.05462         0.59908
| 83>    H        3.48450       -13.39510        -2.33870
| 84>    H        2.51159       -15.86481        -5.47950
| 85>    H        3.01109       -17.32277        -4.56522
| 86>    H        4.19225       -16.47816        -5.58568
| 87>    H        8.03692       -15.70488         1.02204
| 88>    H        7.73770       -12.07887         3.38910
| 89>    H       11.13435       -15.46095         4.89147
| 90>    H       11.40878       -19.10119         2.54604
| 91>    H       12.96039       -18.97114         4.61200
| 92>    H       12.79133       -16.37677         6.24210
| 93>    H       14.41153       -19.77122         5.96947
| 94>    H       17.57112       -19.27202        10.31953
| 95> *
| 96>
| 97>                          ****END OF INPUT****

CARTESIAN COORDINATES (ANGSTROEM)
---------------------------------
  C     -8.258940   -5.666880   -4.506300
  O     -7.626910   -4.774890   -3.701560
  C     -6.389350   -5.093660   -3.220040
  C     -5.720680   -4.241200   -2.391690
  F     -6.162940   -3.056600   -1.973700
  S     -4.176330   -4.827880   -1.888150
  C     -7.816090   -6.847740   -4.914310
  S     -6.255230   -7.554450   -4.496110
  C     -5.636440   -6.273540   -3.470320
  C     -4.413650   -6.294650   -2.825760
  C     -3.391920   -7.277700   -2.805080
  C     -2.237510   -7.205790   -2.053080
  C     -1.464550   -8.375640   -2.269590
  C     -2.234980   -9.166950   -3.230160
  C     -3.374430   -8.533960   -3.554170
  F     -1.834330  -10.354440   -3.702570
  C     -0.261260   -8.731470   -1.692040
  C      0.489720   -9.917120   -1.875470
  C      1.611520   -9.882620   -1.058810
  C      1.596600   -8.613030   -0.327430
  C      0.496510   -7.948290   -0.711110
  F      0.115280   -6.741020   -0.277800
  C      2.567130  -10.906010   -0.949680
  C      3.616540  -10.899050   -0.068320
  C      4.570670  -11.909210    0.101810
  S      5.706210  -11.749980    1.422230
  C      6.485460  -13.277670    1.096080
  C      5.881030  -13.858400   -0.016960
  C      4.817100  -13.112940   -0.586780
  C      4.281370  -13.762100   -1.720640
  C      4.909620  -14.946540   -1.982660
  C      4.646630  -15.894320   -3.067070
  O      5.256840  -16.921150   -3.232980
  O      3.641520  -15.482270   -3.856040
  C      3.322640  -16.345250   -4.938880
  S      6.187610  -15.333430   -0.861460
  C      7.530650  -13.758300    1.899190
  C      8.208950  -14.960490    1.773350
  C      9.166440  -15.055790    2.812550
  C      9.031290  -13.815170    3.580710
  C      8.069960  -13.041590    3.052540
  F      9.776050  -13.523930    4.653100
  C     10.039380  -16.093920    3.080400
  C     10.974190  -16.208060    4.140610
  C     11.620670  -17.426110    4.045620
  C     11.093460  -18.129990    2.874390
  C     10.166300  -17.338190    2.315360
  F      9.444680  -17.610360    1.221170
  C     12.615080  -17.983450    4.886190
  C     13.133720  -17.366540    5.977430
  C     14.127570  -17.884580    6.870200
  O     14.422580  -16.968330    7.854230
  C     15.337900  -17.270920    8.808240
  C     15.663910  -16.397000    9.802260
  F     15.161820  -15.175200    9.973150
  S     16.851600  -17.012760   10.903080
  C     14.692780  -19.106920    6.765420
  S     15.892370  -19.814530    7.811300
  C     16.077490  -18.481970    8.943100
  C     16.916480  -18.483820   10.009480
  H     -9.226760   -5.286530   -4.797970
  H     -8.400760   -7.480860   -5.555010
  H     -1.971020   -6.398670   -1.399100
  H     -4.127540   -8.874820   -4.234650
  H      0.221500  -10.722590   -2.530630
  H      2.334520   -8.280210    0.374980
  H      2.420140  -11.759840   -1.593870
  H      3.721640  -10.054620    0.599080
  H      3.484500  -13.395100   -2.338700
  H      2.511590  -15.864810   -5.479500
  H      3.011090  -17.322770   -4.565220
  H      4.192250  -16.478160   -5.585680
  H      8.036920  -15.704880    1.022040
  H      7.737700  -12.078870    3.389100
  H     11.134350  -15.460950    4.891470
  H     11.408780  -19.101190    2.546040
  H     12.960390  -18.971140    4.612000
  H     12.791330  -16.376770    6.242100
  H     14.411530  -19.771220    5.969470
  H     17.571120  -19.272020   10.319530

 Total Charge           Charge          ....    0
 Multiplicity           Mult            ....    1
 Number of Electrons    NEL             ....  466
 Basis Dimension        Dim             ....  964

ORBITAL ENERGIES
----------------

  NO   OCC          E(Eh)            E(eV)
   0   2.0000     -88.972725     -2421.0709
   1   2.0000     -88.968592     -2420.9585
   2   2.0000     -88.967714     -2420.9346
   3   2.0000     -88.963120     -2420.8096
   4   2.0000     -88.953373     -2420.5443
   5   2.0000     -88.951771     -2420.5007
   6   2.0000     -24.803234      -674.9303
   7   2.0000     -24.796275      -674.7409
   8   2.0000     -24.788785      -674.5371
   9   2.0000     -24.788441      -674.5278
  10   2.0000     -24.786720      -674.4809
  11   2.0000     -24.782082      -674.3547
  12   2.0000     -19.279310      -524.6167
  13   2.0000     -19.273137      -524.4487
  14   2.0000     -19.263048      -524.1742
  15   2.0000     -19.207011      -522.6493
  16   2.0000     -10.406573      -283.1772
  17   2.0000     -10.383066      -282.5376
  18   2.0000     -10.375216      -282.3240
  19   2.0000     -10.355033      -281.7748
  20   2.0000     -10.353915      -281.7444
  21   2.0000     -10.353262      -281.7266
  22   2.0000     -10.350712      -281.6572
  23   2.0000     -10.347576      -281.5718
  24   2.0000     -10.347145      -281.5601
  25   2.0000     -10.346081      -281.5312
  26   2.0000     -10.343562      -281.4626
  27   2.0000     -10.325107      -280.9605
  28   2.0000     -10.323877      -280.9270
  29   2.0000     -10.322309      -280.8843
  30   2.0000     -10.317951      -280.7657
  31   2.0000     -10.317253      -280.7467
  32   2.0000     -10.314893      -280.6825
  33   2.0000     -10.312788      -280.6252
  34   2.0000     -10.311530      -280.5910
  35   2.0000     -10.303876      -280.3827
  36   2.0000     -10.302100      -280.3344
  37   2.0000     -10.301939      -280.3300
  38   2.0000     -10.301298      -280.3126
  39   2.0000     -10.300525      -280.2915
  40   2.0000     -10.298310      -280.2313
  41   2.0000     -10.297580      -280.2114
  42   2.0000     -10.297468      -280.2084
  43   2.0000     -10.296829      -280.1909
  44   2.0000     -10.296805      -280.1903
  45   2.0000     -10.296502      -280.1821
  46   2.0000     -10.293843      -280.1097
  47   2.0000     -10.289706      -279.9971
  48   2.0000     -10.289140      -279.9817
  49   2.0000     -10.285844      -279.8920
  50   2.0000     -10.282895      -279.8118
  51   2.0000     -10.281889      -279.7844
  52   2.0000     -10.272617      -279.5321
  53   2.0000     -10.272602      -279.5317
  54   2.0000     -10.271912      -279.5129
  55   2.0000     -10.265167      -279.3294
  56   2.0000     -10.263319      -279.2791
  57   2.0000     -10.260677      -279.2072
  58   2.0000     -10.260069      -279.1907
  59   2.0000     -10.253989      -279.0252
  60   2.0000      -8.067510      -219.5281
  61   2.0000      -8.064558      -219.4478
  62   2.0000      -8.064204      -219.4381
  63   2.0000      -8.057823      -219.2645
  64   2.0000      -8.048422      -219.0087
  65   2.0000      -8.047451      -218.9823
  66   2.0000      -6.036713      -164.2673
  67   2.0000      -6.034033      -164.1944
  68   2.0000      -6.033660      -164.1842
  69   2.0000      -6.032649      -164.1567
  70   2.0000      -6.030274      -164.0921
  71   2.0000      -6.029862      -164.0809
  72   2.0000      -6.029720      -164.0770
  73   2.0000      -6.027500      -164.0166
  74   2.0000      -6.025709      -163.9679
  75   2.0000      -6.025544      -163.9634
  76   2.0000      -6.023196      -163.8995
  77   2.0000      -6.019310      -163.7938
  78   2.0000      -6.018911      -163.7829
  79   2.0000      -6.017777      -163.7520
  80   2.0000      -6.014586      -163.6652
  81   2.0000      -6.013603      -163.6385
  82   2.0000      -6.008216      -163.4919
  83   2.0000      -6.007328      -163.4677
  84   2.0000      -1.318109       -35.8676
  85   2.0000      -1.311552       -35.6891
  86   2.0000      -1.301288       -35.4098
  87   2.0000      -1.300374       -35.3850
  88   2.0000      -1.299340       -35.3568
  89   2.0000      -1.294360       -35.2213
  90   2.0000      -1.194072       -32.4923
  91   2.0000      -1.188226       -32.3333
  92   2.0000      -1.183135       -32.1948
  93   2.0000      -1.100904       -29.9571
  94   2.0000      -1.017316       -27.6826
  95   2.0000      -1.004708       -27.3395
  96   2.0000      -0.996154       -27.1067
  97   2.0000      -0.984822       -26.7984
  98   2.0000      -0.983085       -26.7511
  99   2.0000      -0.966796       -26.3079
 100   2.0000      -0.966246       -26.2929
 101   2.0000      -0.954749       -25.9800
 102   2.0000      -0.933092       -25.3907
 103   2.0000      -0.927301       -25.2332
 104   2.0000      -0.909566       -24.7505
 105   2.0000      -0.902168       -24.5492
 106   2.0000      -0.877724       -23.8841
 107   2.0000      -0.871617       -23.7179
 108   2.0000      -0.862922       -23.4813
 109   2.0000      -0.855286       -23.2735
 110   2.0000      -0.852560       -23.1993
 111   2.0000      -0.837979       -22.8026
 112   2.0000      -0.833427       -22.6787
 113   2.0000      -0.822533       -22.3823
 114   2.0000      -0.821202       -22.3460
 115   2.0000      -0.806178       -21.9372
 116   2.0000      -0.800144       -21.7730
 117   2.0000      -0.797240       -21.6940
 118   2.0000      -0.796569       -21.6757
 119   2.0000      -0.786024       -21.3888
 120   2.0000      -0.782716       -21.2988
 121   2.0000      -0.773420       -21.0458
 122   2.0000      -0.755794       -20.5662
 123   2.0000      -0.744759       -20.2659
 124   2.0000      -0.731814       -19.9137
 125   2.0000      -0.722375       -19.6568
 126   2.0000      -0.720095       -19.5948
 127   2.0000      -0.710700       -19.3391
 128   2.0000      -0.701341       -19.0845
 129   2.0000      -0.696170       -18.9438
 130   2.0000      -0.684727       -18.6324
 131   2.0000      -0.678508       -18.4631
 132   2.0000      -0.669397       -18.2152
 133   2.0000      -0.662497       -18.0275
 134   2.0000      -0.659432       -17.9441
 135   2.0000      -0.653862       -17.7925
 136   2.0000      -0.649997       -17.6873
 137   2.0000      -0.647245       -17.6124
 138   2.0000      -0.644787       -17.5455
 139   2.0000      -0.640154       -17.4195
 140   2.0000      -0.635841       -17.3021
 141   2.0000      -0.631060       -17.1720
 142   2.0000      -0.621872       -16.9220
 143   2.0000      -0.620460       -16.8836
 144   2.0000      -0.613355       -16.6902
 145   2.0000      -0.603493       -16.4219
 146   2.0000      -0.601625       -16.3711
 147   2.0000      -0.595192       -16.1960
 148   2.0000      -0.593989       -16.1633
 149   2.0000      -0.590937       -16.0802
 150   2.0000      -0.580657       -15.8005
 151   2.0000      -0.578578       -15.7439
 152   2.0000      -0.576454       -15.6861
 153   2.0000      -0.573445       -15.6042
 154   2.0000      -0.573222       -15.5982
 155   2.0000      -0.569192       -15.4885
 156   2.0000      -0.564757       -15.3678
 157   2.0000      -0.560272       -15.2458
 158   2.0000      -0.559336       -15.2203
 159   2.0000      -0.555968       -15.1287
 160   2.0000      -0.555110       -15.1053
 161   2.0000      -0.552313       -15.0292
 162   2.0000      -0.550893       -14.9906
 163   2.0000      -0.549659       -14.9570
 164   2.0000      -0.547418       -14.8960
 165   2.0000      -0.547246       -14.8913
 166   2.0000      -0.543085       -14.7781
 167   2.0000      -0.537646       -14.6301
 168   2.0000      -0.534778       -14.5521
 169   2.0000      -0.534120       -14.5341
 170   2.0000      -0.533595       -14.5198
 171   2.0000      -0.531894       -14.4736
 172   2.0000      -0.524324       -14.2676
 173   2.0000      -0.518184       -14.1005
 174   2.0000      -0.517706       -14.0875
 175   2.0000      -0.515865       -14.0374
 176   2.0000      -0.508881       -13.8474
 177   2.0000      -0.504154       -13.7187
 178   2.0000      -0.501509       -13.6467
 179   2.0000      -0.497717       -13.5436
 180   2.0000      -0.494862       -13.4659
 181   2.0000      -0.486469       -13.2375
 182   2.0000      -0.485677       -13.2160
 183   2.0000      -0.483933       -13.1685
 184   2.0000      -0.479306       -13.0426
 185   2.0000      -0.476449       -12.9648
 186   2.0000      -0.472613       -12.8605
 187   2.0000      -0.471460       -12.8291
 188   2.0000      -0.469004       -12.7622
 189   2.0000      -0.466676       -12.6989
 190   2.0000      -0.466181       -12.6854
 191   2.0000      -0.465663       -12.6713
 192   2.0000      -0.462873       -12.5954
 193   2.0000      -0.461884       -12.5685
 194   2.0000      -0.458997       -12.4899
 195   2.0000      -0.451050       -12.2737
 196   2.0000      -0.449307       -12.2263
 197   2.0000      -0.448218       -12.1966
 198   2.0000      -0.445560       -12.1243
 199   2.0000      -0.440167       -11.9776
 200   2.0000      -0.438686       -11.9372
 201   2.0000      -0.437795       -11.9130
 202   2.0000      -0.435557       -11.8521
 203   2.0000      -0.434848       -11.8328
 204   2.0000      -0.430941       -11.7265
 205   2.0000      -0.428970       -11.6729
 206   2.0000      -0.423730       -11.5303
 207   2.0000      -0.419207       -11.4072
 208   2.0000      -0.417770       -11.3681
 209   2.0000      -0.416925       -11.3451
 210   2.0000      -0.411105       -11.1867
 211   2.0000      -0.409028       -11.1302
 212   2.0000      -0.408071       -11.1042
 213   2.0000      -0.405515       -11.0346
 214   2.0000      -0.398851       -10.8533
 215   2.0000      -0.381203       -10.3731
 216   2.0000      -0.380108       -10.3433
 217   2.0000      -0.360835        -9.8188
 218   2.0000      -0.360224        -9.8022
 219   2.0000      -0.354595        -9.6490
 220   2.0000      -0.341715        -9.2985
 221   2.0000      -0.330623        -8.9967
 222   2.0000      -0.317830        -8.6486
 223   2.0000      -0.313152        -8.5213
 224   2.0000      -0.305595        -8.3157
 225   2.0000      -0.297565        -8.0972
 226   2.0000      -0.295552        -8.0424
 227   2.0000      -0.283303        -7.7091
 228   2.0000      -0.275180        -7.4880
 229   2.0000      -0.264736        -7.2038
 230   2.0000      -0.257631        -7.0105
 231   2.0000      -0.242909        -6.6099
 232   2.0000      -0.220420        -5.9979
 233   0.0000      -0.115115        -3.1324
 234   0.0000      -0.090593        -2.4651
 235   0.0000      -0.047428        -1.2906
 236   0.0000      -0.011659        -0.3172
 237   0.0000       0.004827         0.1314

MULLIKEN ATOMIC CHARGES
-----------------------
   0 C :    0.175645
   1 O :   -0.242307
   2 C :    0.180449
   3 C :    0.072355
   4 F :   -0.151645
   5 S :    0.118517
   6 C :   -0.091054
   7 S :    0.064777
   8 C :   -0.018548
   9 C :   -0.142177
  10 C :    0.089506
  11 C :   -0.130251
  12 C :    0.026183
  13 C :    0.244229
  14 C :   -0.087601
  15 F :   -0.176154
  16 C :    0.009934
  17 C :   -0.092451
  18 C :    0.108237
  19 C :   -0.082282
  20 C :    0.254012
  21 F :   -0.174309
  22 C :   -0.001951
  23 C :    0.056406
  24 C :   -0.102807
  25 S :    0.154503
  26 C :   -0.123098
  27 C :   -0.044701
  28 C :    0.133360
  29 C :   -0.006213
  30 C :   -0.141343
  31 C :    0.207853
  32 O :   -0.196616
  33 O :   -0.305100
  34 C :    0.191531
  35 S :    0.179919
  36 C :    0.095813
  37 C :   -0.115709
  38 C :    0.014279
  39 C :    0.259790
  40 C :   -0.102883
  41 F :   -0.173650
  42 C :    0.000867
  43 C :   -0.097426
  44 C :    0.103014
  45 C :   -0.085005
  46 C :    0.259561
  47 F :   -0.174412
  48 C :    0.019131
  49 C :    0.028615
  50 C :    0.217374
  51 O :   -0.253466
  52 C :    0.219555
  53 C :    0.030772
  54 F :   -0.156585
  55 S :    0.104384
  56 C :   -0.159167
  57 S :    0.110086
  58 C :   -0.035704
  59 C :   -0.141815
  60 H :    0.027833
  61 H :    0.049516
  62 H :   -0.007944
  63 H :   -0.003617
  64 H :   -0.016584
  65 H :   -0.017394
  66 H :   -0.033269
  67 H :   -0.018995
  68 H :    0.004187
  69 H :    0.035322
  70 H :    0.034558
  71 H :    0.035987
  72 H :   -0.009731
  73 H :   -0.011623
  74 H :   -0.018038
  75 H :   -0.021710
  76 H :   -0.028883
  77 H :    0.005280
  78 H :    0.040832
  79 H :    0.030045
Sum of atomic charges:    0.0000000

LOEWDIN ATOMIC CHARGES
----------------------
   0 C :    0.039709
   1 O :   -0.050452
   2 C :   -0.038067
   3 C :   -0.090425
   4 F :   -0.044074
   5 S :    0.434430
   6 C :   -0.224240
   7 S :    0.363083
   8 C :   -0.188136
   9 C :   -0.185373
  10 C :   -0.015823
  11 C :   -0.081456
  12 C :   -0.001341
  13 C :    0.083639
  14 C :   -0.068337
  15 F :   -0.052780
  16 C :   -0.002914
  17 C :   -0.057011
  18 C :   -0.001386
  19 C :   -0.061959
  20 C :    0.084631
  21 F :   -0.051125
  22 C :   -0.011561
  23 C :   -0.035405
  24 C :   -0.156641
  25 S :    0.467240
  26 C :   -0.181577
  27 C :   -0.174142
  28 C :   -0.071619
  29 C :   -0.017204
  30 C :   -0.198225
  31 C :    0.064276
  32 O :   -0.173717
  33 O :   -0.095010
  34 C :    0.083490
  35 S :    0.465275
  36 C :   -0.023883
  37 C :   -0.069481
  38 C :   -0.002902
  39 C :    0.085858
  40 C :   -0.070012
  41 F :   -0.049924
  42 C :    0.001026
  43 C :   -0.065375
  44 C :   -0.001526
  45 C :   -0.061666
  46 C :    0.078889
  47 F :   -0.051802
  48 C :   -0.017573
  49 C :    0.000212
  50 C :    0.024971
  51 O :   -0.054004
  52 C :   -0.038047
  53 C :   -0.104136
  54 F :   -0.049803
  55 S :    0.426796
  56 C :   -0.210739
  57 S :    0.368280
  58 C :   -0.207520
  59 C :   -0.211231
  60 H :    0.035585
  61 H :    0.037783
  62 H :    0.016555
  63 H :    0.019539
  64 H :    0.022726
  65 H :    0.028342
  66 H :    0.031670
  67 H :    0.029599
  68 H :    0.035450
  69 H :    0.026475
  70 H :    0.024598
  71 H :    0.024898
  72 H :    0.013555
  73 H :    0.025637
  74 H :    0.019936
  75 H :    0.028177
  76 H :    0.026286
  77 H :    0.040437
  78 H :    0.032654
  79 H :    0.027920

  Mayer bond orders larger than 0.100000
B(  0-C ,  1-O ) :   1.0683 B(  0-C ,  6-C ) :   1.8377 B(  0-C , 60-H ) :   0.9795
B(  1-O ,  2-C ) :   1.0681 B(  2-C ,  3-C ) :   1.4996 B(  2-C ,  8-C ) :   1.2026
B(  3-C ,  4-F ) :   1.1567 B(  3-C ,  5-S ) :   1.1191 B(  5-S ,  9-C ) :   1.0887
B(  6-C ,  7-S ) :   0.9992 B(  6-C , 61-H ) :   0.9451 B(  7-S ,  8-C ) :   1.0050
B(  8-C ,  9-C ) :   1.5464 B(  9-C , 10-C ) :   1.1737 B( 10-C , 11-C ) :   1.5168
B( 10-C , 14-C ) :   1.0312 B( 11-C , 12-C ) :   1.1584 B( 11-C , 62-H ) :   1.0055
B( 12-C , 13-C ) :   1.0286 B( 12-C , 16-C ) :   1.4262 B( 13-C , 14-C ) :   1.6686
B( 13-C , 15-F ) :   1.1280 B( 14-C , 63-H ) :   1.0006 B( 16-C , 17-C ) :   1.1478
B( 16-C , 20-C ) :   1.0209 B( 17-C , 18-C ) :   1.4650 B( 17-C , 64-H ) :   1.0217
B( 18-C , 19-C ) :   1.0148 B( 18-C , 22-C ) :   1.1953 B( 19-C , 20-C ) :   1.6690
B( 19-C , 65-H ) :   1.0117 B( 20-C , 21-F ) :   1.1278 B( 22-C , 23-C ) :   1.5518
B( 22-C , 66-H ) :   0.9768 B( 23-C , 24-C ) :   1.2016 B( 23-C , 67-H ) :   0.9507
B( 24-C , 25-S ) :   1.1318 B( 24-C , 26-C ) :   0.1012 B( 24-C , 28-C ) :   1.3043
B( 25-S , 26-C ) :   1.1230 B( 26-C , 27-C ) :   1.4400 B( 26-C , 36-C ) :   1.1844
B( 27-C , 28-C ) :   1.2769 B( 27-C , 35-S ) :   1.0798 B( 28-C , 29-C ) :   1.1453
B( 29-C , 30-C ) :   1.6037 B( 29-C , 68-H ) :   0.9995 B( 30-C , 31-C ) :   0.9598
B( 30-C , 35-S ) :   1.0797 B( 31-C , 32-O ) :   2.1433 B( 31-C , 33-O ) :   1.2360
B( 33-O , 34-C ) :   0.9191 B( 34-C , 69-H ) :   0.9811 B( 34-C , 70-H ) :   0.9764
B( 34-C , 71-H ) :   0.9760 B( 36-C , 37-C ) :   1.4972 B( 36-C , 40-C ) :   1.0126
B( 37-C , 38-C ) :   1.1747 B( 37-C , 72-H ) :   1.0018 B( 38-C , 39-C ) :   1.0218
B( 38-C , 42-C ) :   1.4194 B( 39-C , 40-C ) :   1.6680 B( 39-C , 41-F ) :   1.1258
B( 40-C , 73-H ) :   1.0104 B( 42-C , 43-C ) :   1.1571 B( 42-C , 46-C ) :   1.0147
B( 43-C , 44-C ) :   1.5227 B( 43-C , 74-H ) :   1.0098 B( 44-C , 45-C ) :   1.0117
B( 44-C , 48-C ) :   1.1459 B( 45-C , 46-C ) :   1.6567 B( 45-C , 75-H ) :   1.0199
B( 46-C , 47-F ) :   1.1213 B( 48-C , 49-C ) :   1.6579 B( 48-C , 76-H ) :   0.9613
B( 49-C , 50-C ) :   1.0967 B( 49-C , 77-H ) :   0.9717 B( 50-C , 51-O ) :   1.0471
B( 50-C , 56-C ) :   1.7410 B( 51-O , 52-C ) :   1.0743 B( 52-C , 53-C ) :   1.4918
B( 52-C , 58-C ) :   1.2083 B( 53-C , 54-F ) :   1.1483 B( 53-C , 55-S ) :   1.1394
B( 55-S , 59-C ) :   1.1345 B( 56-C , 57-S ) :   1.0252 B( 56-C , 78-H ) :   0.9160
B( 57-S , 58-C ) :   0.9757 B( 58-C , 59-C ) :   1.5995 B( 59-C , 79-H ) :   0.9705

-----------------------------------------------------------------------------
         ABSORPTION SPECTRUM VIA TRANSITION ELECTRIC DIPOLE MOMENTS
-----------------------------------------------------------------------------
State   Energy  Wavelength   fosc         T2         TX        TY        TZ
        (cm-1)    (nm)                  (au**2)     (au)      (au)      (au)
-----------------------------------------------------------------------------
   0   10116.9    988.4   1.931935091  62.86643   6.15333  -3.94235   3.07586
   1   13947.0    717.0   0.028737239   0.67833  -0.66916   0.18362   0.44367
   2   15223.1    656.9   0.001740790   0.03765   0.04582   0.02868   0.18634
   3   15886.0    629.5   0.005658869   0.11727  -0.22924  -0.15674  -0.20038
   4   18542.1    539.3   0.014907575   0.26468  -0.10971  -0.41664  -0.28117
   5   19601.9    510.2   0.036633981   0.61526  -0.53931   0.50649  -0.26053
   6   20127.2    496.8   0.196087006   3.20731   1.26431  -0.63687   1.09691
   7   21535.3    464.4   0.377993031   5.77841   1.82471  -1.44968   0.58930
   8   23253.4    430.0   0.014323426   0.20278  -0.12578  -0.25047  -0.35246
   9   23637.1    423.1   0.128257895   1.78634  -1.00809   0.82576  -0.29702
  10   25758.7    388.2   0.090787193   1.16032   0.90092  -0.57225  -0.14556
  11   26798.0    373.2   0.072604311   0.89194  -0.84060   0.42743  -0.05142
  12   27986.6    357.3   0.345227577   4.06099   1.47415  -0.52689   1.26896
  13   28565.3    350.1   0.050378100   0.58060  -0.57255  -0.00266  -0.50277
  14   29213.9    342.3   0.057034630   0.64272  -0.21816  -0.46686  -0.61414
  15   29642.3    337.4   0.031474583   0.34956   0.37324  -0.44953   0.09042
  16   29798.8    335.6   0.020622600   0.22783  -0.30830   0.31036  -0.19094
  17   30250.9    330.6   0.024421782   0.26578  -0.25718   0.44678  -0.00427
  18   30890.6    323.7   0.098451900   1.04924   0.64112  -0.33632   0.72463
  19   31265.9    319.8   0.189049432   1.99058   1.01655  -0.87554   0.43662
  20   31898.0    313.5   0.023356128   0.24105   0.05519   0.37957   0.30649
  21   32403.6    308.6   0.004655414   0.04730  -0.03866  -0.20821  -0.04952
  22   34094.8    293.3   0.053286253   0.51452  -0.51622   0.03593  -0.49674
  23   34523.4    289.7   0.010404852   0.09922   0.20817  -0.17533   0.15857
  24   35038.2    285.4   0.262856811   2.46975   1.22512  -0.33114   0.92692
  25   35371.2    282.7   0.143670701   1.33719  -0.92060   0.47896  -0.51019
  26   36045.3    277.4   0.050515610   0.46137   0.64071  -0.18578   0.12784
  27   36205.7    276.2   0.017895843   0.16272   0.32860  -0.21882   0.08285
  28   36655.3    272.8   0.007446013   0.06687   0.17808   0.00560   0.18743
  29   36785.1    271.8   0.071074021   0.63608   0.68339  -0.08364   0.40257
  30   37145.2    269.2   0.026585443   0.23562   0.41711   0.07629   0.23627
  31   37493.3    266.7   0.030233335   0.26547  -0.18204   0.47031   0.10551
  32   37901.1    263.8   0.089126834   0.77416  -0.27186   0.74511   0.38087
  33   38537.8    259.5   0.082360168   0.70357   0.30815   0.44657   0.63967
  34   38659.3    258.7   0.027360777   0.23300  -0.38554   0.22617  -0.18222
  35   38919.7    256.9   0.031328591   0.26500   0.28230  -0.01569   0.43019
  36   39510.1    253.1   0.055496477   0.46242  -0.21575  -0.38238  -0.51928

FINAL SINGLE POINT ENERGY     -4973.734184158406

DIPOLE MOMENT
-------------
                                X             Y             Z
Electronic contribution:      0.45316      24.72868      21.79467
Nuclear contribution   :     -0.99930     -25.29747     -22.33945
                        -----------------------------------------
Total Dipole Moment    :     -0.54613      -0.56879      -0.54478
                        -----------------------------------------
Magnitude (a.u.)       :      0.95842
Magnitude (Debye)      :      2.43610

Rotational constants in cm-1:     0.002609     0.000194     0.000182
Rotational constants in MHz :    78.221283     5.812847     5.445786

                             ****ORCA TERMINATED NORMALLY****
TOTAL RUN TIME: 0 days 0 hours 7 minutes 20 seconds 938 msec
