                         Program Version 4.2.0 -  RELEASE  -
|  1> # ORCA input file
|  2> # SCF done       -146.653832676248          0.000695416886
|  3> ! CAM-B3LYP def2-SVP def2/J RIJCOSX Grid4 TightSCF
|  4> %maxcore 5000
|  5> %tddft
|  6>     Mode sTDDFT
|  7>     Ethresh 5.0
|  8>     maxcore 5000
|  9> end
| 10>
| 11> %pal
| 12>   nprocs 6
| 13>   end
| 14> * xyz 0 1
| 15>    C       -2.33807         2.45609         0.47194
| 16>    S       -3.62780         1.33674        -0.17582
| 17>    C       -2.41848         0.06255        -0.69925
| 18>    C       -1.06309         0.46046        -0.11679
| 19>    C       -1.04802         1.99107        -0.17135
| 20>    C        0.13541        -0.11361        -0.89672
| 21>    O        1.24363         0.37156        -0.79602
| 22>    N       -0.07528        -1.26619        -1.56040
| 23>    N       -0.95031        -0.05779         1.24554
| 24>    C       -0.04035         0.45337         2.14340
| 25>    C        0.64518        -0.28850         3.02184
| 26>    C        1.49949         0.22919         4.07172
| 27>    C        1.71662        -0.50025         5.20470
| 28>    F        1.23013        -1.72481         5.44387
| 29>    S        2.66108         0.27381         6.43224
| 30>    C        2.77942         1.63973         5.37614
| 31>    F        3.48413         2.70313         5.77661
| 32>    C        2.16797         1.50772         4.16254
| 33>    C        2.27444         2.55458         3.16596
| 34>    C        2.35015         2.34829         1.83925
| 35>    C        2.39891         3.36626         0.83990
| 36>    N        2.34358         3.00583        -0.48898
| 37>    C        2.30297         4.13413        -1.23846
| 38>    C        2.20123         4.62054        -2.54190
| 39>    C        2.19884         6.01216        -2.43830
| 40>    N        2.29759         6.37494        -1.10843
| 41>    C        2.36702         5.24230        -0.35858
| 42>    C        2.42631         4.75871         0.94854
| 43>    C        2.01967         6.93094        -3.50924
| 44>    C        1.86924         8.26543        -3.39793
| 45>    C        1.60334         9.15745        -4.50540
| 46>    C        2.06230        10.44348        -4.51313
| 47>    F        2.76215        11.02313        -3.53213
| 48>    S        1.72499        11.35139        -5.95007
| 49>    C        0.91913         9.94844        -6.56456
| 50>    F        0.33622        10.01415        -7.76359
| 51>    C        0.89064         8.87279        -5.72816
| 52>    C        0.15529         7.66835        -6.08014
| 53>    C       -0.48273         6.88315        -5.21562
| 54>    C       -1.18374         5.63053        -5.60924
| 55>    S        0.00292         4.42635        -6.37896
| 56>    C       -0.73066         2.98355        -5.54050
| 57>    C       -2.05134         3.43775        -4.91858
| 58>    C       -1.77197         4.86677        -4.43255
| 59>    C       -2.39680         2.53183        -3.71319
| 60>    O       -1.63641         1.67383        -3.30232
| 61>    N       -3.58439         2.77887        -3.14514
| 62>    N       -3.08722         3.39553        -5.93192
| 63>    C       -4.31576         4.01039        -5.82124
| 64>    C       -5.42782         3.57196        -6.40183
| 65>    H       -2.31747         2.34580         1.55576
| 66>    H       -2.60183         3.47800         0.21003
| 67>    H       -2.38586         0.08715        -1.78873
| 68>    H       -2.77436        -0.90104        -0.33758
| 69>    H       -1.02276         2.27095        -1.22571
| 70>    H       -0.17467         2.42056         0.31343
| 71>    H       -0.99459        -1.61343        -1.76472
| 72>    H        0.70020        -1.65071        -2.07765
| 73>    H       -0.99828        -1.07060         1.27003
| 74>    H        0.04526         1.52643         2.15283
| 75>    H        0.50896        -1.36278         3.03649
| 76>    H        2.36523         3.55675         3.56159
| 77>    H        2.33491         1.33656         1.45619
| 78>    H        2.22243         2.05277        -0.80040
| 79>    H        2.13159         4.06735        -3.45724
| 80>    H        2.36477         7.31985        -0.77504
| 81>    H        2.48651         5.31963         1.85905
| 82>    H        1.96335         6.47271        -4.48590
| 83>    H        1.99777         8.76037        -2.44431
| 84>    H        0.11091         7.44671        -7.13879
| 85>    H       -0.46603         7.10641        -4.15904
| 86>    H       -1.94227         5.81992        -6.37408
| 87>    H       -0.04851         2.63703        -4.76405
| 88>    H       -0.86916         2.18988        -6.27271
| 89>    H       -1.03268         4.81453        -3.62857
| 90>    H       -2.66044         5.36484        -4.04554
| 91>    H       -4.24313         3.41959        -3.55448
| 92>    H       -3.86019         2.25095        -2.32020
| 93>    H       -3.12716         2.51074        -6.42050
| 94>    H       -4.31297         4.95046        -5.28613
| 95>    H       -5.45073         2.65133        -6.95903
| 96>    H       -6.33748         4.13975        -6.36228
| 97> *
| 98>
| 99>                          ****END OF INPUT****

CARTESIAN COORDINATES (ANGSTROEM)
---------------------------------
  C     -2.338070    2.456090    0.471940
  S     -3.627800    1.336740   -0.175820
  C     -2.418480    0.062550   -0.699250
  C     -1.063090    0.460460   -0.116790
  C     -1.048020    1.991070   -0.171350
  C      0.135410   -0.113610   -0.896720
  O      1.243630    0.371560   -0.796020
  N     -0.075280   -1.266190   -1.560400
  N     -0.950310   -0.057790    1.245540
  C     -0.040350    0.453370    2.143400
  C      0.645180   -0.288500    3.021840
  C      1.499490    0.229190    4.071720
  C      1.716620   -0.500250    5.204700
  F      1.230130   -1.724810    5.443870
  S      2.661080    0.273810    6.432240
  C      2.779420    1.639730    5.376140
  F      3.484130    2.703130    5.776610
  C      2.167970    1.507720    4.162540
  C      2.274440    2.554580    3.165960
  C      2.350150    2.348290    1.839250
  C      2.398910    3.366260    0.839900
  N      2.343580    3.005830   -0.488980
  C      2.302970    4.134130   -1.238460
  C      2.201230    4.620540   -2.541900
  C      2.198840    6.012160   -2.438300
  N      2.297590    6.374940   -1.108430
  C      2.367020    5.242300   -0.358580
  C      2.426310    4.758710    0.948540
  C      2.019670    6.930940   -3.509240
  C      1.869240    8.265430   -3.397930
  C      1.603340    9.157450   -4.505400
  C      2.062300   10.443480   -4.513130
  F      2.762150   11.023130   -3.532130
  S      1.724990   11.351390   -5.950070
  C      0.919130    9.948440   -6.564560
  F      0.336220   10.014150   -7.763590
  C      0.890640    8.872790   -5.728160
  C      0.155290    7.668350   -6.080140
  C     -0.482730    6.883150   -5.215620
  C     -1.183740    5.630530   -5.609240
  S      0.002920    4.426350   -6.378960
  C     -0.730660    2.983550   -5.540500
  C     -2.051340    3.437750   -4.918580
  C     -1.771970    4.866770   -4.432550
  C     -2.396800    2.531830   -3.713190
  O     -1.636410    1.673830   -3.302320
  N     -3.584390    2.778870   -3.145140
  N     -3.087220    3.395530   -5.931920
  C     -4.315760    4.010390   -5.821240
  C     -5.427820    3.571960   -6.401830
  H     -2.317470    2.345800    1.555760
  H     -2.601830    3.478000    0.210030
  H     -2.385860    0.087150   -1.788730
  H     -2.774360   -0.901040   -0.337580
  H     -1.022760    2.270950   -1.225710
  H     -0.174670    2.420560    0.313430
  H     -0.994590   -1.613430   -1.764720
  H      0.700200   -1.650710   -2.077650
  H     -0.998280   -1.070600    1.270030
  H      0.045260    1.526430    2.152830
  H      0.508960   -1.362780    3.036490
  H      2.365230    3.556750    3.561590
  H      2.334910    1.336560    1.456190
  H      2.222430    2.052770   -0.800400
  H      2.131590    4.067350   -3.457240
  H      2.364770    7.319850   -0.775040
  H      2.486510    5.319630    1.859050
  H      1.963350    6.472710   -4.485900
  H      1.997770    8.760370   -2.444310
  H      0.110910    7.446710   -7.138790
  H     -0.466030    7.106410   -4.159040
  H     -1.942270    5.819920   -6.374080
  H     -0.048510    2.637030   -4.764050
  H     -0.869160    2.189880   -6.272710
  H     -1.032680    4.814530   -3.628570
  H     -2.660440    5.364840   -4.045540
  H     -4.243130    3.419590   -3.554480
  H     -3.860190    2.250950   -2.320200
  H     -3.127160    2.510740   -6.420500
  H     -4.312970    4.950460   -5.286130
  H     -5.450730    2.651330   -6.959030
  H     -6.337480    4.139750   -6.362280

 Total Charge           Charge          ....    0
 Multiplicity           Mult            ....    1
 Number of Electrons    NEL             ....  394
 Basis Dimension        Dim             ....  876

ORBITAL ENERGIES
----------------

  NO   OCC          E(Eh)            E(eV)
   0   2.0000     -88.963863     -2420.8298
   1   2.0000     -88.955258     -2420.5956
   2   2.0000     -88.919206     -2419.6146
   3   2.0000     -88.903498     -2419.1872
   4   2.0000     -24.793920      -674.6769
   5   2.0000     -24.790925      -674.5954
   6   2.0000     -24.784472      -674.4198
   7   2.0000     -24.783360      -674.3895
   8   2.0000     -19.196319      -522.3584
   9   2.0000     -19.191870      -522.2373
  10   2.0000     -14.445495      -393.0819
  11   2.0000     -14.435818      -392.8186
  12   2.0000     -14.428626      -392.6229
  13   2.0000     -14.427152      -392.5828
  14   2.0000     -14.423873      -392.4935
  15   2.0000     -14.423850      -392.4929
  16   2.0000     -10.383276      -282.5433
  17   2.0000     -10.376408      -282.3564
  18   2.0000     -10.368775      -282.1487
  19   2.0000     -10.364580      -282.0346
  20   2.0000     -10.358428      -281.8672
  21   2.0000     -10.355014      -281.7743
  22   2.0000     -10.329956      -281.0924
  23   2.0000     -10.329012      -281.0667
  24   2.0000     -10.309369      -280.5322
  25   2.0000     -10.298837      -280.2456
  26   2.0000     -10.298109      -280.2258
  27   2.0000     -10.293426      -280.0984
  28   2.0000     -10.293400      -280.0977
  29   2.0000     -10.288283      -279.9584
  30   2.0000     -10.285574      -279.8847
  31   2.0000     -10.282832      -279.8101
  32   2.0000     -10.280308      -279.7414
  33   2.0000     -10.279775      -279.7269
  34   2.0000     -10.279520      -279.7199
  35   2.0000     -10.273702      -279.5616
  36   2.0000     -10.272103      -279.5181
  37   2.0000     -10.270758      -279.4815
  38   2.0000     -10.270599      -279.4772
  39   2.0000     -10.270166      -279.4654
  40   2.0000     -10.267408      -279.3904
  41   2.0000     -10.265754      -279.3454
  42   2.0000     -10.263633      -279.2877
  43   2.0000     -10.261461      -279.2286
  44   2.0000     -10.258041      -279.1355
  45   2.0000     -10.257291      -279.1151
  46   2.0000     -10.251555      -278.9590
  47   2.0000     -10.250500      -278.9303
  48   2.0000     -10.245309      -278.7890
  49   2.0000     -10.240192      -278.6498
  50   2.0000      -8.061056      -219.3525
  51   2.0000      -8.052420      -219.1175
  52   2.0000      -8.014714      -218.0915
  53   2.0000      -7.999449      -217.6761
  54   2.0000      -6.030258      -164.0917
  55   2.0000      -6.026781      -163.9970
  56   2.0000      -6.022297      -163.8750
  57   2.0000      -6.021633      -163.8570
  58   2.0000      -6.018186      -163.7632
  59   2.0000      -6.013643      -163.6395
  60   2.0000      -5.985374      -162.8703
  61   2.0000      -5.981102      -162.7541
  62   2.0000      -5.974199      -162.5662
  63   2.0000      -5.970068      -162.4538
  64   2.0000      -5.966126      -162.3465
  65   2.0000      -5.958507      -162.1392
  66   2.0000      -1.308713       -35.6119
  67   2.0000      -1.304720       -35.5032
  68   2.0000      -1.298523       -35.3346
  69   2.0000      -1.296626       -35.2830
  70   2.0000      -1.136326       -30.9210
  71   2.0000      -1.129568       -30.7371
  72   2.0000      -1.065058       -28.9817
  73   2.0000      -1.039287       -28.2804
  74   2.0000      -1.032235       -28.0885
  75   2.0000      -1.027976       -27.9727
  76   2.0000      -1.001062       -27.2403
  77   2.0000      -0.987478       -26.8707
  78   2.0000      -0.984290       -26.7839
  79   2.0000      -0.975202       -26.5366
  80   2.0000      -0.941627       -25.6230
  81   2.0000      -0.935907       -25.4673
  82   2.0000      -0.896357       -24.3911
  83   2.0000      -0.885300       -24.0902
  84   2.0000      -0.880257       -23.9530
  85   2.0000      -0.864596       -23.5268
  86   2.0000      -0.854668       -23.2567
  87   2.0000      -0.847031       -23.0489
  88   2.0000      -0.838162       -22.8075
  89   2.0000      -0.832445       -22.6520
  90   2.0000      -0.825814       -22.4715
  91   2.0000      -0.821885       -22.3646
  92   2.0000      -0.818345       -22.2683
  93   2.0000      -0.810555       -22.0563
  94   2.0000      -0.801392       -21.8070
  95   2.0000      -0.780463       -21.2375
  96   2.0000      -0.775512       -21.1028
  97   2.0000      -0.751720       -20.4553
  98   2.0000      -0.717476       -19.5235
  99   2.0000      -0.714788       -19.4504
 100   2.0000      -0.709520       -19.3070
 101   2.0000      -0.701042       -19.0763
 102   2.0000      -0.689077       -18.7507
 103   2.0000      -0.681817       -18.5532
 104   2.0000      -0.679106       -18.4794
 105   2.0000      -0.673836       -18.3360
 106   2.0000      -0.671405       -18.2699
 107   2.0000      -0.669603       -18.2208
 108   2.0000      -0.665872       -18.1193
 109   2.0000      -0.663516       -18.0552
 110   2.0000      -0.660629       -17.9766
 111   2.0000      -0.655799       -17.8452
 112   2.0000      -0.645522       -17.5655
 113   2.0000      -0.643344       -17.5063
 114   2.0000      -0.636707       -17.3257
 115   2.0000      -0.632194       -17.2029
 116   2.0000      -0.619022       -16.8444
 117   2.0000      -0.612180       -16.6583
 118   2.0000      -0.606799       -16.5118
 119   2.0000      -0.602915       -16.4062
 120   2.0000      -0.600672       -16.3451
 121   2.0000      -0.587181       -15.9780
 122   2.0000      -0.585415       -15.9299
 123   2.0000      -0.581345       -15.8192
 124   2.0000      -0.579428       -15.7670
 125   2.0000      -0.576286       -15.6815
 126   2.0000      -0.571174       -15.5424
 127   2.0000      -0.566952       -15.4276
 128   2.0000      -0.563230       -15.3263
 129   2.0000      -0.560500       -15.2520
 130   2.0000      -0.557639       -15.1741
 131   2.0000      -0.552400       -15.0316
 132   2.0000      -0.552108       -15.0236
 133   2.0000      -0.544275       -14.8105
 134   2.0000      -0.543780       -14.7970
 135   2.0000      -0.541953       -14.7473
 136   2.0000      -0.537166       -14.6170
 137   2.0000      -0.533316       -14.5123
 138   2.0000      -0.531170       -14.4539
 139   2.0000      -0.525827       -14.3085
 140   2.0000      -0.517222       -14.0743
 141   2.0000      -0.515722       -14.0335
 142   2.0000      -0.515377       -14.0241
 143   2.0000      -0.509967       -13.8769
 144   2.0000      -0.509476       -13.8635
 145   2.0000      -0.506447       -13.7811
 146   2.0000      -0.500784       -13.6270
 147   2.0000      -0.498724       -13.5710
 148   2.0000      -0.497275       -13.5315
 149   2.0000      -0.489379       -13.3167
 150   2.0000      -0.484334       -13.1794
 151   2.0000      -0.478946       -13.0328
 152   2.0000      -0.478176       -13.0118
 153   2.0000      -0.467554       -12.7228
 154   2.0000      -0.463532       -12.6134
 155   2.0000      -0.462866       -12.5952
 156   2.0000      -0.459832       -12.5127
 157   2.0000      -0.456778       -12.4296
 158   2.0000      -0.454063       -12.3557
 159   2.0000      -0.449453       -12.2302
 160   2.0000      -0.446578       -12.1520
 161   2.0000      -0.444825       -12.1043
 162   2.0000      -0.442973       -12.0539
 163   2.0000      -0.439725       -11.9655
 164   2.0000      -0.439451       -11.9581
 165   2.0000      -0.435096       -11.8396
 166   2.0000      -0.434533       -11.8242
 167   2.0000      -0.431242       -11.7347
 168   2.0000      -0.429078       -11.6758
 169   2.0000      -0.427088       -11.6216
 170   2.0000      -0.425620       -11.5817
 171   2.0000      -0.423121       -11.5137
 172   2.0000      -0.420861       -11.4522
 173   2.0000      -0.417897       -11.3716
 174   2.0000      -0.416819       -11.3422
 175   2.0000      -0.415596       -11.3089
 176   2.0000      -0.405621       -11.0375
 177   2.0000      -0.391317       -10.6483
 178   2.0000      -0.378706       -10.3051
 179   2.0000      -0.371426       -10.1070
 180   2.0000      -0.365589        -9.9482
 181   2.0000      -0.360636        -9.8134
 182   2.0000      -0.356989        -9.7142
 183   2.0000      -0.350729        -9.5438
 184   2.0000      -0.348826        -9.4920
 185   2.0000      -0.342577        -9.3220
 186   2.0000      -0.332654        -9.0520
 187   2.0000      -0.319976        -8.7070
 188   2.0000      -0.297533        -8.0963
 189   2.0000      -0.295470        -8.0401
 190   2.0000      -0.282145        -7.6776
 191   2.0000      -0.277988        -7.5644
 192   2.0000      -0.271865        -7.3978
 193   2.0000      -0.266306        -7.2465
 194   2.0000      -0.265186        -7.2161
 195   2.0000      -0.242995        -6.6122
 196   2.0000      -0.204118        -5.5543
 197   0.0000      -0.014842        -0.4039
 198   0.0000       0.010675         0.2905
 199   0.0000       0.025318         0.6889
 200   0.0000       0.029036         0.7901
 201   0.0000       0.046602         1.2681

MULLIKEN ATOMIC CHARGES
-----------------------
   0 C :    0.028076
   1 S :   -0.132508
   2 C :    0.054837
   3 C :   -0.229777
   4 C :    0.024241
   5 C :    0.141751
   6 O :   -0.258330
   7 N :   -0.054891
   8 N :   -0.128184
   9 C :    0.049122
  10 C :   -0.038642
  11 C :    0.068910
  12 C :    0.039199
  13 F :   -0.176427
  14 S :    0.079506
  15 C :    0.056021
  16 F :   -0.169303
  17 C :    0.057550
  18 C :   -0.048448
  19 C :    0.000148
  20 C :    0.076261
  21 N :   -0.033046
  22 C :    0.113007
  23 C :   -0.177086
  24 C :    0.050549
  25 N :   -0.038136
  26 C :    0.105545
  27 C :   -0.181046
  28 C :    0.047658
  29 C :   -0.066132
  30 C :    0.072817
  31 C :    0.048331
  32 F :   -0.170028
  33 S :    0.085193
  34 C :    0.059406
  35 F :   -0.165716
  36 C :    0.052179
  37 C :    0.000864
  38 C :   -0.003152
  39 C :   -0.093753
  40 S :   -0.070801
  41 C :    0.078221
  42 C :   -0.233524
  43 C :    0.115473
  44 C :    0.111246
  45 O :   -0.255516
  46 N :   -0.045466
  47 N :   -0.131850
  48 C :    0.007210
  49 C :   -0.067772
  50 H :    0.056457
  51 H :    0.044864
  52 H :    0.058340
  53 H :    0.034404
  54 H :    0.039768
  55 H :    0.048333
  56 H :    0.123759
  57 H :    0.135376
  58 H :    0.104407
  59 H :    0.024275
  60 H :   -0.030432
  61 H :   -0.009387
  62 H :    0.005988
  63 H :    0.127263
  64 H :   -0.041398
  65 H :    0.119310
  66 H :   -0.046913
  67 H :    0.003161
  68 H :   -0.033782
  69 H :    0.002037
  70 H :    0.023865
  71 H :    0.055747
  72 H :    0.062482
  73 H :    0.028585
  74 H :    0.032530
  75 H :    0.008824
  76 H :    0.110744
  77 H :    0.111868
  78 H :    0.112946
  79 H :    0.012882
  80 H :    0.002809
  81 H :    0.017108
Sum of atomic charges:   -0.0000000

LOEWDIN ATOMIC CHARGES
----------------------
   0 C :   -0.113505
   1 S :    0.242683
   2 C :   -0.132820
   3 C :   -0.027582
   4 C :   -0.036635
   5 C :    0.081790
   6 O :   -0.217003
   7 N :    0.013255
   8 N :   -0.021967
   9 C :    0.030642
  10 C :   -0.102697
  11 C :   -0.080252
  12 C :   -0.098270
  13 F :   -0.066674
  14 S :    0.395647
  15 C :   -0.087929
  16 F :   -0.061287
  17 C :   -0.089738
  18 C :   -0.043333
  19 C :   -0.024490
  20 C :   -0.010400
  21 N :    0.079935
  22 C :   -0.035846
  23 C :   -0.089811
  24 C :   -0.017252
  25 N :    0.061667
  26 C :   -0.021336
  27 C :   -0.107816
  28 C :   -0.011827
  29 C :   -0.070360
  30 C :   -0.083723
  31 C :   -0.091300
  32 F :   -0.061506
  33 S :    0.402396
  34 C :   -0.083472
  35 F :   -0.057661
  36 C :   -0.090643
  37 C :   -0.025715
  38 C :   -0.030583
  39 C :   -0.111614
  40 S :    0.213031
  41 C :   -0.118223
  42 C :   -0.037299
  43 C :   -0.028866
  44 C :    0.063085
  45 O :   -0.228059
  46 N :    0.008185
  47 N :   -0.026602
  48 C :    0.003968
  49 C :   -0.136690
  50 H :    0.023254
  51 H :    0.025108
  52 H :    0.014207
  53 H :    0.016702
  54 H :    0.036721
  55 H :    0.034413
  56 H :    0.078016
  57 H :    0.085596
  58 H :    0.068095
  59 H :    0.026811
  60 H :    0.022151
  61 H :    0.026551
  62 H :    0.033298
  63 H :    0.072554
  64 H :    0.022401
  65 H :    0.084268
  66 H :    0.019113
  67 H :    0.036111
  68 H :    0.017479
  69 H :    0.030725
  70 H :    0.028534
  71 H :    0.027860
  72 H :    0.024970
  73 H :    0.020044
  74 H :    0.039670
  75 H :    0.021304
  76 H :    0.071784
  77 H :    0.036372
  78 H :    0.074624
  79 H :    0.023237
  80 H :    0.017575
  81 H :    0.024952

  Mayer bond orders larger than 0.100000
B(  0-C ,  1-S ) :   0.9778 B(  0-C ,  4-C ) :   1.0624 B(  0-C , 50-H ) :   0.9407
B(  0-C , 51-H ) :   0.9502 B(  1-S ,  2-C ) :   0.9929 B(  1-S , 77-H ) :   0.1288
B(  2-C ,  3-C ) :   1.0120 B(  2-C , 52-H ) :   0.9232 B(  2-C , 53-H ) :   0.9248
B(  3-C ,  4-C ) :   1.0407 B(  3-C ,  5-C ) :   0.8805 B(  3-C ,  8-N ) :   0.9769
B(  4-C , 54-H ) :   0.9274 B(  4-C , 55-H ) :   0.9183 B(  5-C ,  6-O ) :   1.9978
B(  5-C ,  7-N ) :   1.3020 B(  7-N , 56-H ) :   0.9415 B(  7-N , 57-H ) :   0.9356
B(  8-N ,  9-C ) :   1.1471 B(  8-N , 58-H ) :   0.9367 B(  9-C , 10-C ) :   1.7279
B(  9-C , 59-H ) :   0.9560 B( 10-C , 11-C ) :   1.0845 B( 10-C , 60-H ) :   0.9578
B( 11-C , 12-C ) :   1.4948 B( 11-C , 17-C ) :   1.1471 B( 12-C , 13-F ) :   1.1113
B( 12-C , 14-S ) :   1.0922 B( 14-S , 15-C ) :   1.1018 B( 15-C , 16-F ) :   1.1237
B( 15-C , 17-C ) :   1.4969 B( 17-C , 18-C ) :   1.0444 B( 18-C , 19-C ) :   1.7218
B( 18-C , 61-H ) :   0.9720 B( 19-C , 20-C ) :   1.1025 B( 19-C , 62-H ) :   0.9608
B( 20-C , 21-N ) :   1.1993 B( 20-C , 27-C ) :   1.4126 B( 21-N , 22-C ) :   1.1772
B( 21-N , 63-H ) :   0.9038 B( 22-C , 23-C ) :   1.2167 B( 22-C , 26-C ) :   1.3224
B( 23-C , 24-C ) :   1.3714 B( 23-C , 64-H ) :   1.0455 B( 24-C , 25-N ) :   1.1926
B( 24-C , 28-C ) :   1.1647 B( 25-N , 26-C ) :   1.1588 B( 25-N , 65-H ) :   0.9338
B( 26-C , 27-C ) :   1.2503 B( 27-C , 66-H ) :   1.0327 B( 28-C , 29-C ) :   1.6685
B( 28-C , 67-H ) :   0.9463 B( 29-C , 30-C ) :   1.0720 B( 29-C , 68-H ) :   0.9668
B( 30-C , 31-C ) :   1.4871 B( 30-C , 36-C ) :   1.1607 B( 31-C , 32-F ) :   1.1222
B( 31-C , 33-S ) :   1.0960 B( 33-S , 34-C ) :   1.1059 B( 34-C , 35-F ) :   1.1306
B( 34-C , 36-C ) :   1.5008 B( 36-C , 37-C ) :   1.0365 B( 37-C , 38-C ) :   1.8609
B( 37-C , 69-H ) :   0.9704 B( 38-C , 39-C ) :   0.9935 B( 38-C , 70-H ) :   0.9652
B( 39-C , 40-S ) :   1.0006 B( 39-C , 43-C ) :   1.0235 B( 39-C , 71-H ) :   0.9167
B( 40-S , 41-C ) :   1.0026 B( 41-C , 42-C ) :   1.0269 B( 41-C , 72-H ) :   0.9288
B( 41-C , 73-H ) :   0.9336 B( 42-C , 43-C ) :   1.0289 B( 42-C , 44-C ) :   0.8630
B( 42-C , 47-N ) :   0.9670 B( 43-C , 74-H ) :   0.9319 B( 43-C , 75-H ) :   0.9165
B( 44-C , 45-O ) :   1.9873 B( 44-C , 46-N ) :   1.3531 B( 46-N , 76-H ) :   0.9308
B( 46-N , 77-H ) :   0.8886 B( 47-N , 48-C ) :   1.1392 B( 47-N , 78-H ) :   0.9390
B( 48-C , 49-C ) :   1.8982 B( 48-C , 79-H ) :   0.9511 B( 49-C , 80-H ) :   0.9589
B( 49-C , 81-H ) :   0.9518

-----------------------------------------------------------------------------
         ABSORPTION SPECTRUM VIA TRANSITION ELECTRIC DIPOLE MOMENTS
-----------------------------------------------------------------------------
State   Energy  Wavelength   fosc         T2         TX        TY        TZ
        (cm-1)    (nm)                  (au**2)     (au)      (au)      (au)
-----------------------------------------------------------------------------
   0   25944.9    385.4   1.732404625  21.98226   0.21545  -3.17562   3.44257
   1   30379.8    329.2   0.053989981   0.58506  -0.17924  -0.56281   0.48599
   2   32452.5    308.1   0.018276335   0.18540  -0.25738   0.15987  -0.30594
   3   33594.4    297.7   0.030430752   0.29821   0.28299  -0.45184   0.11820
   4   34971.9    285.9   0.058604093   0.55168  -0.15625  -0.10027  -0.71917
   5   35946.7    278.2   0.088260907   0.80832   0.03194   0.48079   0.75904
   6   39758.7    251.5   0.035516869   0.29409   0.22394   0.48746  -0.07951

FINAL SINGLE POINT ENERGY     -3782.764154222617

DIPOLE MOMENT
-------------
                                X             Y             Z
Electronic contribution:     39.80079      27.58541      26.67727
Nuclear contribution   :    -42.05648     -28.83173     -27.65521
                        -----------------------------------------
Total Dipole Moment    :     -2.25568      -1.24631      -0.97794
                        -----------------------------------------
Magnitude (a.u.)       :      2.75640
Magnitude (Debye)      :      7.00622

Rotational constants in cm-1:     0.002351     0.000857     0.000670
Rotational constants in MHz :    70.470175    25.691750    20.092067

                             ****ORCA TERMINATED NORMALLY****
TOTAL RUN TIME: 0 days 0 hours 5 minutes 59 seconds 290 msec
