                         Program Version 4.2.0 -  RELEASE  -
|  1> # ORCA input file
|  2> # SCF done       -160.004662217372          0.000895707831
|  3> ! CAM-B3LYP def2-SVP def2/J RIJCOSX Grid4 TightSCF
|  4> %maxcore 5000
|  5> %tddft
|  6>     Mode sTDDFT
|  7>     Ethresh 5.0
|  8>     maxcore 5000
|  9> end
| 10>
| 11> %pal
| 12>   nprocs 6
| 13>   end
| 14> * xyz 0 1
| 15>    C        5.36557        -1.53671        -7.92713
| 16>    C        4.71320        -1.30726        -6.74749
| 17>    C        4.71953         0.00278        -6.02421
| 18>    C        5.76899        -0.00156        -4.91128
| 19>    C        4.07631        -2.46600        -6.26667
| 20>    C        4.24140        -3.56890        -7.07669
| 21>    S        5.21234        -3.15418        -8.46862
| 22>    C        3.76295        -4.89733        -6.93313
| 23>    C        2.99680        -5.34318        -5.90313
| 24>    C        2.53157        -6.67025        -5.75598
| 25>    C        1.76045        -7.13870        -4.70943
| 26>    C        1.50460        -8.52019        -4.89527
| 27>    C        2.17841        -8.86603        -6.15033
| 28>    C        2.78594        -7.78845        -6.66859
| 29>    F        2.16836       -10.09798        -6.68100
| 30>    C        0.79507        -9.38386        -4.08228
| 31>    C        0.57059       -10.77105        -4.25259
| 32>    C       -0.16839       -11.25328        -3.18148
| 33>    C       -0.44660       -10.12977        -2.28546
| 34>    C        0.12363        -9.04217        -2.82668
| 35>    F        0.09867        -7.80385        -2.31403
| 36>    C       -0.55009       -12.59306        -2.99861
| 37>    C       -1.22285       -13.06892        -1.90478
| 38>    C       -1.58969       -14.39885        -1.66239
| 39>    S       -2.31215       -14.78191        -0.11638
| 40>    C       -2.43600       -16.49007        -0.46188
| 41>    C       -1.94683       -16.72188        -1.74399
| 42>    C       -1.47541       -15.57211        -2.43107
| 43>    C       -1.02078       -15.89353        -3.72861
| 44>    C       -1.13631       -17.22609        -4.00431
| 45>    C       -0.77926       -17.93298        -5.23345
| 46>    O       -0.91657       -19.11989        -5.40109
| 47>    O       -0.27781       -17.09780        -6.15875
| 48>    C        0.09411       -17.70070        -7.38951
| 49>    S       -1.80711       -18.16060        -2.69437
| 50>    C       -2.94924       -17.38663         0.48958
| 51>    C       -3.42856       -17.06454         1.74902
| 52>    C       -3.82510       -18.25109         2.40960
| 53>    C       -3.55638       -19.32864         1.45595
| 54>    C       -3.04516       -18.83399         0.31636
| 55>    F       -3.80437       -20.61942         1.70982
| 56>    C       -4.34856       -18.39211         3.68205
| 57>    C       -4.69829       -19.57885         4.36857
| 58>    C       -5.17705       -19.25724         5.62650
| 59>    C       -5.14639       -17.79806         5.76348
| 60>    C       -4.65290       -17.30520         4.61805
| 61>    F       -4.46279       -16.00830         4.33590
| 62>    C       -5.60371       -20.17930         6.60412
| 63>    C       -6.08875       -19.85006         7.83325
| 64>    C       -6.49820       -20.78366         8.81087
| 65>    C       -6.99941       -20.51930        10.08311
| 66>    C       -7.16758       -19.14609        10.65388
| 67>    C       -5.84633       -18.62227        11.22240
| 68>    C       -7.29188       -21.68464        10.79690
| 69>    C       -7.03739       -22.85048        10.10709
| 70>    S       -6.41353       -22.50338         8.52699
| 71>    C       -7.21542       -24.21671        10.51016
| 72>    C       -7.68988       -24.61479        11.69012
| 73>    H        5.92848        -0.83650        -8.51258
| 74>    H        3.73313         0.18162        -5.59137
| 75>    H        4.93722         0.80860        -6.72744
| 76>    H        5.56803        -0.80112        -4.20189
| 77>    H        5.75971         0.94606        -4.37837
| 78>    H        6.76155        -0.15559        -5.32869
| 79>    H        3.51023        -2.48663        -5.35319
| 80>    H        4.04891        -5.58336        -7.71772
| 81>    H        2.70851        -4.65528        -5.11977
| 82>    H        1.41246        -6.55413        -3.88057
| 83>    H        3.35267        -7.74465        -7.57726
| 84>    H        0.92892       -11.35798        -5.07545
| 85>    H       -1.00556       -10.17396        -1.37202
| 86>    H       -0.25434       -13.27633        -3.78030
| 87>    H       -1.48484       -12.37431        -1.11859
| 88>    H       -0.63342       -15.19962        -4.44976
| 89>    H        0.48493       -16.90019        -8.01202
| 90>    H       -0.77374       -18.16651        -7.86098
| 91>    H        0.85510       -18.46579        -7.22250
| 92>    H       -3.48099       -16.07477         2.15898
| 93>    H       -2.75381       -19.37866        -0.55940
| 94>    H       -4.59968       -20.57137         3.97518
| 95>    H       -5.45758       -17.23726         6.62240
| 96>    H       -5.52892       -21.22743         6.34024
| 97>    H       -6.17597       -18.80865         8.10684
| 98>    H       -7.91202       -19.18331        11.45135
| 99>    H       -7.53216       -18.46138         9.88575
|100>    H       -5.48600       -19.28168        12.00867
|101>    H       -5.98430       -17.62786        11.64012
|102>    H       -5.08718       -18.57202        10.44518
|103>    H       -7.68536       -21.67309        11.79765
|104>    H       -6.92819       -24.95259         9.77020
|105>    H       -7.98416       -23.91811        12.45613
|106>    H       -7.79347       -25.65894        11.92556
|107> *
|108>
|109>                          ****END OF INPUT****

CARTESIAN COORDINATES (ANGSTROEM)
---------------------------------
  C      5.365570   -1.536710   -7.927130
  C      4.713200   -1.307260   -6.747490
  C      4.719530    0.002780   -6.024210
  C      5.768990   -0.001560   -4.911280
  C      4.076310   -2.466000   -6.266670
  C      4.241400   -3.568900   -7.076690
  S      5.212340   -3.154180   -8.468620
  C      3.762950   -4.897330   -6.933130
  C      2.996800   -5.343180   -5.903130
  C      2.531570   -6.670250   -5.755980
  C      1.760450   -7.138700   -4.709430
  C      1.504600   -8.520190   -4.895270
  C      2.178410   -8.866030   -6.150330
  C      2.785940   -7.788450   -6.668590
  F      2.168360  -10.097980   -6.681000
  C      0.795070   -9.383860   -4.082280
  C      0.570590  -10.771050   -4.252590
  C     -0.168390  -11.253280   -3.181480
  C     -0.446600  -10.129770   -2.285460
  C      0.123630   -9.042170   -2.826680
  F      0.098670   -7.803850   -2.314030
  C     -0.550090  -12.593060   -2.998610
  C     -1.222850  -13.068920   -1.904780
  C     -1.589690  -14.398850   -1.662390
  S     -2.312150  -14.781910   -0.116380
  C     -2.436000  -16.490070   -0.461880
  C     -1.946830  -16.721880   -1.743990
  C     -1.475410  -15.572110   -2.431070
  C     -1.020780  -15.893530   -3.728610
  C     -1.136310  -17.226090   -4.004310
  C     -0.779260  -17.932980   -5.233450
  O     -0.916570  -19.119890   -5.401090
  O     -0.277810  -17.097800   -6.158750
  C      0.094110  -17.700700   -7.389510
  S     -1.807110  -18.160600   -2.694370
  C     -2.949240  -17.386630    0.489580
  C     -3.428560  -17.064540    1.749020
  C     -3.825100  -18.251090    2.409600
  C     -3.556380  -19.328640    1.455950
  C     -3.045160  -18.833990    0.316360
  F     -3.804370  -20.619420    1.709820
  C     -4.348560  -18.392110    3.682050
  C     -4.698290  -19.578850    4.368570
  C     -5.177050  -19.257240    5.626500
  C     -5.146390  -17.798060    5.763480
  C     -4.652900  -17.305200    4.618050
  F     -4.462790  -16.008300    4.335900
  C     -5.603710  -20.179300    6.604120
  C     -6.088750  -19.850060    7.833250
  C     -6.498200  -20.783660    8.810870
  C     -6.999410  -20.519300   10.083110
  C     -7.167580  -19.146090   10.653880
  C     -5.846330  -18.622270   11.222400
  C     -7.291880  -21.684640   10.796900
  C     -7.037390  -22.850480   10.107090
  S     -6.413530  -22.503380    8.526990
  C     -7.215420  -24.216710   10.510160
  C     -7.689880  -24.614790   11.690120
  H      5.928480   -0.836500   -8.512580
  H      3.733130    0.181620   -5.591370
  H      4.937220    0.808600   -6.727440
  H      5.568030   -0.801120   -4.201890
  H      5.759710    0.946060   -4.378370
  H      6.761550   -0.155590   -5.328690
  H      3.510230   -2.486630   -5.353190
  H      4.048910   -5.583360   -7.717720
  H      2.708510   -4.655280   -5.119770
  H      1.412460   -6.554130   -3.880570
  H      3.352670   -7.744650   -7.577260
  H      0.928920  -11.357980   -5.075450
  H     -1.005560  -10.173960   -1.372020
  H     -0.254340  -13.276330   -3.780300
  H     -1.484840  -12.374310   -1.118590
  H     -0.633420  -15.199620   -4.449760
  H      0.484930  -16.900190   -8.012020
  H     -0.773740  -18.166510   -7.860980
  H      0.855100  -18.465790   -7.222500
  H     -3.480990  -16.074770    2.158980
  H     -2.753810  -19.378660   -0.559400
  H     -4.599680  -20.571370    3.975180
  H     -5.457580  -17.237260    6.622400
  H     -5.528920  -21.227430    6.340240
  H     -6.175970  -18.808650    8.106840
  H     -7.912020  -19.183310   11.451350
  H     -7.532160  -18.461380    9.885750
  H     -5.486000  -19.281680   12.008670
  H     -5.984300  -17.627860   11.640120
  H     -5.087180  -18.572020   10.445180
  H     -7.685360  -21.673090   11.797650
  H     -6.928190  -24.952590    9.770200
  H     -7.984160  -23.918110   12.456130
  H     -7.793470  -25.658940   11.925560

 Total Charge           Charge          ....    0
 Multiplicity           Mult            ....    1
 Number of Electrons    NEL             ....  438
 Basis Dimension        Dim             ....  998

ORBITAL ENERGIES
----------------

  NO   OCC          E(Eh)            E(eV)
   0   2.0000     -88.963830     -2420.8289
   1   2.0000     -88.957862     -2420.6665
   2   2.0000     -88.950174     -2420.4573
   3   2.0000     -88.949646     -2420.4429
   4   2.0000     -24.783353      -674.3893
   5   2.0000     -24.782812      -674.3746
   6   2.0000     -24.781514      -674.3393
   7   2.0000     -24.780035      -674.2990
   8   2.0000     -19.259739      -524.0841
   9   2.0000     -19.203878      -522.5641
  10   2.0000     -10.403296      -283.0881
  11   2.0000     -10.348738      -281.6035
  12   2.0000     -10.348649      -281.6010
  13   2.0000     -10.346980      -281.5556
  14   2.0000     -10.346402      -281.5399
  15   2.0000     -10.321146      -280.8527
  16   2.0000     -10.315850      -280.7086
  17   2.0000     -10.311852      -280.5998
  18   2.0000     -10.308533      -280.5094
  19   2.0000     -10.308219      -280.5009
  20   2.0000     -10.299412      -280.2613
  21   2.0000     -10.296749      -280.1888
  22   2.0000     -10.295982      -280.1679
  23   2.0000     -10.294290      -280.1219
  24   2.0000     -10.293771      -280.1078
  25   2.0000     -10.293427      -280.0984
  26   2.0000     -10.292354      -280.0692
  27   2.0000     -10.291176      -280.0371
  28   2.0000     -10.290830      -280.0277
  29   2.0000     -10.290622      -280.0221
  30   2.0000     -10.287444      -279.9356
  31   2.0000     -10.286916      -279.9212
  32   2.0000     -10.286166      -279.9008
  33   2.0000     -10.285529      -279.8835
  34   2.0000     -10.283627      -279.8317
  35   2.0000     -10.282611      -279.8041
  36   2.0000     -10.282530      -279.8019
  37   2.0000     -10.281041      -279.7613
  38   2.0000     -10.280385      -279.7435
  39   2.0000     -10.278154      -279.6828
  40   2.0000     -10.276145      -279.6281
  41   2.0000     -10.273851      -279.5657
  42   2.0000     -10.272616      -279.5321
  43   2.0000     -10.272538      -279.5300
  44   2.0000     -10.268536      -279.4211
  45   2.0000     -10.268234      -279.4128
  46   2.0000     -10.267920      -279.4043
  47   2.0000     -10.267682      -279.3978
  48   2.0000     -10.266578      -279.3678
  49   2.0000     -10.266423      -279.3636
  50   2.0000     -10.265007      -279.3250
  51   2.0000     -10.264692      -279.3165
  52   2.0000     -10.259050      -279.1629
  53   2.0000     -10.257739      -279.1273
  54   2.0000     -10.255873      -279.0765
  55   2.0000     -10.253604      -279.0147
  56   2.0000     -10.253599      -279.0146
  57   2.0000     -10.250470      -278.9295
  58   2.0000      -8.058815      -219.2915
  59   2.0000      -8.052850      -219.1292
  60   2.0000      -8.046275      -218.9503
  61   2.0000      -8.045351      -218.9251
  62   2.0000      -6.028086      -164.0326
  63   2.0000      -6.023971      -163.9206
  64   2.0000      -6.022598      -163.8832
  65   2.0000      -6.021008      -163.8400
  66   2.0000      -6.018292      -163.7660
  67   2.0000      -6.015449      -163.6887
  68   2.0000      -6.014436      -163.6611
  69   2.0000      -6.014163      -163.6537
  70   2.0000      -6.011277      -163.5752
  71   2.0000      -6.010560      -163.5557
  72   2.0000      -6.008638      -163.5033
  73   2.0000      -6.007624      -163.4758
  74   2.0000      -1.294729       -35.2314
  75   2.0000      -1.294498       -35.2251
  76   2.0000      -1.293139       -35.1881
  77   2.0000      -1.292342       -35.1664
  78   2.0000      -1.190610       -32.3981
  79   2.0000      -1.097468       -29.8636
  80   2.0000      -1.011670       -27.5289
  81   2.0000      -0.983089       -26.7512
  82   2.0000      -0.981362       -26.7042
  83   2.0000      -0.978217       -26.6186
  84   2.0000      -0.978038       -26.6138
  85   2.0000      -0.962926       -26.2026
  86   2.0000      -0.961993       -26.1772
  87   2.0000      -0.949125       -25.8270
  88   2.0000      -0.904891       -24.6233
  89   2.0000      -0.901342       -24.5268
  90   2.0000      -0.895885       -24.3783
  91   2.0000      -0.883821       -24.0500
  92   2.0000      -0.871966       -23.7274
  93   2.0000      -0.864675       -23.5290
  94   2.0000      -0.859451       -23.3868
  95   2.0000      -0.849428       -23.1141
  96   2.0000      -0.839951       -22.8562
  97   2.0000      -0.836018       -22.7492
  98   2.0000      -0.819193       -22.2914
  99   2.0000      -0.814339       -22.1593
 100   2.0000      -0.811648       -22.0861
 101   2.0000      -0.805638       -21.9225
 102   2.0000      -0.803371       -21.8608
 103   2.0000      -0.801610       -21.8129
 104   2.0000      -0.794953       -21.6318
 105   2.0000      -0.783459       -21.3190
 106   2.0000      -0.781217       -21.2580
 107   2.0000      -0.762984       -20.7618
 108   2.0000      -0.753683       -20.5088
 109   2.0000      -0.734794       -19.9948
 110   2.0000      -0.716816       -19.5055
 111   2.0000      -0.711944       -19.3730
 112   2.0000      -0.711244       -19.3539
 113   2.0000      -0.709311       -19.3013
 114   2.0000      -0.702120       -19.1057
 115   2.0000      -0.690416       -18.7872
 116   2.0000      -0.674833       -18.3631
 117   2.0000      -0.670392       -18.2423
 118   2.0000      -0.664264       -18.0755
 119   2.0000      -0.662978       -18.0405
 120   2.0000      -0.654129       -17.7998
 121   2.0000      -0.651412       -17.7258
 122   2.0000      -0.638986       -17.3877
 123   2.0000      -0.636980       -17.3331
 124   2.0000      -0.635104       -17.2821
 125   2.0000      -0.633291       -17.2327
 126   2.0000      -0.628181       -17.0937
 127   2.0000      -0.624164       -16.9844
 128   2.0000      -0.615704       -16.7542
 129   2.0000      -0.614794       -16.7294
 130   2.0000      -0.611956       -16.6522
 131   2.0000      -0.604677       -16.4541
 132   2.0000      -0.600942       -16.3525
 133   2.0000      -0.591586       -16.0979
 134   2.0000      -0.581601       -15.8262
 135   2.0000      -0.576365       -15.6837
 136   2.0000      -0.570303       -15.5187
 137   2.0000      -0.569654       -15.5011
 138   2.0000      -0.565700       -15.3935
 139   2.0000      -0.560448       -15.2506
 140   2.0000      -0.553469       -15.0607
 141   2.0000      -0.551366       -15.0034
 142   2.0000      -0.551001       -14.9935
 143   2.0000      -0.547967       -14.9110
 144   2.0000      -0.546581       -14.8732
 145   2.0000      -0.544439       -14.8149
 146   2.0000      -0.543064       -14.7775
 147   2.0000      -0.542426       -14.7602
 148   2.0000      -0.537262       -14.6196
 149   2.0000      -0.535320       -14.5668
 150   2.0000      -0.532219       -14.4824
 151   2.0000      -0.529521       -14.4090
 152   2.0000      -0.526858       -14.3365
 153   2.0000      -0.523753       -14.2520
 154   2.0000      -0.520984       -14.1767
 155   2.0000      -0.518741       -14.1157
 156   2.0000      -0.513508       -13.9733
 157   2.0000      -0.512469       -13.9450
 158   2.0000      -0.510764       -13.8986
 159   2.0000      -0.505909       -13.7665
 160   2.0000      -0.499248       -13.5852
 161   2.0000      -0.495353       -13.4793
 162   2.0000      -0.491896       -13.3852
 163   2.0000      -0.487886       -13.2761
 164   2.0000      -0.485218       -13.2034
 165   2.0000      -0.482842       -13.1388
 166   2.0000      -0.481993       -13.1157
 167   2.0000      -0.480116       -13.0646
 168   2.0000      -0.474890       -12.9224
 169   2.0000      -0.471100       -12.8193
 170   2.0000      -0.468696       -12.7539
 171   2.0000      -0.466139       -12.6843
 172   2.0000      -0.464799       -12.6478
 173   2.0000      -0.462848       -12.5947
 174   2.0000      -0.462340       -12.5809
 175   2.0000      -0.461116       -12.5476
 176   2.0000      -0.456498       -12.4219
 177   2.0000      -0.454202       -12.3595
 178   2.0000      -0.450537       -12.2597
 179   2.0000      -0.448778       -12.2119
 180   2.0000      -0.446599       -12.1526
 181   2.0000      -0.443192       -12.0599
 182   2.0000      -0.442147       -12.0314
 183   2.0000      -0.441096       -12.0028
 184   2.0000      -0.439240       -11.9523
 185   2.0000      -0.437443       -11.9034
 186   2.0000      -0.436000       -11.8642
 187   2.0000      -0.435067       -11.8388
 188   2.0000      -0.429770       -11.6946
 189   2.0000      -0.426610       -11.6086
 190   2.0000      -0.423888       -11.5346
 191   2.0000      -0.421516       -11.4700
 192   2.0000      -0.420865       -11.4523
 193   2.0000      -0.416190       -11.3251
 194   2.0000      -0.415233       -11.2991
 195   2.0000      -0.414291       -11.2734
 196   2.0000      -0.408747       -11.1226
 197   2.0000      -0.404285       -11.0012
 198   2.0000      -0.403748       -10.9865
 199   2.0000      -0.402714       -10.9584
 200   2.0000      -0.398581       -10.8459
 201   2.0000      -0.390441       -10.6244
 202   2.0000      -0.378892       -10.3102
 203   2.0000      -0.377576       -10.2744
 204   2.0000      -0.357654        -9.7323
 205   2.0000      -0.354505        -9.6466
 206   2.0000      -0.345544        -9.4027
 207   2.0000      -0.317788        -8.6474
 208   2.0000      -0.314711        -8.5637
 209   2.0000      -0.313264        -8.5243
 210   2.0000      -0.310239        -8.4420
 211   2.0000      -0.308231        -8.3874
 212   2.0000      -0.296876        -8.0784
 213   2.0000      -0.294323        -8.0089
 214   2.0000      -0.287658        -7.8276
 215   2.0000      -0.275470        -7.4959
 216   2.0000      -0.252973        -6.8837
 217   2.0000      -0.238953        -6.5022
 218   2.0000      -0.212878        -5.7927
 219   0.0000      -0.109603        -2.9825
 220   0.0000      -0.085990        -2.3399
 221   0.0000      -0.043361        -1.1799
 222   0.0000      -0.023661        -0.6438
 223   0.0000      -0.008331        -0.2267

MULLIKEN ATOMIC CHARGES
-----------------------
   0 C :   -0.120442
   1 C :   -0.025508
   2 C :    0.089580
   3 C :    0.018134
   4 C :   -0.004036
   5 C :   -0.103331
   6 S :    0.114211
   7 C :    0.077928
   8 C :   -0.007516
   9 C :    0.116967
  10 C :   -0.100205
  11 C :    0.020282
  12 C :    0.252612
  13 C :   -0.083993
  14 F :   -0.181042
  15 C :    0.017040
  16 C :   -0.093465
  17 C :    0.106991
  18 C :   -0.084444
  19 C :    0.251810
  20 F :   -0.179784
  21 C :   -0.000767
  22 C :    0.056259
  23 C :   -0.097362
  24 S :    0.157496
  25 C :   -0.121321
  26 C :   -0.044874
  27 C :    0.126164
  28 C :   -0.003121
  29 C :   -0.138120
  30 C :    0.206134
  31 O :   -0.199416
  32 O :   -0.305946
  33 C :    0.189343
  34 S :    0.160682
  35 C :    0.091549
  36 C :   -0.127858
  37 C :    0.027122
  38 C :    0.247125
  39 C :   -0.089292
  40 F :   -0.176525
  41 C :    0.014042
  42 C :   -0.103242
  43 C :    0.124077
  44 C :   -0.084114
  45 C :    0.251760
  46 F :   -0.179764
  47 C :   -0.019599
  48 C :    0.008180
  49 C :   -0.094969
  50 C :   -0.032969
  51 C :    0.067548
  52 C :    0.022612
  53 C :   -0.017604
  54 C :   -0.071386
  55 S :    0.114267
  56 C :    0.047097
  57 C :   -0.019085
  58 H :    0.014789
  59 H :    0.005716
  60 H :    0.000362
  61 H :    0.011945
  62 H :    0.015774
  63 H :    0.011673
  64 H :   -0.021854
  65 H :   -0.020153
  66 H :   -0.021934
  67 H :   -0.020642
  68 H :   -0.019634
  69 H :   -0.018306
  70 H :   -0.018532
  71 H :   -0.037961
  72 H :   -0.021861
  73 H :    0.002879
  74 H :    0.035321
  75 H :    0.034465
  76 H :    0.035868
  77 H :   -0.014904
  78 H :   -0.013998
  79 H :   -0.019864
  80 H :   -0.023875
  81 H :   -0.012707
  82 H :   -0.015570
  83 H :    0.002968
  84 H :    0.013400
  85 H :    0.013721
  86 H :    0.017208
  87 H :    0.015280
  88 H :   -0.032702
  89 H :   -0.008516
  90 H :    0.017373
  91 H :    0.028365
Sum of atomic charges:   -0.0000000

LOEWDIN ATOMIC CHARGES
----------------------
   0 C :   -0.193939
   1 C :   -0.057366
   2 C :   -0.026647
   3 C :   -0.049071
   4 C :   -0.051421
   5 C :   -0.173671
   6 S :    0.432235
   7 C :   -0.022993
   8 C :   -0.019606
   9 C :    0.003812
  10 C :   -0.067770
  11 C :    0.000158
  12 C :    0.083005
  13 C :   -0.061295
  14 F :   -0.056654
  15 C :   -0.009703
  16 C :   -0.056051
  17 C :   -0.005655
  18 C :   -0.063510
  19 C :    0.083957
  20 F :   -0.055433
  21 C :   -0.010419
  22 C :   -0.038608
  23 C :   -0.154196
  24 S :    0.468576
  25 C :   -0.181286
  26 C :   -0.175894
  27 C :   -0.074917
  28 C :   -0.016093
  29 C :   -0.199802
  30 C :    0.064932
  31 O :   -0.175895
  32 O :   -0.095569
  33 C :    0.082458
  34 S :    0.448451
  35 C :   -0.025058
  36 C :   -0.074336
  37 C :   -0.010020
  38 C :    0.085309
  39 C :   -0.068888
  40 F :   -0.052154
  41 C :    0.000470
  42 C :   -0.068877
  43 C :    0.003954
  44 C :   -0.063558
  45 C :    0.084085
  46 F :   -0.055447
  47 C :   -0.030741
  48 C :   -0.021655
  49 C :   -0.181874
  50 C :   -0.037825
  51 C :   -0.029201
  52 C :   -0.048383
  53 C :   -0.058934
  54 C :   -0.162217
  55 S :    0.436300
  56 C :   -0.041259
  57 C :   -0.035840
  58 H :    0.020644
  59 H :    0.028747
  60 H :    0.027927
  61 H :    0.023213
  62 H :    0.023290
  63 H :    0.024270
  64 H :    0.026015
  65 H :    0.027081
  66 H :    0.031153
  67 H :    0.021608
  68 H :    0.027674
  69 H :    0.021843
  70 H :    0.027734
  71 H :    0.030859
  72 H :    0.028932
  73 H :    0.035172
  74 H :    0.026405
  75 H :    0.024384
  76 H :    0.024538
  77 H :    0.016838
  78 H :    0.020769
  79 H :    0.022248
  80 H :    0.026312
  81 H :    0.025707
  82 H :    0.030868
  83 H :    0.030355
  84 H :    0.028290
  85 H :    0.025825
  86 H :    0.024319
  87 H :    0.023666
  88 H :    0.025865
  89 H :    0.029576
  90 H :    0.022156
  91 H :    0.027746

  Mayer bond orders larger than 0.100000
B(  0-C ,  1-C ) :   1.5637 B(  0-C ,  6-S ) :   1.1555 B(  0-C , 58-H ) :   0.9706
B(  1-C ,  2-C ) :   1.0461 B(  1-C ,  4-C ) :   1.2792 B(  2-C ,  3-C ) :   1.0977
B(  2-C , 59-H ) :   0.9309 B(  2-C , 60-H ) :   0.9337 B(  3-C , 61-H ) :   0.9728
B(  3-C , 62-H ) :   0.9692 B(  3-C , 63-H ) :   0.9699 B(  4-C ,  5-C ) :   1.4948
B(  4-C , 64-H ) :   0.9943 B(  5-C ,  6-S ) :   1.1367 B(  5-C ,  7-C ) :   1.1183
B(  7-C ,  8-C ) :   1.6380 B(  7-C , 65-H ) :   0.9626 B(  8-C ,  9-C ) :   1.1569
B(  8-C , 66-H ) :   0.9791 B(  9-C , 10-C ) :   1.4889 B(  9-C , 13-C ) :   1.0167
B( 10-C , 11-C ) :   1.1433 B( 10-C , 67-H ) :   1.0232 B( 11-C , 12-C ) :   1.0232
B( 11-C , 15-C ) :   1.4246 B( 12-C , 13-C ) :   1.6659 B( 12-C , 14-F ) :   1.1202
B( 13-C , 68-H ) :   1.0123 B( 15-C , 16-C ) :   1.1480 B( 15-C , 19-C ) :   1.0274
B( 16-C , 17-C ) :   1.4649 B( 16-C , 69-H ) :   1.0214 B( 17-C , 18-C ) :   1.0200
B( 17-C , 21-C ) :   1.1924 B( 18-C , 19-C ) :   1.6632 B( 18-C , 70-H ) :   1.0113
B( 19-C , 20-F ) :   1.1227 B( 21-C , 22-C ) :   1.5523 B( 21-C , 71-H ) :   0.9771
B( 22-C , 23-C ) :   1.1993 B( 22-C , 72-H ) :   0.9513 B( 23-C , 24-S ) :   1.1290
B( 23-C , 25-C ) :   0.1013 B( 23-C , 27-C ) :   1.3192 B( 24-S , 25-C ) :   1.1252
B( 25-C , 26-C ) :   1.4432 B( 25-C , 35-C ) :   1.1774 B( 26-C , 27-C ) :   1.2655
B( 26-C , 34-S ) :   1.0654 B( 27-C , 28-C ) :   1.1417 B( 28-C , 29-C ) :   1.6089
B( 28-C , 73-H ) :   0.9982 B( 29-C , 30-C ) :   0.9614 B( 29-C , 34-S ) :   1.0774
B( 30-C , 31-O ) :   2.1420 B( 30-C , 32-O ) :   1.2322 B( 32-O , 33-C ) :   0.9215
B( 33-C , 74-H ) :   0.9810 B( 33-C , 75-H ) :   0.9765 B( 33-C , 76-H ) :   0.9757
B( 35-C , 36-C ) :   1.4805 B( 35-C , 39-C ) :   1.0362 B( 36-C , 37-C ) :   1.1701
B( 36-C , 77-H ) :   1.0115 B( 37-C , 38-C ) :   1.0321 B( 37-C , 41-C ) :   1.4067
B( 38-C , 39-C ) :   1.6657 B( 38-C , 40-F ) :   1.1264 B( 39-C , 78-H ) :   1.0047
B( 41-C , 42-C ) :   1.1503 B( 41-C , 45-C ) :   1.0213 B( 42-C , 43-C ) :   1.4739
B( 42-C , 79-H ) :   1.0256 B( 43-C , 44-C ) :   1.0163 B( 43-C , 47-C ) :   1.1677
B( 44-C , 45-C ) :   1.6678 B( 44-C , 80-H ) :   1.0120 B( 45-C , 46-F ) :   1.1217
B( 47-C , 48-C ) :   1.5861 B( 47-C , 81-H ) :   0.9786 B( 48-C , 49-C ) :   1.1802
B( 48-C , 82-H ) :   0.9683 B( 49-C , 50-C ) :   1.4578 B( 49-C , 55-S ) :   1.0970
B( 50-C , 51-C ) :   1.0687 B( 50-C , 53-C ) :   1.3007 B( 51-C , 52-C ) :   1.1008
B( 51-C , 83-H ) :   0.9250 B( 51-C , 84-H ) :   0.9227 B( 52-C , 85-H ) :   0.9675
B( 52-C , 86-H ) :   0.9675 B( 52-C , 87-H ) :   0.9719 B( 53-C , 54-C ) :   1.4948
B( 53-C , 88-H ) :   0.9927 B( 54-C , 55-S ) :   1.1365 B( 54-C , 56-C ) :   1.0937
B( 56-C , 57-C ) :   1.9448 B( 56-C , 89-H ) :   0.9556 B( 57-C , 90-H ) :   0.9536
B( 57-C , 91-H ) :   0.9498

-----------------------------------------------------------------------------
         ABSORPTION SPECTRUM VIA TRANSITION ELECTRIC DIPOLE MOMENTS
-----------------------------------------------------------------------------
State   Energy  Wavelength   fosc         T2         TX        TY        TZ
        (cm-1)    (nm)                  (au**2)     (au)      (au)      (au)
-----------------------------------------------------------------------------
   0    9832.1   1017.1   1.965950291  65.82682   3.38351   5.14753  -5.28030
   1   14163.3    706.1   0.204127957   4.74476   0.39276   1.80354   1.15662
   2   15196.1    658.1   0.005047048   0.10934  -0.07510  -0.08718  -0.31000
   3   16228.3    616.2   0.073516365   1.49138   0.57204   0.67245  -0.84378
   4   19541.7    511.7   0.007204892   0.12138   0.09172  -0.09988  -0.32092
   5   21360.6    468.2   0.554247351   8.54213   1.02503   2.36518  -1.37744
   6   22927.3    436.2   0.150346142   2.15882  -0.40948   0.18489   1.39891
   7   23419.3    427.0   0.055543213   0.78079   0.19942   0.64813   0.56652
   8   24009.0    416.5   0.267847279   3.67273   0.74332   0.96346  -1.48052
   9   25033.7    399.5   0.212574274   2.79552  -0.83361  -1.28011   0.67967
  10   26310.1    380.1   0.033202044   0.41545   0.37469   0.40986  -0.32722
  11   28539.7    350.4   0.462446657   5.33443  -0.77288  -0.70293   2.05985
  12   28745.0    347.9   0.009396357   0.10761  -0.10254  -0.29073  -0.11214
  13   29556.3    338.3   0.155567429   1.73278   0.15303   1.30617  -0.05722
  14   30173.7    331.4   0.171558317   1.87180   0.55132   1.18563  -0.40266
  15   31465.6    317.8   0.059700489   0.62462  -0.35955   0.13049   0.69160
  16   31821.3    314.3   0.044346677   0.45880  -0.21978   0.21783   0.60253
  17   32160.3    310.9   0.021245142   0.21748  -0.23880  -0.36446   0.16620
  18   32351.1    309.1   0.071214265   0.72469   0.37279  -0.26240  -0.71893
  19   32470.5    308.0   0.023151857   0.23473   0.15328   0.45900  -0.02353
  20   33319.9    300.1   0.036396348   0.35961   0.20458   0.32710  -0.45909
  21   33654.9    297.1   0.265414486   2.59628  -0.75567  -1.27722   0.62764
  22   34125.4    293.0   0.187051325   1.80451   0.56236   0.75390  -0.95912
  23   34259.6    291.9   0.017918210   0.17218  -0.18823  -0.27110   0.25151
  24   34420.1    290.5   0.106893633   1.02239   0.39398   0.35137  -0.86239
  25   35248.9    283.7   0.002368693   0.02212   0.07045  -0.02896   0.12775
  26   35502.2    281.7   0.013787500   0.12785  -0.17901   0.12601   0.28272
  27   36169.0    276.5   0.040606283   0.36960  -0.32432  -0.27760   0.43285
  28   37635.0    265.7   0.054356729   0.47548   0.09939   0.68026   0.05340
  29   38197.2    261.8   0.066100841   0.56971  -0.31097  -0.60055   0.33517
  30   38505.6    259.7   0.059136949   0.50560   0.41473   0.42363  -0.39261
  31   38917.1    257.0   0.060619987   0.51280  -0.21017  -0.67882  -0.08854
  32   39536.5    252.9   0.100410272   0.83610  -0.42572   0.08159   0.80511

FINAL SINGLE POINT ENERGY     -3988.523934358624

DIPOLE MOMENT
-------------
                                X             Y             Z
Electronic contribution:     -4.33338     -27.01840     -34.96631
Nuclear contribution   :      4.57780      28.44910      35.69932
                        -----------------------------------------
Total Dipole Moment    :      0.24442       1.43071       0.73301
                        -----------------------------------------
Magnitude (a.u.)       :      1.62603
Magnitude (Debye)      :      4.13303

Rotational constants in cm-1:     0.002073     0.000230     0.000208
Rotational constants in MHz :    62.158145     6.886794     6.227715

                             ****ORCA TERMINATED NORMALLY****
TOTAL RUN TIME: 0 days 0 hours 7 minutes 59 seconds 374 msec
