                         Program Version 4.2.0 -  RELEASE  -
|  1> # ORCA input file
|  2> # SCF done       -150.184047354546          0.000838416988
|  3> ! CAM-B3LYP def2-SVP def2/J RIJCOSX Grid4 TightSCF
|  4> %maxcore 5000
|  5> %tddft
|  6>     Mode sTDDFT
|  7>     Ethresh 5.0
|  8>     maxcore 5000
|  9> end
| 10>
| 11> %pal
| 12>   nprocs 6
| 13>   end
| 14> * xyz 0 1
| 15>    C        1.17076        -1.10230        -0.08457
| 16>    C        1.84801        -0.45761        -1.11347
| 17>    C        1.91053         0.97222        -1.15392
| 18>    N        2.57671         1.58535        -2.15759
| 19>    C        3.14174         0.84155        -3.06591
| 20>    C        3.07370        -0.57019        -3.02641
| 21>    N        2.44752        -1.20197        -2.07855
| 22>    C        1.28434         1.77024        -0.15808
| 23>    C        0.60357         1.08951         0.88465
| 24>    C        0.55536        -0.34616         0.90747
| 25>    N       -0.09624        -0.99953         1.90336
| 26>    C       -0.66708        -0.28642         2.82791
| 27>    C       -0.61731         1.12440         2.81306
| 28>    N       -0.00253         1.78489         1.87193
| 29>    C        1.39925         3.18723        -0.28928
| 30>    C        0.86029         4.13558         0.51549
| 31>    C        1.03736         5.52889         0.32017
| 32>    N        0.46646         6.44662         1.15642
| 33>    C        0.79800         7.71022         0.76578
| 34>    C        1.61127         7.59856        -0.36709
| 35>    C        1.75677         6.24865        -0.64162
| 36>    C        0.37794         8.85803         1.41408
| 37>    C        0.02421         9.88498         1.96431
| 38>    C       -0.34854        11.07037         2.55455
| 39>    S        0.28201        12.59868         1.98505
| 40>    C       -0.62403        13.51738         3.16418
| 41>    C       -1.36841        12.65712         3.94455
| 42>    C       -1.22352        11.27921         3.61773
| 43>    C       -2.00547        10.44628         4.44911
| 44>    C       -2.71618        11.15830         5.36920
| 45>    C       -3.63386        10.67772         6.39692
| 46>    O       -4.23214        11.39323         7.16362
| 47>    O       -3.73430         9.33631         6.39170
| 48>    C       -4.61311         8.78850         7.36305
| 49>    S       -2.47048        12.89013         5.27204
| 50>    C       -0.52506        14.93168         3.20789
| 51>    N       -1.23269        15.70714         4.07626
| 52>    C       -0.92486        17.02213         3.87261
| 53>    C        0.01304        17.08389         2.84082
| 54>    C        0.26005        15.78270         2.42698
| 55>    C       -1.50294        18.04614         4.60479
| 56>    C       -2.01824        18.94170         5.24272
| 57>    C       -2.62988        19.94935         5.97962
| 58>    C       -2.30849        21.30773         5.77017
| 59>    C       -2.94776        22.34295         6.52821
| 60>    N       -2.60796        23.63126         6.28609
| 61>    C       -1.71111        23.88283         5.37765
| 62>    C       -1.08451        22.85572         4.63974
| 63>    N       -1.38058        21.60288         4.83431
| 64>    C       -3.91909        22.03563         7.50905
| 65>    C       -4.23197        20.66849         7.70723
| 66>    C       -3.59739        19.63177         6.95641
| 67>    N       -3.90768        18.33276         7.16283
| 68>    C       -4.80417        18.05852         8.06672
| 69>    C       -5.43951        19.07731         8.81148
| 70>    N       -5.16117        20.33612         8.63640
| 71>    C       -4.62105        23.00303         8.32379
| 72>    C       -4.47277        24.32739         8.32703
| 73>    H        1.12147        -2.17794        -0.05395
| 74>    H        3.66964         1.35747        -3.85704
| 75>    H        3.54509        -1.17558        -3.78953
| 76>    H       -1.18144        -0.82296         3.61434
| 77>    H       -1.08915         1.71261         3.58969
| 78>    H        1.98800         3.49472        -1.14217
| 79>    H        0.26237         3.83188         1.36249
| 80>    H       -0.11067         6.21980         1.94983
| 81>    H        2.03215         8.42274        -0.90806
| 82>    H        2.32101         5.82324        -1.44681
| 83>    H       -2.04519         9.37524         4.37554
| 84>    H       -4.51718         7.70843         7.28383
| 85>    H       -5.64127         9.09797         7.16146
| 86>    H       -4.33416         9.12893         8.36278
| 87>    H       -1.88701        15.37275         4.76536
| 88>    H        0.44886        17.98276         2.45348
| 89>    H        0.92976        15.46675         1.65121
| 90>    H       -1.46626        24.92425         5.21401
| 91>    H       -0.33794        23.07114         3.88726
| 92>    H       -5.03999        17.01409         8.21983
| 93>    H       -6.18642        18.84528         9.55944
| 94>    H       -5.33613        22.54333         8.99353
| 95>    H       -3.77405        24.82582         7.68106
| 96>    H       -5.06142        24.94036         8.98945
| 97> *
| 98>
| 99>                          ****END OF INPUT****

CARTESIAN COORDINATES (ANGSTROEM)
---------------------------------
  C      1.170760   -1.102300   -0.084570
  C      1.848010   -0.457610   -1.113470
  C      1.910530    0.972220   -1.153920
  N      2.576710    1.585350   -2.157590
  C      3.141740    0.841550   -3.065910
  C      3.073700   -0.570190   -3.026410
  N      2.447520   -1.201970   -2.078550
  C      1.284340    1.770240   -0.158080
  C      0.603570    1.089510    0.884650
  C      0.555360   -0.346160    0.907470
  N     -0.096240   -0.999530    1.903360
  C     -0.667080   -0.286420    2.827910
  C     -0.617310    1.124400    2.813060
  N     -0.002530    1.784890    1.871930
  C      1.399250    3.187230   -0.289280
  C      0.860290    4.135580    0.515490
  C      1.037360    5.528890    0.320170
  N      0.466460    6.446620    1.156420
  C      0.798000    7.710220    0.765780
  C      1.611270    7.598560   -0.367090
  C      1.756770    6.248650   -0.641620
  C      0.377940    8.858030    1.414080
  C      0.024210    9.884980    1.964310
  C     -0.348540   11.070370    2.554550
  S      0.282010   12.598680    1.985050
  C     -0.624030   13.517380    3.164180
  C     -1.368410   12.657120    3.944550
  C     -1.223520   11.279210    3.617730
  C     -2.005470   10.446280    4.449110
  C     -2.716180   11.158300    5.369200
  C     -3.633860   10.677720    6.396920
  O     -4.232140   11.393230    7.163620
  O     -3.734300    9.336310    6.391700
  C     -4.613110    8.788500    7.363050
  S     -2.470480   12.890130    5.272040
  C     -0.525060   14.931680    3.207890
  N     -1.232690   15.707140    4.076260
  C     -0.924860   17.022130    3.872610
  C      0.013040   17.083890    2.840820
  C      0.260050   15.782700    2.426980
  C     -1.502940   18.046140    4.604790
  C     -2.018240   18.941700    5.242720
  C     -2.629880   19.949350    5.979620
  C     -2.308490   21.307730    5.770170
  C     -2.947760   22.342950    6.528210
  N     -2.607960   23.631260    6.286090
  C     -1.711110   23.882830    5.377650
  C     -1.084510   22.855720    4.639740
  N     -1.380580   21.602880    4.834310
  C     -3.919090   22.035630    7.509050
  C     -4.231970   20.668490    7.707230
  C     -3.597390   19.631770    6.956410
  N     -3.907680   18.332760    7.162830
  C     -4.804170   18.058520    8.066720
  C     -5.439510   19.077310    8.811480
  N     -5.161170   20.336120    8.636400
  C     -4.621050   23.003030    8.323790
  C     -4.472770   24.327390    8.327030
  H      1.121470   -2.177940   -0.053950
  H      3.669640    1.357470   -3.857040
  H      3.545090   -1.175580   -3.789530
  H     -1.181440   -0.822960    3.614340
  H     -1.089150    1.712610    3.589690
  H      1.988000    3.494720   -1.142170
  H      0.262370    3.831880    1.362490
  H     -0.110670    6.219800    1.949830
  H      2.032150    8.422740   -0.908060
  H      2.321010    5.823240   -1.446810
  H     -2.045190    9.375240    4.375540
  H     -4.517180    7.708430    7.283830
  H     -5.641270    9.097970    7.161460
  H     -4.334160    9.128930    8.362780
  H     -1.887010   15.372750    4.765360
  H      0.448860   17.982760    2.453480
  H      0.929760   15.466750    1.651210
  H     -1.466260   24.924250    5.214010
  H     -0.337940   23.071140    3.887260
  H     -5.039990   17.014090    8.219830
  H     -6.186420   18.845280    9.559440
  H     -5.336130   22.543330    8.993530
  H     -3.774050   24.825820    7.681060
  H     -5.061420   24.940360    8.989450

 Total Charge           Charge          ....    0
 Multiplicity           Mult            ....    1
 Number of Electrons    NEL             ....  406
 Basis Dimension        Dim             ....  940

ORBITAL ENERGIES
----------------

  NO   OCC          E(Eh)            E(eV)
   0   2.0000     -88.965900     -2420.8852
   1   2.0000     -88.957305     -2420.6513
   2   2.0000     -19.261911      -524.1433
   3   2.0000     -19.206187      -522.6269
   4   2.0000     -14.463414      -393.5695
   5   2.0000     -14.460513      -393.4906
   6   2.0000     -14.427132      -392.5822
   7   2.0000     -14.424133      -392.5006
   8   2.0000     -14.423356      -392.4795
   9   2.0000     -14.420966      -392.4144
  10   2.0000     -14.419168      -392.3655
  11   2.0000     -14.418917      -392.3587
  12   2.0000     -14.418828      -392.3563
  13   2.0000     -14.418467      -392.3464
  14   2.0000     -10.405401      -283.1453
  15   2.0000     -10.324537      -280.9449
  16   2.0000     -10.322665      -280.8940
  17   2.0000     -10.320396      -280.8323
  18   2.0000     -10.320247      -280.8282
  19   2.0000     -10.318653      -280.7848
  20   2.0000     -10.318251      -280.7739
  21   2.0000     -10.317775      -280.7609
  22   2.0000     -10.316646      -280.7302
  23   2.0000     -10.315951      -280.7113
  24   2.0000     -10.315545      -280.7003
  25   2.0000     -10.315397      -280.6962
  26   2.0000     -10.314793      -280.6798
  27   2.0000     -10.314588      -280.6742
  28   2.0000     -10.314379      -280.6685
  29   2.0000     -10.314310      -280.6667
  30   2.0000     -10.314147      -280.6622
  31   2.0000     -10.313562      -280.6463
  32   2.0000     -10.312746      -280.6241
  33   2.0000     -10.312697      -280.6228
  34   2.0000     -10.312493      -280.6172
  35   2.0000     -10.310562      -280.5647
  36   2.0000     -10.308177      -280.4998
  37   2.0000     -10.306272      -280.4479
  38   2.0000     -10.303717      -280.3784
  39   2.0000     -10.298714      -280.2423
  40   2.0000     -10.295406      -280.1522
  41   2.0000     -10.294036      -280.1150
  42   2.0000     -10.292446      -280.0717
  43   2.0000     -10.289815      -280.0001
  44   2.0000     -10.282927      -279.8127
  45   2.0000     -10.281602      -279.7766
  46   2.0000     -10.279311      -279.7143
  47   2.0000     -10.273090      -279.5450
  48   2.0000     -10.270266      -279.4681
  49   2.0000     -10.264379      -279.3080
  50   2.0000     -10.261971      -279.2424
  51   2.0000     -10.261970      -279.2424
  52   2.0000     -10.261276      -279.2235
  53   2.0000     -10.257911      -279.1319
  54   2.0000     -10.256895      -279.1043
  55   2.0000     -10.256258      -279.0870
  56   2.0000     -10.251880      -278.9678
  57   2.0000     -10.243815      -278.7484
  58   2.0000      -8.060509      -219.3376
  59   2.0000      -8.052275      -219.1135
  60   2.0000      -6.030066      -164.0864
  61   2.0000      -6.025734      -163.9685
  62   2.0000      -6.022398      -163.8778
  63   2.0000      -6.022198      -163.8724
  64   2.0000      -6.017987      -163.7578
  65   2.0000      -6.013244      -163.6287
  66   2.0000      -1.192492       -32.4494
  67   2.0000      -1.099481       -29.9184
  68   2.0000      -1.082231       -29.4490
  69   2.0000      -1.079997       -29.3882
  70   2.0000      -1.079671       -29.3793
  71   2.0000      -1.078698       -29.3529
  72   2.0000      -1.075103       -29.2551
  73   2.0000      -1.071477       -29.1564
  74   2.0000      -1.008465       -27.4417
  75   2.0000      -1.005287       -27.3552
  76   2.0000      -1.001949       -27.2644
  77   2.0000      -0.999584       -27.2001
  78   2.0000      -0.995579       -27.0911
  79   2.0000      -0.950724       -25.8705
  80   2.0000      -0.944643       -25.7051
  81   2.0000      -0.944477       -25.7005
  82   2.0000      -0.898992       -24.4628
  83   2.0000      -0.891306       -24.2537
  84   2.0000      -0.883108       -24.0306
  85   2.0000      -0.872506       -23.7421
  86   2.0000      -0.870898       -23.6983
  87   2.0000      -0.865080       -23.5400
  88   2.0000      -0.861479       -23.4420
  89   2.0000      -0.858441       -23.3594
  90   2.0000      -0.854385       -23.2490
  91   2.0000      -0.845331       -23.0026
  92   2.0000      -0.837310       -22.7844
  93   2.0000      -0.825362       -22.4592
  94   2.0000      -0.810765       -22.0620
  95   2.0000      -0.797737       -21.7075
  96   2.0000      -0.793405       -21.5896
  97   2.0000      -0.787539       -21.4300
  98   2.0000      -0.783658       -21.3244
  99   2.0000      -0.766161       -20.8483
 100   2.0000      -0.758725       -20.6460
 101   2.0000      -0.756046       -20.5730
 102   2.0000      -0.732466       -19.9314
 103   2.0000      -0.723550       -19.6888
 104   2.0000      -0.719445       -19.5771
 105   2.0000      -0.718508       -19.5516
 106   2.0000      -0.717740       -19.5307
 107   2.0000      -0.697792       -18.9879
 108   2.0000      -0.685729       -18.6596
 109   2.0000      -0.682912       -18.5830
 110   2.0000      -0.682492       -18.5716
 111   2.0000      -0.681612       -18.5476
 112   2.0000      -0.672510       -18.2999
 113   2.0000      -0.669958       -18.2305
 114   2.0000      -0.659389       -17.9429
 115   2.0000      -0.642656       -17.4876
 116   2.0000      -0.640876       -17.4391
 117   2.0000      -0.639105       -17.3909
 118   2.0000      -0.635817       -17.3015
 119   2.0000      -0.629694       -17.1349
 120   2.0000      -0.628495       -17.1022
 121   2.0000      -0.616202       -16.7677
 122   2.0000      -0.608414       -16.5558
 123   2.0000      -0.598215       -16.2783
 124   2.0000      -0.591785       -16.1033
 125   2.0000      -0.589451       -16.0398
 126   2.0000      -0.586033       -15.9468
 127   2.0000      -0.575281       -15.6542
 128   2.0000      -0.574753       -15.6398
 129   2.0000      -0.573543       -15.6069
 130   2.0000      -0.572659       -15.5829
 131   2.0000      -0.571140       -15.5415
 132   2.0000      -0.566145       -15.4056
 133   2.0000      -0.553940       -15.0735
 134   2.0000      -0.552095       -15.0233
 135   2.0000      -0.541864       -14.7449
 136   2.0000      -0.538065       -14.6415
 137   2.0000      -0.536327       -14.5942
 138   2.0000      -0.526471       -14.3260
 139   2.0000      -0.525146       -14.2900
 140   2.0000      -0.524636       -14.2761
 141   2.0000      -0.520026       -14.1506
 142   2.0000      -0.519545       -14.1375
 143   2.0000      -0.517076       -14.0703
 144   2.0000      -0.516418       -14.0525
 145   2.0000      -0.510876       -13.9017
 146   2.0000      -0.509447       -13.8628
 147   2.0000      -0.506992       -13.7959
 148   2.0000      -0.506640       -13.7864
 149   2.0000      -0.503261       -13.6944
 150   2.0000      -0.502278       -13.6677
 151   2.0000      -0.502091       -13.6626
 152   2.0000      -0.500986       -13.6325
 153   2.0000      -0.498136       -13.5550
 154   2.0000      -0.487621       -13.2689
 155   2.0000      -0.482835       -13.1386
 156   2.0000      -0.481011       -13.0890
 157   2.0000      -0.479803       -13.0561
 158   2.0000      -0.477134       -12.9835
 159   2.0000      -0.476579       -12.9684
 160   2.0000      -0.475366       -12.9354
 161   2.0000      -0.457635       -12.4529
 162   2.0000      -0.457443       -12.4476
 163   2.0000      -0.452425       -12.3111
 164   2.0000      -0.444689       -12.1006
 165   2.0000      -0.442333       -12.0365
 166   2.0000      -0.437724       -11.9111
 167   2.0000      -0.437432       -11.9031
 168   2.0000      -0.433398       -11.7934
 169   2.0000      -0.428210       -11.6522
 170   2.0000      -0.426117       -11.5952
 171   2.0000      -0.423122       -11.5137
 172   2.0000      -0.418591       -11.3904
 173   2.0000      -0.415225       -11.2989
 174   2.0000      -0.410001       -11.1567
 175   2.0000      -0.408974       -11.1287
 176   2.0000      -0.405400       -11.0315
 177   2.0000      -0.384952       -10.4751
 178   2.0000      -0.383676       -10.4404
 179   2.0000      -0.382728       -10.4146
 180   2.0000      -0.380190       -10.3455
 181   2.0000      -0.379291       -10.3210
 182   2.0000      -0.373448       -10.1620
 183   2.0000      -0.369241       -10.0476
 184   2.0000      -0.361407        -9.8344
 185   2.0000      -0.351214        -9.5570
 186   2.0000      -0.348759        -9.4902
 187   2.0000      -0.341012        -9.2794
 188   2.0000      -0.333182        -9.0663
 189   2.0000      -0.328839        -8.9482
 190   2.0000      -0.327528        -8.9125
 191   2.0000      -0.327472        -8.9110
 192   2.0000      -0.324690        -8.8353
 193   2.0000      -0.323099        -8.7920
 194   2.0000      -0.318225        -8.6593
 195   2.0000      -0.316659        -8.6167
 196   2.0000      -0.311710        -8.4821
 197   2.0000      -0.309997        -8.4354
 198   2.0000      -0.308029        -8.3819
 199   2.0000      -0.294837        -8.0229
 200   2.0000      -0.265840        -7.2339
 201   2.0000      -0.238608        -6.4929
 202   2.0000      -0.210506        -5.7282
 203   0.0000      -0.082356        -2.2410
 204   0.0000      -0.077146        -2.0992
 205   0.0000      -0.051815        -1.4100
 206   0.0000      -0.006449        -0.1755
 207   0.0000      -0.003727        -0.1014

MULLIKEN ATOMIC CHARGES
-----------------------
   0 C :   -0.085980
   1 C :    0.037843
   2 C :   -0.053441
   3 N :   -0.017823
   4 C :    0.022624
   5 C :    0.021689
   6 N :   -0.018642
   7 C :    0.126487
   8 C :   -0.052725
   9 C :    0.036686
  10 N :   -0.019001
  11 C :    0.020970
  12 C :    0.031333
  13 N :   -0.028127
  14 C :   -0.110238
  15 C :    0.054160
  16 C :    0.089672
  17 N :   -0.036005
  18 C :   -0.023332
  19 C :    0.006008
  20 C :   -0.036760
  21 C :    0.053901
  22 C :   -0.054242
  23 C :   -0.186485
  24 S :    0.190331
  25 C :   -0.136621
  26 C :   -0.049932
  27 C :    0.156686
  28 C :    0.006826
  29 C :   -0.134156
  30 C :    0.205756
  31 O :   -0.203741
  32 O :   -0.307023
  33 C :    0.189099
  34 S :    0.124199
  35 C :    0.066646
  36 N :   -0.044247
  37 C :   -0.056200
  38 C :    0.010793
  39 C :   -0.060071
  40 C :    0.084176
  41 C :   -0.048053
  42 C :    0.026727
  43 C :   -0.046511
  44 C :   -0.070134
  45 N :   -0.019910
  46 C :    0.032716
  47 C :    0.022104
  48 N :    0.020463
  49 C :    0.074111
  50 C :   -0.062840
  51 C :   -0.063648
  52 N :    0.015911
  53 C :    0.020588
  54 C :    0.026501
  55 N :   -0.017963
  56 C :   -0.075611
  57 C :    0.024545
  58 H :   -0.037392
  59 H :    0.011605
  60 H :    0.014048
  61 H :    0.013635
  62 H :    0.005685
  63 H :   -0.009528
  64 H :   -0.018334
  65 H :    0.121627
  66 H :   -0.026319
  67 H :   -0.018418
  68 H :   -0.002839
  69 H :    0.033433
  70 H :    0.033962
  71 H :    0.035738
  72 H :    0.130069
  73 H :   -0.026713
  74 H :   -0.022615
  75 H :    0.010177
  76 H :    0.013115
  77 H :    0.016403
  78 H :    0.012969
  79 H :   -0.004582
  80 H :    0.024987
  81 H :    0.009199
Sum of atomic charges:   -0.0000000

LOEWDIN ATOMIC CHARGES
----------------------
   0 C :   -0.014531
   1 C :   -0.012755
   2 C :   -0.011633
   3 N :   -0.031724
   4 C :    0.002731
   5 C :    0.005951
   6 N :   -0.037109
   7 C :   -0.007349
   8 C :   -0.013572
   9 C :   -0.010722
  10 N :   -0.033530
  11 C :    0.003490
  12 C :    0.003120
  13 N :   -0.029046
  14 C :   -0.029008
  15 C :   -0.012344
  16 C :   -0.011217
  17 N :    0.106140
  18 C :   -0.037377
  19 C :   -0.037845
  20 C :   -0.053587
  21 C :   -0.034274
  22 C :   -0.063740
  23 C :   -0.186678
  24 S :    0.474726
  25 C :   -0.194353
  26 C :   -0.193781
  27 C :   -0.067984
  28 C :   -0.004645
  29 C :   -0.198311
  30 C :    0.065352
  31 O :   -0.179259
  32 O :   -0.097481
  33 C :    0.081634
  34 S :    0.406368
  35 C :   -0.028366
  36 N :    0.105699
  37 C :   -0.030743
  38 C :   -0.033885
  39 C :   -0.069888
  40 C :   -0.030837
  41 C :   -0.008006
  42 C :   -0.035316
  43 C :   -0.004316
  44 C :   -0.007132
  45 N :   -0.024356
  46 C :    0.009548
  47 C :    0.004067
  48 N :   -0.024001
  49 C :   -0.015680
  50 C :   -0.007056
  51 C :   -0.006805
  52 N :   -0.028750
  53 C :    0.005797
  54 C :    0.007075
  55 N :   -0.031113
  56 C :   -0.034288
  57 C :   -0.021511
  58 H :    0.040505
  59 H :    0.025944
  60 H :    0.026740
  61 H :    0.026614
  62 H :    0.023519
  63 H :    0.028182
  64 H :    0.022037
  65 H :    0.092775
  66 H :    0.029202
  67 H :    0.027522
  68 H :    0.039412
  69 H :    0.025364
  70 H :    0.024125
  71 H :    0.024258
  72 H :    0.082822
  73 H :    0.031460
  74 H :    0.022650
  75 H :    0.025498
  76 H :    0.026459
  77 H :    0.027682
  78 H :    0.026499
  79 H :    0.028775
  80 H :    0.016917
  81 H :    0.019245

  Mayer bond orders larger than 0.100000
B(  0-C ,  1-C ) :   1.2437 B(  0-C ,  7-C ) :   0.1361 B(  0-C ,  9-C ) :   1.2399
B(  0-C , 58-H ) :   1.0555 B(  1-C ,  2-C ) :   1.1745 B(  1-C ,  6-N ) :   1.3726
B(  2-C ,  3-N ) :   1.4483 B(  2-C ,  7-C ) :   1.2371 B(  3-N ,  4-C ) :   1.6998
B(  4-C ,  5-C ) :   1.1814 B(  4-C , 59-H ) :   0.9739 B(  5-C ,  6-N ) :   1.7204
B(  5-C , 60-H ) :   0.9731 B(  7-C ,  8-C ) :   1.2242 B(  7-C , 14-C ) :   1.1839
B(  8-C ,  9-C ) :   1.1721 B(  8-C , 13-N ) :   1.4372 B(  9-C , 10-N ) :   1.3744
B( 10-N , 11-C ) :   1.7172 B( 11-C , 12-C ) :   1.1897 B( 11-C , 61-H ) :   0.9736
B( 12-C , 13-N ) :   1.6783 B( 12-C , 62-H ) :   0.9718 B( 14-C , 15-C ) :   1.6349
B( 14-C , 63-H ) :   0.9623 B( 15-C , 16-C ) :   1.0817 B( 15-C , 64-H ) :   0.9372
B( 16-C , 17-N ) :   1.2066 B( 16-C , 18-C ) :   0.1197 B( 16-C , 20-C ) :   1.3887
B( 17-N , 18-C ) :   1.2405 B( 17-N , 65-H ) :   0.9367 B( 18-C , 19-C ) :   1.4061
B( 18-C , 21-C ) :   0.8398 B( 19-C , 20-C ) :   1.3501 B( 19-C , 66-H ) :   1.0129
B( 20-C , 67-H ) :   1.0046 B( 21-C , 22-C ) :   2.2128 B( 22-C , 23-C ) :   1.0045
B( 23-C , 24-S ) :   1.1131 B( 23-C , 25-C ) :   0.1176 B( 23-C , 27-C ) :   1.3953
B( 24-S , 25-C ) :   1.1338 B( 25-C , 26-C ) :   1.5252 B( 25-C , 35-C ) :   1.0952
B( 26-C , 27-C ) :   1.2338 B( 26-C , 34-S ) :   1.0228 B( 27-C , 28-C ) :   1.1372
B( 28-C , 29-C ) :   1.5997 B( 28-C , 68-H ) :   1.0066 B( 29-C , 30-C ) :   0.9720
B( 29-C , 34-S ) :   1.0662 B( 30-C , 31-O ) :   2.1361 B( 30-C , 32-O ) :   1.2390
B( 32-O , 33-C ) :   0.9215 B( 33-C , 69-H ) :   0.9811 B( 33-C , 70-H ) :   0.9777
B( 33-C , 71-H ) :   0.9746 B( 35-C , 36-N ) :   1.2606 B( 35-C , 37-C ) :   0.1332
B( 35-C , 39-C ) :   1.4048 B( 36-N , 37-C ) :   1.2389 B( 36-N , 72-H ) :   0.9252
B( 37-C , 38-C ) :   1.4320 B( 37-C , 40-C ) :   0.7776 B( 38-C , 39-C ) :   1.3306
B( 38-C , 73-H ) :   1.0161 B( 39-C , 74-H ) :   0.9986 B( 40-C , 41-C ) :   2.1951
B( 41-C , 42-C ) :   0.9159 B( 42-C , 43-C ) :   1.2785 B( 42-C , 49-C ) :   0.1374
B( 42-C , 51-C ) :   1.2902 B( 43-C , 44-C ) :   1.1456 B( 43-C , 48-N ) :   1.5216
B( 44-C , 45-N ) :   1.4434 B( 44-C , 49-C ) :   1.2363 B( 45-N , 46-C ) :   1.6922
B( 46-C , 47-C ) :   1.1870 B( 46-C , 75-H ) :   0.9730 B( 47-C , 48-N ) :   1.6858
B( 47-C , 76-H ) :   0.9750 B( 49-C , 50-C ) :   1.2487 B( 49-C , 56-C ) :   1.1669
B( 50-C , 51-C ) :   1.1477 B( 50-C , 55-N ) :   1.4450 B( 51-C , 52-N ) :   1.5121
B( 52-N , 53-C ) :   1.6901 B( 53-C , 54-C ) :   1.1814 B( 53-C , 77-H ) :   0.9747
B( 54-C , 55-N ) :   1.7077 B( 54-C , 78-H ) :   0.9748 B( 56-C , 57-C ) :   1.9013
B( 56-C , 79-H ) :   0.9429 B( 57-C , 80-H ) :   0.9263 B( 57-C , 81-H ) :   0.9416

-----------------------------------------------------------------------------
         ABSORPTION SPECTRUM VIA TRANSITION ELECTRIC DIPOLE MOMENTS
-----------------------------------------------------------------------------
State   Energy  Wavelength   fosc         T2         TX        TY        TZ
        (cm-1)    (nm)                  (au**2)     (au)      (au)      (au)
-----------------------------------------------------------------------------
   0   14379.7    695.4   1.782071985  40.79900   1.40250  -5.88250  -2.05625
   1   16023.6    624.1   0.041406907   0.85072  -0.57406  -0.32834   0.64294
   2   20095.1    497.6   0.300441433   4.92203  -0.67375   1.81679   1.08045
   3   22710.3    440.3   0.012389104   0.17959  -0.08391  -0.41324   0.04226
   4   23756.5    420.9   0.036715970   0.50880  -0.30956   0.54140   0.34620
   5   25480.2    392.5   0.006188649   0.07996  -0.20499   0.02124  -0.19362
   6   26260.6    380.8   0.006984540   0.08756   0.22991   0.02870   0.18406
   7   27059.2    369.6   0.060458995   0.73557  -0.49244   0.36151   0.60198
   8   27084.4    369.2   0.001402265   0.01704   0.02369   0.02829   0.12523
   9   27476.5    363.9   0.000232735   0.00279   0.01776   0.00085   0.04972
  10   28844.2    346.7   0.023860583   0.27233   0.19194  -0.40114  -0.27309
  11   29255.5    341.8   0.788311089   8.87087  -0.23123   2.92745   0.49746
  12   29710.8    336.6   0.001037942   0.01150   0.06525  -0.04593  -0.07165
  13   29865.4    334.8   0.009397106   0.10359   0.06187  -0.30201  -0.09247
  14   30190.1    331.2   0.018426787   0.20094  -0.01968  -0.44704  -0.02655
  15   30634.4    326.4   0.004335974   0.04660  -0.12289   0.11352   0.13641
  16   30924.3    323.4   0.022707433   0.24174   0.26005  -0.06013  -0.41291
  17   32493.0    307.8   0.057097343   0.57850  -0.26335  -0.64675   0.30143
  18   32876.5    304.2   0.065378806   0.65468   0.30137   0.62401  -0.41768
  19   33460.8    298.9   0.000281727   0.00277  -0.01591  -0.03940   0.03109
  20   34121.4    293.1   0.004288437   0.04138   0.11222   0.04571  -0.16338
  21   34939.2    286.2   0.026179071   0.24667  -0.30959  -0.04198   0.38609
  22   35254.9    283.6   0.205761170   1.92141   0.67421  -0.26040  -1.18281
  23   35349.1    282.9   0.037680685   0.35093   0.09383  -0.42481  -0.40207
  24   35495.9    281.7   0.482928529   4.47899   1.23155   1.15937  -1.27206
  25   36446.5    274.4   0.407034522   3.67664  -0.66495   1.58750   0.84518
  26   37454.6    267.0   0.175953449   1.54657  -0.77907  -0.46636   0.84977
  27   37888.4    263.9   0.173516428   1.50768  -0.69385  -0.55928   0.84467
  28   38303.3    261.1   0.022463273   0.19307  -0.25938  -0.25585   0.24562
  29   38475.9    259.9   0.036332561   0.31087  -0.34128   0.10921   0.42717
  30   39044.4    256.1   0.039559060   0.33355  -0.38331  -0.10799   0.41829
  31   39334.5    254.2   0.004144445   0.03469   0.15146  -0.08549  -0.06663
  32   39560.3    252.8   0.041552637   0.34579   0.19267   0.47930  -0.28097
  33   39880.2    250.8   0.115071230   0.94992  -0.56429  -0.28596   0.74143
  34   39971.2    250.2   0.000461152   0.00380  -0.01264  -0.03986  -0.04527
  35   40018.1    249.9   0.006953684   0.05721   0.03886   0.23466   0.02507

FINAL SINGLE POINT ENERGY     -3182.121491192649

DIPOLE MOMENT
-------------
                                X             Y             Z
Electronic contribution:      4.97976       4.63659      -4.69218
Nuclear contribution   :     -5.01179      -6.04289       4.62028
                        -----------------------------------------
Total Dipole Moment    :     -0.03204      -1.40630      -0.07190
                        -----------------------------------------
Magnitude (a.u.)       :      1.40851
Magnitude (Debye)      :      3.58014

Rotational constants in cm-1:     0.003856     0.000291     0.000271
Rotational constants in MHz :   115.600984     8.728621     8.122611

                             ****ORCA TERMINATED NORMALLY****
TOTAL RUN TIME: 0 days 0 hours 6 minutes 52 seconds 840 msec
