                         Program Version 4.2.0 -  RELEASE  -
|  1> # ORCA input file
|  2> # SCF done       -190.655570326499          0.000538739110
|  3> ! CAM-B3LYP def2-SVP def2/J RIJCOSX Grid4 TightSCF
|  4> %maxcore 5000
|  5> %tddft
|  6>     Mode sTDDFT
|  7>     Ethresh 5.0
|  8>     maxcore 5000
|  9> end
| 10>
| 11> %pal
| 12>   nprocs 6
| 13>   end
| 14> * xyz 0 1
| 15>    C       -6.80863         3.33990        -1.33253
| 16>    C       -6.18710         3.18509        -0.09824
| 17>    C       -4.96763         3.88117         0.20808
| 18>    N       -4.43532         3.76663         1.44612
| 19>    C       -5.00714         2.96517         2.29894
| 20>    C       -6.16802         2.22852         1.96920
| 21>    N       -6.75223         2.35571         0.81599
| 22>    C       -4.35123         4.70885        -0.76074
| 23>    C       -5.03154         4.89161        -1.98910
| 24>    C       -6.25236         4.19917        -2.27384
| 25>    N       -6.87156         4.36232        -3.47157
| 26>    C       -6.31667         5.15841        -4.33502
| 27>    C       -5.11911         5.85862        -4.04841
| 28>    N       -4.50090         5.72823        -2.91124
| 29>    C       -3.09441         5.38277        -0.58330
| 30>    C       -2.17948         5.10514         0.36503
| 31>    C       -0.91339         5.78643         0.53071
| 32>    C       -0.23822         6.30348        -0.58515
| 33>    C        1.01887         6.83356        -0.41919
| 34>    C        1.64353         6.83172         0.83692
| 35>    C        2.98724         7.43408         0.68200
| 36>    O        3.84870         7.61578         1.50588
| 37>    N        3.08821         7.76462        -0.66128
| 38>    C        1.95211         7.44000        -1.39301
| 39>    O        1.81715         7.63212        -2.57560
| 40>    C        4.24188         8.42517        -1.23212
| 41>    C        4.17302         9.93430        -1.02325
| 42>    C        1.00291         6.33590         1.94431
| 43>    C       -0.30776         5.84676         1.81244
| 44>    C       -1.01167         5.46312         3.01223
| 45>    C       -2.34258         5.60488         3.19102
| 46>    C       -3.07612         5.22712         4.34760
| 47>    N       -4.41718         5.54378         4.44468
| 48>    C       -4.89453         5.06000         5.61965
| 49>    C       -6.03126         4.96021         6.41986
| 50>    C       -5.63935         4.25440         7.55995
| 51>    N       -4.30098         3.92873         7.45943
| 52>    C       -3.82267         4.41193         6.28382
| 53>    C       -2.68476         4.51744         5.48600
| 54>    C       -6.38837         3.84069         8.69527
| 55>    C       -7.66491         4.18603         8.96574
| 56>    C       -8.40748         3.73779        10.11972
| 57>    C       -9.34056         4.62378        10.68392
| 58>    C       -9.97052         4.27484        11.85209
| 59>    C       -9.71008         3.04372        12.47190
| 60>    C      -10.52284         2.97208        13.70550
| 61>    O      -10.59489         2.09814        14.53302
| 62>    N      -11.22298         4.17128        13.75510
| 63>    C      -10.95592         5.00616        12.67967
| 64>    O      -11.44575         6.09529        12.51216
| 65>    C      -12.16089         4.50150        14.80585
| 66>    C      -13.54863         3.94673        14.50396
| 67>    C       -8.84488         2.13666        11.90926
| 68>    C       -8.19205         2.46649        10.71143
| 69>    C       -7.38011         1.48069        10.03136
| 70>    C       -6.68966         0.49515        10.63685
| 71>    C       -5.88034        -0.49304         9.98236
| 72>    C       -5.42825        -0.41400         8.64507
| 73>    C       -4.72896        -1.51260         8.04433
| 74>    N       -4.34455        -1.43381         6.74875
| 75>    C       -4.61824        -0.35384         6.07779
| 76>    C       -5.25194         0.74958         6.68566
| 77>    N       -5.62921         0.71716         7.93221
| 78>    C       -4.43375        -2.69585         8.75923
| 79>    C       -4.77833        -2.72316        10.12794
| 80>    C       -5.49656        -1.63631        10.72388
| 81>    N       -5.84893        -1.69211        12.02863
| 82>    C       -5.52799        -2.74835        12.71664
| 83>    C       -4.79186        -3.80565        12.13941
| 84>    N       -4.42278        -3.78128        10.89258
| 85>    C       -3.81122        -3.78550         8.04101
| 86>    C       -3.66623        -5.04276         8.45706
| 87>    H       -7.70666         2.79009        -1.56006
| 88>    H       -4.56122         2.90799         3.28342
| 89>    H       -6.62818         1.55553         2.68078
| 90>    H       -6.82011         5.27720        -5.28517
| 91>    H       -4.68102         6.54013        -4.76536
| 92>    H       -2.91298         6.16374        -1.30937
| 93>    H       -2.38227         4.30922         1.06718
| 94>    H       -0.68551         6.25584        -1.56553
| 95>    H        4.25542         8.18553        -2.29827
| 96>    H        5.13235         8.01697        -0.74674
| 97>    H        3.28161        10.33950        -1.49681
| 98>    H        5.04764        10.40738        -1.46059
| 99>    H        4.14531        10.16360         0.03958
|100>    H        1.48387         6.35104         2.91067
|101>    H       -0.40007         5.11545         3.83320
|102>    H       -2.92965         6.06726         2.40835
|103>    H       -4.93089         6.04397         3.74016
|104>    H       -7.01359         5.33665         6.21950
|105>    H       -3.79517         3.40460         8.15222
|106>    H       -1.70314         4.13710         5.68298
|107>    H       -5.85338         3.21207         9.39477
|108>    H       -8.16333         4.90653         8.33198
|109>    H       -9.53364         5.57910        10.21965
|110>    H      -12.19311         5.59130        14.87996
|111>    H      -11.77724         4.07572        15.73654
|112>    H      -13.92417         4.36141        13.57115
|113>    H      -14.23326         4.21016        15.30522
|114>    H      -13.50772         2.86320        14.41941
|115>    H       -8.69573         1.17069        12.36529
|116>    H       -7.34434         1.55771         8.95425
|117>    H       -6.71960         0.38672        11.71264
|118>    H       -4.30085        -0.32723         5.04362
|119>    H       -5.42123         1.67482         6.15038
|120>    H       -5.82204        -2.76191        13.75753
|121>    H       -4.48078        -4.66198        12.72299
|122>    H       -3.47051        -3.50144         7.05399
|123>    H       -4.02177        -5.37156         9.41654
|124>    H       -3.17552        -5.77270         7.83517
|125> *
|126>
|127>                          ****END OF INPUT****

CARTESIAN COORDINATES (ANGSTROEM)
---------------------------------
  C     -6.808630    3.339900   -1.332530
  C     -6.187100    3.185090   -0.098240
  C     -4.967630    3.881170    0.208080
  N     -4.435320    3.766630    1.446120
  C     -5.007140    2.965170    2.298940
  C     -6.168020    2.228520    1.969200
  N     -6.752230    2.355710    0.815990
  C     -4.351230    4.708850   -0.760740
  C     -5.031540    4.891610   -1.989100
  C     -6.252360    4.199170   -2.273840
  N     -6.871560    4.362320   -3.471570
  C     -6.316670    5.158410   -4.335020
  C     -5.119110    5.858620   -4.048410
  N     -4.500900    5.728230   -2.911240
  C     -3.094410    5.382770   -0.583300
  C     -2.179480    5.105140    0.365030
  C     -0.913390    5.786430    0.530710
  C     -0.238220    6.303480   -0.585150
  C      1.018870    6.833560   -0.419190
  C      1.643530    6.831720    0.836920
  C      2.987240    7.434080    0.682000
  O      3.848700    7.615780    1.505880
  N      3.088210    7.764620   -0.661280
  C      1.952110    7.440000   -1.393010
  O      1.817150    7.632120   -2.575600
  C      4.241880    8.425170   -1.232120
  C      4.173020    9.934300   -1.023250
  C      1.002910    6.335900    1.944310
  C     -0.307760    5.846760    1.812440
  C     -1.011670    5.463120    3.012230
  C     -2.342580    5.604880    3.191020
  C     -3.076120    5.227120    4.347600
  N     -4.417180    5.543780    4.444680
  C     -4.894530    5.060000    5.619650
  C     -6.031260    4.960210    6.419860
  C     -5.639350    4.254400    7.559950
  N     -4.300980    3.928730    7.459430
  C     -3.822670    4.411930    6.283820
  C     -2.684760    4.517440    5.486000
  C     -6.388370    3.840690    8.695270
  C     -7.664910    4.186030    8.965740
  C     -8.407480    3.737790   10.119720
  C     -9.340560    4.623780   10.683920
  C     -9.970520    4.274840   11.852090
  C     -9.710080    3.043720   12.471900
  C    -10.522840    2.972080   13.705500
  O    -10.594890    2.098140   14.533020
  N    -11.222980    4.171280   13.755100
  C    -10.955920    5.006160   12.679670
  O    -11.445750    6.095290   12.512160
  C    -12.160890    4.501500   14.805850
  C    -13.548630    3.946730   14.503960
  C     -8.844880    2.136660   11.909260
  C     -8.192050    2.466490   10.711430
  C     -7.380110    1.480690   10.031360
  C     -6.689660    0.495150   10.636850
  C     -5.880340   -0.493040    9.982360
  C     -5.428250   -0.414000    8.645070
  C     -4.728960   -1.512600    8.044330
  N     -4.344550   -1.433810    6.748750
  C     -4.618240   -0.353840    6.077790
  C     -5.251940    0.749580    6.685660
  N     -5.629210    0.717160    7.932210
  C     -4.433750   -2.695850    8.759230
  C     -4.778330   -2.723160   10.127940
  C     -5.496560   -1.636310   10.723880
  N     -5.848930   -1.692110   12.028630
  C     -5.527990   -2.748350   12.716640
  C     -4.791860   -3.805650   12.139410
  N     -4.422780   -3.781280   10.892580
  C     -3.811220   -3.785500    8.041010
  C     -3.666230   -5.042760    8.457060
  H     -7.706660    2.790090   -1.560060
  H     -4.561220    2.907990    3.283420
  H     -6.628180    1.555530    2.680780
  H     -6.820110    5.277200   -5.285170
  H     -4.681020    6.540130   -4.765360
  H     -2.912980    6.163740   -1.309370
  H     -2.382270    4.309220    1.067180
  H     -0.685510    6.255840   -1.565530
  H      4.255420    8.185530   -2.298270
  H      5.132350    8.016970   -0.746740
  H      3.281610   10.339500   -1.496810
  H      5.047640   10.407380   -1.460590
  H      4.145310   10.163600    0.039580
  H      1.483870    6.351040    2.910670
  H     -0.400070    5.115450    3.833200
  H     -2.929650    6.067260    2.408350
  H     -4.930890    6.043970    3.740160
  H     -7.013590    5.336650    6.219500
  H     -3.795170    3.404600    8.152220
  H     -1.703140    4.137100    5.682980
  H     -5.853380    3.212070    9.394770
  H     -8.163330    4.906530    8.331980
  H     -9.533640    5.579100   10.219650
  H    -12.193110    5.591300   14.879960
  H    -11.777240    4.075720   15.736540
  H    -13.924170    4.361410   13.571150
  H    -14.233260    4.210160   15.305220
  H    -13.507720    2.863200   14.419410
  H     -8.695730    1.170690   12.365290
  H     -7.344340    1.557710    8.954250
  H     -6.719600    0.386720   11.712640
  H     -4.300850   -0.327230    5.043620
  H     -5.421230    1.674820    6.150380
  H     -5.822040   -2.761910   13.757530
  H     -4.480780   -4.661980   12.722990
  H     -3.470510   -3.501440    7.053990
  H     -4.021770   -5.371560    9.416540
  H     -3.175520   -5.772700    7.835170

 Total Charge           Charge          ....    0
 Multiplicity           Mult            ....    1
 Number of Electrons    NEL             ....  490
 Basis Dimension        Dim             .... 1198

ORBITAL ENERGIES
----------------

  NO   OCC          E(Eh)            E(eV)
   0   2.0000     -19.200991      -522.4855
   1   2.0000     -19.200620      -522.4754
   2   2.0000     -19.200338      -522.4678
   3   2.0000     -19.200236      -522.4650
   4   2.0000     -14.460389      -393.4872
   5   2.0000     -14.460338      -393.4858
   6   2.0000     -14.442351      -392.9963
   7   2.0000     -14.441742      -392.9798
   8   2.0000     -14.433234      -392.7483
   9   2.0000     -14.433084      -392.7442
  10   2.0000     -14.431549      -392.7024
  11   2.0000     -14.430142      -392.6641
  12   2.0000     -14.429870      -392.6567
  13   2.0000     -14.429818      -392.6553
  14   2.0000     -14.427682      -392.5972
  15   2.0000     -14.427249      -392.5854
  16   2.0000     -10.380611      -282.4708
  17   2.0000     -10.380404      -282.4651
  18   2.0000     -10.380212      -282.4599
  19   2.0000     -10.379776      -282.4481
  20   2.0000     -10.327952      -281.0379
  21   2.0000     -10.327794      -281.0336
  22   2.0000     -10.327332      -281.0210
  23   2.0000     -10.326801      -281.0065
  24   2.0000     -10.325433      -280.9693
  25   2.0000     -10.325376      -280.9678
  26   2.0000     -10.325283      -280.9652
  27   2.0000     -10.325037      -280.9585
  28   2.0000     -10.324902      -280.9549
  29   2.0000     -10.324211      -280.9361
  30   2.0000     -10.323466      -280.9158
  31   2.0000     -10.322997      -280.9030
  32   2.0000     -10.322790      -280.8974
  33   2.0000     -10.322478      -280.8889
  34   2.0000     -10.322260      -280.8830
  35   2.0000     -10.321408      -280.8598
  36   2.0000     -10.306091      -280.4430
  37   2.0000     -10.306069      -280.4424
  38   2.0000     -10.298886      -280.2469
  39   2.0000     -10.297715      -280.2151
  40   2.0000     -10.297313      -280.2041
  41   2.0000     -10.295332      -280.1502
  42   2.0000     -10.295042      -280.1423
  43   2.0000     -10.294863      -280.1375
  44   2.0000     -10.292736      -280.0796
  45   2.0000     -10.292275      -280.0670
  46   2.0000     -10.291889      -280.0565
  47   2.0000     -10.289640      -279.9953
  48   2.0000     -10.289057      -279.9795
  49   2.0000     -10.285648      -279.8867
  50   2.0000     -10.285483      -279.8822
  51   2.0000     -10.284993      -279.8689
  52   2.0000     -10.284691      -279.8607
  53   2.0000     -10.283692      -279.8335
  54   2.0000     -10.283108      -279.8176
  55   2.0000     -10.282961      -279.8136
  56   2.0000     -10.282342      -279.7967
  57   2.0000     -10.281866      -279.7838
  58   2.0000     -10.281565      -279.7756
  59   2.0000     -10.280869      -279.7567
  60   2.0000     -10.274314      -279.5783
  61   2.0000     -10.274029      -279.5705
  62   2.0000     -10.272549      -279.5303
  63   2.0000     -10.270898      -279.4853
  64   2.0000     -10.269776      -279.4548
  65   2.0000     -10.268761      -279.4272
  66   2.0000     -10.267195      -279.3846
  67   2.0000     -10.266648      -279.3697
  68   2.0000     -10.261638      -279.2334
  69   2.0000     -10.254908      -279.0502
  70   2.0000     -10.252136      -278.9748
  71   2.0000     -10.251780      -278.9651
  72   2.0000      -1.146554       -31.1993
  73   2.0000      -1.146030       -31.1851
  74   2.0000      -1.122853       -30.5544
  75   2.0000      -1.122311       -30.5396
  76   2.0000      -1.092416       -29.7261
  77   2.0000      -1.090293       -29.6684
  78   2.0000      -1.088878       -29.6299
  79   2.0000      -1.082905       -29.4674
  80   2.0000      -1.081507       -29.4293
  81   2.0000      -1.055816       -28.7302
  82   2.0000      -1.037420       -28.2296
  83   2.0000      -1.036879       -28.2149
  84   2.0000      -1.013596       -27.5814
  85   2.0000      -1.012054       -27.5394
  86   2.0000      -1.006795       -27.3963
  87   2.0000      -1.006123       -27.3780
  88   2.0000      -0.971614       -26.4389
  89   2.0000      -0.970842       -26.4179
  90   2.0000      -0.954131       -25.9632
  91   2.0000      -0.951793       -25.8996
  92   2.0000      -0.915268       -24.9057
  93   2.0000      -0.914884       -24.8953
  94   2.0000      -0.899850       -24.4862
  95   2.0000      -0.896060       -24.3830
  96   2.0000      -0.884747       -24.0752
  97   2.0000      -0.878140       -23.8954
  98   2.0000      -0.869887       -23.6708
  99   2.0000      -0.869427       -23.6583
 100   2.0000      -0.867738       -23.6123
 101   2.0000      -0.865490       -23.5512
 102   2.0000      -0.859635       -23.3919
 103   2.0000      -0.852453       -23.1964
 104   2.0000      -0.842291       -22.9199
 105   2.0000      -0.834214       -22.7001
 106   2.0000      -0.825270       -22.4567
 107   2.0000      -0.811906       -22.0931
 108   2.0000      -0.803908       -21.8754
 109   2.0000      -0.794901       -21.6304
 110   2.0000      -0.793915       -21.6035
 111   2.0000      -0.782698       -21.2983
 112   2.0000      -0.769142       -20.9294
 113   2.0000      -0.765543       -20.8315
 114   2.0000      -0.760806       -20.7026
 115   2.0000      -0.754054       -20.5188
 116   2.0000      -0.752002       -20.4630
 117   2.0000      -0.736527       -20.0419
 118   2.0000      -0.729711       -19.8564
 119   2.0000      -0.729434       -19.8489
 120   2.0000      -0.726451       -19.7677
 121   2.0000      -0.717098       -19.5132
 122   2.0000      -0.711847       -19.3703
 123   2.0000      -0.701790       -19.0967
 124   2.0000      -0.695996       -18.9390
 125   2.0000      -0.692651       -18.8480
 126   2.0000      -0.690082       -18.7781
 127   2.0000      -0.688510       -18.7353
 128   2.0000      -0.686740       -18.6872
 129   2.0000      -0.685983       -18.6666
 130   2.0000      -0.671480       -18.2719
 131   2.0000      -0.658120       -17.9084
 132   2.0000      -0.656051       -17.8520
 133   2.0000      -0.652700       -17.7609
 134   2.0000      -0.649973       -17.6867
 135   2.0000      -0.644192       -17.5294
 136   2.0000      -0.636070       -17.3083
 137   2.0000      -0.630579       -17.1589
 138   2.0000      -0.628209       -17.0944
 139   2.0000      -0.625325       -17.0160
 140   2.0000      -0.616043       -16.7634
 141   2.0000      -0.614151       -16.7119
 142   2.0000      -0.608043       -16.5457
 143   2.0000      -0.596723       -16.2376
 144   2.0000      -0.596455       -16.2304
 145   2.0000      -0.595800       -16.2126
 146   2.0000      -0.588659       -16.0182
 147   2.0000      -0.586375       -15.9561
 148   2.0000      -0.580442       -15.7946
 149   2.0000      -0.578327       -15.7371
 150   2.0000      -0.574777       -15.6405
 151   2.0000      -0.569513       -15.4972
 152   2.0000      -0.567236       -15.4353
 153   2.0000      -0.566698       -15.4206
 154   2.0000      -0.561394       -15.2763
 155   2.0000      -0.558424       -15.1955
 156   2.0000      -0.550530       -14.9807
 157   2.0000      -0.549476       -14.9520
 158   2.0000      -0.547068       -14.8865
 159   2.0000      -0.544556       -14.8181
 160   2.0000      -0.541711       -14.7407
 161   2.0000      -0.539519       -14.6811
 162   2.0000      -0.535640       -14.5755
 163   2.0000      -0.533979       -14.5303
 164   2.0000      -0.531744       -14.4695
 165   2.0000      -0.529179       -14.3997
 166   2.0000      -0.527408       -14.3515
 167   2.0000      -0.524773       -14.2798
 168   2.0000      -0.523275       -14.2390
 169   2.0000      -0.521177       -14.1819
 170   2.0000      -0.519654       -14.1405
 171   2.0000      -0.518528       -14.1099
 172   2.0000      -0.517398       -14.0791
 173   2.0000      -0.517214       -14.0741
 174   2.0000      -0.515387       -14.0244
 175   2.0000      -0.513691       -13.9782
 176   2.0000      -0.512423       -13.9437
 177   2.0000      -0.511143       -13.9089
 178   2.0000      -0.507772       -13.8172
 179   2.0000      -0.502418       -13.6715
 180   2.0000      -0.498716       -13.5708
 181   2.0000      -0.498050       -13.5526
 182   2.0000      -0.497681       -13.5426
 183   2.0000      -0.494793       -13.4640
 184   2.0000      -0.489516       -13.3204
 185   2.0000      -0.487034       -13.2529
 186   2.0000      -0.477056       -12.9813
 187   2.0000      -0.475734       -12.9454
 188   2.0000      -0.473013       -12.8713
 189   2.0000      -0.471949       -12.8424
 190   2.0000      -0.471320       -12.8253
 191   2.0000      -0.469922       -12.7872
 192   2.0000      -0.469501       -12.7758
 193   2.0000      -0.463479       -12.6119
 194   2.0000      -0.461959       -12.5706
 195   2.0000      -0.459333       -12.4991
 196   2.0000      -0.456094       -12.4109
 197   2.0000      -0.453590       -12.3428
 198   2.0000      -0.452506       -12.3133
 199   2.0000      -0.447445       -12.1756
 200   2.0000      -0.446683       -12.1548
 201   2.0000      -0.445367       -12.1191
 202   2.0000      -0.442973       -12.0539
 203   2.0000      -0.442055       -12.0289
 204   2.0000      -0.441658       -12.0181
 205   2.0000      -0.439685       -11.9644
 206   2.0000      -0.436377       -11.8744
 207   2.0000      -0.430800       -11.7227
 208   2.0000      -0.429364       -11.6836
 209   2.0000      -0.428008       -11.6467
 210   2.0000      -0.423786       -11.5318
 211   2.0000      -0.418693       -11.3932
 212   2.0000      -0.418241       -11.3809
 213   2.0000      -0.416198       -11.3253
 214   2.0000      -0.415823       -11.3151
 215   2.0000      -0.394200       -10.7267
 216   2.0000      -0.391896       -10.6640
 217   2.0000      -0.387863       -10.5543
 218   2.0000      -0.386789       -10.5251
 219   2.0000      -0.386515       -10.5176
 220   2.0000      -0.380954       -10.3663
 221   2.0000      -0.375395       -10.2150
 222   2.0000      -0.372493       -10.1361
 223   2.0000      -0.354585        -9.6488
 224   2.0000      -0.354407        -9.6439
 225   2.0000      -0.352998        -9.6056
 226   2.0000      -0.352219        -9.5844
 227   2.0000      -0.337375        -9.1804
 228   2.0000      -0.336478        -9.1560
 229   2.0000      -0.334318        -9.0973
 230   2.0000      -0.333965        -9.0877
 231   2.0000      -0.332942        -9.0598
 232   2.0000      -0.332372        -9.0443
 233   2.0000      -0.330444        -8.9918
 234   2.0000      -0.328110        -8.9283
 235   2.0000      -0.327898        -8.9226
 236   2.0000      -0.324520        -8.8306
 237   2.0000      -0.321568        -8.7503
 238   2.0000      -0.316703        -8.6179
 239   2.0000      -0.313984        -8.5440
 240   2.0000      -0.296222        -8.0606
 241   2.0000      -0.292242        -7.9523
 242   2.0000      -0.267542        -7.2802
 243   2.0000      -0.254662        -6.9297
 244   2.0000      -0.223849        -6.0912
 245   0.0000      -0.088137        -2.3983
 246   0.0000      -0.084134        -2.2894
 247   0.0000      -0.056159        -1.5282
 248   0.0000      -0.042185        -1.1479
 249   0.0000      -0.019093        -0.5195

MULLIKEN ATOMIC CHARGES
-----------------------
   0 C :   -0.075636
   1 C :    0.035283
   2 C :   -0.056307
   3 N :   -0.049156
   4 C :    0.018749
   5 C :    0.023647
   6 N :   -0.015259
   7 C :    0.104255
   8 C :   -0.050000
   9 C :    0.037201
  10 N :   -0.017129
  11 C :    0.022346
  12 C :    0.024796
  13 N :   -0.019271
  14 C :   -0.078069
  15 C :   -0.023833
  16 C :    0.075184
  17 C :   -0.090096
  18 C :    0.012132
  19 C :    0.024488
  20 C :    0.182473
  21 O :   -0.163694
  22 N :   -0.302593
  23 C :    0.185140
  24 O :   -0.161550
  25 C :    0.134941
  26 C :   -0.008786
  27 C :   -0.098745
  28 C :    0.105572
  29 C :   -0.061419
  30 C :    0.046284
  31 C :    0.078824
  32 N :   -0.032582
  33 C :    0.101202
  34 C :   -0.174779
  35 C :    0.078847
  36 N :   -0.032935
  37 C :    0.098327
  38 C :   -0.174131
  39 C :    0.045693
  40 C :   -0.063056
  41 C :    0.104787
  42 C :   -0.093629
  43 C :    0.013909
  44 C :    0.012102
  45 C :    0.187676
  46 O :   -0.163198
  47 N :   -0.303615
  48 C :    0.185193
  49 O :   -0.162400
  50 C :    0.133753
  51 C :   -0.009807
  52 C :   -0.085826
  53 C :    0.071914
  54 C :   -0.025332
  55 C :   -0.076477
  56 C :    0.084662
  57 C :   -0.062045
  58 C :   -0.034599
  59 N :   -0.013101
  60 C :    0.026650
  61 C :    0.014414
  62 N :   -0.043115
  63 C :    0.061238
  64 C :   -0.059728
  65 C :   -0.025308
  66 N :   -0.018982
  67 C :    0.025691
  68 C :    0.029350
  69 N :   -0.021490
  70 C :   -0.070356
  71 C :    0.031416
  72 H :   -0.034117
  73 H :    0.023387
  74 H :    0.013235
  75 H :    0.016325
  76 H :    0.017575
  77 H :    0.005219
  78 H :    0.042478
  79 H :   -0.007957
  80 H :    0.031803
  81 H :    0.026911
  82 H :    0.022309
  83 H :    0.019258
  84 H :    0.029220
  85 H :   -0.014510
  86 H :   -0.011544
  87 H :   -0.001379
  88 H :    0.123339
  89 H :   -0.036475
  90 H :    0.123726
  91 H :   -0.036844
  92 H :   -0.000561
  93 H :   -0.010554
  94 H :   -0.015244
  95 H :    0.031351
  96 H :    0.027309
  97 H :    0.023490
  98 H :    0.020154
  99 H :    0.029139
 100 H :   -0.008363
 101 H :    0.039241
 102 H :    0.004779
 103 H :    0.011303
 104 H :    0.024771
 105 H :    0.017304
 106 H :    0.014826
 107 H :   -0.000673
 108 H :    0.024944
 109 H :    0.014721
Sum of atomic charges:   -0.0000000

LOEWDIN ATOMIC CHARGES
----------------------
   0 C :   -0.007326
   1 C :   -0.013082
   2 C :   -0.013602
   3 N :   -0.032520
   4 C :    0.003751
   5 C :    0.003291
   6 N :   -0.032208
   7 C :   -0.008916
   8 C :   -0.011268
   9 C :   -0.013280
  10 N :   -0.035303
  11 C :    0.008239
  12 C :    0.008111
  13 N :   -0.032637
  14 C :   -0.032908
  15 C :    0.003769
  16 C :   -0.014262
  17 C :    0.022603
  18 C :   -0.059685
  19 C :   -0.053177
  20 C :    0.087519
  21 O :   -0.164772
  22 N :   -0.038018
  23 C :    0.088002
  24 O :   -0.163767
  25 C :    0.043693
  26 C :   -0.060303
  27 C :    0.012469
  28 C :   -0.001914
  29 C :   -0.037174
  30 C :   -0.007354
  31 C :   -0.008349
  32 N :    0.074530
  33 C :   -0.029744
  34 C :   -0.095354
  35 C :   -0.007687
  36 N :    0.074133
  37 C :   -0.030861
  38 C :   -0.094976
  39 C :   -0.008497
  40 C :   -0.036108
  41 C :   -0.003159
  42 C :    0.013209
  43 C :   -0.054577
  44 C :   -0.059383
  45 C :    0.088357
  46 O :   -0.164703
  47 N :   -0.038115
  48 C :    0.087482
  49 O :   -0.164786
  50 C :    0.043530
  51 C :   -0.060649
  52 C :    0.022357
  53 C :   -0.012957
  54 C :   -0.000183
  55 C :   -0.030016
  56 C :   -0.017275
  57 C :   -0.010811
  58 C :   -0.007103
  59 N :   -0.025788
  60 C :    0.003382
  61 C :    0.003514
  62 N :   -0.031745
  63 C :   -0.013891
  64 C :   -0.007509
  65 C :   -0.005907
  66 N :   -0.030377
  67 C :    0.008578
  68 C :    0.009578
  69 N :   -0.022483
  70 C :   -0.033537
  71 C :   -0.014755
  72 H :    0.041941
  73 H :    0.026707
  74 H :    0.026127
  75 H :    0.027756
  76 H :    0.028248
  77 H :    0.028664
  78 H :    0.032129
  79 H :    0.039417
  80 H :    0.031707
  81 H :    0.030609
  82 H :    0.026840
  83 H :    0.028839
  84 H :    0.028286
  85 H :    0.036709
  86 H :    0.027651
  87 H :    0.034783
  88 H :    0.089095
  89 H :    0.023568
  90 H :    0.089068
  91 H :    0.023558
  92 H :    0.034708
  93 H :    0.027732
  94 H :    0.036512
  95 H :    0.031619
  96 H :    0.030627
  97 H :    0.027162
  98 H :    0.028989
  99 H :    0.028357
 100 H :    0.039152
 101 H :    0.031456
 102 H :    0.028593
 103 H :    0.025976
 104 H :    0.026927
 105 H :    0.028445
 106 H :    0.027212
 107 H :    0.029582
 108 H :    0.018273
 109 H :    0.021640

  Mayer bond orders larger than 0.100000
B(  0-C ,  1-C ) :   1.2447 B(  0-C ,  7-C ) :   0.1395 B(  0-C ,  9-C ) :   1.2457
B(  0-C , 72-H ) :   1.0559 B(  1-C ,  2-C ) :   1.1717 B(  1-C ,  6-N ) :   1.3726
B(  2-C ,  3-N ) :   1.4256 B(  2-C ,  7-C ) :   1.2487 B(  3-N ,  4-C ) :   1.6716
B(  4-C ,  5-C ) :   1.1793 B(  4-C , 73-H ) :   0.9684 B(  5-C ,  6-N ) :   1.7216
B(  5-C , 74-H ) :   0.9748 B(  7-C ,  8-C ) :   1.2527 B(  7-C , 14-C ) :   1.1461
B(  8-C ,  9-C ) :   1.1730 B(  8-C , 13-N ) :   1.4503 B(  9-C , 10-N ) :   1.3704
B( 10-N , 11-C ) :   1.7262 B( 11-C , 12-C ) :   1.1737 B( 11-C , 75-H ) :   0.9737
B( 12-C , 13-N ) :   1.7070 B( 12-C , 76-H ) :   0.9746 B( 14-C , 15-C ) :   1.6874
B( 14-C , 77-H ) :   0.9546 B( 15-C , 16-C ) :   1.0387 B( 15-C , 78-H ) :   0.9477
B( 16-C , 17-C ) :   1.3139 B( 16-C , 28-C ) :   1.3288 B( 17-C , 18-C ) :   1.3886
B( 17-C , 79-H ) :   1.0108 B( 18-C , 19-C ) :   1.3356 B( 18-C , 23-C ) :   0.8830
B( 19-C , 20-C ) :   0.8791 B( 19-C , 27-C ) :   1.4058 B( 20-C , 21-O ) :   2.2229
B( 20-C , 22-N ) :   1.0654 B( 22-N , 23-C ) :   1.0577 B( 22-N , 25-C ) :   0.9210
B( 23-C , 24-O ) :   2.2256 B( 25-C , 26-C ) :   1.1239 B( 25-C , 80-H ) :   0.9415
B( 25-C , 81-H ) :   0.9436 B( 26-C , 82-H ) :   0.9691 B( 26-C , 83-H ) :   0.9702
B( 26-C , 84-H ) :   0.9697 B( 27-C , 28-C ) :   1.2732 B( 27-C , 85-H ) :   1.0158
B( 28-C , 29-C ) :   1.0753 B( 29-C , 30-C ) :   1.6953 B( 29-C , 86-H ) :   0.9721
B( 30-C , 31-C ) :   1.1124 B( 30-C , 87-H ) :   0.9476 B( 31-C , 32-N ) :   1.1690
B( 31-C , 38-C ) :   1.4144 B( 32-N , 33-C ) :   1.1675 B( 32-N , 88-H ) :   0.9350
B( 33-C , 34-C ) :   1.2437 B( 33-C , 37-C ) :   1.3161 B( 34-C , 35-C ) :   1.4170
B( 34-C , 89-H ) :   1.0346 B( 35-C , 36-N ) :   1.1691 B( 35-C , 39-C ) :   1.1105
B( 36-N , 37-C ) :   1.1660 B( 36-N , 90-H ) :   0.9347 B( 37-C , 38-C ) :   1.2444
B( 38-C , 91-H ) :   1.0354 B( 39-C , 40-C ) :   1.6968 B( 39-C , 92-H ) :   0.9492
B( 40-C , 41-C ) :   1.0730 B( 40-C , 93-H ) :   0.9729 B( 41-C , 42-C ) :   1.2773
B( 41-C , 53-C ) :   1.3273 B( 42-C , 43-C ) :   1.4068 B( 42-C , 94-H ) :   1.0152
B( 43-C , 44-C ) :   1.3330 B( 43-C , 48-C ) :   0.8784 B( 44-C , 45-C ) :   0.8837
B( 44-C , 52-C ) :   1.3928 B( 45-C , 46-O ) :   2.2226 B( 45-C , 47-N ) :   1.0575
B( 47-N , 48-C ) :   1.0653 B( 47-N , 50-C ) :   0.9214 B( 48-C , 49-O ) :   2.2258
B( 50-C , 51-C ) :   1.1244 B( 50-C , 95-H ) :   0.9418 B( 50-C , 96-H ) :   0.9434
B( 51-C , 97-H ) :   0.9691 B( 51-C , 98-H ) :   0.9701 B( 51-C , 99-H ) :   0.9698
B( 52-C , 53-C ) :   1.3136 B( 52-C ,100-H ) :   1.0093 B( 53-C , 54-C ) :   1.0393
B( 54-C , 55-C ) :   1.6820 B( 54-C ,101-H ) :   0.9488 B( 55-C , 56-C ) :   1.1585
B( 55-C ,102-H ) :   0.9500 B( 56-C , 57-C ) :   1.2467 B( 56-C , 63-C ) :   0.1375
B( 56-C , 65-C ) :   1.2410 B( 57-C , 58-C ) :   1.1525 B( 57-C , 62-N ) :   1.4375
B( 58-C , 59-N ) :   1.4496 B( 58-C , 63-C ) :   1.2599 B( 59-N , 60-C ) :   1.7048
B( 60-C , 61-C ) :   1.1860 B( 60-C ,103-H ) :   0.9753 B( 61-C , 62-N ) :   1.6633
B( 61-C ,104-H ) :   0.9686 B( 63-C , 64-C ) :   1.2543 B( 63-C , 70-C ) :   1.1565
B( 64-C , 65-C ) :   1.1547 B( 64-C , 69-N ) :   1.4370 B( 65-C , 66-N ) :   1.4580
B( 66-N , 67-C ) :   1.6991 B( 67-C , 68-C ) :   1.1841 B( 67-C ,105-H ) :   0.9745
B( 68-C , 69-N ) :   1.6904 B( 68-C ,106-H ) :   0.9727 B( 70-C , 71-C ) :   1.9051
B( 70-C ,107-H ) :   0.9422 B( 71-C ,108-H ) :   0.9326 B( 71-C ,109-H ) :   0.9434

-----------------------------------------------------------------------------
         ABSORPTION SPECTRUM VIA TRANSITION ELECTRIC DIPOLE MOMENTS
-----------------------------------------------------------------------------
State   Energy  Wavelength   fosc         T2         TX        TY        TZ
        (cm-1)    (nm)                  (au**2)     (au)      (au)      (au)
-----------------------------------------------------------------------------
   0   14751.2    677.9   0.163527599   3.64956   0.15518  -1.57404   1.07139
   1   15595.9    641.2   0.098269105   2.07435  -0.24359  -0.62945  -1.27232
   2   19829.1    504.3   0.250856150   4.16483   0.89190  -1.77793  -0.45639
   3   21511.7    464.9   1.062351399  16.25810   1.91921   0.67966  -3.48035
   4   22675.3    441.0   0.610898319   8.86934  -2.66623  -1.12802   0.69867
   5   24846.1    402.5   0.008556649   0.11338   0.32013   0.10124  -0.02537
   6   25286.2    395.5   0.037630067   0.48992  -0.22360   0.50933   0.42486
   7   26105.6    383.1   0.006930252   0.08740  -0.09377   0.26198   0.09984
   8   26909.3    371.6   0.005958649   0.07290  -0.00760   0.13491  -0.23375
   9   27111.9    368.8   0.010624985   0.12902  -0.34852   0.04836   0.07221
  10   27298.9    366.3   0.014670930   0.17692   0.27606  -0.09784  -0.30190
  11   28104.2    355.8   0.003929882   0.04603   0.00106  -0.18519  -0.10834
  12   28328.9    353.0   0.063241892   0.73494   0.35350  -0.62358  -0.47024
  13   29085.8    343.8   0.135170765   1.52995   0.93339  -0.09114  -0.80649
  14   29487.8    339.1   0.015105784   0.16865   0.30638  -0.24247  -0.12642
  15   29822.5    335.3   0.249262442   2.75162  -1.40171   0.38602   0.79864
  16   30001.3    333.3   0.022257817   0.24424  -0.43281   0.23568   0.03709
  17   30359.0    329.4   0.419749162   4.55174  -1.88672   0.13151   0.98729
  18   30712.1    325.6   0.166851019   1.78852  -1.27782  -0.34208   0.19668
  19   30811.3    324.6   0.018663640   0.19942   0.21257   0.11532  -0.37541
  20   30950.0    323.1   0.152744629   1.62473   0.84633   0.19163  -0.93367
  21   31522.4    317.2   0.076223630   0.79606   0.44136   0.68757   0.35848
  22   32309.2    309.5   0.045734398   0.46601  -0.20471  -0.35598   0.54532
  23   32636.3    306.4   0.009048094   0.09127   0.07756   0.28046  -0.08123
  24   32880.2    304.1   0.115942829   1.16087  -0.24415   0.79052  -0.69018
  25   33062.4    302.5   0.035988677   0.35835  -0.24538   0.01835  -0.54571
  26   33677.8    296.9   0.016681254   0.16307  -0.13235   0.16314   0.34487
  27   33946.4    294.6   0.043629686   0.42312  -0.03989   0.11882  -0.63829
  28   34768.7    287.6   0.017915252   0.16963  -0.24947  -0.07625  -0.31873
  29   34857.4    286.9   0.102166495   0.96491  -0.21620   0.95011   0.12436
  30   35265.1    283.6   0.201698817   1.88293  -1.13613   0.69477   0.33080
  31   36089.7    277.1   0.012136293   0.11071   0.11433   0.29086  -0.11419
  32   36294.4    275.5   0.023046363   0.20904  -0.23618   0.28076   0.27283
  33   36553.6    273.6   0.109899236   0.98978  -0.81431  -0.54307  -0.17821
  34   36727.7    272.3   0.057404151   0.51455  -0.27733  -0.47025  -0.46529
  35   36943.9    270.7   0.194484588   1.73308  -0.37300   0.03892   1.26192
  36   37564.1    266.2   0.005513608   0.04832  -0.07001   0.01298   0.20797
  37   37813.6    264.5   0.008726271   0.07597   0.06918  -0.21220  -0.16174
  38   38376.1    260.6   0.034212201   0.29349  -0.50938  -0.16951  -0.07274
  39   38425.9    260.2   0.685625401   5.87406   0.76399   0.95460  -2.09264
  40   38897.7    257.1   0.822488724   6.96117   0.08609   1.45798  -2.19728
  41   39155.2    255.4   0.210183729   1.76720  -1.16814   0.53712  -0.33786
  42   39542.4    252.9   0.047641833   0.39664   0.59217   0.19830   0.08159
  43   39725.9    251.7   0.056456220   0.46786  -0.58925   0.07813   0.33844
  44   39943.0    250.4   0.140683150   1.15952  -0.37489   0.44268  -0.90720
  45   40213.9    248.7   0.029889906   0.24469   0.05380   0.34236  -0.35297
  46   40303.2    248.1   0.084941402   0.69383  -0.03604   0.39321  -0.73343

FINAL SINGLE POINT ENERGY     -3110.900436115918

DIPOLE MOMENT
-------------
                                X             Y             Z
Electronic contribution:     -2.55466      -9.46943     -10.05623
Nuclear contribution   :      2.40889       8.71960       9.78034
                        -----------------------------------------
Total Dipole Moment    :     -0.14577      -0.74983      -0.27589
                        -----------------------------------------
Magnitude (a.u.)       :      0.81216
Magnitude (Debye)      :      2.06435

Rotational constants in cm-1:     0.001233     0.000351     0.000337
Rotational constants in MHz :    36.950558    10.537673    10.095735

                             ****ORCA TERMINATED NORMALLY****
TOTAL RUN TIME: 0 days 0 hours 20 minutes 0 seconds 72 msec
