                         Program Version 4.2.0 -  RELEASE  -
|  1> # ORCA input file
|  2> # SCF done       -179.295266190877          0.000368622657
|  3> ! CAM-B3LYP def2-SVP def2/J RIJCOSX Grid4 TightSCF
|  4> %maxcore 5000
|  5> %tddft
|  6>     Mode sTDDFT
|  7>     Ethresh 5.0
|  8>     maxcore 5000
|  9> end
| 10>
| 11> %pal
| 12>   nprocs 6
| 13>   end
| 14> * xyz 0 1
| 15>    C       -5.47207         2.51601         0.16421
| 16>    C       -5.02093         2.19201        -1.11190
| 17>    C       -3.98632         2.95655        -1.75032
| 18>    N       -3.57343         2.60554        -2.98635
| 19>    C       -4.13804         1.58145        -3.56534
| 20>    C       -5.16036         0.83840        -2.93802
| 21>    N       -5.58687         1.13346        -1.74538
| 22>    C       -3.40037         4.06847        -1.08661
| 23>    C       -3.87598         4.37177         0.22050
| 24>    C       -4.91057         3.59740         0.83553
| 25>    N       -5.36013         3.91154         2.07756
| 26>    C       -4.81652         4.93032         2.67648
| 27>    C       -3.78930         5.69121         2.07415
| 28>    N       -3.33645         5.41715         0.88260
| 29>    C       -2.38462         4.90621        -1.62103
| 30>    C       -1.82023         4.83534        -2.85951
| 31>    C       -0.82954         5.71765        -3.31787
| 32>    C       -0.22599         5.73006        -4.59475
| 33>    C        0.72932         6.77353        -4.74878
| 34>    C        1.41376         6.91338        -5.96769
| 35>    C        1.15102         6.04159        -6.99033
| 36>    C        0.20823         5.01168        -6.83796
| 37>    C       -0.47517         4.85120        -5.66263
| 38>    C        0.87023         7.56303        -3.58515
| 39>    S       -0.18681         6.99254        -2.33011
| 40>    C        1.71951         8.66157        -3.40301
| 41>    C        1.86516         9.34861        -2.22919
| 42>    C        2.73175        10.45395        -2.10640
| 43>    O        3.38188        10.89122        -3.20369
| 44>    C        4.16198        11.94206        -2.86237
| 45>    C        4.02349        12.20081        -1.48753
| 46>    C        3.09831        11.24953        -1.00277
| 47>    C        2.59249        11.09094         0.38516
| 48>    F        1.69695        10.10892         0.53001
| 49>    F        3.57205        10.81518         1.27561
| 50>    F        1.98133        12.20198         0.85304
| 51>    O        4.72722        13.20608        -0.94548
| 52>    C        4.64605        13.51032         0.43344
| 53>    C        4.94926        12.63669        -3.79973
| 54>    C        4.91983        12.37852        -5.13980
| 55>    C        5.64389        13.03037        -6.15355
| 56>    C        6.77825        13.87190        -6.12308
| 57>    C        7.10408        14.39725        -7.40814
| 58>    C        8.20186        15.26181        -7.55475
| 59>    C        8.96720        15.57083        -6.46308
| 60>    C        8.67949        15.01520        -5.20641
| 61>    C        7.61009        14.17815        -5.03097
| 62>    C        6.24348        13.94803        -8.43421
| 63>    S        5.06510        12.85276        -7.78432
| 64>    C        6.27281        14.31405        -9.78678
| 65>    C        5.39150        13.85067       -10.71998
| 66>    C        5.33634        14.18986       -12.09513
| 67>    C        6.23800        15.05642       -12.76952
| 68>    C        6.03055        15.39968       -14.14461
| 69>    N        6.89336        16.23790       -14.76536
| 70>    C        7.89692        16.71769       -14.08900
| 71>    C        8.10567        16.37341       -12.74066
| 72>    N        7.29967        15.56390       -12.10997
| 73>    C        4.93587        14.90210       -14.89173
| 74>    C        4.08241        13.97923       -14.24694
| 75>    C        4.27866        13.63553       -12.87139
| 76>    N        3.44080        12.76914       -12.26543
| 77>    C        2.46194        12.25656       -12.95808
| 78>    C        2.28461        12.57032       -14.31905
| 79>    N        3.07408        13.40024       -14.93858
| 80>    C        4.77428        15.37283       -16.24803
| 81>    C        3.71536        15.20644       -17.04042
| 82>    H       -6.25323         1.93470         0.62503
| 83>    H       -3.78076         1.32652        -4.55475
| 84>    H       -5.62432        -0.00701        -3.42886
| 85>    H       -5.18765         5.17117         3.66412
| 86>    H       -3.33792         6.53282         2.58248
| 87>    H       -2.05614         5.68613        -0.94443
| 88>    H       -2.15178         4.06579        -3.53989
| 89>    H        2.14075         7.70086        -6.09194
| 90>    H        1.67383         6.14090        -7.92978
| 91>    H        0.02572         4.34072        -7.66394
| 92>    H       -1.19807         4.05885        -5.54795
| 93>    H        2.30397         8.97425        -4.25665
| 94>    H        1.30931         9.03482        -1.36172
| 95>    H        5.33376        14.34225         0.57739
| 96>    H        4.96631        12.66980         1.05195
| 97>    H        3.64047        13.82459         0.71905
| 98>    H        5.53903        13.43514        -3.38229
| 99>    H        4.21303        11.63240        -5.48105
|100>    H        8.43918        15.66486        -8.52680
|101>    H        9.81442        16.23222        -6.56560
|102>    H        9.32059        15.24816        -4.36933
|103>    H        7.42516        13.73334        -4.06763
|104>    H        7.03585        15.01231       -10.09440
|105>    H        4.62198        13.15623       -10.40442
|106>    H        8.56870        17.38151       -14.61719
|107>    H        8.94960        16.75401       -12.18011
|108>    H        1.80914        11.56558       -12.44132
|109>    H        1.49490        12.12043       -14.90688
|110>    H        5.62259        15.94546       -16.59978
|111>    H        2.84063        14.67099       -16.71969
|112>    H        3.71138        15.60832       -18.04006
|113> *
|114>
|115>                          ****END OF INPUT****

CARTESIAN COORDINATES (ANGSTROEM)
---------------------------------
  C     -5.472070    2.516010    0.164210
  C     -5.020930    2.192010   -1.111900
  C     -3.986320    2.956550   -1.750320
  N     -3.573430    2.605540   -2.986350
  C     -4.138040    1.581450   -3.565340
  C     -5.160360    0.838400   -2.938020
  N     -5.586870    1.133460   -1.745380
  C     -3.400370    4.068470   -1.086610
  C     -3.875980    4.371770    0.220500
  C     -4.910570    3.597400    0.835530
  N     -5.360130    3.911540    2.077560
  C     -4.816520    4.930320    2.676480
  C     -3.789300    5.691210    2.074150
  N     -3.336450    5.417150    0.882600
  C     -2.384620    4.906210   -1.621030
  C     -1.820230    4.835340   -2.859510
  C     -0.829540    5.717650   -3.317870
  C     -0.225990    5.730060   -4.594750
  C      0.729320    6.773530   -4.748780
  C      1.413760    6.913380   -5.967690
  C      1.151020    6.041590   -6.990330
  C      0.208230    5.011680   -6.837960
  C     -0.475170    4.851200   -5.662630
  C      0.870230    7.563030   -3.585150
  S     -0.186810    6.992540   -2.330110
  C      1.719510    8.661570   -3.403010
  C      1.865160    9.348610   -2.229190
  C      2.731750   10.453950   -2.106400
  O      3.381880   10.891220   -3.203690
  C      4.161980   11.942060   -2.862370
  C      4.023490   12.200810   -1.487530
  C      3.098310   11.249530   -1.002770
  C      2.592490   11.090940    0.385160
  F      1.696950   10.108920    0.530010
  F      3.572050   10.815180    1.275610
  F      1.981330   12.201980    0.853040
  O      4.727220   13.206080   -0.945480
  C      4.646050   13.510320    0.433440
  C      4.949260   12.636690   -3.799730
  C      4.919830   12.378520   -5.139800
  C      5.643890   13.030370   -6.153550
  C      6.778250   13.871900   -6.123080
  C      7.104080   14.397250   -7.408140
  C      8.201860   15.261810   -7.554750
  C      8.967200   15.570830   -6.463080
  C      8.679490   15.015200   -5.206410
  C      7.610090   14.178150   -5.030970
  C      6.243480   13.948030   -8.434210
  S      5.065100   12.852760   -7.784320
  C      6.272810   14.314050   -9.786780
  C      5.391500   13.850670  -10.719980
  C      5.336340   14.189860  -12.095130
  C      6.238000   15.056420  -12.769520
  C      6.030550   15.399680  -14.144610
  N      6.893360   16.237900  -14.765360
  C      7.896920   16.717690  -14.089000
  C      8.105670   16.373410  -12.740660
  N      7.299670   15.563900  -12.109970
  C      4.935870   14.902100  -14.891730
  C      4.082410   13.979230  -14.246940
  C      4.278660   13.635530  -12.871390
  N      3.440800   12.769140  -12.265430
  C      2.461940   12.256560  -12.958080
  C      2.284610   12.570320  -14.319050
  N      3.074080   13.400240  -14.938580
  C      4.774280   15.372830  -16.248030
  C      3.715360   15.206440  -17.040420
  H     -6.253230    1.934700    0.625030
  H     -3.780760    1.326520   -4.554750
  H     -5.624320   -0.007010   -3.428860
  H     -5.187650    5.171170    3.664120
  H     -3.337920    6.532820    2.582480
  H     -2.056140    5.686130   -0.944430
  H     -2.151780    4.065790   -3.539890
  H      2.140750    7.700860   -6.091940
  H      1.673830    6.140900   -7.929780
  H      0.025720    4.340720   -7.663940
  H     -1.198070    4.058850   -5.547950
  H      2.303970    8.974250   -4.256650
  H      1.309310    9.034820   -1.361720
  H      5.333760   14.342250    0.577390
  H      4.966310   12.669800    1.051950
  H      3.640470   13.824590    0.719050
  H      5.539030   13.435140   -3.382290
  H      4.213030   11.632400   -5.481050
  H      8.439180   15.664860   -8.526800
  H      9.814420   16.232220   -6.565600
  H      9.320590   15.248160   -4.369330
  H      7.425160   13.733340   -4.067630
  H      7.035850   15.012310  -10.094400
  H      4.621980   13.156230  -10.404420
  H      8.568700   17.381510  -14.617190
  H      8.949600   16.754010  -12.180110
  H      1.809140   11.565580  -12.441320
  H      1.494900   12.120430  -14.906880
  H      5.622590   15.945460  -16.599780
  H      2.840630   14.670990  -16.719690
  H      3.711380   15.608320  -18.040060

 Total Charge           Charge          ....    0
 Multiplicity           Mult            ....    1
 Number of Electrons    NEL             ....  474
 Basis Dimension        Dim             .... 1101

ORBITAL ENERGIES
----------------

  NO   OCC          E(Eh)            E(eV)
   0   2.0000     -88.959264     -2420.7046
   1   2.0000     -88.952244     -2420.5136
   2   2.0000     -24.805328      -674.9873
   3   2.0000     -24.797168      -674.7652
   4   2.0000     -24.796852      -674.7566
   5   2.0000     -19.295270      -525.0510
   6   2.0000     -19.258265      -524.0440
   7   2.0000     -14.425938      -392.5497
   8   2.0000     -14.422991      -392.4695
   9   2.0000     -14.422033      -392.4435
  10   2.0000     -14.420181      -392.3931
  11   2.0000     -14.419860      -392.3843
  12   2.0000     -14.418246      -392.3404
  13   2.0000     -14.417807      -392.3285
  14   2.0000     -14.414890      -392.2491
  15   2.0000     -10.524017      -286.3731
  16   2.0000     -10.350704      -281.6570
  17   2.0000     -10.346611      -281.5456
  18   2.0000     -10.324618      -280.9471
  19   2.0000     -10.322869      -280.8995
  20   2.0000     -10.321144      -280.8526
  21   2.0000     -10.318782      -280.7883
  22   2.0000     -10.317333      -280.7489
  23   2.0000     -10.317267      -280.7471
  24   2.0000     -10.317052      -280.7413
  25   2.0000     -10.315445      -280.6975
  26   2.0000     -10.315046      -280.6867
  27   2.0000     -10.314947      -280.6840
  28   2.0000     -10.314568      -280.6737
  29   2.0000     -10.313701      -280.6501
  30   2.0000     -10.313697      -280.6500
  31   2.0000     -10.312356      -280.6135
  32   2.0000     -10.311041      -280.5777
  33   2.0000     -10.310333      -280.5584
  34   2.0000     -10.309791      -280.5437
  35   2.0000     -10.309481      -280.5352
  36   2.0000     -10.301595      -280.3206
  37   2.0000     -10.300384      -280.2877
  38   2.0000     -10.298568      -280.2383
  39   2.0000     -10.296470      -280.1812
  40   2.0000     -10.291684      -280.0510
  41   2.0000     -10.289522      -279.9921
  42   2.0000     -10.286649      -279.9140
  43   2.0000     -10.283116      -279.8178
  44   2.0000     -10.280198      -279.7384
  45   2.0000     -10.279633      -279.7230
  46   2.0000     -10.278793      -279.7002
  47   2.0000     -10.276764      -279.6450
  48   2.0000     -10.275848      -279.6200
  49   2.0000     -10.275210      -279.6027
  50   2.0000     -10.273360      -279.5523
  51   2.0000     -10.273021      -279.5431
  52   2.0000     -10.272871      -279.5390
  53   2.0000     -10.272714      -279.5348
  54   2.0000     -10.272410      -279.5265
  55   2.0000     -10.270787      -279.4823
  56   2.0000     -10.270773      -279.4820
  57   2.0000     -10.270142      -279.4648
  58   2.0000     -10.267219      -279.3852
  59   2.0000     -10.266846      -279.3751
  60   2.0000     -10.265272      -279.3323
  61   2.0000     -10.264934      -279.3231
  62   2.0000     -10.264302      -279.3059
  63   2.0000     -10.263644      -279.2880
  64   2.0000     -10.255661      -279.0707
  65   2.0000     -10.248433      -278.8740
  66   2.0000     -10.240477      -278.6575
  67   2.0000      -8.054129      -219.1640
  68   2.0000      -8.047396      -218.9808
  69   2.0000      -6.022992      -163.8940
  70   2.0000      -6.019111      -163.7883
  71   2.0000      -6.016968      -163.7300
  72   2.0000      -6.016248      -163.7104
  73   2.0000      -6.012330      -163.6038
  74   2.0000      -6.010267      -163.5477
  75   2.0000      -1.390527       -37.8382
  76   2.0000      -1.294078       -35.2136
  77   2.0000      -1.286875       -35.0177
  78   2.0000      -1.216600       -33.1054
  79   2.0000      -1.159894       -31.5623
  80   2.0000      -1.081186       -29.4206
  81   2.0000      -1.077258       -29.3137
  82   2.0000      -1.074110       -29.2280
  83   2.0000      -1.070275       -29.1237
  84   2.0000      -1.004224       -27.3263
  85   2.0000      -1.000360       -27.2212
  86   2.0000      -0.998422       -27.1685
  87   2.0000      -0.993848       -27.0440
  88   2.0000      -0.991977       -26.9931
  89   2.0000      -0.984530       -26.7904
  90   2.0000      -0.943908       -25.6850
  91   2.0000      -0.940321       -25.5874
  92   2.0000      -0.930338       -25.3158
  93   2.0000      -0.923634       -25.1333
  94   2.0000      -0.920913       -25.0593
  95   2.0000      -0.916026       -24.9263
  96   2.0000      -0.902515       -24.5587
  97   2.0000      -0.889871       -24.2146
  98   2.0000      -0.878211       -23.8973
  99   2.0000      -0.868087       -23.6218
 100   2.0000      -0.860558       -23.4170
 101   2.0000      -0.857396       -23.3309
 102   2.0000      -0.853487       -23.2246
 103   2.0000      -0.839402       -22.8413
 104   2.0000      -0.831606       -22.6292
 105   2.0000      -0.829789       -22.5797
 106   2.0000      -0.822086       -22.3701
 107   2.0000      -0.818802       -22.2807
 108   2.0000      -0.809569       -22.0295
 109   2.0000      -0.802806       -21.8455
 110   2.0000      -0.788256       -21.4495
 111   2.0000      -0.788170       -21.4472
 112   2.0000      -0.783231       -21.3128
 113   2.0000      -0.779429       -21.2093
 114   2.0000      -0.759769       -20.6744
 115   2.0000      -0.757123       -20.6024
 116   2.0000      -0.754774       -20.5385
 117   2.0000      -0.739974       -20.1357
 118   2.0000      -0.722484       -19.6598
 119   2.0000      -0.717138       -19.5143
 120   2.0000      -0.717039       -19.5116
 121   2.0000      -0.715865       -19.4797
 122   2.0000      -0.702636       -19.1197
 123   2.0000      -0.701551       -19.0902
 124   2.0000      -0.696064       -18.9409
 125   2.0000      -0.689747       -18.7690
 126   2.0000      -0.685878       -18.6637
 127   2.0000      -0.685327       -18.6487
 128   2.0000      -0.680746       -18.5240
 129   2.0000      -0.672469       -18.2988
 130   2.0000      -0.660450       -17.9718
 131   2.0000      -0.658373       -17.9153
 132   2.0000      -0.655558       -17.8386
 133   2.0000      -0.648834       -17.6557
 134   2.0000      -0.643393       -17.5076
 135   2.0000      -0.639868       -17.4117
 136   2.0000      -0.633487       -17.2381
 137   2.0000      -0.632429       -17.2093
 138   2.0000      -0.627981       -17.0882
 139   2.0000      -0.614281       -16.7154
 140   2.0000      -0.612072       -16.6553
 141   2.0000      -0.601776       -16.3752
 142   2.0000      -0.597752       -16.2657
 143   2.0000      -0.596924       -16.2431
 144   2.0000      -0.588670       -16.0185
 145   2.0000      -0.586850       -15.9690
 146   2.0000      -0.584098       -15.8941
 147   2.0000      -0.576726       -15.6935
 148   2.0000      -0.575675       -15.6649
 149   2.0000      -0.574981       -15.6460
 150   2.0000      -0.568876       -15.4799
 151   2.0000      -0.564010       -15.3475
 152   2.0000      -0.561990       -15.2925
 153   2.0000      -0.559583       -15.2270
 154   2.0000      -0.551670       -15.0117
 155   2.0000      -0.551217       -14.9994
 156   2.0000      -0.548847       -14.9349
 157   2.0000      -0.547761       -14.9053
 158   2.0000      -0.546718       -14.8769
 159   2.0000      -0.542391       -14.7592
 160   2.0000      -0.540157       -14.6984
 161   2.0000      -0.537020       -14.6131
 162   2.0000      -0.535987       -14.5849
 163   2.0000      -0.534140       -14.5347
 164   2.0000      -0.533374       -14.5138
 165   2.0000      -0.524921       -14.2838
 166   2.0000      -0.524848       -14.2818
 167   2.0000      -0.520352       -14.1595
 168   2.0000      -0.516867       -14.0647
 169   2.0000      -0.511887       -13.9292
 170   2.0000      -0.509753       -13.8711
 171   2.0000      -0.506821       -13.7913
 172   2.0000      -0.506127       -13.7724
 173   2.0000      -0.505603       -13.7582
 174   2.0000      -0.504772       -13.7355
 175   2.0000      -0.503425       -13.6989
 176   2.0000      -0.501545       -13.6477
 177   2.0000      -0.499692       -13.5973
 178   2.0000      -0.496430       -13.5085
 179   2.0000      -0.494350       -13.4519
 180   2.0000      -0.492195       -13.3933
 181   2.0000      -0.488718       -13.2987
 182   2.0000      -0.486060       -13.2264
 183   2.0000      -0.484341       -13.1796
 184   2.0000      -0.478809       -13.0290
 185   2.0000      -0.475699       -12.9444
 186   2.0000      -0.474995       -12.9253
 187   2.0000      -0.470988       -12.8162
 188   2.0000      -0.466399       -12.6914
 189   2.0000      -0.462466       -12.5843
 190   2.0000      -0.456732       -12.4283
 191   2.0000      -0.455121       -12.3845
 192   2.0000      -0.451052       -12.2738
 193   2.0000      -0.444239       -12.0884
 194   2.0000      -0.442632       -12.0446
 195   2.0000      -0.441163       -12.0047
 196   2.0000      -0.439440       -11.9578
 197   2.0000      -0.438081       -11.9208
 198   2.0000      -0.429276       -11.6812
 199   2.0000      -0.425396       -11.5756
 200   2.0000      -0.424338       -11.5468
 201   2.0000      -0.423061       -11.5121
 202   2.0000      -0.419981       -11.4283
 203   2.0000      -0.419161       -11.4059
 204   2.0000      -0.418608       -11.3909
 205   2.0000      -0.416085       -11.3223
 206   2.0000      -0.412291       -11.2190
 207   2.0000      -0.409526       -11.1438
 208   2.0000      -0.408559       -11.1175
 209   2.0000      -0.406428       -11.0595
 210   2.0000      -0.405252       -11.0275
 211   2.0000      -0.404272       -11.0008
 212   2.0000      -0.401885       -10.9358
 213   2.0000      -0.398624       -10.8471
 214   2.0000      -0.383521       -10.4361
 215   2.0000      -0.377269       -10.2660
 216   2.0000      -0.376107       -10.2344
 217   2.0000      -0.375004       -10.2044
 218   2.0000      -0.365017        -9.9326
 219   2.0000      -0.353273        -9.6130
 220   2.0000      -0.343515        -9.3475
 221   2.0000      -0.341476        -9.2920
 222   2.0000      -0.328960        -8.9515
 223   2.0000      -0.326641        -8.8884
 224   2.0000      -0.324257        -8.8235
 225   2.0000      -0.323115        -8.7924
 226   2.0000      -0.321936        -8.7603
 227   2.0000      -0.317199        -8.6314
 228   2.0000      -0.315714        -8.5910
 229   2.0000      -0.313288        -8.5250
 230   2.0000      -0.307092        -8.3564
 231   2.0000      -0.304577        -8.2880
 232   2.0000      -0.292939        -7.9713
 233   2.0000      -0.279521        -7.6062
 234   2.0000      -0.257316        -7.0019
 235   2.0000      -0.224411        -6.1065
 236   2.0000      -0.195561        -5.3215
 237   0.0000      -0.093060        -2.5323
 238   0.0000      -0.080561        -2.1922
 239   0.0000      -0.056764        -1.5446
 240   0.0000      -0.038233        -1.0404
 241   0.0000      -0.003657        -0.0995

MULLIKEN ATOMIC CHARGES
-----------------------
   0 C :   -0.084065
   1 C :    0.034958
   2 C :   -0.047117
   3 N :   -0.028018
   4 C :    0.032832
   5 C :    0.021806
   6 N :   -0.019924
   7 C :    0.127994
   8 C :   -0.050056
   9 C :    0.036147
  10 N :   -0.019989
  11 C :    0.022304
  12 C :    0.023573
  13 N :   -0.018195
  14 C :   -0.110959
  15 C :    0.019235
  16 C :   -0.066620
  17 C :    0.104974
  18 C :    0.123734
  19 C :   -0.040356
  20 C :    0.029654
  21 C :    0.027811
  22 C :   -0.035069
  23 C :   -0.080417
  24 S :    0.139674
  25 C :    0.001165
  26 C :   -0.070810
  27 C :    0.138831
  28 O :   -0.205186
  29 C :    0.094608
  30 C :    0.157316
  31 C :   -0.163791
  32 C :    0.509074
  33 F :   -0.145938
  34 F :   -0.168590
  35 F :   -0.168683
  36 O :   -0.301521
  37 C :    0.180290
  38 C :   -0.048014
  39 C :    0.033029
  40 C :   -0.105425
  41 C :    0.111423
  42 C :    0.105560
  43 C :   -0.033606
  44 C :    0.026331
  45 C :    0.025050
  46 C :   -0.038363
  47 C :   -0.085864
  48 S :    0.146752
  49 C :    0.025624
  50 C :   -0.122247
  51 C :    0.116923
  52 C :   -0.048482
  53 C :   -0.037385
  54 N :   -0.019624
  55 C :    0.023939
  56 C :    0.030185
  57 N :   -0.027095
  58 C :    0.049997
  59 C :   -0.051102
  60 C :   -0.038240
  61 N :   -0.017922
  62 C :    0.021151
  63 C :    0.029322
  64 N :   -0.023612
  65 C :   -0.072584
  66 C :    0.023960
  67 H :   -0.038661
  68 H :    0.007909
  69 H :    0.014184
  70 H :    0.013564
  71 H :    0.013245
  72 H :   -0.002928
  73 H :    0.002536
  74 H :   -0.025610
  75 H :   -0.014603
  76 H :   -0.015688
  77 H :   -0.023423
  78 H :    0.000576
  79 H :    0.008328
  80 H :    0.035524
  81 H :    0.033556
  82 H :    0.034403
  83 H :    0.005326
  84 H :   -0.011281
  85 H :   -0.026480
  86 H :   -0.017633
  87 H :   -0.017894
  88 H :   -0.028179
  89 H :    0.001607
  90 H :   -0.010262
  91 H :    0.011559
  92 H :    0.006695
  93 H :    0.009530
  94 H :    0.009704
  95 H :   -0.004828
  96 H :    0.021474
  97 H :    0.007391
Sum of atomic charges:    0.0000000

LOEWDIN ATOMIC CHARGES
----------------------
   0 C :   -0.013787
   1 C :   -0.010873
   2 C :   -0.011976
   3 N :   -0.028086
   4 C :    0.004903
   5 C :    0.004217
   6 N :   -0.034121
   7 C :   -0.010445
   8 C :   -0.010458
   9 C :   -0.013216
  10 N :   -0.037589
  11 C :    0.006235
  12 C :    0.003609
  13 N :   -0.031876
  14 C :   -0.032197
  15 C :   -0.020439
  16 C :   -0.163719
  17 C :   -0.039805
  18 C :   -0.037966
  19 C :   -0.015896
  20 C :   -0.023042
  21 C :   -0.026099
  22 C :   -0.011854
  23 C :   -0.174419
  24 S :    0.480468
  25 C :   -0.018892
  26 C :   -0.067315
  27 C :    0.063400
  28 O :    0.022265
  29 C :   -0.002240
  30 C :    0.032658
  31 C :   -0.167269
  32 C :    0.175739
  33 F :   -0.044559
  34 F :   -0.069103
  35 F :   -0.068081
  36 O :   -0.090912
  37 C :    0.075074
  38 C :   -0.038092
  39 C :   -0.052615
  40 C :   -0.162033
  41 C :   -0.047983
  42 C :   -0.035300
  43 C :   -0.013392
  44 C :   -0.025932
  45 C :   -0.028394
  46 C :   -0.015871
  47 C :   -0.179342
  48 S :    0.476331
  49 C :   -0.018418
  50 C :   -0.041193
  51 C :   -0.014462
  52 C :   -0.012350
  53 C :   -0.003392
  54 N :   -0.029070
  55 C :    0.004225
  56 C :    0.002061
  57 N :   -0.026000
  58 C :   -0.027383
  59 C :   -0.005887
  60 C :   -0.008243
  61 N :   -0.029176
  62 C :   -0.000624
  63 C :    0.006798
  64 N :   -0.025184
  65 C :   -0.032518
  66 C :   -0.026742
  67 H :    0.040332
  68 H :    0.024453
  69 H :    0.026878
  70 H :    0.026695
  71 H :    0.026645
  72 H :    0.020622
  73 H :    0.028288
  74 H :    0.027926
  75 H :    0.029236
  76 H :    0.028592
  77 H :    0.029838
  78 H :    0.034807
  79 H :    0.025851
  80 H :    0.029423
  81 H :    0.016278
  82 H :    0.016539
  83 H :    0.037501
  84 H :    0.027322
  85 H :    0.029089
  86 H :    0.027635
  87 H :    0.027565
  88 H :    0.027311
  89 H :    0.027506
  90 H :    0.018834
  91 H :    0.025941
  92 H :    0.023754
  93 H :    0.024989
  94 H :    0.025129
  95 H :    0.028097
  96 H :    0.016323
  97 H :    0.018445

  Mayer bond orders larger than 0.100000
B(  0-C ,  1-C ) :   1.2366 B(  0-C ,  7-C ) :   0.1346 B(  0-C ,  9-C ) :   1.2408
B(  0-C , 67-H ) :   1.0563 B(  1-C ,  2-C ) :   1.1717 B(  1-C ,  6-N ) :   1.3756
B(  2-C ,  3-N ) :   1.4453 B(  2-C ,  7-C ) :   1.2173 B(  3-N ,  4-C ) :   1.6724
B(  3-N , 73-H ) :   0.1011 B(  4-C ,  5-C ) :   1.1918 B(  4-C , 68-H ) :   0.9724
B(  5-C ,  6-N ) :   1.7132 B(  5-C , 69-H ) :   0.9742 B(  7-C ,  8-C ) :   1.2265
B(  7-C , 14-C ) :   1.2068 B(  8-C ,  9-C ) :   1.1751 B(  8-C , 13-N ) :   1.4552
B(  9-C , 10-N ) :   1.3746 B( 10-N , 11-C ) :   1.7178 B( 11-C , 12-C ) :   1.1836
B( 11-C , 70-H ) :   0.9734 B( 12-C , 13-N ) :   1.6931 B( 12-C , 71-H ) :   0.9748
B( 14-C , 15-C ) :   1.5561 B( 14-C , 72-H ) :   0.9548 B( 15-C , 16-C ) :   1.2021
B( 15-C , 73-H ) :   0.9436 B( 16-C , 17-C ) :   1.2857 B( 16-C , 23-C ) :   0.1022
B( 16-C , 24-S ) :   1.1327 B( 17-C , 18-C ) :   1.2207 B( 17-C , 22-C ) :   1.2283
B( 18-C , 19-C ) :   1.2251 B( 18-C , 23-C ) :   1.2812 B( 19-C , 20-C ) :   1.5372
B( 19-C , 74-H ) :   0.9920 B( 20-C , 21-C ) :   1.2262 B( 20-C , 75-H ) :   0.9843
B( 21-C , 22-C ) :   1.5333 B( 21-C , 76-H ) :   0.9844 B( 22-C , 77-H ) :   0.9936
B( 23-C , 24-S ) :   1.1286 B( 23-C , 25-C ) :   1.2160 B( 25-C , 26-C ) :   1.5551
B( 25-C , 78-H ) :   0.9758 B( 26-C , 27-C ) :   1.2249 B( 26-C , 79-H ) :   0.9564
B( 27-C , 28-O ) :   1.1733 B( 27-C , 29-C ) :   0.1044 B( 27-C , 31-C ) :   1.3528
B( 28-O , 29-C ) :   1.1092 B( 29-C , 30-C ) :   1.3607 B( 29-C , 38-C ) :   1.2208
B( 30-C , 31-C ) :   1.2434 B( 30-C , 36-O ) :   1.2248 B( 31-C , 32-C ) :   0.9517
B( 32-C , 33-F ) :   1.1531 B( 32-C , 34-F ) :   1.1516 B( 32-C , 35-F ) :   1.1499
B( 36-O , 37-C ) :   0.9262 B( 37-C , 80-H ) :   0.9772 B( 37-C , 81-H ) :   0.9648
B( 37-C , 82-H ) :   0.9655 B( 38-C , 39-C ) :   1.5648 B( 38-C , 83-H ) :   0.9548
B( 39-C , 40-C ) :   1.1776 B( 39-C , 84-H ) :   0.9568 B( 40-C , 41-C ) :   1.2988
B( 40-C , 48-S ) :   1.1513 B( 41-C , 42-C ) :   1.2266 B( 41-C , 46-C ) :   1.2184
B( 42-C , 43-C ) :   1.2363 B( 42-C , 47-C ) :   1.2738 B( 43-C , 44-C ) :   1.5270
B( 43-C , 85-H ) :   0.9932 B( 44-C , 45-C ) :   1.2299 B( 44-C , 86-H ) :   0.9857
B( 45-C , 46-C ) :   1.5316 B( 45-C , 87-H ) :   0.9847 B( 46-C , 88-H ) :   0.9910
B( 47-C , 48-S ) :   1.1242 B( 47-C , 49-C ) :   1.2114 B( 49-C , 50-C ) :   1.5321
B( 49-C , 89-H ) :   0.9448 B( 50-C , 51-C ) :   1.2337 B( 50-C , 90-H ) :   0.9526
B( 51-C , 52-C ) :   1.2075 B( 51-C , 58-C ) :   0.1347 B( 51-C , 60-C ) :   1.2113
B( 52-C , 53-C ) :   1.1508 B( 52-C , 57-N ) :   1.4565 B( 53-C , 54-N ) :   1.4539
B( 53-C , 58-C ) :   1.2521 B( 54-N , 55-C ) :   1.6953 B( 55-C , 56-C ) :   1.1971
B( 55-C , 91-H ) :   0.9751 B( 56-C , 57-N ) :   1.6639 B( 56-C , 92-H ) :   0.9729
B( 58-C , 59-C ) :   1.2487 B( 58-C , 65-C ) :   1.1609 B( 59-C , 60-C ) :   1.1548
B( 59-C , 64-N ) :   1.4425 B( 60-C , 61-N ) :   1.4692 B( 61-N , 62-C ) :   1.6814
B( 62-C , 63-C ) :   1.1947 B( 62-C , 93-H ) :   0.9752 B( 63-C , 64-N ) :   1.6834
B( 63-C , 94-H ) :   0.9733 B( 65-C , 66-C ) :   1.9019 B( 65-C , 95-H ) :   0.9415
B( 66-C , 96-H ) :   0.9315 B( 66-C , 97-H ) :   0.9424

-----------------------------------------------------------------------------
         ABSORPTION SPECTRUM VIA TRANSITION ELECTRIC DIPOLE MOMENTS
-----------------------------------------------------------------------------
State   Energy  Wavelength   fosc         T2         TX        TY        TZ
        (cm-1)    (nm)                  (au**2)     (au)      (au)      (au)
-----------------------------------------------------------------------------
   0    9591.9   1042.5   1.272638944  43.67939   2.87506   3.74440  -4.62525
   1   12591.1    794.2   0.424283762  11.09351   2.43310   1.54374   1.67045
   2   16354.7    611.4   0.038625874   0.77752  -0.80868  -0.29808  -0.18627
   3   17358.0    576.1   0.238364662   4.52082   1.45024   1.54783   0.14781
   4   20479.2    488.3   0.025957434   0.41728   0.17329   0.40943  -0.46863
   5   20656.6    484.1   0.344212124   5.48584   0.53472   0.53747   2.21609
   6   23415.6    427.1   0.006566980   0.09233  -0.00832  -0.29874  -0.05489
   7   24313.5    411.3   0.047602716   0.64455  -0.13583  -0.35304  -0.70814
   8   24655.6    405.6   0.006467379   0.08636  -0.18993   0.15796   0.15916
   9   25613.8    390.4   0.037638811   0.48377  -0.20262   0.02073   0.66505
  10   25846.7    386.9   0.005940151   0.07566   0.20217  -0.16861   0.07974
  11   26965.5    370.8   0.018017047   0.21996  -0.12297  -0.13933  -0.43061
  12   27133.4    368.5   0.112565092   1.36576  -0.41654  -0.37823  -1.02431
  13   27348.8    365.6   0.016884354   0.20325  -0.30531  -0.29218  -0.15703
  14   27405.0    364.9   0.000441203   0.00530  -0.05493   0.03643  -0.03091
  15   27624.7    362.0   0.015110477   0.18008   0.39460   0.03239   0.15271
  16   27767.1    360.1   0.009551269   0.11324   0.24762   0.18358   0.13500
  17   28580.1    349.9   0.023318247   0.26860   0.36737   0.28890  -0.22401
  18   28901.7    346.0   0.005297608   0.06034  -0.17581  -0.17151   0.00443
  19   29614.6    337.7   0.027568434   0.30647   0.28656   0.45249   0.14001
  20   29654.4    337.2   0.020226536   0.22455  -0.23525  -0.01055   0.41121
  21   31607.7    316.4   0.193748480   2.01800   0.26100  -0.33882   1.35465
  22   31796.3    314.5   0.012432304   0.12872  -0.26401  -0.12126   0.21052
  23   31934.9    313.1   0.006964206   0.07179  -0.08102  -0.22880   0.11349
  24   32498.4    307.7   0.069396583   0.70299  -0.55714  -0.55339  -0.29386
  25   32604.0    306.7   0.182760636   1.84539   0.56986  -0.22216  -1.21297
  26   33101.0    302.1   0.027578828   0.27429  -0.37209   0.17007  -0.32698
  27   33589.6    297.7   0.189071175   1.85309   1.00262   0.91948  -0.04890
  28   33685.1    296.9   0.044942542   0.43923   0.54997  -0.01210  -0.36962
  29   34047.8    293.7   0.361484263   3.49523  -1.20888  -1.00365  -1.01317
  30   34493.2    289.9   0.337598169   3.22213   1.05139  -0.13672  -1.44845
  31   34701.5    288.2   0.277053618   2.62840   0.13492   0.44742   1.55242
  32   35799.0    279.3   0.026248303   0.24138   0.28060   0.39945   0.05552
  33   35942.9    278.2   0.063249635   0.57932   0.26734  -0.06797  -0.70939
  34   36765.2    272.0   0.057608773   0.51586   0.12575   0.41598   0.57184
  35   37293.2    268.1   0.066714797   0.58894  -0.05528  -0.41373  -0.64397
  36   37326.8    267.9   0.008692740   0.07667  -0.02514   0.21339   0.17464
  37   37474.8    266.8   0.013425944   0.11795   0.08497  -0.00182   0.33275
  38   37516.2    266.6   0.004393898   0.03856  -0.12093   0.12004  -0.09759
  39   37741.0    265.0   0.001834495   0.01600   0.09877  -0.07452  -0.02633
  40   37852.3    264.2   0.007226137   0.06285  -0.01807  -0.00480   0.25000
  41   38213.8    261.7   0.047701994   0.41095  -0.48558  -0.40335   0.11171
  42   38346.7    260.8   0.260137531   2.23332   0.14365  -0.74291  -1.28871
  43   38799.9    257.7   0.082856799   0.70303   0.19566   0.48686   0.65400
  44   39029.5    256.2   0.475813750   4.01347  -1.61400  -1.17215   0.18586
  45   39283.0    254.6   0.004998082   0.04189   0.04050  -0.11800  -0.16224
  46   39735.2    251.7   0.150925032   1.25043   0.29041   0.00543   1.07985
  47   40066.1    249.6   0.011119586   0.09137   0.21176  -0.20717   0.06003
  48   40148.7    249.1   0.010153350   0.08326  -0.21535   0.03033  -0.18963
  49   40323.9    248.0   0.000044916   0.00037   0.01273  -0.01302   0.00593

FINAL SINGLE POINT ENERGY     -3680.691971248788

DIPOLE MOMENT
-------------
                                X             Y             Z
Electronic contribution:    -12.41697      -8.84666      40.24671
Nuclear contribution   :     12.74907       8.71483     -39.83622
                        -----------------------------------------
Total Dipole Moment    :      0.33210      -0.13183       0.41049
                        -----------------------------------------
Magnitude (a.u.)       :      0.54422
Magnitude (Debye)      :      1.38329

Rotational constants in cm-1:     0.001366     0.000333     0.000274
Rotational constants in MHz :    40.937902     9.969100     8.227371

                             ****ORCA TERMINATED NORMALLY****
TOTAL RUN TIME: 0 days 0 hours 11 minutes 15 seconds 633 msec
