                         Program Version 4.2.0 -  RELEASE  -
|  1> # ORCA input file
|  2> # SCF done       -184.713969237561          0.000706671379
|  3> ! CAM-B3LYP def2-SVP def2/J RIJCOSX Grid4 TightSCF
|  4> %maxcore 5000
|  5> %tddft
|  6>     Mode sTDDFT
|  7>     Ethresh 5.0
|  8>     maxcore 5000
|  9> end
| 10>
| 11> %pal
| 12>   nprocs 6
| 13>   end
| 14> * xyz 0 1
| 15>    C        1.51682        -0.85551         5.09480
| 16>    C        1.09088        -0.43866         3.83801
| 17>    C        0.94948         0.95605         3.54876
| 18>    N        0.53344         1.34679         2.32407
| 19>    C        0.26977         0.42654         1.44012
| 20>    C        0.41058        -0.95061         1.72887
| 21>    N        0.81047        -1.37135         2.89205
| 22>    C        1.23393         1.94957         4.52703
| 23>    C        1.67133         1.49896         5.80067
| 24>    C        1.80721         0.09500         6.06923
| 25>    N        2.22376        -0.33779         7.28658
| 26>    C        2.49307         0.55620         8.19091
| 27>    C        2.36530         1.93888         7.92919
| 28>    N        1.96845         2.38818         6.77236
| 29>    C        1.05633         3.31044         4.14286
| 30>    C        1.22615         4.42227         4.91022
| 31>    C        1.03036         5.74022         4.44008
| 32>    C        1.17395         6.88929         5.19602
| 33>    C        0.89745         8.02312         4.38699
| 34>    C        0.57602         7.47644         3.06578
| 35>    C        0.64644         6.13732         3.08138
| 36>    F        0.25462         8.23834         2.00966
| 37>    C        0.90813         9.35750         4.73947
| 38>    C        0.61867        10.48184         3.92641
| 39>    C        0.71163        11.63286         4.68917
| 40>    C        1.08479        11.24309         6.05174
| 41>    C        1.20150         9.90763         6.06757
| 42>    F        1.53219         9.15292         7.12379
| 43>    C        0.48327        12.97127         4.30848
| 44>    C        0.18146        13.37577         3.04020
| 45>    C       -0.08673        14.70618         2.66681
| 46>    S       -0.15750        15.97038         3.86364
| 47>    C       -0.59094        17.11891         2.66464
| 48>    C       -0.69674        16.59866         1.41347
| 49>    C       -1.02326        17.45641         0.23607
| 50>    C       -0.40009        15.19788         1.38446
| 51>    C       -0.33795        14.35773         0.23566
| 52>    C       -0.92093        14.54601        -0.97976
| 53>    C       -0.73287        13.64442        -2.04998
| 54>    C       -1.35030        13.77199        -3.26035
| 55>    C       -1.16568        12.90570        -4.35930
| 56>    C       -0.30751        11.82697        -4.48303
| 57>    C       -0.45412        11.25870        -5.77328
| 58>    C       -1.48122        12.06820        -6.43670
| 59>    C       -1.90115        13.04430        -5.61880
| 60>    F       -1.90853        11.84314        -7.68687
| 61>    C        0.22428        10.18676        -6.31920
| 62>    C        0.07388         9.60472        -7.60321
| 63>    C        0.97050         8.55900        -7.74246
| 64>    C        1.73889         8.45415        -6.49767
| 65>    C        1.28623         9.40906        -5.67220
| 66>    F        1.72816         9.65290        -4.42998
| 67>    C        1.10219         7.74562        -8.88708
| 68>    C        2.02959         6.75451        -9.01824
| 69>    C        2.21333         5.88557       -10.12754
| 70>    C        3.35358         5.03406       -10.12087
| 71>    C        3.67612         4.18497       -11.22700
| 72>    N        4.76493         3.38551       -11.15669
| 73>    C        5.51565         3.44077       -10.09483
| 74>    C        5.20976         4.29485        -9.01636
| 75>    N        4.15137         5.05470        -9.03190
| 76>    C        2.86583         4.16609       -12.38452
| 77>    C        1.68236         4.94282       -12.35679
| 78>    C        1.35048         5.78894       -11.25074
| 79>    N        0.19757         6.48898       -11.27097
| 80>    C       -0.56947         6.40932       -12.32143
| 81>    C       -0.22689         5.60180       -13.42435
| 82>    N        0.85757         4.88263       -13.42829
| 83>    C        3.15693         3.41996       -13.58613
| 84>    C        4.30562         2.82295       -13.90542
| 85>    H        1.62033        -1.90522         5.31485
| 86>    H       -0.06081         0.76730         0.46781
| 87>    H        0.19060        -1.70506         0.98508
| 88>    H        2.82393         0.19344         9.15510
| 89>    H        2.59562         2.67990         8.68337
| 90>    H        0.74248         3.42314         3.11429
| 91>    H        1.52716         4.31305         5.94165
| 92>    H        1.44880         6.92365         6.23207
| 93>    H        0.46119         5.47340         2.26081
| 94>    H        0.35605        10.42621         2.88920
| 95>    H        1.23449        11.92485         6.86633
| 96>    H        0.55097        13.71978         5.08860
| 97>    H        0.12989        12.62872         2.26219
| 98>    H       -0.73918        18.14086         2.95547
| 99>    H       -0.93128        18.50551         0.50799
|100>    H       -2.04663        17.28353        -0.09600
|101>    H       -0.34671        17.24586        -0.58992
|102>    H        0.23970        13.45006         0.35665
|103>    H       -1.57808        15.38254        -1.15701
|104>    H       -0.05940        12.81417        -1.88906
|105>    H       -2.04118        14.59415        -3.40435
|106>    H        0.37153        11.46780        -3.73620
|107>    H       -2.64011        13.79545        -5.82056
|108>    H       -0.62738         9.92591        -8.34817
|109>    H        2.51126         7.73963        -6.29415
|110>    H        0.41769         7.93850        -9.69994
|111>    H        2.74495         6.59293        -8.22359
|112>    H        6.37306         2.78106       -10.06980
|113>    H        5.82469         4.33217        -8.12710
|114>    H       -1.49136         6.97483       -12.29435
|115>    H       -0.86413         5.52901       -14.29577
|116>    H        2.32848         3.40025       -14.28240
|117>    H        5.16273         2.85054       -13.25752
|118>    H        4.40412         2.28645       -14.83436
|119> *
|120>
|121>                          ****END OF INPUT****

CARTESIAN COORDINATES (ANGSTROEM)
---------------------------------
  C      1.516820   -0.855510    5.094800
  C      1.090880   -0.438660    3.838010
  C      0.949480    0.956050    3.548760
  N      0.533440    1.346790    2.324070
  C      0.269770    0.426540    1.440120
  C      0.410580   -0.950610    1.728870
  N      0.810470   -1.371350    2.892050
  C      1.233930    1.949570    4.527030
  C      1.671330    1.498960    5.800670
  C      1.807210    0.095000    6.069230
  N      2.223760   -0.337790    7.286580
  C      2.493070    0.556200    8.190910
  C      2.365300    1.938880    7.929190
  N      1.968450    2.388180    6.772360
  C      1.056330    3.310440    4.142860
  C      1.226150    4.422270    4.910220
  C      1.030360    5.740220    4.440080
  C      1.173950    6.889290    5.196020
  C      0.897450    8.023120    4.386990
  C      0.576020    7.476440    3.065780
  C      0.646440    6.137320    3.081380
  F      0.254620    8.238340    2.009660
  C      0.908130    9.357500    4.739470
  C      0.618670   10.481840    3.926410
  C      0.711630   11.632860    4.689170
  C      1.084790   11.243090    6.051740
  C      1.201500    9.907630    6.067570
  F      1.532190    9.152920    7.123790
  C      0.483270   12.971270    4.308480
  C      0.181460   13.375770    3.040200
  C     -0.086730   14.706180    2.666810
  S     -0.157500   15.970380    3.863640
  C     -0.590940   17.118910    2.664640
  C     -0.696740   16.598660    1.413470
  C     -1.023260   17.456410    0.236070
  C     -0.400090   15.197880    1.384460
  C     -0.337950   14.357730    0.235660
  C     -0.920930   14.546010   -0.979760
  C     -0.732870   13.644420   -2.049980
  C     -1.350300   13.771990   -3.260350
  C     -1.165680   12.905700   -4.359300
  C     -0.307510   11.826970   -4.483030
  C     -0.454120   11.258700   -5.773280
  C     -1.481220   12.068200   -6.436700
  C     -1.901150   13.044300   -5.618800
  F     -1.908530   11.843140   -7.686870
  C      0.224280   10.186760   -6.319200
  C      0.073880    9.604720   -7.603210
  C      0.970500    8.559000   -7.742460
  C      1.738890    8.454150   -6.497670
  C      1.286230    9.409060   -5.672200
  F      1.728160    9.652900   -4.429980
  C      1.102190    7.745620   -8.887080
  C      2.029590    6.754510   -9.018240
  C      2.213330    5.885570  -10.127540
  C      3.353580    5.034060  -10.120870
  C      3.676120    4.184970  -11.227000
  N      4.764930    3.385510  -11.156690
  C      5.515650    3.440770  -10.094830
  C      5.209760    4.294850   -9.016360
  N      4.151370    5.054700   -9.031900
  C      2.865830    4.166090  -12.384520
  C      1.682360    4.942820  -12.356790
  C      1.350480    5.788940  -11.250740
  N      0.197570    6.488980  -11.270970
  C     -0.569470    6.409320  -12.321430
  C     -0.226890    5.601800  -13.424350
  N      0.857570    4.882630  -13.428290
  C      3.156930    3.419960  -13.586130
  C      4.305620    2.822950  -13.905420
  H      1.620330   -1.905220    5.314850
  H     -0.060810    0.767300    0.467810
  H      0.190600   -1.705060    0.985080
  H      2.823930    0.193440    9.155100
  H      2.595620    2.679900    8.683370
  H      0.742480    3.423140    3.114290
  H      1.527160    4.313050    5.941650
  H      1.448800    6.923650    6.232070
  H      0.461190    5.473400    2.260810
  H      0.356050   10.426210    2.889200
  H      1.234490   11.924850    6.866330
  H      0.550970   13.719780    5.088600
  H      0.129890   12.628720    2.262190
  H     -0.739180   18.140860    2.955470
  H     -0.931280   18.505510    0.507990
  H     -2.046630   17.283530   -0.096000
  H     -0.346710   17.245860   -0.589920
  H      0.239700   13.450060    0.356650
  H     -1.578080   15.382540   -1.157010
  H     -0.059400   12.814170   -1.889060
  H     -2.041180   14.594150   -3.404350
  H      0.371530   11.467800   -3.736200
  H     -2.640110   13.795450   -5.820560
  H     -0.627380    9.925910   -8.348170
  H      2.511260    7.739630   -6.294150
  H      0.417690    7.938500   -9.699940
  H      2.744950    6.592930   -8.223590
  H      6.373060    2.781060  -10.069800
  H      5.824690    4.332170   -8.127100
  H     -1.491360    6.974830  -12.294350
  H     -0.864130    5.529010  -14.295770
  H      2.328480    3.400250  -14.282400
  H      5.162730    2.850540  -13.257520
  H      4.404120    2.286450  -14.834360

 Total Charge           Charge          ....    0
 Multiplicity           Mult            ....    1
 Number of Electrons    NEL             ....  484
 Basis Dimension        Dim             .... 1154

ORBITAL ENERGIES
----------------

  NO   OCC          E(Eh)            E(eV)
   0   2.0000     -88.951411     -2420.4909
   1   2.0000     -24.778996      -674.2708
   2   2.0000     -24.778049      -674.2450
   3   2.0000     -24.776950      -674.2151
   4   2.0000     -24.776927      -674.2145
   5   2.0000     -14.425698      -392.5432
   6   2.0000     -14.424796      -392.5187
   7   2.0000     -14.424711      -392.5164
   8   2.0000     -14.424354      -392.5066
   9   2.0000     -14.424306      -392.5053
  10   2.0000     -14.423287      -392.4776
  11   2.0000     -14.422724      -392.4623
  12   2.0000     -14.421954      -392.4413
  13   2.0000     -10.343996      -281.4744
  14   2.0000     -10.342766      -281.4410
  15   2.0000     -10.341893      -281.4172
  16   2.0000     -10.341473      -281.4058
  17   2.0000     -10.321429      -280.8604
  18   2.0000     -10.321084      -280.8510
  19   2.0000     -10.320913      -280.8463
  20   2.0000     -10.320788      -280.8429
  21   2.0000     -10.320515      -280.8355
  22   2.0000     -10.319832      -280.8169
  23   2.0000     -10.319229      -280.8005
  24   2.0000     -10.318938      -280.7926
  25   2.0000     -10.318753      -280.7875
  26   2.0000     -10.318688      -280.7858
  27   2.0000     -10.318256      -280.7740
  28   2.0000     -10.317697      -280.7588
  29   2.0000     -10.317568      -280.7553
  30   2.0000     -10.317182      -280.7448
  31   2.0000     -10.316063      -280.7143
  32   2.0000     -10.315423      -280.6969
  33   2.0000     -10.301010      -280.3047
  34   2.0000     -10.292017      -280.0600
  35   2.0000     -10.291673      -280.0506
  36   2.0000     -10.290923      -280.0302
  37   2.0000     -10.290922      -280.0302
  38   2.0000     -10.290452      -280.0174
  39   2.0000     -10.289945      -280.0037
  40   2.0000     -10.289175      -279.9827
  41   2.0000     -10.287580      -279.9393
  42   2.0000     -10.284748      -279.8622
  43   2.0000     -10.283218      -279.8206
  44   2.0000     -10.280401      -279.7439
  45   2.0000     -10.279847      -279.7289
  46   2.0000     -10.278688      -279.6973
  47   2.0000     -10.276520      -279.6383
  48   2.0000     -10.276388      -279.6347
  49   2.0000     -10.276163      -279.6286
  50   2.0000     -10.275667      -279.6151
  51   2.0000     -10.275003      -279.5970
  52   2.0000     -10.273700      -279.5616
  53   2.0000     -10.273378      -279.5528
  54   2.0000     -10.272792      -279.5369
  55   2.0000     -10.268751      -279.4269
  56   2.0000     -10.265641      -279.3423
  57   2.0000     -10.264999      -279.3248
  58   2.0000     -10.262637      -279.2606
  59   2.0000     -10.262575      -279.2589
  60   2.0000     -10.261719      -279.2356
  61   2.0000     -10.260666      -279.2069
  62   2.0000     -10.259280      -279.1692
  63   2.0000     -10.259122      -279.1649
  64   2.0000     -10.257297      -279.1153
  65   2.0000     -10.251748      -278.9642
  66   2.0000     -10.250989      -278.9436
  67   2.0000     -10.250943      -278.9423
  68   2.0000     -10.249588      -278.9055
  69   2.0000     -10.248561      -278.8775
  70   2.0000      -8.047398      -218.9808
  71   2.0000      -6.016595      -163.7199
  72   2.0000      -6.012470      -163.6076
  73   2.0000      -6.009654      -163.5310
  74   2.0000      -1.290989       -35.1296
  75   2.0000      -1.289804       -35.0973
  76   2.0000      -1.288579       -35.0640
  77   2.0000      -1.288521       -35.0624
  78   2.0000      -1.084555       -29.5122
  79   2.0000      -1.082212       -29.4485
  80   2.0000      -1.077632       -29.3239
  81   2.0000      -1.075384       -29.2627
  82   2.0000      -1.007515       -27.4159
  83   2.0000      -1.005124       -27.3508
  84   2.0000      -1.001202       -27.2441
  85   2.0000      -0.999744       -27.2044
  86   2.0000      -0.984492       -26.7894
  87   2.0000      -0.975057       -26.5327
  88   2.0000      -0.974616       -26.5207
  89   2.0000      -0.956720       -26.0337
  90   2.0000      -0.956351       -26.0236
  91   2.0000      -0.947805       -25.7911
  92   2.0000      -0.944465       -25.7002
  93   2.0000      -0.910424       -24.7739
  94   2.0000      -0.897345       -24.4180
  95   2.0000      -0.893210       -24.3055
  96   2.0000      -0.884514       -24.0689
  97   2.0000      -0.871986       -23.7280
  98   2.0000      -0.864604       -23.5271
  99   2.0000      -0.861612       -23.4457
 100   2.0000      -0.860223       -23.4079
 101   2.0000      -0.854921       -23.2636
 102   2.0000      -0.842789       -22.9335
 103   2.0000      -0.835448       -22.7337
 104   2.0000      -0.823415       -22.4063
 105   2.0000      -0.816363       -22.2144
 106   2.0000      -0.809883       -22.0380
 107   2.0000      -0.790737       -21.5170
 108   2.0000      -0.790238       -21.5035
 109   2.0000      -0.788581       -21.4584
 110   2.0000      -0.784765       -21.3545
 111   2.0000      -0.782897       -21.3037
 112   2.0000      -0.768871       -20.9220
 113   2.0000      -0.763514       -20.7763
 114   2.0000      -0.762122       -20.7384
 115   2.0000      -0.758339       -20.6355
 116   2.0000      -0.748770       -20.3751
 117   2.0000      -0.739684       -20.1278
 118   2.0000      -0.724045       -19.7023
 119   2.0000      -0.723405       -19.6848
 120   2.0000      -0.716006       -19.4835
 121   2.0000      -0.712958       -19.4006
 122   2.0000      -0.700416       -19.0593
 123   2.0000      -0.696562       -18.9544
 124   2.0000      -0.693595       -18.8737
 125   2.0000      -0.682477       -18.5711
 126   2.0000      -0.667524       -18.1642
 127   2.0000      -0.661396       -17.9975
 128   2.0000      -0.658761       -17.9258
 129   2.0000      -0.655334       -17.8325
 130   2.0000      -0.653168       -17.7736
 131   2.0000      -0.649456       -17.6726
 132   2.0000      -0.647106       -17.6086
 133   2.0000      -0.644369       -17.5342
 134   2.0000      -0.637063       -17.3354
 135   2.0000      -0.636099       -17.3091
 136   2.0000      -0.631693       -17.1892
 137   2.0000      -0.627470       -17.0743
 138   2.0000      -0.626931       -17.0597
 139   2.0000      -0.613623       -16.6975
 140   2.0000      -0.610332       -16.6080
 141   2.0000      -0.608863       -16.5680
 142   2.0000      -0.604533       -16.4502
 143   2.0000      -0.598361       -16.2822
 144   2.0000      -0.595094       -16.1933
 145   2.0000      -0.591176       -16.0867
 146   2.0000      -0.589722       -16.0472
 147   2.0000      -0.589109       -16.0305
 148   2.0000      -0.580439       -15.7946
 149   2.0000      -0.576141       -15.6776
 150   2.0000      -0.572607       -15.5814
 151   2.0000      -0.568540       -15.4708
 152   2.0000      -0.567509       -15.4427
 153   2.0000      -0.558714       -15.2034
 154   2.0000      -0.555987       -15.1292
 155   2.0000      -0.548660       -14.9298
 156   2.0000      -0.547974       -14.9111
 157   2.0000      -0.546805       -14.8793
 158   2.0000      -0.541571       -14.7369
 159   2.0000      -0.541479       -14.7344
 160   2.0000      -0.540952       -14.7200
 161   2.0000      -0.538613       -14.6564
 162   2.0000      -0.538025       -14.6404
 163   2.0000      -0.534918       -14.5559
 164   2.0000      -0.532994       -14.5035
 165   2.0000      -0.531080       -14.4514
 166   2.0000      -0.528406       -14.3787
 167   2.0000      -0.524993       -14.2858
 168   2.0000      -0.522435       -14.2162
 169   2.0000      -0.518498       -14.1090
 170   2.0000      -0.515460       -14.0264
 171   2.0000      -0.512999       -13.9594
 172   2.0000      -0.512159       -13.9366
 173   2.0000      -0.511384       -13.9155
 174   2.0000      -0.510734       -13.8978
 175   2.0000      -0.510048       -13.8791
 176   2.0000      -0.507574       -13.8118
 177   2.0000      -0.507165       -13.8007
 178   2.0000      -0.503708       -13.7066
 179   2.0000      -0.496295       -13.5049
 180   2.0000      -0.495429       -13.4813
 181   2.0000      -0.490216       -13.3395
 182   2.0000      -0.484344       -13.1797
 183   2.0000      -0.482921       -13.1409
 184   2.0000      -0.480842       -13.0844
 185   2.0000      -0.475957       -12.9515
 186   2.0000      -0.471751       -12.8370
 187   2.0000      -0.468846       -12.7579
 188   2.0000      -0.466377       -12.6908
 189   2.0000      -0.462212       -12.5774
 190   2.0000      -0.461651       -12.5622
 191   2.0000      -0.459023       -12.4907
 192   2.0000      -0.457888       -12.4598
 193   2.0000      -0.455662       -12.3992
 194   2.0000      -0.454171       -12.3586
 195   2.0000      -0.452066       -12.3013
 196   2.0000      -0.448518       -12.2048
 197   2.0000      -0.448164       -12.1952
 198   2.0000      -0.447409       -12.1746
 199   2.0000      -0.444580       -12.0976
 200   2.0000      -0.440633       -11.9902
 201   2.0000      -0.437580       -11.9072
 202   2.0000      -0.434868       -11.8334
 203   2.0000      -0.432571       -11.7709
 204   2.0000      -0.432249       -11.7621
 205   2.0000      -0.429558       -11.6889
 206   2.0000      -0.427512       -11.6332
 207   2.0000      -0.426948       -11.6178
 208   2.0000      -0.422150       -11.4873
 209   2.0000      -0.419547       -11.4164
 210   2.0000      -0.417257       -11.3541
 211   2.0000      -0.410709       -11.1760
 212   2.0000      -0.409821       -11.1518
 213   2.0000      -0.408282       -11.1099
 214   2.0000      -0.407079       -11.0772
 215   2.0000      -0.402880       -10.9629
 216   2.0000      -0.401766       -10.9326
 217   2.0000      -0.384280       -10.4568
 218   2.0000      -0.383983       -10.4487
 219   2.0000      -0.382568       -10.4102
 220   2.0000      -0.377508       -10.2725
 221   2.0000      -0.372464       -10.1352
 222   2.0000      -0.370857       -10.0915
 223   2.0000      -0.359290        -9.7768
 224   2.0000      -0.352759        -9.5991
 225   2.0000      -0.338610        -9.2141
 226   2.0000      -0.331117        -9.0101
 227   2.0000      -0.327443        -8.9102
 228   2.0000      -0.323061        -8.7909
 229   2.0000      -0.322835        -8.7848
 230   2.0000      -0.316207        -8.6044
 231   2.0000      -0.315484        -8.5848
 232   2.0000      -0.311710        -8.4821
 233   2.0000      -0.306791        -8.3482
 234   2.0000      -0.295895        -8.0517
 235   2.0000      -0.289946        -7.8898
 236   2.0000      -0.288008        -7.8371
 237   2.0000      -0.282646        -7.6912
 238   2.0000      -0.260175        -7.0797
 239   2.0000      -0.250019        -6.8034
 240   2.0000      -0.232359        -6.3228
 241   2.0000      -0.217671        -5.9231
 242   0.0000      -0.106237        -2.8908
 243   0.0000      -0.096591        -2.6284
 244   0.0000      -0.072279        -1.9668
 245   0.0000      -0.066982        -1.8227
 246   0.0000      -0.025720        -0.6999

MULLIKEN ATOMIC CHARGES
-----------------------
   0 C :   -0.082035
   1 C :    0.039754
   2 C :   -0.048305
   3 N :   -0.018836
   4 C :    0.025896
   5 C :    0.021041
   6 N :   -0.018750
   7 C :    0.133980
   8 C :   -0.047521
   9 C :    0.035327
  10 N :   -0.020562
  11 C :    0.022569
  12 C :    0.034465
  13 N :   -0.022315
  14 C :   -0.102530
  15 C :    0.029748
  16 C :    0.115703
  17 C :   -0.085029
  18 C :    0.014511
  19 C :    0.252232
  20 C :   -0.079249
  21 F :   -0.180277
  22 C :    0.010281
  23 C :   -0.097676
  24 C :    0.108070
  25 C :   -0.084563
  26 C :    0.255887
  27 F :   -0.179565
  28 C :   -0.019750
  29 C :    0.020531
  30 C :   -0.108548
  31 S :    0.109710
  32 C :   -0.108114
  33 C :   -0.089810
  34 C :    0.112125
  35 C :    0.148349
  36 C :   -0.059807
  37 C :    0.016037
  38 C :    0.033578
  39 C :   -0.013577
  40 C :    0.114056
  41 C :   -0.094781
  42 C :    0.010643
  43 C :    0.253874
  44 C :   -0.084699
  45 F :   -0.181024
  46 C :    0.017460
  47 C :   -0.090815
  48 C :    0.117727
  49 C :   -0.079858
  50 C :    0.252694
  51 F :   -0.179851
  52 C :    0.029051
  53 C :   -0.098435
  54 C :    0.116287
  55 C :   -0.029817
  56 C :   -0.057764
  57 N :   -0.022179
  58 C :    0.028366
  59 C :    0.026195
  60 N :   -0.017435
  61 C :    0.064454
  62 C :   -0.037398
  63 C :   -0.052935
  64 N :   -0.024079
  65 C :    0.033605
  66 C :    0.024335
  67 N :   -0.016539
  68 C :   -0.075346
  69 C :    0.030251
  70 H :   -0.035557
  71 H :    0.013305
  72 H :    0.015477
  73 H :    0.014551
  74 H :    0.013282
  75 H :   -0.005217
  76 H :   -0.006329
  77 H :   -0.019552
  78 H :   -0.014529
  79 H :   -0.020233
  80 H :   -0.021773
  81 H :   -0.015143
  82 H :   -0.006484
  83 H :    0.015669
  84 H :    0.006689
  85 H :    0.038415
  86 H :    0.033515
  87 H :   -0.005779
  88 H :   -0.019694
  89 H :   -0.005152
  90 H :   -0.025635
  91 H :   -0.020446
  92 H :   -0.023507
  93 H :   -0.019654
  94 H :   -0.016052
  95 H :   -0.006721
  96 H :   -0.007204
  97 H :    0.013601
  98 H :    0.013851
  99 H :    0.014031
 100 H :    0.014384
 101 H :    0.000431
 102 H :    0.025298
 103 H :    0.013142
Sum of atomic charges:   -0.0000000

LOEWDIN ATOMIC CHARGES
----------------------
   0 C :   -0.005934
   1 C :   -0.014421
   2 C :   -0.007621
   3 N :   -0.032002
   4 C :    0.006272
   5 C :    0.005987
   6 N :   -0.035985
   7 C :   -0.010459
   8 C :   -0.008629
   9 C :   -0.012031
  10 N :   -0.033926
  11 C :    0.005600
  12 C :    0.009603
  13 N :   -0.024759
  14 C :   -0.018066
  15 C :    0.004467
  16 C :   -0.001351
  17 C :   -0.052371
  18 C :   -0.002850
  19 C :    0.078338
  20 C :   -0.056914
  21 F :   -0.057574
  22 C :   -0.001077
  23 C :   -0.067405
  24 C :   -0.002540
  25 C :   -0.061512
  26 C :    0.079810
  27 F :   -0.055270
  28 C :   -0.031746
  29 C :   -0.011560
  30 C :   -0.162616
  31 S :    0.434077
  32 C :   -0.182968
  33 C :   -0.054290
  34 C :   -0.044837
  35 C :   -0.053107
  36 C :   -0.013111
  37 C :   -0.024809
  38 C :    0.005865
  39 C :   -0.028776
  40 C :   -0.004266
  41 C :   -0.064887
  42 C :   -0.002358
  43 C :    0.078827
  44 C :   -0.062312
  45 F :   -0.056432
  46 C :   -0.002077
  47 C :   -0.054706
  48 C :    0.000074
  49 C :   -0.057996
  50 C :    0.079279
  51 F :   -0.056808
  52 C :    0.002165
  53 C :   -0.014807
  54 C :   -0.018632
  55 C :   -0.002897
  56 C :   -0.008479
  57 N :   -0.022772
  58 C :    0.007725
  59 C :    0.006481
  60 N :   -0.029912
  61 C :   -0.012499
  62 C :   -0.006043
  63 C :   -0.006086
  64 N :   -0.023546
  65 C :    0.009653
  66 C :    0.006458
  67 N :   -0.027840
  68 C :   -0.033069
  69 C :   -0.015835
  70 H :    0.041421
  71 H :    0.026853
  72 H :    0.027249
  73 H :    0.027062
  74 H :    0.026849
  75 H :    0.027369
  76 H :    0.027968
  77 H :    0.022476
  78 H :    0.030549
  79 H :    0.018120
  80 H :    0.028375
  81 H :    0.021704
  82 H :    0.035041
  83 H :    0.022201
  84 H :    0.032808
  85 H :    0.034526
  86 H :    0.036477
  87 H :    0.030320
  88 H :    0.027545
  89 H :    0.031162
  90 H :    0.026957
  91 H :    0.018839
  92 H :    0.027619
  93 H :    0.022337
  94 H :    0.030004
  95 H :    0.028188
  96 H :    0.027453
  97 H :    0.026593
  98 H :    0.027050
  99 H :    0.027103
 100 H :    0.027162
 101 H :    0.029809
 102 H :    0.017978
 103 H :    0.020931

  Mayer bond orders larger than 0.100000
B(  0-C ,  1-C ) :   1.2397 B(  0-C ,  7-C ) :   0.1386 B(  0-C ,  9-C ) :   1.2365
B(  0-C , 70-H ) :   1.0565 B(  1-C ,  2-C ) :   1.1759 B(  1-C ,  6-N ) :   1.3724
B(  2-C ,  3-N ) :   1.4468 B(  2-C ,  7-C ) :   1.2371 B(  3-N ,  4-C ) :   1.6992
B(  4-C ,  5-C ) :   1.1798 B(  4-C , 71-H ) :   0.9743 B(  5-C ,  6-N ) :   1.7207
B(  5-C , 72-H ) :   0.9736 B(  7-C ,  8-C ) :   1.2247 B(  7-C , 14-C ) :   1.1698
B(  8-C ,  9-C ) :   1.1718 B(  8-C , 13-N ) :   1.4433 B(  9-C , 10-N ) :   1.3745
B( 10-N , 11-C ) :   1.7173 B( 11-C , 12-C ) :   1.1842 B( 11-C , 73-H ) :   0.9738
B( 12-C , 13-N ) :   1.6819 B( 12-C , 74-H ) :   0.9730 B( 14-C , 15-C ) :   1.5721
B( 14-C , 75-H ) :   0.9583 B( 15-C , 16-C ) :   1.1184 B( 15-C , 76-H ) :   0.9654
B( 16-C , 17-C ) :   1.4971 B( 16-C , 20-C ) :   1.0161 B( 17-C , 18-C ) :   1.1267
B( 17-C , 77-H ) :   1.0232 B( 18-C , 19-C ) :   1.0222 B( 18-C , 22-C ) :   1.4322
B( 19-C , 20-C ) :   1.6623 B( 19-C , 21-F ) :   1.1167 B( 20-C , 78-H ) :   1.0158
B( 22-C , 23-C ) :   1.1597 B( 22-C , 26-C ) :   1.0143 B( 23-C , 24-C ) :   1.5127
B( 23-C , 79-H ) :   1.0070 B( 24-C , 25-C ) :   1.0106 B( 24-C , 28-C ) :   1.1491
B( 25-C , 26-C ) :   1.6573 B( 25-C , 80-H ) :   1.0212 B( 26-C , 27-F ) :   1.1216
B( 28-C , 29-C ) :   1.6021 B( 28-C , 81-H ) :   0.9747 B( 29-C , 30-C ) :   1.1987
B( 29-C , 82-H ) :   0.9698 B( 30-C , 31-S ) :   1.1258 B( 30-C , 35-C ) :   1.3683
B( 31-S , 32-C ) :   1.1344 B( 32-C , 33-C ) :   1.6096 B( 32-C , 83-H ) :   0.9644
B( 33-C , 34-C ) :   1.0950 B( 33-C , 35-C ) :   1.2211 B( 34-C , 84-H ) :   0.9452
B( 34-C , 85-H ) :   0.9398 B( 34-C , 86-H ) :   0.9450 B( 35-C , 36-C ) :   1.1129
B( 36-C , 37-C ) :   1.6168 B( 36-C , 87-H ) :   0.9663 B( 37-C , 38-C ) :   1.1504
B( 37-C , 88-H ) :   0.9876 B( 38-C , 39-C ) :   1.5935 B( 38-C , 89-H ) :   0.9890
B( 39-C , 40-C ) :   1.1260 B( 39-C , 90-H ) :   0.9814 B( 40-C , 41-C ) :   1.5140
B( 40-C , 44-C ) :   1.0104 B( 41-C , 42-C ) :   1.1593 B( 41-C , 91-H ) :   1.0093
B( 42-C , 43-C ) :   1.0165 B( 42-C , 46-C ) :   1.4291 B( 43-C , 44-C ) :   1.6570
B( 43-C , 45-F ) :   1.1194 B( 44-C , 92-H ) :   1.0215 B( 46-C , 47-C ) :   1.1331
B( 46-C , 50-C ) :   1.0207 B( 47-C , 48-C ) :   1.4839 B( 47-C , 93-H ) :   1.0244
B( 48-C , 49-C ) :   1.0145 B( 48-C , 52-C ) :   1.1338 B( 49-C , 50-C ) :   1.6637
B( 49-C , 94-H ) :   1.0167 B( 50-C , 51-F ) :   1.1180 B( 52-C , 53-C ) :   1.5509
B( 52-C , 95-H ) :   0.9670 B( 53-C , 54-C ) :   1.1891 B( 53-C , 96-H ) :   0.9550
B( 54-C , 55-C ) :   1.2258 B( 54-C , 61-C ) :   0.1367 B( 54-C , 63-C ) :   1.2215
B( 55-C , 56-C ) :   1.1573 B( 55-C , 60-N ) :   1.4583 B( 56-C , 57-N ) :   1.4410
B( 56-C , 61-C ) :   1.2479 B( 57-N , 58-C ) :   1.6861 B( 58-C , 59-C ) :   1.1903
B( 58-C , 97-H ) :   0.9732 B( 59-C , 60-N ) :   1.6888 B( 59-C , 98-H ) :   0.9747
B( 61-C , 62-C ) :   1.2540 B( 61-C , 68-C ) :   1.1617 B( 62-C , 63-C ) :   1.1547
B( 62-C , 67-N ) :   1.4547 B( 63-C , 64-N ) :   1.4489 B( 64-N , 65-C ) :   1.6741
B( 65-C , 66-C ) :   1.1907 B( 65-C , 99-H ) :   0.9731 B( 66-C , 67-N ) :   1.6975
B( 66-C ,100-H ) :   0.9746 B( 68-C , 69-C ) :   1.8992 B( 68-C ,101-H ) :   0.9415
B( 69-C ,102-H ) :   0.9324 B( 69-C ,103-H ) :   0.9430

-----------------------------------------------------------------------------
         ABSORPTION SPECTRUM VIA TRANSITION ELECTRIC DIPOLE MOMENTS
-----------------------------------------------------------------------------
State   Energy  Wavelength   fosc         T2         TX        TY        TZ
        (cm-1)    (nm)                  (au**2)     (au)      (au)      (au)
-----------------------------------------------------------------------------
   0   10559.8    947.0   0.613496181  19.12632  -0.58996  -0.79118   4.26055
   1   13123.8    762.0   1.516707811  38.04683   1.35736  -5.70822  -1.90280
   2   15398.9    649.4   0.038290286   0.81860   0.31658  -0.79521  -0.29329
   3   16020.5    624.2   0.028450328   0.58464  -0.39895  -0.58638  -0.28571
   4   17499.0    571.5   0.004970271   0.09351   0.25320  -0.15630  -0.07047
   5   17918.0    558.1   0.002599105   0.04775  -0.15364   0.00240   0.15538
   6   18890.2    529.4   0.114036123   1.98739  -0.21967  -0.62152  -1.24613
   7   19324.6    517.5   0.078723604   1.34113  -0.17128   0.97156  -0.60653
   8   22091.6    452.7   0.362983396   5.40923  -0.52943   0.98125   2.04110
   9   22677.5    441.0   0.408648313   5.93240   0.51968  -2.33262   0.47036
  10   23783.1    420.5   0.020745793   0.28717   0.16305  -0.37566   0.34563
  11   23830.0    419.6   0.503283849   6.95286   0.22682  -2.51955  -0.74383
  12   24107.0    414.8   0.003244768   0.04431   0.01918   0.15790  -0.13788
  13   24440.8    409.2   0.007848270   0.10571   0.27279  -0.09490  -0.14930
  14   24938.8    401.0   0.013826278   0.18252   0.13576   0.34461   0.21290
  15   25320.5    394.9   0.005464236   0.07104   0.23577   0.07936  -0.09570
  16   25968.4    385.1   0.148148519   1.87814  -0.11253   0.94427   0.98683
  17   26358.2    379.4   0.122955470   1.53571   0.20774  -1.10402  -0.52316
  18   26472.8    377.7   0.049102828   0.61064  -0.31254   0.68989   0.19238
  19   26891.3    371.9   0.001008847   0.01235  -0.10899  -0.00051   0.02172
  20   27657.9    361.6   0.085949711   1.02306  -0.18751   0.17750  -0.97795
  21   28339.9    352.9   0.031530542   0.36628  -0.05046   0.53378   0.28074
  22   28554.9    350.2   0.070168305   0.80898   0.08883  -0.27805  -0.85075
  23   28957.1    345.3   0.114061272   1.29676  -0.58290   0.67458  -0.70847
  24   29431.4    339.8   0.003233150   0.03617  -0.05601  -0.05908   0.17186
  25   30276.3    330.3   0.051470225   0.55967  -0.42966   0.58567  -0.17903
  26   30317.3    329.8   0.005196057   0.05642  -0.02181  -0.23652  -0.00271
  27   30388.4    329.1   0.035632784   0.38603  -0.15881  -0.27637  -0.53332
  28   31095.5    321.6   0.027444798   0.29056   0.16594  -0.51285  -0.00294
  29   31305.1    319.4   0.011464406   0.12056  -0.23349   0.16596  -0.19622
  30   31608.4    316.4   0.029813175   0.31051   0.04213  -0.55562  -0.00451
  31   31824.8    314.2   0.135480693   1.40148  -0.16367  -0.84609  -0.81168
  32   31950.9    313.0   0.030828233   0.31764  -0.03975  -0.56119  -0.03354
  33   32544.6    307.3   0.000911681   0.00922  -0.02485  -0.09274   0.00220
  34   32619.2    306.6   0.031818053   0.32113   0.17687   0.11369   0.52623
  35   32714.5    305.7   0.107652620   1.08333  -0.21635  -0.58918  -0.83029
  36   32959.8    303.4   0.017203953   0.17184   0.08498   0.11272   0.38976
  37   33538.2    298.2   0.030000570   0.29449   0.11444   0.15473   0.50739
  38   33880.2    295.2   0.002593741   0.02520  -0.07137  -0.12657   0.06395
  39   34257.1    291.9   0.052928315   0.50864   0.27500  -0.55723  -0.35003
  40   34295.8    291.6   0.002230738   0.02141   0.13940   0.00924  -0.04354
  41   34912.6    286.4   0.293078846   2.76362  -0.78931  -0.14925  -1.45545
  42   35641.3    280.6   0.412325911   3.80857   1.29583  -0.04500   1.45855
  43   35893.5    278.6   0.261980391   2.40286  -0.11401   0.31513   1.51346
  44   36125.4    276.8   0.364921699   3.32554   1.30761  -1.25026   0.22923
  45   36254.4    275.8   0.020588372   0.18696   0.07076  -0.04359  -0.42432
  46   36386.9    274.8   0.116524568   1.05426  -0.64294   0.67852   0.42487
  47   36549.2    273.6   0.057771643   0.52037   0.62049  -0.36745   0.01845
  48   36602.1    273.2   0.001904786   0.01713  -0.12337   0.04185  -0.01268
  49   36890.5    271.1   0.017182915   0.15334   0.32245  -0.00949  -0.22199
  50   37065.0    269.8   0.237640884   2.11073   0.35547  -1.18932  -0.75490
  51   37513.5    266.6   0.023719595   0.20816   0.23289   0.38542   0.07332
  52   37706.5    265.2   0.291035474   2.54100  -0.00290   1.47813   0.59677
  53   38079.8    262.6   0.180627770   1.56158   0.15041  -1.21286  -0.26065
  54   38846.3    257.4   0.002900998   0.02459   0.02837   0.13602   0.07266
  55   39074.6    255.9   0.023929348   0.20161  -0.41261  -0.05052  -0.16974
  56   39304.8    254.4   0.013017008   0.10903  -0.04448  -0.07041  -0.31952
  57   39323.1    254.3   0.019619897   0.16426  -0.14279  -0.18623  -0.33044
  58   39507.3    253.1   0.006760860   0.05634  -0.18798  -0.06062  -0.13163
  59   39571.9    252.7   0.005115508   0.04256   0.10966  -0.04248   0.16949
  60   39610.8    252.5   0.000946746   0.00787  -0.07045   0.05217  -0.01353
  61   39748.0    251.6   0.000439824   0.00364   0.04695  -0.01232  -0.03587
  62   39897.0    250.6   0.042039311   0.34689   0.13163   0.13010   0.55914
  63   39976.2    250.1   0.011898520   0.09799  -0.07376  -0.29765  -0.06287
  64   40101.1    249.4   0.011122756   0.09131  -0.25210   0.09618  -0.13604
  65   40170.0    248.9   0.080147040   0.65684  -0.24157  -0.15461  -0.75801

FINAL SINGLE POINT ENERGY     -3423.985578984688

DIPOLE MOMENT
-------------
                                X             Y             Z
Electronic contribution:      0.34937     -12.98800      16.95583
Nuclear contribution   :     -0.40076      13.55709     -17.17690
                        -----------------------------------------
Total Dipole Moment    :     -0.05139       0.56909      -0.22107
                        -----------------------------------------
Magnitude (a.u.)       :      0.61268
Magnitude (Debye)      :      1.55730

Rotational constants in cm-1:     0.000626     0.000367     0.000241
Rotational constants in MHz :    18.776953    11.010424     7.216583

                             ****ORCA TERMINATED NORMALLY****
TOTAL RUN TIME: 0 days 0 hours 9 minutes 1 seconds 999 msec
