                         Program Version 4.2.0 -  RELEASE  -
|  1> # ORCA input file
|  2> # SCF done       -200.939298555320          0.000526682512
|  3> ! CAM-B3LYP def2-SVP def2/J RIJCOSX Grid4 TightSCF
|  4> %maxcore 5000
|  5> %tddft
|  6>     Mode sTDDFT
|  7>     Ethresh 5.0
|  8>     maxcore 5000
|  9> end
| 10>
| 11> %pal
| 12>   nprocs 6
| 13>   end
| 14> * xyz 0 1
| 15>    C       -9.42283         2.69526        -1.46338
| 16>    C       -9.92474         3.25366        -2.63024
| 17>    C       -9.89867         2.55306        -3.82637
| 18>    C       -9.35679         1.27766        -3.89317
| 19>    C       -8.84789         0.71264        -2.73618
| 20>    C       -8.88886         1.41809        -1.51319
| 21>    C       -8.32904         0.57150        -0.46536
| 22>    C       -8.22525         0.91182         0.86110
| 23>    C       -8.57287         2.17446         1.38384
| 24>    N       -8.82335         3.17937         1.88013
| 25>    C       -7.76759         0.07537         1.89921
| 26>    N       -7.43017        -0.54127         2.80833
| 27>    C       -7.98937        -0.69810        -1.07891
| 28>    C       -8.18403        -0.56398        -2.50769
| 29>    C       -7.63516        -1.34908        -3.49470
| 30>    C       -6.70642        -2.38462        -3.28331
| 31>    N       -5.89686        -3.19583        -3.20037
| 32>    C       -7.85466        -1.15482        -4.87211
| 33>    N       -8.01683        -1.07508        -6.00647
| 34>    C       -7.55074        -1.80739        -0.37631
| 35>    C       -7.60412        -3.15091        -0.74505
| 36>    C       -8.45603        -3.84509        -1.64126
| 37>    C       -8.10363        -5.21524        -1.77711
| 38>    C       -8.83477        -6.03948        -2.64449
| 39>    C       -9.90157        -5.51797        -3.33040
| 40>    C      -10.28914        -4.18425        -3.14633
| 41>    C       -9.58619        -3.35347        -2.31088
| 42>    C       -6.99881        -5.58253        -0.96919
| 43>    S       -6.47489        -4.25208        -0.00738
| 44>    C       -6.33399        -6.81828        -0.96611
| 45>    C       -5.24658        -7.10400        -0.19362
| 46>    C       -4.50861        -8.29791        -0.27809
| 47>    S       -4.92801        -9.55353        -1.41664
| 48>    C       -3.35126        -8.63135         0.43099
| 49>    C       -2.77421        -7.78108         1.49445
| 50>    O       -3.25046        -6.71665         1.85271
| 51>    C       -1.57907        -8.36259         2.07840
| 52>    C       -0.78188        -7.88499         3.09680
| 53>    N        0.22910        -8.76139         3.30191
| 54>    C        1.22735        -8.64777         4.33564
| 55>    C        0.73204        -9.26102         5.64384
| 56>    C        0.10596        -9.80376         2.44742
| 57>    C       -1.00708        -9.59818         1.66050
| 58>    C       -1.55095       -10.42827         0.60131
| 59>    O       -1.03681       -11.47081         0.23039
| 60>    C       -2.79106        -9.86521         0.02708
| 61>    C       -3.52781       -10.49709        -0.97893
| 62>    C       -3.21935       -11.70645        -1.62619
| 63>    C       -4.02882       -12.33502        -2.52637
| 64>    C       -3.66685       -13.49955        -3.22176
| 65>    C       -4.47864       -14.27899        -4.07915
| 66>    C       -3.77753       -15.37379        -4.65557
| 67>    C       -4.44832       -16.24958        -5.52252
| 68>    C       -5.77374       -16.03563        -5.79910
| 69>    C       -6.46565       -14.95513        -5.23095
| 70>    C       -5.83578       -14.08384        -4.38145
| 71>    C       -2.41866       -15.42297        -4.25991
| 72>    S       -2.06125       -14.13763        -3.14529
| 73>    C       -1.43523       -16.31661        -4.68573
| 74>    C       -0.11487       -16.24171        -4.31592
| 75>    C        0.85723       -17.10859        -4.81982
| 76>    C        2.19552       -17.10934        -4.48742
| 77>    C        3.25304       -17.65750        -5.31715
| 78>    C        3.12354       -18.55147        -6.35023
| 79>    C        1.91582       -19.14637        -6.76779
| 80>    N        0.97249       -19.67061        -7.16199
| 81>    C        4.20159       -19.03123        -7.12187
| 82>    N        5.03011       -19.46258        -7.78981
| 83>    C        4.50236       -17.06295        -4.85483
| 84>    C        4.23853       -16.28727        -3.70349
| 85>    C        5.25389       -15.58413        -3.07849
| 86>    C        6.53439       -15.65904        -3.60725
| 87>    C        6.79761       -16.42820        -4.73074
| 88>    C        5.78810       -17.13820        -5.36475
| 89>    C        2.82583       -16.42254        -3.37502
| 90>    C        2.26310       -16.16184        -2.15071
| 91>    C        2.94222       -15.51982        -1.09560
| 92>    N        3.43905       -14.98504        -0.20923
| 93>    C        0.98882       -16.61785        -1.75110
| 94>    N       -0.01073       -17.02094        -1.35567
| 95>    H       -9.45330         3.25516        -0.54356
| 96>    H      -10.34383         4.24786        -2.60143
| 97>    H      -10.30287         3.00334        -4.72013
| 98>    H       -9.34566         0.74292        -4.82875
| 99>    H       -7.11258        -1.62247         0.59645
|100>    H       -8.56625        -7.07794        -2.75819
|101>    H      -10.46796        -6.14316        -4.00346
|102>    H      -11.15690        -3.80940        -3.66760
|103>    H       -9.91473        -2.33863        -2.14860
|104>    H       -6.69686        -7.56953        -1.65631
|105>    H       -4.87758        -6.37424         0.51608
|106>    H       -0.88001        -6.98228         3.66646
|107>    H        1.45788        -7.58940         4.48232
|108>    H        2.13229        -9.16082         4.00113
|109>    H       -0.16728        -8.75337         5.98425
|110>    H        1.49635        -9.16799         6.40993
|111>    H        0.50312       -10.31489         5.50514
|112>    H        0.80080       -10.61996         2.43612
|113>    H       -2.26470       -12.14436        -1.36274
|114>    H       -5.00983       -11.92392        -2.72951
|115>    H       -3.92431       -17.08402        -5.96110
|116>    H       -6.29890       -16.70573        -6.46254
|117>    H       -7.50910       -14.81502        -5.46908
|118>    H       -6.37346       -13.25704        -3.94425
|119>    H       -1.74230       -17.11284        -5.35067
|120>    H        0.18055       -15.43695        -3.65671
|121>    H        0.53939       -17.76828        -5.61544
|122>    H        5.06028       -14.97843        -2.20810
|123>    H        7.33452       -15.10860        -3.13624
|124>    H        7.80175       -16.47421        -5.12390
|125>    H        6.01108       -17.72708        -6.23912
|126> *
|127>
|128>                          ****END OF INPUT****

CARTESIAN COORDINATES (ANGSTROEM)
---------------------------------
  C     -9.422830    2.695260   -1.463380
  C     -9.924740    3.253660   -2.630240
  C     -9.898670    2.553060   -3.826370
  C     -9.356790    1.277660   -3.893170
  C     -8.847890    0.712640   -2.736180
  C     -8.888860    1.418090   -1.513190
  C     -8.329040    0.571500   -0.465360
  C     -8.225250    0.911820    0.861100
  C     -8.572870    2.174460    1.383840
  N     -8.823350    3.179370    1.880130
  C     -7.767590    0.075370    1.899210
  N     -7.430170   -0.541270    2.808330
  C     -7.989370   -0.698100   -1.078910
  C     -8.184030   -0.563980   -2.507690
  C     -7.635160   -1.349080   -3.494700
  C     -6.706420   -2.384620   -3.283310
  N     -5.896860   -3.195830   -3.200370
  C     -7.854660   -1.154820   -4.872110
  N     -8.016830   -1.075080   -6.006470
  C     -7.550740   -1.807390   -0.376310
  C     -7.604120   -3.150910   -0.745050
  C     -8.456030   -3.845090   -1.641260
  C     -8.103630   -5.215240   -1.777110
  C     -8.834770   -6.039480   -2.644490
  C     -9.901570   -5.517970   -3.330400
  C    -10.289140   -4.184250   -3.146330
  C     -9.586190   -3.353470   -2.310880
  C     -6.998810   -5.582530   -0.969190
  S     -6.474890   -4.252080   -0.007380
  C     -6.333990   -6.818280   -0.966110
  C     -5.246580   -7.104000   -0.193620
  C     -4.508610   -8.297910   -0.278090
  S     -4.928010   -9.553530   -1.416640
  C     -3.351260   -8.631350    0.430990
  C     -2.774210   -7.781080    1.494450
  O     -3.250460   -6.716650    1.852710
  C     -1.579070   -8.362590    2.078400
  C     -0.781880   -7.884990    3.096800
  N      0.229100   -8.761390    3.301910
  C      1.227350   -8.647770    4.335640
  C      0.732040   -9.261020    5.643840
  C      0.105960   -9.803760    2.447420
  C     -1.007080   -9.598180    1.660500
  C     -1.550950  -10.428270    0.601310
  O     -1.036810  -11.470810    0.230390
  C     -2.791060   -9.865210    0.027080
  C     -3.527810  -10.497090   -0.978930
  C     -3.219350  -11.706450   -1.626190
  C     -4.028820  -12.335020   -2.526370
  C     -3.666850  -13.499550   -3.221760
  C     -4.478640  -14.278990   -4.079150
  C     -3.777530  -15.373790   -4.655570
  C     -4.448320  -16.249580   -5.522520
  C     -5.773740  -16.035630   -5.799100
  C     -6.465650  -14.955130   -5.230950
  C     -5.835780  -14.083840   -4.381450
  C     -2.418660  -15.422970   -4.259910
  S     -2.061250  -14.137630   -3.145290
  C     -1.435230  -16.316610   -4.685730
  C     -0.114870  -16.241710   -4.315920
  C      0.857230  -17.108590   -4.819820
  C      2.195520  -17.109340   -4.487420
  C      3.253040  -17.657500   -5.317150
  C      3.123540  -18.551470   -6.350230
  C      1.915820  -19.146370   -6.767790
  N      0.972490  -19.670610   -7.161990
  C      4.201590  -19.031230   -7.121870
  N      5.030110  -19.462580   -7.789810
  C      4.502360  -17.062950   -4.854830
  C      4.238530  -16.287270   -3.703490
  C      5.253890  -15.584130   -3.078490
  C      6.534390  -15.659040   -3.607250
  C      6.797610  -16.428200   -4.730740
  C      5.788100  -17.138200   -5.364750
  C      2.825830  -16.422540   -3.375020
  C      2.263100  -16.161840   -2.150710
  C      2.942220  -15.519820   -1.095600
  N      3.439050  -14.985040   -0.209230
  C      0.988820  -16.617850   -1.751100
  N     -0.010730  -17.020940   -1.355670
  H     -9.453300    3.255160   -0.543560
  H    -10.343830    4.247860   -2.601430
  H    -10.302870    3.003340   -4.720130
  H     -9.345660    0.742920   -4.828750
  H     -7.112580   -1.622470    0.596450
  H     -8.566250   -7.077940   -2.758190
  H    -10.467960   -6.143160   -4.003460
  H    -11.156900   -3.809400   -3.667600
  H     -9.914730   -2.338630   -2.148600
  H     -6.696860   -7.569530   -1.656310
  H     -4.877580   -6.374240    0.516080
  H     -0.880010   -6.982280    3.666460
  H      1.457880   -7.589400    4.482320
  H      2.132290   -9.160820    4.001130
  H     -0.167280   -8.753370    5.984250
  H      1.496350   -9.167990    6.409930
  H      0.503120  -10.314890    5.505140
  H      0.800800  -10.619960    2.436120
  H     -2.264700  -12.144360   -1.362740
  H     -5.009830  -11.923920   -2.729510
  H     -3.924310  -17.084020   -5.961100
  H     -6.298900  -16.705730   -6.462540
  H     -7.509100  -14.815020   -5.469080
  H     -6.373460  -13.257040   -3.944250
  H     -1.742300  -17.112840   -5.350670
  H      0.180550  -15.436950   -3.656710
  H      0.539390  -17.768280   -5.615440
  H      5.060280  -14.978430   -2.208100
  H      7.334520  -15.108600   -3.136240
  H      7.801750  -16.474210   -5.123900
  H      6.011080  -17.727080   -6.239120

 Total Charge           Charge          ....    0
 Multiplicity           Mult            ....    1
 Number of Electrons    NEL             ....  554
 Basis Dimension        Dim             .... 1287

ORBITAL ENERGIES
----------------

  NO   OCC          E(Eh)            E(eV)
   0   2.0000     -88.985326     -2421.4138
   1   2.0000     -88.984931     -2421.4031
   2   2.0000     -88.982585     -2421.3392
   3   2.0000     -19.210848      -522.7538
   4   2.0000     -19.209297      -522.7115
   5   2.0000     -14.494252      -394.4087
   6   2.0000     -14.415978      -392.2787
   7   2.0000     -14.414932      -392.2502
   8   2.0000     -14.414476      -392.2378
   9   2.0000     -14.412222      -392.1765
  10   2.0000     -14.412209      -392.1761
  11   2.0000     -14.411628      -392.1603
  12   2.0000     -14.411517      -392.1573
  13   2.0000     -14.411131      -392.1468
  14   2.0000     -10.370886      -282.2061
  15   2.0000     -10.369496      -282.1683
  16   2.0000     -10.343353      -281.4570
  17   2.0000     -10.340795      -281.3873
  18   2.0000     -10.340449      -281.3779
  19   2.0000     -10.339774      -281.3595
  20   2.0000     -10.339739      -281.3586
  21   2.0000     -10.338974      -281.3378
  22   2.0000     -10.338570      -281.3268
  23   2.0000     -10.338254      -281.3182
  24   2.0000     -10.337081      -281.2863
  25   2.0000     -10.335920      -281.2547
  26   2.0000     -10.335500      -281.2433
  27   2.0000     -10.335433      -281.2414
  28   2.0000     -10.334569      -281.2179
  29   2.0000     -10.323269      -280.9104
  30   2.0000     -10.322742      -280.8961
  31   2.0000     -10.321880      -280.8726
  32   2.0000     -10.318978      -280.7937
  33   2.0000     -10.318835      -280.7898
  34   2.0000     -10.318462      -280.7796
  35   2.0000     -10.317795      -280.7615
  36   2.0000     -10.317525      -280.7541
  37   2.0000     -10.317027      -280.7406
  38   2.0000     -10.315532      -280.6999
  39   2.0000     -10.315501      -280.6990
  40   2.0000     -10.315199      -280.6908
  41   2.0000     -10.314978      -280.6848
  42   2.0000     -10.314825      -280.6807
  43   2.0000     -10.314508      -280.6720
  44   2.0000     -10.310071      -280.5513
  45   2.0000     -10.309146      -280.5261
  46   2.0000     -10.306556      -280.4556
  47   2.0000     -10.306318      -280.4492
  48   2.0000     -10.306198      -280.4459
  49   2.0000     -10.306098      -280.4432
  50   2.0000     -10.305604      -280.4298
  51   2.0000     -10.305548      -280.4282
  52   2.0000     -10.305245      -280.4200
  53   2.0000     -10.304723      -280.4058
  54   2.0000     -10.303912      -280.3837
  55   2.0000     -10.303700      -280.3779
  56   2.0000     -10.303457      -280.3713
  57   2.0000     -10.303227      -280.3651
  58   2.0000     -10.302875      -280.3555
  59   2.0000     -10.301830      -280.3270
  60   2.0000     -10.297904      -280.2202
  61   2.0000     -10.296404      -280.1794
  62   2.0000     -10.294867      -280.1376
  63   2.0000     -10.294591      -280.1301
  64   2.0000     -10.294260      -280.1210
  65   2.0000     -10.293799      -280.1085
  66   2.0000     -10.293790      -280.1083
  67   2.0000     -10.293590      -280.1028
  68   2.0000     -10.292788      -280.0810
  69   2.0000     -10.292770      -280.0805
  70   2.0000     -10.292616      -280.0763
  71   2.0000     -10.292508      -280.0734
  72   2.0000     -10.292035      -280.0605
  73   2.0000     -10.291900      -280.0568
  74   2.0000     -10.290937      -280.0306
  75   2.0000     -10.290882      -280.0291
  76   2.0000     -10.290528      -280.0195
  77   2.0000     -10.284758      -279.8625
  78   2.0000     -10.276337      -279.6334
  79   2.0000     -10.275677      -279.6154
  80   2.0000      -8.080389      -219.8786
  81   2.0000      -8.079743      -219.8610
  82   2.0000      -8.077989      -219.8133
  83   2.0000      -6.049306      -164.6100
  84   2.0000      -6.048613      -164.5911
  85   2.0000      -6.047021      -164.5478
  86   2.0000      -6.045260      -164.4999
  87   2.0000      -6.044620      -164.4825
  88   2.0000      -6.043248      -164.4451
  89   2.0000      -6.043135      -164.4421
  90   2.0000      -6.042597      -164.4274
  91   2.0000      -6.040244      -164.3634
  92   2.0000      -1.129230       -30.7279
  93   2.0000      -1.125011       -30.6131
  94   2.0000      -1.114055       -30.3150
  95   2.0000      -1.029094       -28.0031
  96   2.0000      -1.028267       -27.9806
  97   2.0000      -1.019076       -27.7305
  98   2.0000      -1.017928       -27.6992
  99   2.0000      -1.011600       -27.5270
 100   2.0000      -1.011197       -27.5161
 101   2.0000      -1.009113       -27.4594
 102   2.0000      -1.000637       -27.2287
 103   2.0000      -0.999363       -27.1941
 104   2.0000      -0.992483       -27.0068
 105   2.0000      -0.992046       -26.9949
 106   2.0000      -0.991166       -26.9710
 107   2.0000      -0.989865       -26.9356
 108   2.0000      -0.955401       -25.9978
 109   2.0000      -0.953173       -25.9371
 110   2.0000      -0.952338       -25.9144
 111   2.0000      -0.950997       -25.8779
 112   2.0000      -0.944880       -25.7115
 113   2.0000      -0.939468       -25.5642
 114   2.0000      -0.932268       -25.3683
 115   2.0000      -0.930776       -25.3277
 116   2.0000      -0.928599       -25.2685
 117   2.0000      -0.913148       -24.8480
 118   2.0000      -0.898782       -24.4571
 119   2.0000      -0.892181       -24.2775
 120   2.0000      -0.886538       -24.1239
 121   2.0000      -0.885741       -24.1022
 122   2.0000      -0.873495       -23.7690
 123   2.0000      -0.862645       -23.4738
 124   2.0000      -0.859676       -23.3930
 125   2.0000      -0.857825       -23.3426
 126   2.0000      -0.855863       -23.2892
 127   2.0000      -0.851073       -23.1589
 128   2.0000      -0.848242       -23.0818
 129   2.0000      -0.847037       -23.0491
 130   2.0000      -0.843058       -22.9408
 131   2.0000      -0.841908       -22.9095
 132   2.0000      -0.816810       -22.2265
 133   2.0000      -0.808753       -22.0073
 134   2.0000      -0.789054       -21.4712
 135   2.0000      -0.784135       -21.3374
 136   2.0000      -0.783399       -21.3174
 137   2.0000      -0.781766       -21.2729
 138   2.0000      -0.772089       -21.0096
 139   2.0000      -0.756850       -20.5949
 140   2.0000      -0.745031       -20.2733
 141   2.0000      -0.728032       -19.8107
 142   2.0000      -0.725304       -19.7365
 143   2.0000      -0.722326       -19.6555
 144   2.0000      -0.714333       -19.4380
 145   2.0000      -0.710087       -19.3225
 146   2.0000      -0.709871       -19.3166
 147   2.0000      -0.707954       -19.2644
 148   2.0000      -0.704055       -19.1583
 149   2.0000      -0.703689       -19.1484
 150   2.0000      -0.702395       -19.1131
 151   2.0000      -0.680264       -18.5109
 152   2.0000      -0.675000       -18.3677
 153   2.0000      -0.672222       -18.2921
 154   2.0000      -0.665105       -18.0984
 155   2.0000      -0.662575       -18.0296
 156   2.0000      -0.658799       -17.9268
 157   2.0000      -0.657196       -17.8832
 158   2.0000      -0.656533       -17.8652
 159   2.0000      -0.655218       -17.8294
 160   2.0000      -0.653717       -17.7885
 161   2.0000      -0.644903       -17.5487
 162   2.0000      -0.632122       -17.2009
 163   2.0000      -0.630893       -17.1675
 164   2.0000      -0.626813       -17.0564
 165   2.0000      -0.618540       -16.8313
 166   2.0000      -0.614713       -16.7272
 167   2.0000      -0.606966       -16.5164
 168   2.0000      -0.594010       -16.1638
 169   2.0000      -0.585907       -15.9434
 170   2.0000      -0.584589       -15.9075
 171   2.0000      -0.578620       -15.7450
 172   2.0000      -0.577881       -15.7249
 173   2.0000      -0.576655       -15.6916
 174   2.0000      -0.574374       -15.6295
 175   2.0000      -0.570507       -15.5243
 176   2.0000      -0.569736       -15.5033
 177   2.0000      -0.567651       -15.4466
 178   2.0000      -0.563534       -15.3346
 179   2.0000      -0.560089       -15.2408
 180   2.0000      -0.553036       -15.0489
 181   2.0000      -0.549479       -14.9521
 182   2.0000      -0.545995       -14.8573
 183   2.0000      -0.542016       -14.7490
 184   2.0000      -0.538102       -14.6425
 185   2.0000      -0.536759       -14.6060
 186   2.0000      -0.535833       -14.5808
 187   2.0000      -0.534623       -14.5478
 188   2.0000      -0.533866       -14.5272
 189   2.0000      -0.531941       -14.4748
 190   2.0000      -0.530132       -14.4256
 191   2.0000      -0.529279       -14.4024
 192   2.0000      -0.527726       -14.3602
 193   2.0000      -0.526512       -14.3271
 194   2.0000      -0.524472       -14.2716
 195   2.0000      -0.522208       -14.2100
 196   2.0000      -0.520538       -14.1646
 197   2.0000      -0.520087       -14.1523
 198   2.0000      -0.518988       -14.1224
 199   2.0000      -0.514929       -14.0119
 200   2.0000      -0.509793       -13.8722
 201   2.0000      -0.506702       -13.7881
 202   2.0000      -0.505629       -13.7589
 203   2.0000      -0.502128       -13.6636
 204   2.0000      -0.501967       -13.6592
 205   2.0000      -0.495447       -13.4818
 206   2.0000      -0.495175       -13.4744
 207   2.0000      -0.488531       -13.2936
 208   2.0000      -0.487569       -13.2674
 209   2.0000      -0.487283       -13.2596
 210   2.0000      -0.484649       -13.1880
 211   2.0000      -0.482337       -13.1250
 212   2.0000      -0.476847       -12.9757
 213   2.0000      -0.475257       -12.9324
 214   2.0000      -0.473689       -12.8897
 215   2.0000      -0.468326       -12.7438
 216   2.0000      -0.465830       -12.6759
 217   2.0000      -0.463672       -12.6172
 218   2.0000      -0.460135       -12.5209
 219   2.0000      -0.457346       -12.4450
 220   2.0000      -0.455483       -12.3943
 221   2.0000      -0.454667       -12.3721
 222   2.0000      -0.454125       -12.3574
 223   2.0000      -0.453798       -12.3485
 224   2.0000      -0.452296       -12.3076
 225   2.0000      -0.451265       -12.2795
 226   2.0000      -0.451009       -12.2726
 227   2.0000      -0.448404       -12.2017
 228   2.0000      -0.448079       -12.1928
 229   2.0000      -0.447003       -12.1636
 230   2.0000      -0.446480       -12.1493
 231   2.0000      -0.445999       -12.1362
 232   2.0000      -0.443985       -12.0815
 233   2.0000      -0.442841       -12.0503
 234   2.0000      -0.441656       -12.0181
 235   2.0000      -0.441157       -12.0045
 236   2.0000      -0.440174       -11.9778
 237   2.0000      -0.439825       -11.9682
 238   2.0000      -0.439118       -11.9490
 239   2.0000      -0.436334       -11.8733
 240   2.0000      -0.431678       -11.7466
 241   2.0000      -0.428992       -11.6735
 242   2.0000      -0.426829       -11.6146
 243   2.0000      -0.425961       -11.5910
 244   2.0000      -0.425611       -11.5815
 245   2.0000      -0.424211       -11.5434
 246   2.0000      -0.423551       -11.5254
 247   2.0000      -0.423209       -11.5161
 248   2.0000      -0.422425       -11.4948
 249   2.0000      -0.418882       -11.3984
 250   2.0000      -0.415545       -11.3076
 251   2.0000      -0.408958       -11.1283
 252   2.0000      -0.406694       -11.0667
 253   2.0000      -0.405072       -11.0226
 254   2.0000      -0.403838       -10.9890
 255   2.0000      -0.401524       -10.9260
 256   2.0000      -0.388766       -10.5789
 257   2.0000      -0.378864       -10.3094
 258   2.0000      -0.377727       -10.2785
 259   2.0000      -0.375603       -10.2207
 260   2.0000      -0.357049        -9.7158
 261   2.0000      -0.347881        -9.4663
 262   2.0000      -0.342440        -9.3183
 263   2.0000      -0.340267        -9.2591
 264   2.0000      -0.336244        -9.1497
 265   2.0000      -0.335474        -9.1287
 266   2.0000      -0.333760        -9.0821
 267   2.0000      -0.333548        -9.0763
 268   2.0000      -0.331418        -9.0183
 269   2.0000      -0.327539        -8.9128
 270   2.0000      -0.325498        -8.8573
 271   2.0000      -0.313079        -8.5193
 272   2.0000      -0.310116        -8.4387
 273   2.0000      -0.300821        -8.1857
 274   2.0000      -0.294152        -8.0043
 275   2.0000      -0.257609        -7.0099
 276   2.0000      -0.236773        -6.4429
 277   0.0000      -0.125141        -3.4053
 278   0.0000      -0.106756        -2.9050
 279   0.0000      -0.081817        -2.2264
 280   0.0000      -0.081442        -2.2161
 281   0.0000      -0.065738        -1.7888

MULLIKEN ATOMIC CHARGES
-----------------------
   0 C :   -0.042957
   1 C :    0.048916
   2 C :    0.048255
   3 C :   -0.040964
   4 C :    0.001377
   5 C :    0.011702
   6 C :    0.315860
   7 C :   -0.363408
   8 C :   -0.186665
   9 N :    0.150712
  10 C :   -0.190229
  11 N :    0.152534
  12 C :   -0.090296
  13 C :    0.225759
  14 C :   -0.341850
  15 C :   -0.191943
  16 N :    0.167035
  17 C :   -0.192986
  18 N :    0.150835
  19 C :    0.062162
  20 C :   -0.181631
  21 C :    0.094575
  22 C :    0.109395
  23 C :   -0.029530
  24 C :    0.034432
  25 C :    0.026613
  26 C :    0.010804
  27 C :   -0.036835
  28 S :    0.217552
  29 C :   -0.008139
  30 C :    0.008044
  31 C :   -0.122861
  32 S :    0.116885
  33 C :    0.026367
  34 C :    0.139479
  35 O :   -0.165886
  36 C :   -0.018027
  37 C :    0.014053
  38 N :   -0.133141
  39 C :    0.086844
  40 C :   -0.001137
  41 C :    0.014275
  42 C :   -0.023436
  43 C :    0.139034
  44 O :   -0.164348
  45 C :    0.027823
  46 C :   -0.117908
  47 C :   -0.007644
  48 C :   -0.004353
  49 C :   -0.064105
  50 C :    0.106159
  51 C :    0.132037
  52 C :   -0.036412
  53 C :    0.035469
  54 C :    0.029054
  55 C :   -0.029180
  56 C :   -0.081491
  57 S :    0.177021
  58 C :    0.013849
  59 C :   -0.022420
  60 C :    0.032507
  61 C :   -0.066280
  62 C :    0.307322
  63 C :   -0.350455
  64 C :   -0.182276
  65 N :    0.144849
  66 C :   -0.190769
  67 N :    0.153061
  68 C :    0.009476
  69 C :    0.011895
  70 C :   -0.038671
  71 C :    0.048812
  72 C :    0.045087
  73 C :   -0.035591
  74 C :    0.237857
  75 C :   -0.335606
  76 C :   -0.180742
  77 N :    0.148659
  78 C :   -0.220130
  79 N :    0.177764
  80 H :    0.003133
  81 H :   -0.000391
  82 H :   -0.000455
  83 H :    0.001347
  84 H :    0.022933
  85 H :   -0.021597
  86 H :   -0.004967
  87 H :   -0.000405
  88 H :   -0.006094
  89 H :   -0.000902
  90 H :    0.038609
  91 H :    0.010918
  92 H :    0.036528
  93 H :    0.037354
  94 H :    0.031130
  95 H :    0.034825
  96 H :    0.033455
  97 H :    0.017429
  98 H :    0.038772
  99 H :   -0.002541
 100 H :   -0.014937
 101 H :   -0.001635
 102 H :   -0.005700
 103 H :   -0.022371
 104 H :    0.014284
 105 H :    0.027073
 106 H :    0.005145
 107 H :    0.002856
 108 H :    0.000688
 109 H :    0.000735
 110 H :    0.002881
Sum of atomic charges:   -0.0000000

LOEWDIN ATOMIC CHARGES
----------------------
   0 C :    0.002469
   1 C :   -0.003027
   2 C :    0.000180
   3 C :   -0.003456
   4 C :   -0.011873
   5 C :   -0.014815
   6 C :    0.076497
   7 C :   -0.142113
   8 C :   -0.018751
   9 N :   -0.055320
  10 C :   -0.023620
  11 N :   -0.053295
  12 C :   -0.082606
  13 C :    0.058153
  14 C :   -0.140300
  15 C :   -0.013754
  16 N :   -0.058876
  17 C :   -0.019567
  18 N :   -0.059531
  19 C :    0.028935
  20 C :   -0.184157
  21 C :   -0.022471
  22 C :   -0.038713
  23 C :    0.000067
  24 C :   -0.019801
  25 C :    0.003134
  26 C :   -0.014699
  27 C :   -0.119032
  28 S :    0.533075
  29 C :   -0.042984
  30 C :   -0.006864
  31 C :   -0.130940
  32 S :    0.448809
  33 C :   -0.070569
  34 C :    0.082151
  35 O :   -0.161918
  36 C :   -0.103102
  37 C :    0.035504
  38 N :    0.092500
  39 C :    0.044253
  40 C :   -0.057011
  41 C :    0.036829
  42 C :   -0.103190
  43 C :    0.081558
  44 O :   -0.161111
  45 C :   -0.076992
  46 C :   -0.125541
  47 C :   -0.023883
  48 C :   -0.038287
  49 C :   -0.140197
  50 C :   -0.043791
  51 C :   -0.021301
  52 C :   -0.012940
  53 C :   -0.006994
  54 C :   -0.019394
  55 C :   -0.008733
  56 C :   -0.179686
  57 S :    0.516436
  58 C :    0.025379
  59 C :   -0.045394
  60 C :    0.054868
  61 C :   -0.072003
  62 C :    0.078284
  63 C :   -0.141926
  64 C :   -0.019974
  65 N :   -0.055885
  66 C :   -0.019534
  67 N :   -0.054019
  68 C :   -0.013150
  69 C :   -0.010176
  70 C :   -0.001163
  71 C :    0.000935
  72 C :   -0.001536
  73 C :    0.003337
  74 C :    0.070318
  75 C :   -0.140019
  76 C :   -0.018296
  77 N :   -0.054943
  78 C :   -0.026465
  79 N :   -0.048333
  80 H :    0.040617
  81 H :    0.035903
  82 H :    0.035658
  83 H :    0.039563
  84 H :    0.045254
  85 H :    0.030361
  86 H :    0.033446
  87 H :    0.035957
  88 H :    0.034246
  89 H :    0.026314
  90 H :    0.037331
  91 H :    0.031344
  92 H :    0.034670
  93 H :    0.035448
  94 H :    0.030540
  95 H :    0.034749
  96 H :    0.031740
  97 H :    0.033434
  98 H :    0.035787
  99 H :    0.026691
 100 H :    0.032270
 101 H :    0.034668
 102 H :    0.032886
 103 H :    0.029459
 104 H :    0.043976
 105 H :    0.024923
 106 H :    0.044245
 107 H :    0.039819
 108 H :    0.035991
 109 H :    0.036267
 110 H :    0.040787

  Mayer bond orders larger than 0.100000
B(  0-C ,  1-C ) :   1.3618 B(  0-C ,  5-C ) :   1.3853 B(  0-C , 80-H ) :   0.9832
B(  1-C ,  2-C ) :   1.3849 B(  1-C , 81-H ) :   0.9854 B(  2-C ,  3-C ) :   1.3566
B(  2-C , 82-H ) :   0.9864 B(  3-C ,  4-C ) :   1.3881 B(  3-C , 83-H ) :   0.9859
B(  4-C ,  5-C ) :   1.3181 B(  4-C , 13-C ) :   1.0013 B(  5-C ,  6-C ) :   0.9829
B(  6-C ,  7-C ) :   1.6025 B(  6-C , 12-C ) :   1.1042 B(  7-C ,  8-C ) :   1.1536
B(  7-C , 10-C ) :   1.1410 B(  8-C ,  9-N ) :   2.9689 B( 10-C , 11-N ) :   2.9662
B( 12-C , 13-C ) :   1.0799 B( 12-C , 19-C ) :   1.4590 B( 13-C , 14-C ) :   1.5963
B( 14-C , 15-C ) :   1.1731 B( 14-C , 17-C ) :   1.1468 B( 15-C , 16-N ) :   3.0002
B( 17-C , 18-N ) :   2.9818 B( 19-C , 20-C ) :   1.3093 B( 19-C , 84-H ) :   0.9104
B( 20-C , 21-C ) :   1.2263 B( 20-C , 28-S ) :   1.1172 B( 21-C , 22-C ) :   1.2535
B( 21-C , 26-C ) :   1.2860 B( 22-C , 23-C ) :   1.2513 B( 22-C , 27-C ) :   1.2360
B( 23-C , 24-C ) :   1.4985 B( 23-C , 85-H ) :   0.9898 B( 24-C , 25-C ) :   1.2570
B( 24-C , 86-H ) :   0.9872 B( 25-C , 26-C ) :   1.4844 B( 25-C , 87-H ) :   0.9889
B( 26-C , 88-H ) :   0.9805 B( 27-C , 28-S ) :   1.2050 B( 27-C , 29-C ) :   1.2295
B( 29-C , 30-C ) :   1.5361 B( 29-C , 89-H ) :   0.9645 B( 30-C , 31-C ) :   1.2260
B( 30-C , 90-H ) :   0.9486 B( 31-C , 32-S ) :   1.1053 B( 31-C , 33-C ) :   1.4467
B( 32-S , 46-C ) :   1.1128 B( 33-C , 34-C ) :   0.9340 B( 33-C , 45-C ) :   1.2179
B( 34-C , 35-O ) :   2.1859 B( 34-C , 36-C ) :   1.0047 B( 36-C , 37-C ) :   1.4216
B( 36-C , 42-C ) :   1.2878 B( 37-C , 38-N ) :   1.2391 B( 37-C , 91-H ) :   0.9939
B( 38-N , 39-C ) :   0.9485 B( 38-N , 41-C ) :   1.2371 B( 39-C , 40-C ) :   1.1113
B( 39-C , 92-H ) :   0.9510 B( 39-C , 93-H ) :   0.9510 B( 40-C , 94-H ) :   0.9675
B( 40-C , 95-H ) :   0.9683 B( 40-C , 96-H ) :   0.9675 B( 41-C , 42-C ) :   1.4241
B( 41-C , 97-H ) :   0.9934 B( 42-C , 43-C ) :   1.0049 B( 43-C , 44-O ) :   2.1848
B( 43-C , 45-C ) :   0.9364 B( 45-C , 46-C ) :   1.4423 B( 46-C , 47-C ) :   1.2227
B( 47-C , 48-C ) :   1.5408 B( 47-C , 98-H ) :   0.9451 B( 48-C , 49-C ) :   1.2299
B( 48-C , 99-H ) :   0.9653 B( 49-C , 50-C ) :   1.2548 B( 49-C , 57-S ) :   1.1853
B( 50-C , 51-C ) :   1.2366 B( 50-C , 55-C ) :   1.2350 B( 51-C , 52-C ) :   1.2466
B( 51-C , 56-C ) :   1.2412 B( 52-C , 53-C ) :   1.5193 B( 52-C ,100-H ) :   0.9929
B( 53-C , 54-C ) :   1.2421 B( 53-C ,101-H ) :   0.9856 B( 54-C , 55-C ) :   1.5248
B( 54-C ,102-H ) :   0.9849 B( 55-C ,103-H ) :   0.9919 B( 56-C , 57-S ) :   1.1108
B( 56-C , 58-C ) :   1.2639 B( 58-C , 59-C ) :   1.4921 B( 58-C ,104-H ) :   0.9809
B( 59-C , 60-C ) :   1.2512 B( 59-C ,105-H ) :   0.9674 B( 60-C , 61-C ) :   1.4644
B( 60-C ,106-H ) :   0.9514 B( 61-C , 62-C ) :   1.0794 B( 61-C , 74-C ) :   1.0540
B( 62-C , 63-C ) :   1.6122 B( 62-C , 68-C ) :   0.9927 B( 63-C , 64-C ) :   1.1427
B( 63-C , 66-C ) :   1.1496 B( 64-C , 65-N ) :   2.9660 B( 66-C , 67-N ) :   2.9735
B( 68-C , 69-C ) :   1.3135 B( 68-C , 73-C ) :   1.3893 B( 69-C , 70-C ) :   1.3858
B( 69-C , 74-C ) :   1.0072 B( 70-C , 71-C ) :   1.3599 B( 70-C ,107-H ) :   0.9865
B( 71-C , 72-C ) :   1.3820 B( 71-C ,108-H ) :   0.9867 B( 72-C , 73-C ) :   1.3625
B( 72-C ,109-H ) :   0.9867 B( 73-C ,110-H ) :   0.9850 B( 74-C , 75-C ) :   1.6174
B( 75-C , 76-C ) :   1.1429 B( 75-C , 78-C ) :   1.1544 B( 76-C , 77-N ) :   2.9857
B( 78-C , 79-N ) :   3.0220

-----------------------------------------------------------------------------
         ABSORPTION SPECTRUM VIA TRANSITION ELECTRIC DIPOLE MOMENTS
-----------------------------------------------------------------------------
State   Energy  Wavelength   fosc         T2         TX        TY        TZ
        (cm-1)    (nm)                  (au**2)     (au)      (au)      (au)
-----------------------------------------------------------------------------
   0   10508.0    951.7   1.713512421  53.68385  -3.91135   6.09534   1.10995
   1   14344.3    697.1   0.186629522   4.28327   1.04814   1.25026  -1.27339
   2   17040.6    586.8   0.011035885   0.21321   0.13969   0.43993  -0.01234
   3   19399.6    515.5   0.233229412   3.95792   0.22076  -1.01927  -1.69419
   4   19502.9    512.7   0.028620796   0.48312   0.07240  -0.31057  -0.61760
   5   20675.2    483.7   0.048998359   0.78020   0.81588  -0.23287   0.24559
   6   22656.7    441.4   0.164544462   2.39090   1.46094  -0.14430   0.48554
   7   23361.0    428.1   0.143704858   2.02514  -0.59116  -1.16999  -0.55389
   8   24104.9    414.9   0.168057100   2.29523   1.00282   0.35504   1.07867
   9   24701.9    404.8   0.145272014   1.93610  -1.31258  -0.02682  -0.46101
  10   26141.2    382.5   0.023351465   0.29408   0.23614  -0.48322  -0.06938
  11   26556.1    376.6   0.000793760   0.00984   0.04889  -0.08593  -0.00815
  12   26934.7    371.3   0.000234760   0.00287   0.02819  -0.04427  -0.01075
  13   27117.4    368.8   0.000842602   0.01023   0.06497   0.04899   0.06007
  14   27962.6    357.6   0.047480652   0.55900  -0.57773   0.30378   0.36462
  15   28398.5    352.1   0.032813884   0.38040  -0.41140  -0.04989  -0.45679
  16   28867.4    346.4   0.168065743   1.91667   0.95880   0.27685   0.95955
  17   28951.9    345.4   0.113029470   1.28526   0.62564  -0.55609  -0.76459
  18   29314.4    341.1   0.130719771   1.46803   0.79226   0.43918   0.80466
  19   29597.4    337.9   0.019470033   0.21656   0.30586  -0.31866  -0.14652
  20   29906.5    334.4   0.172838744   1.90262  -1.31419  -0.16923  -0.38325
  21   30121.8    332.0   0.107741412   1.17754   0.61900   0.54458   0.70556
  22   30312.8    329.9   0.007289305   0.07917   0.21667  -0.05871   0.16962
  23   30391.7    329.0   0.044030943   0.47696  -0.62373   0.22027  -0.19850
  24   30616.2    326.6   0.038991397   0.41927  -0.61912  -0.17415  -0.07508
  25   30666.4    326.1   0.163870893   1.75920   0.99052  -0.60231  -0.64443
  26   30996.0    322.6   0.142247189   1.51082  -0.39195   0.17049   1.15245
  27   31103.1    321.5   0.349472352   3.69900  -1.08788  -0.48816  -1.50905
  28   31406.8    318.4   0.047110283   0.49382  -0.62691   0.16306  -0.27242
  29   31822.5    314.2   0.324650740   3.35860   0.15091  -1.12546  -1.43846
  30   32021.1    312.3   0.001798061   0.01849   0.11901  -0.01991  -0.06265
  31   32205.0    310.5   0.688236392   7.03542  -0.09650   1.30714   2.30597
  32   32451.8    308.1   0.044881874   0.45531   0.62581  -0.07304   0.24153
  33   32786.1    305.0   0.002346320   0.02356   0.11797   0.08377   0.05123
  34   32921.7    303.8   0.000031472   0.00031  -0.01306  -0.00875  -0.00822
  35   33264.8    300.6   0.009043830   0.08950  -0.20913   0.19157  -0.09523
  36   33677.0    296.9   0.047327538   0.46265  -0.02839  -0.00111  -0.67959
  37   33977.8    294.3   0.412254400   3.99435  -1.66447   0.63018  -0.90926
  38   34315.7    291.4   0.225622057   2.16453  -0.79883  -1.15996   0.42534
  39   34744.1    287.8   0.045830522   0.43426  -0.22617  -0.47719  -0.39420
  40   35650.4    280.5   0.012601095   0.11636  -0.07771  -0.09019  -0.31967
  41   35752.2    279.7   0.011724585   0.10796  -0.09597  -0.31424   0.00147
  42   35986.8    277.9   0.271701005   2.48556  -1.53205  -0.26751  -0.25847
  43   36697.9    272.5   0.126927532   1.13865  -0.80751  -0.62852  -0.30256
  44   36834.9    271.5   0.018898702   0.16891  -0.32034   0.24363  -0.08326
  45   37080.0    269.7   0.015788218   0.14017  -0.13699  -0.34019   0.07535
  46   37376.7    267.5   0.037013231   0.32601  -0.34702   0.08396   0.44558
  47   37465.5    266.9   0.005711382   0.05019  -0.19741   0.06184  -0.08598
  48   37717.0    265.1   0.125844480   1.09843   0.54119  -0.84626   0.29897
  49   37959.4    263.4   0.049846654   0.43231  -0.30236   0.58229   0.04267
  50   37999.2    263.2   0.024494753   0.21221  -0.00862  -0.36066  -0.28647
  51   38095.1    262.5   0.006077653   0.05252   0.05796  -0.15115   0.16222
  52   38212.2    261.7   0.004026582   0.03469   0.15851  -0.03867   0.08983
  53   38690.4    258.5   0.073270695   0.62345  -0.75542   0.00056   0.22978
  54   38947.1    256.8   0.015339705   0.12966   0.30333  -0.19104   0.03398
  55   39164.1    255.3   0.032969980   0.27714  -0.19625   0.20042  -0.44549
  56   39296.6    254.5   0.000782314   0.00655  -0.02323  -0.01098  -0.07677
  57   39433.7    253.6   0.019815245   0.16543   0.30468   0.12926   0.23641
  58   39591.7    252.6   0.049250518   0.40953  -0.11467  -0.56057  -0.28659
  59   39896.7    250.6   0.075934913   0.62659   0.51333   0.59314   0.10612
  60   40163.5    249.0   0.022379947   0.18344  -0.37116  -0.00867  -0.21356
  61   40180.8    248.9   0.049595132   0.40635   0.27048   0.47472   0.32838
  62   40312.2    248.1   0.012597140   0.10288   0.28216  -0.07952  -0.13014

FINAL SINGLE POINT ENERGY     -4366.860746800099

DIPOLE MOMENT
-------------
                                X             Y             Z
Electronic contribution:     -4.77124       4.27470      -9.83207
Nuclear contribution   :      3.82792      -3.99801      10.38327
                        -----------------------------------------
Total Dipole Moment    :     -0.94332       0.27669       0.55120
                        -----------------------------------------
Magnitude (a.u.)       :      1.12705
Magnitude (Debye)      :      2.86472

Rotational constants in cm-1:     0.001303     0.000231     0.000213
Rotational constants in MHz :    39.077486     6.929632     6.391553

                             ****ORCA TERMINATED NORMALLY****
TOTAL RUN TIME: 0 days 0 hours 12 minutes 26 seconds 906 msec
