                         Program Version 4.2.0 -  RELEASE  -
|  1> # ORCA input file
|  2> # SCF done       -144.629404568759          0.000709371212
|  3> ! CAM-B3LYP def2-SVP def2/J RIJCOSX Grid4 TightSCF
|  4> %maxcore 5000
|  5> %tddft
|  6>     Mode sTDDFT
|  7>     Ethresh 5.0
|  8>     maxcore 5000
|  9> end
| 10>
| 11> %pal
| 12>   nprocs 6
| 13>   end
| 14> * xyz 0 1
| 15>    C        1.92405        -0.17623        -1.50908
| 16>    S        1.86643         1.38792        -2.24053
| 17>    C        0.85237         1.97872        -0.95396
| 18>    C        0.58472         0.96464        -0.01600
| 19>    C        1.21694        -0.26062        -0.35986
| 20>    C       -0.23987         1.27645         1.08056
| 21>    C       -0.73476         2.58468         1.18584
| 22>    S       -1.74557         2.77587         2.56822
| 23>    C       -1.49152         1.11804         3.00689
| 24>    C       -0.68557         0.45188         2.15222
| 25>    C       -0.42358         3.59376         0.26303
| 26>    C        0.37161         3.27486        -0.82620
| 27>    C       -0.91847         4.94980         0.46732
| 28>    N       -0.56215         5.87680        -0.42418
| 29>    C       -1.02590         7.09853        -0.22786
| 30>    C       -1.84829         7.42175         0.83496
| 31>    C       -2.16713         6.39021         1.73367
| 32>    N       -1.68168         5.15891         1.53008
| 33>    C       -3.02471         6.62877         2.86354
| 34>    C       -3.24739         5.69033         3.81633
| 35>    C       -4.12445         5.80796         4.91095
| 36>    C       -4.29089         4.79938         5.82498
| 37>    C       -5.18806         4.74959         6.92389
| 38>    C       -5.13463         3.59453         7.64157
| 39>    C       -4.17779         2.67009         7.16151
| 40>    S       -3.35846         3.31425         5.75408
| 41>    C       -3.83674         1.43279         7.66430
| 42>    C       -4.36105         0.72933         8.77301
| 43>    C       -3.75182        -0.46200         9.02335
| 44>    C       -2.69192        -0.76853         8.13256
| 45>    S       -2.54649         0.51226         6.92104
| 46>    C       -1.82330        -1.82007         8.15993
| 47>    N       -0.81144        -1.90622         7.25902
| 48>    C        0.20915        -2.78717         7.20642
| 49>    S        0.22359        -4.24123         8.15307
| 50>    C        1.69990        -4.71610         7.36510
| 51>    N        2.27643        -5.91723         7.76169
| 52>    O        3.31180        -6.26394         7.21590
| 53>    O        1.69595        -6.54193         8.63961
| 54>    C        2.13659        -3.80673         6.43454
| 55>    C        1.31073        -2.67630         6.34111
| 56>    C        1.59053        -1.55520         5.47435
| 57>    C        1.21922        -0.27928         5.69779
| 58>    C        1.45516         0.82994         4.82682
| 59>    S        0.71915         2.36320         5.25750
| 60>    C        1.35725         3.11496         3.83272
| 61>    C        2.12402         2.20654         3.07956
| 62>    C        2.15675         0.91659         3.65602
| 63>    C        2.73705         2.67846         1.90113
| 64>    C        2.53417         4.02000         1.54156
| 65>    S        3.37695         4.40943         0.07380
| 66>    C        3.98748         2.79686        -0.03241
| 67>    C        3.57542         1.99799         0.97727
| 68>    C        1.75013         4.89525         2.29396
| 69>    C        1.15814         4.44032         3.44852
| 70>    H        2.48859        -0.94900        -1.99358
| 71>    H        1.13638        -1.15749         0.22765
| 72>    H       -1.96295         0.74416         3.89522
| 73>    H       -0.41086        -0.58230         2.26060
| 74>    H        0.61106         4.03777        -1.54842
| 75>    H       -0.72023         7.83934        -0.95709
| 76>    H       -2.22657         8.42143         0.97703
| 77>    H       -3.49758         7.60031         2.91768
| 78>    H       -2.71628         4.75455         3.71737
| 79>    H       -4.71120         6.70935         5.02878
| 80>    H       -5.84965         5.56993         7.14063
| 81>    H       -5.74640         3.38394         8.50079
| 82>    H       -5.17143         1.12789         9.35658
| 83>    H       -4.01378        -1.12471         9.82851
| 84>    H       -1.88606        -2.59033         8.91299
| 85>    H       -0.79771        -1.18616         6.54112
| 86>    H        3.03908        -3.95240         5.86900
| 87>    H        2.18311        -1.79018         4.60156
| 88>    H        0.72092        -0.00575         6.61834
| 89>    H        2.68868         0.09110         3.21967
| 90>    H        4.62251         2.54153        -0.85777
| 91>    H        3.85335         0.96382         1.07151
| 92>    H        1.61702         5.91408         1.96607
| 93>    H        0.54122         5.08917         4.04944
| 94> *
| 95>
| 96>                          ****END OF INPUT****

CARTESIAN COORDINATES (ANGSTROEM)
---------------------------------
  C      1.924050   -0.176230   -1.509080
  S      1.866430    1.387920   -2.240530
  C      0.852370    1.978720   -0.953960
  C      0.584720    0.964640   -0.016000
  C      1.216940   -0.260620   -0.359860
  C     -0.239870    1.276450    1.080560
  C     -0.734760    2.584680    1.185840
  S     -1.745570    2.775870    2.568220
  C     -1.491520    1.118040    3.006890
  C     -0.685570    0.451880    2.152220
  C     -0.423580    3.593760    0.263030
  C      0.371610    3.274860   -0.826200
  C     -0.918470    4.949800    0.467320
  N     -0.562150    5.876800   -0.424180
  C     -1.025900    7.098530   -0.227860
  C     -1.848290    7.421750    0.834960
  C     -2.167130    6.390210    1.733670
  N     -1.681680    5.158910    1.530080
  C     -3.024710    6.628770    2.863540
  C     -3.247390    5.690330    3.816330
  C     -4.124450    5.807960    4.910950
  C     -4.290890    4.799380    5.824980
  C     -5.188060    4.749590    6.923890
  C     -5.134630    3.594530    7.641570
  C     -4.177790    2.670090    7.161510
  S     -3.358460    3.314250    5.754080
  C     -3.836740    1.432790    7.664300
  C     -4.361050    0.729330    8.773010
  C     -3.751820   -0.462000    9.023350
  C     -2.691920   -0.768530    8.132560
  S     -2.546490    0.512260    6.921040
  C     -1.823300   -1.820070    8.159930
  N     -0.811440   -1.906220    7.259020
  C      0.209150   -2.787170    7.206420
  S      0.223590   -4.241230    8.153070
  C      1.699900   -4.716100    7.365100
  N      2.276430   -5.917230    7.761690
  O      3.311800   -6.263940    7.215900
  O      1.695950   -6.541930    8.639610
  C      2.136590   -3.806730    6.434540
  C      1.310730   -2.676300    6.341110
  C      1.590530   -1.555200    5.474350
  C      1.219220   -0.279280    5.697790
  C      1.455160    0.829940    4.826820
  S      0.719150    2.363200    5.257500
  C      1.357250    3.114960    3.832720
  C      2.124020    2.206540    3.079560
  C      2.156750    0.916590    3.656020
  C      2.737050    2.678460    1.901130
  C      2.534170    4.020000    1.541560
  S      3.376950    4.409430    0.073800
  C      3.987480    2.796860   -0.032410
  C      3.575420    1.997990    0.977270
  C      1.750130    4.895250    2.293960
  C      1.158140    4.440320    3.448520
  H      2.488590   -0.949000   -1.993580
  H      1.136380   -1.157490    0.227650
  H     -1.962950    0.744160    3.895220
  H     -0.410860   -0.582300    2.260600
  H      0.611060    4.037770   -1.548420
  H     -0.720230    7.839340   -0.957090
  H     -2.226570    8.421430    0.977030
  H     -3.497580    7.600310    2.917680
  H     -2.716280    4.754550    3.717370
  H     -4.711200    6.709350    5.028780
  H     -5.849650    5.569930    7.140630
  H     -5.746400    3.383940    8.500790
  H     -5.171430    1.127890    9.356580
  H     -4.013780   -1.124710    9.828510
  H     -1.886060   -2.590330    8.912990
  H     -0.797710   -1.186160    6.541120
  H      3.039080   -3.952400    5.869000
  H      2.183110   -1.790180    4.601560
  H      0.720920   -0.005750    6.618340
  H      2.688680    0.091100    3.219670
  H      4.622510    2.541530   -0.857770
  H      3.853350    0.963820    1.071510
  H      1.617020    5.914080    1.966070
  H      0.541220    5.089170    4.049440

 Total Charge           Charge          ....    0
 Multiplicity           Mult            ....    1
 Number of Electrons    NEL             ....  432
 Basis Dimension        Dim             ....  918

ORBITAL ENERGIES
----------------

  NO   OCC          E(Eh)            E(eV)
   0   2.0000     -88.982239     -2421.3298
   1   2.0000     -88.959093     -2420.7000
   2   2.0000     -88.947147     -2420.3749
   3   2.0000     -88.940059     -2420.1820
   4   2.0000     -88.938182     -2420.1310
   5   2.0000     -88.936666     -2420.0897
   6   2.0000     -88.927904     -2419.8513
   7   2.0000     -19.227448      -523.2055
   8   2.0000     -19.226928      -523.1913
   9   2.0000     -14.639377      -398.3577
  10   2.0000     -14.488741      -394.2587
  11   2.0000     -14.399067      -391.8185
  12   2.0000     -14.396046      -391.7363
  13   2.0000     -10.368033      -282.1285
  14   2.0000     -10.343282      -281.4550
  15   2.0000     -10.335133      -281.2333
  16   2.0000     -10.333331      -281.1842
  17   2.0000     -10.322206      -280.8815
  18   2.0000     -10.320750      -280.8419
  19   2.0000     -10.317049      -280.7412
  20   2.0000     -10.313034      -280.6319
  21   2.0000     -10.312878      -280.6277
  22   2.0000     -10.311757      -280.5972
  23   2.0000     -10.305177      -280.4181
  24   2.0000     -10.299470      -280.2628
  25   2.0000     -10.296745      -280.1887
  26   2.0000     -10.295766      -280.1620
  27   2.0000     -10.295417      -280.1525
  28   2.0000     -10.295069      -280.1431
  29   2.0000     -10.292042      -280.0607
  30   2.0000     -10.290571      -280.0207
  31   2.0000     -10.288207      -279.9563
  32   2.0000     -10.287979      -279.9501
  33   2.0000     -10.285769      -279.8900
  34   2.0000     -10.282492      -279.8008
  35   2.0000     -10.282178      -279.7923
  36   2.0000     -10.281341      -279.7695
  37   2.0000     -10.277134      -279.6550
  38   2.0000     -10.276348      -279.6337
  39   2.0000     -10.275563      -279.6123
  40   2.0000     -10.273869      -279.5662
  41   2.0000     -10.269866      -279.4573
  42   2.0000     -10.268935      -279.4319
  43   2.0000     -10.268049      -279.4078
  44   2.0000     -10.267679      -279.3978
  45   2.0000     -10.267175      -279.3840
  46   2.0000     -10.267149      -279.3833
  47   2.0000     -10.266357      -279.3618
  48   2.0000     -10.266171      -279.3567
  49   2.0000     -10.264966      -279.3239
  50   2.0000     -10.263719      -279.2900
  51   2.0000     -10.262089      -279.2457
  52   2.0000     -10.261065      -279.2178
  53   2.0000     -10.259817      -279.1838
  54   2.0000     -10.253376      -279.0085
  55   2.0000      -8.077651      -219.8041
  56   2.0000      -8.055015      -219.1881
  57   2.0000      -8.043226      -218.8673
  58   2.0000      -8.035461      -218.6560
  59   2.0000      -8.033850      -218.6122
  60   2.0000      -8.032196      -218.5672
  61   2.0000      -8.020639      -218.2527
  62   2.0000      -6.047362      -164.5571
  63   2.0000      -6.042964      -164.4374
  64   2.0000      -6.039034      -164.3305
  65   2.0000      -6.024858      -163.9447
  66   2.0000      -6.020873      -163.8363
  67   2.0000      -6.015777      -163.6976
  68   2.0000      -6.012974      -163.6213
  69   2.0000      -6.009028      -163.5140
  70   2.0000      -6.004871      -163.4008
  71   2.0000      -6.004032      -163.3780
  72   2.0000      -6.003381      -163.3603
  73   2.0000      -6.001712      -163.3149
  74   2.0000      -6.000963      -163.2945
  75   2.0000      -5.999230      -163.2474
  76   2.0000      -5.997521      -163.2008
  77   2.0000      -5.997140      -163.1905
  78   2.0000      -5.995520      -163.1464
  79   2.0000      -5.993957      -163.1039
  80   2.0000      -5.990358      -163.0059
  81   2.0000      -5.985842      -162.8830
  82   2.0000      -5.982622      -162.7954
  83   2.0000      -1.306514       -35.5521
  84   2.0000      -1.125386       -30.6233
  85   2.0000      -1.097856       -29.8742
  86   2.0000      -1.073172       -29.2025
  87   2.0000      -1.006569       -27.3901
  88   2.0000      -0.997689       -27.1485
  89   2.0000      -0.989080       -26.9142
  90   2.0000      -0.980739       -26.6873
  91   2.0000      -0.977905       -26.6101
  92   2.0000      -0.972092       -26.4520
  93   2.0000      -0.960652       -26.1407
  94   2.0000      -0.951296       -25.8861
  95   2.0000      -0.920416       -25.0458
  96   2.0000      -0.912438       -24.8287
  97   2.0000      -0.903152       -24.5760
  98   2.0000      -0.897683       -24.4272
  99   2.0000      -0.885567       -24.0975
 100   2.0000      -0.876318       -23.8458
 101   2.0000      -0.868066       -23.6213
 102   2.0000      -0.856900       -23.3174
 103   2.0000      -0.853415       -23.2226
 104   2.0000      -0.846783       -23.0421
 105   2.0000      -0.842324       -22.9208
 106   2.0000      -0.836395       -22.7595
 107   2.0000      -0.828128       -22.5345
 108   2.0000      -0.814761       -22.1708
 109   2.0000      -0.812907       -22.1203
 110   2.0000      -0.801618       -21.8131
 111   2.0000      -0.785276       -21.3684
 112   2.0000      -0.782173       -21.2840
 113   2.0000      -0.778326       -21.1793
 114   2.0000      -0.773853       -21.0576
 115   2.0000      -0.765171       -20.8214
 116   2.0000      -0.745172       -20.2771
 117   2.0000      -0.732211       -19.9245
 118   2.0000      -0.726261       -19.7626
 119   2.0000      -0.719035       -19.5659
 120   2.0000      -0.703676       -19.1480
 121   2.0000      -0.692799       -18.8520
 122   2.0000      -0.682053       -18.5596
 123   2.0000      -0.674084       -18.3427
 124   2.0000      -0.662636       -18.0312
 125   2.0000      -0.658098       -17.9078
 126   2.0000      -0.653172       -17.7737
 127   2.0000      -0.651350       -17.7241
 128   2.0000      -0.644992       -17.5511
 129   2.0000      -0.641663       -17.4605
 130   2.0000      -0.630092       -17.1457
 131   2.0000      -0.625121       -17.0104
 132   2.0000      -0.623471       -16.9655
 133   2.0000      -0.620481       -16.8841
 134   2.0000      -0.618577       -16.8323
 135   2.0000      -0.617508       -16.8033
 136   2.0000      -0.606048       -16.4914
 137   2.0000      -0.602892       -16.4055
 138   2.0000      -0.600881       -16.3508
 139   2.0000      -0.598779       -16.2936
 140   2.0000      -0.592444       -16.1212
 141   2.0000      -0.580406       -15.7936
 142   2.0000      -0.576981       -15.7005
 143   2.0000      -0.575722       -15.6662
 144   2.0000      -0.566133       -15.4053
 145   2.0000      -0.550616       -14.9830
 146   2.0000      -0.549158       -14.9434
 147   2.0000      -0.542684       -14.7672
 148   2.0000      -0.540030       -14.6950
 149   2.0000      -0.536434       -14.5971
 150   2.0000      -0.531329       -14.4582
 151   2.0000      -0.529292       -14.4028
 152   2.0000      -0.526225       -14.3193
 153   2.0000      -0.524906       -14.2834
 154   2.0000      -0.522864       -14.2279
 155   2.0000      -0.522129       -14.2078
 156   2.0000      -0.515916       -14.0388
 157   2.0000      -0.508991       -13.8503
 158   2.0000      -0.505382       -13.7521
 159   2.0000      -0.503918       -13.7123
 160   2.0000      -0.502437       -13.6720
 161   2.0000      -0.499087       -13.5808
 162   2.0000      -0.494196       -13.4478
 163   2.0000      -0.493196       -13.4205
 164   2.0000      -0.486749       -13.2451
 165   2.0000      -0.485605       -13.2140
 166   2.0000      -0.477533       -12.9943
 167   2.0000      -0.476457       -12.9651
 168   2.0000      -0.473670       -12.8892
 169   2.0000      -0.471180       -12.8215
 170   2.0000      -0.468137       -12.7387
 171   2.0000      -0.462454       -12.5840
 172   2.0000      -0.458818       -12.4851
 173   2.0000      -0.456170       -12.4130
 174   2.0000      -0.454562       -12.3693
 175   2.0000      -0.451391       -12.2830
 176   2.0000      -0.450555       -12.2602
 177   2.0000      -0.443121       -12.0579
 178   2.0000      -0.438649       -11.9362
 179   2.0000      -0.434698       -11.8287
 180   2.0000      -0.432053       -11.7568
 181   2.0000      -0.430231       -11.7072
 182   2.0000      -0.428520       -11.6606
 183   2.0000      -0.422082       -11.4854
 184   2.0000      -0.419166       -11.4061
 185   2.0000      -0.417612       -11.3638
 186   2.0000      -0.405781       -11.0419
 187   2.0000      -0.404232       -10.9997
 188   2.0000      -0.403457       -10.9786
 189   2.0000      -0.400935       -10.9100
 190   2.0000      -0.399943       -10.8830
 191   2.0000      -0.397451       -10.8152
 192   2.0000      -0.394174       -10.7260
 193   2.0000      -0.389687       -10.6039
 194   2.0000      -0.376501       -10.2451
 195   2.0000      -0.373292       -10.1578
 196   2.0000      -0.366790        -9.9809
 197   2.0000      -0.361924        -9.8485
 198   2.0000      -0.358803        -9.7635
 199   2.0000      -0.356174        -9.6920
 200   2.0000      -0.355240        -9.6666
 201   2.0000      -0.347821        -9.4647
 202   2.0000      -0.345142        -9.3918
 203   2.0000      -0.338500        -9.2110
 204   2.0000      -0.329079        -8.9547
 205   2.0000      -0.323451        -8.8015
 206   2.0000      -0.314074        -8.5464
 207   2.0000      -0.309071        -8.4103
 208   2.0000      -0.304280        -8.2799
 209   2.0000      -0.298675        -8.1273
 210   2.0000      -0.277635        -7.5548
 211   2.0000      -0.272113        -7.4046
 212   2.0000      -0.262004        -7.1295
 213   2.0000      -0.246895        -6.7184
 214   2.0000      -0.245816        -6.6890
 215   2.0000      -0.215349        -5.8600
 216   0.0000      -0.084409        -2.2969
 217   0.0000      -0.047177        -1.2838
 218   0.0000      -0.035083        -0.9546
 219   0.0000      -0.019585        -0.5329
 220   0.0000      -0.012238        -0.3330

MULLIKEN ATOMIC CHARGES
-----------------------
   0 C :   -0.050380
   1 S :    0.099478
   2 C :   -0.087329
   3 C :    0.096354
   4 C :   -0.014840
   5 C :    0.099337
   6 C :   -0.123688
   7 S :    0.099594
   8 C :   -0.023677
   9 C :    0.006706
  10 C :    0.119763
  11 C :   -0.052149
  12 C :   -0.104746
  13 N :   -0.065705
  14 C :    0.081849
  15 C :   -0.054834
  16 C :    0.080544
  17 N :   -0.102161
  18 C :   -0.032855
  19 C :    0.049369
  20 C :   -0.006086
  21 C :   -0.008838
  22 C :    0.032822
  23 C :    0.032375
  24 C :   -0.043216
  25 S :    0.059014
  26 C :   -0.036116
  27 C :    0.020958
  28 C :    0.048879
  29 C :   -0.050244
  30 S :    0.029356
  31 C :    0.044687
  32 N :   -0.033216
  33 C :   -0.120043
  34 S :    0.156141
  35 C :   -0.015927
  36 N :    0.281304
  37 O :   -0.260318
  38 O :   -0.277103
  39 C :    0.014281
  40 C :    0.107134
  41 C :   -0.023521
  42 C :    0.022312
  43 C :   -0.073547
  44 S :    0.105762
  45 C :   -0.077348
  46 C :    0.126847
  47 C :   -0.031895
  48 C :    0.071514
  49 C :   -0.106301
  50 S :    0.096422
  51 C :   -0.041641
  52 C :    0.013208
  53 C :    0.022033
  54 C :   -0.010121
  55 H :    0.020817
  56 H :   -0.029641
  57 H :   -0.007680
  58 H :   -0.042259
  59 H :   -0.022382
  60 H :    0.000652
  61 H :   -0.013559
  62 H :   -0.029655
  63 H :    0.026055
  64 H :   -0.019624
  65 H :   -0.010609
  66 H :   -0.011296
  67 H :   -0.010371
  68 H :   -0.006980
  69 H :    0.025769
  70 H :    0.149481
  71 H :    0.007771
  72 H :   -0.004011
  73 H :   -0.012630
  74 H :   -0.036247
  75 H :    0.018972
  76 H :   -0.028064
  77 H :   -0.027027
  78 H :   -0.027682
Sum of atomic charges:   -0.0000000

LOEWDIN ATOMIC CHARGES
----------------------
   0 C :   -0.166123
   1 S :    0.409503
   2 C :   -0.163638
   3 C :   -0.036837
   4 C :   -0.067171
   5 C :   -0.047605
   6 C :   -0.149259
   7 S :    0.464593
   8 C :   -0.179475
   9 C :   -0.067503
  10 C :   -0.063959
  11 C :   -0.014606
  12 C :    0.041213
  13 N :   -0.097590
  14 C :    0.046659
  15 C :   -0.076151
  16 C :    0.040043
  17 N :   -0.107903
  18 C :   -0.055381
  19 C :    0.006798
  20 C :   -0.066987
  21 C :   -0.127207
  22 C :   -0.038938
  23 C :   -0.022300
  24 C :   -0.187925
  25 S :    0.376253
  26 C :   -0.166461
  27 C :   -0.042443
  28 C :   -0.024174
  29 C :   -0.185509
  30 S :    0.352629
  31 C :   -0.000995
  32 N :    0.052621
  33 C :   -0.101825
  34 S :    0.449329
  35 C :   -0.217256
  36 N :    0.274450
  37 O :   -0.226206
  38 O :   -0.243181
  39 C :    0.004828
  40 C :   -0.104181
  41 C :   -0.022467
  42 C :   -0.055008
  43 C :   -0.160819
  44 S :    0.414495
  45 C :   -0.160361
  46 C :   -0.038648
  47 C :   -0.047374
  48 C :   -0.044026
  49 C :   -0.160653
  50 S :    0.415119
  51 C :   -0.167279
  52 C :   -0.061253
  53 C :   -0.036373
  54 C :   -0.042160
  55 H :    0.022001
  56 H :    0.026219
  57 H :    0.003675
  58 H :    0.020206
  59 H :    0.028354
  60 H :    0.024698
  61 H :    0.030462
  62 H :    0.024921
  63 H :    0.012491
  64 H :    0.030827
  65 H :    0.034162
  66 H :    0.032896
  67 H :    0.033774
  68 H :    0.035801
  69 H :    0.033230
  70 H :    0.079673
  71 H :    0.045992
  72 H :    0.032299
  73 H :    0.019194
  74 H :    0.023717
  75 H :    0.019132
  76 H :    0.025859
  77 H :    0.028472
  78 H :    0.028624

  Mayer bond orders larger than 0.100000
B(  0-C ,  1-S ) :   1.1380 B(  0-C ,  4-C ) :   1.6060 B(  0-C , 55-H ) :   0.9666
B(  1-S ,  2-C ) :   1.0582 B(  2-C ,  3-C ) :   1.3443 B(  2-C , 11-C ) :   1.2640
B(  3-C ,  4-C ) :   1.2047 B(  3-C ,  5-C ) :   1.2104 B(  4-C , 56-H ) :   0.9966
B(  5-C ,  6-C ) :   1.3564 B(  5-C ,  9-C ) :   1.1980 B(  6-C ,  7-S ) :   1.1052
B(  6-C , 10-C ) :   1.3054 B(  7-S ,  8-C ) :   1.0881 B(  8-C ,  9-C ) :   1.6187
B(  8-C , 57-H ) :   0.9648 B(  9-C , 58-H ) :   0.9896 B( 10-C , 11-C ) :   1.4342
B( 10-C , 12-C ) :   0.9417 B( 10-C , 13-N ) :  -0.1074 B( 11-C , 59-H ) :   0.9962
B( 12-C , 13-N ) :   1.5901 B( 12-C , 17-N ) :   1.5270 B( 13-N , 14-C ) :   1.5346
B( 14-C , 15-C ) :   1.3721 B( 14-C , 60-H ) :   0.9796 B( 15-C , 16-C ) :   1.3211
B( 15-C , 61-H ) :   0.9759 B( 16-C , 17-N ) :   1.4706 B( 16-C , 18-C ) :   1.0848
B( 18-C , 19-C ) :   1.6539 B( 18-C , 62-H ) :   0.9811 B( 19-C , 20-C ) :   1.1413
B( 19-C , 63-H ) :   0.9619 B( 20-C , 21-C ) :   1.5649 B( 20-C , 64-H ) :   0.9846
B( 21-C , 22-C ) :   1.1339 B( 21-C , 25-S ) :   1.0460 B( 22-C , 23-C ) :   1.5961
B( 22-C , 65-H ) :   0.9990 B( 23-C , 24-C ) :   1.1843 B( 23-C , 66-H ) :   0.9946
B( 24-C , 25-S ) :   1.0386 B( 24-C , 26-C ) :   1.5227 B( 26-C , 27-C ) :   1.1831
B( 26-C , 30-S ) :   1.0487 B( 27-C , 28-C ) :   1.6108 B( 27-C , 67-H ) :   0.9928
B( 28-C , 29-C ) :   1.1538 B( 28-C , 68-H ) :   0.9946 B( 29-C , 30-S ) :   1.0102
B( 29-C , 31-C ) :   1.5972 B( 31-C , 32-N ) :   1.1449 B( 31-C , 69-H ) :   0.9649
B( 32-N , 33-C ) :   1.2341 B( 32-N , 70-H ) :   0.8922 B( 33-C , 34-S ) :   1.1328
B( 33-C , 40-C ) :   1.3540 B( 34-S , 35-C ) :   1.0655 B( 35-C , 36-N ) :   0.9915
B( 35-C , 39-C ) :   1.4669 B( 36-N , 37-O ) :   1.5239 B( 36-N , 38-O ) :   1.4962
B( 37-O , 38-O ) :   0.2503 B( 39-C , 40-C ) :   1.2430 B( 39-C , 71-H ) :   1.0076
B( 40-C , 41-C ) :   1.0713 B( 41-C , 42-C ) :   1.7220 B( 41-C , 72-H ) :   0.9644
B( 42-C , 43-C ) :   1.1049 B( 42-C , 73-H ) :   0.9448 B( 43-C , 44-S ) :   1.0949
B( 43-C , 47-C ) :   1.5470 B( 44-S , 45-C ) :   1.0581 B( 45-C , 46-C ) :   1.3587
B( 45-C , 54-C ) :   1.2868 B( 46-C , 47-C ) :   1.2114 B( 46-C , 48-C ) :   1.1950
B( 47-C , 74-H ) :   0.9956 B( 48-C , 49-C ) :   1.3701 B( 48-C , 52-C ) :   1.2081
B( 49-C , 50-S ) :   1.0700 B( 49-C , 53-C ) :   1.3047 B( 50-S , 51-C ) :   1.1347
B( 51-C , 52-C ) :   1.6164 B( 51-C , 75-H ) :   0.9616 B( 52-C , 76-H ) :   0.9916
B( 53-C , 54-C ) :   1.4678 B( 53-C , 77-H ) :   0.9821 B( 54-C , 78-H ) :   0.9974

-----------------------------------------------------------------------------
         ABSORPTION SPECTRUM VIA TRANSITION ELECTRIC DIPOLE MOMENTS
-----------------------------------------------------------------------------
State   Energy  Wavelength   fosc         T2         TX        TY        TZ
        (cm-1)    (nm)                  (au**2)     (au)      (au)      (au)
-----------------------------------------------------------------------------
   0   14103.6    709.0   0.805388443  18.79975   1.51464  -3.63716   1.81016
   1   20898.4    478.5   0.125339599   1.97447   0.11067  -1.14205   0.81114
   2   21729.2    460.2   0.057114969   0.86533  -0.06860  -0.65862   0.65334
   3   22652.9    441.4   0.314695293   4.57344  -1.54294   0.00697   1.48079
   4   23893.0    418.5   0.369108459   5.08580   0.00584  -1.88577   1.23679
   5   24302.8    411.5   0.089056796   1.20639  -0.63622  -0.36766   0.81636
   6   26579.9    376.2   0.232489860   2.87956  -1.30856   0.20734   1.06030
   7   27738.9    360.5   0.134066697   1.59113   0.92001  -0.34531  -0.79088
   8   28325.9    353.0   0.012104051   0.14068   0.31734   0.02405   0.19848
   9   28489.7    351.0   0.044212328   0.51090  -0.45021  -0.29079   0.47291
  10   28965.2    345.2   0.079454975   0.90307  -0.11299   0.82166  -0.46387
  11   29216.4    342.3   0.272126829   3.06634  -1.19903   0.20447   1.25971
  12   29778.8    335.8   0.595588872   6.58438  -0.31828   2.27055  -1.15225
  13   30356.1    329.4   0.005033846   0.05459   0.07832   0.19442  -0.10325
  14   30537.1    327.5   0.012231486   0.13186   0.05457  -0.01440  -0.35872
  15   30934.7    323.3   0.012617413   0.13428  -0.21611   0.18224   0.23315
  16   31670.4    315.8   0.078469704   0.81569  -0.42678  -0.42540   0.67274
  17   31828.7    314.2   0.244940857   2.53348   0.15453   1.45925  -0.61659
  18   32353.8    309.1   0.327231028   3.32970  -0.77448   1.56656   0.52515
  19   32755.5    305.3   0.011836293   0.11896  -0.01609   0.18556  -0.29029
  20   33240.5    300.8   0.019385937   0.19200   0.00014  -0.16227  -0.40702
  21   33404.7    299.4   0.011019939   0.10860  -0.08862  -0.20588   0.24159
  22   33975.2    294.3   0.138409814   1.34116   0.65846  -0.85698  -0.41614
  23   34248.0    292.0   0.103343583   0.99340   0.64154  -0.65361  -0.39321
  24   34347.2    291.1   0.036451456   0.34938   0.27913   0.12569  -0.50564
  25   35313.3    283.2   0.012125392   0.11304  -0.03660  -0.05263   0.33005
  26   35407.0    282.4   0.039244257   0.36489   0.18057   0.49373  -0.29752
  27   35736.3    279.8   0.053877059   0.49633  -0.38362   0.57560  -0.13362
  28   35965.4    278.0   0.011350175   0.10389   0.14179  -0.19614  -0.21288
  29   36275.6    275.7   0.006388421   0.05798   0.22953   0.00496   0.07259
  30   36503.7    273.9   0.098404766   0.88747  -0.27422  -0.55750   0.70815
  31   36855.8    271.3   0.006422734   0.05737   0.08098  -0.02328  -0.22421
  32   37377.7    267.5   0.044869062   0.39519  -0.13512   0.36670  -0.49241
  33   37817.6    264.4   0.074218112   0.64609  -0.25312  -0.47254   0.59893
  34   38220.9    261.6   0.010038400   0.08646   0.17783  -0.23402   0.00888
  35   38648.1    258.7   0.002447393   0.02085   0.01010  -0.12502  -0.07152
  36   38730.2    258.2   0.001909084   0.01623  -0.11245   0.03630   0.04759
  37   39191.6    255.2   0.004473317   0.03758   0.08043   0.15760  -0.07918
  38   39704.9    251.9   0.039553099   0.32795  -0.24135   0.51922   0.01057
  39   39862.1    250.9   0.025029194   0.20671  -0.13524   0.43349  -0.02242
  40   39905.7    250.6   0.003822190   0.03153   0.14891  -0.00154  -0.09673

FINAL SINGLE POINT ENERGY     -4768.236408597146

DIPOLE MOMENT
-------------
                                X             Y             Z
Electronic contribution:      7.22466     -12.31938       1.72076
Nuclear contribution   :     -9.10832      14.29482      -0.99948
                        -----------------------------------------
Total Dipole Moment    :     -1.88367       1.97545       0.72129
                        -----------------------------------------
Magnitude (a.u.)       :      2.82327
Magnitude (Debye)      :      7.17618

Rotational constants in cm-1:     0.001810     0.001068     0.000739
Rotational constants in MHz :    54.273447    32.016781    22.156747

                             ****ORCA TERMINATED NORMALLY****
TOTAL RUN TIME: 0 days 0 hours 7 minutes 48 seconds 472 msec
