                         Program Version 4.2.0 -  RELEASE  -
|  1> # ORCA input file
|  2> # SCF done       -187.966887872166          0.000983569275
|  3> ! CAM-B3LYP def2-SVP def2/J RIJCOSX Grid4 TightSCF
|  4> %maxcore 5000
|  5> %tddft
|  6>     Mode sTDDFT
|  7>     Ethresh 5.0
|  8>     maxcore 5000
|  9> end
| 10>
| 11> %pal
| 12>   nprocs 6
| 13>   end
| 14> * xyz 0 1
| 15>    N       14.21077         0.07196         5.57179
| 16>    C       15.32972         0.18640         4.83813
| 17>    S       16.62766        -0.93593         5.05083
| 18>    C       17.54288        -0.09888         3.82311
| 19>    N       18.80991        -0.58778         3.52171
| 20>    O       19.45860        -0.00640         2.66772
| 21>    O       19.18404        -1.57147         4.14409
| 22>    C       16.87605         0.97227         3.29381
| 23>    C       15.59991         1.16263         3.85837
| 24>    C       14.66343         2.19176         3.52958
| 25>    C       14.85076         3.15201         2.59295
| 26>    C       13.93898         4.19550         2.25740
| 27>    C       12.66790         4.42597         2.83239
| 28>    C       11.84057         5.54244         2.43796
| 29>    N       10.65262         5.72070         3.01683
| 30>    C       10.22924         4.88184         3.94102
| 31>    C       11.04056         3.77687         4.32617
| 32>    N       12.21608         3.58175         3.77492
| 33>    C       10.62827         2.84597         5.31044
| 34>    N       10.32870         2.07427         6.10346
| 35>    C        8.96624         5.09195         4.53976
| 36>    N        7.94821         5.23048         5.04870
| 37>    C       12.23303         6.49411         1.43390
| 38>    C       13.49803         6.23445         0.83678
| 39>    C       14.31626         5.11905         1.25235
| 40>    N       15.46519         5.06476         0.58012
| 41>    S       15.52437         6.27830        -0.46794
| 42>    N       14.09429         6.93696        -0.12121
| 43>    C       11.34695         7.55219         1.19639
| 44>    C       11.34760         8.62536         0.32504
| 45>    C       12.20614         9.04503        -0.70932
| 46>    C       11.80754        10.19073        -1.33927
| 47>    C       10.61531        10.74290        -0.83094
| 48>    S       10.00415         9.75253         0.46749
| 49>    C        9.96679        11.90086        -1.23343
| 50>    C       10.32347        12.78906        -2.26963
| 51>    C        9.47720        13.84733        -2.40075
| 52>    C        8.40011        13.86867        -1.47268
| 53>    S        8.51790        12.45260        -0.43531
| 54>    C        7.46022        14.86186        -1.40903
| 55>    C        6.35533        15.03977        -0.52518
| 56>    C        5.97373        14.09706         0.44902
| 57>    C        4.91501        14.36454         1.27518
| 58>    C        4.19581        15.57013         1.16693
| 59>    C        4.54839        16.50585         0.20057
| 60>    C        5.61150        16.23373        -0.62987
| 61>    C        3.15687        15.57637         2.16858
| 62>    C        3.22961        14.37525         2.89859
| 63>    C        4.34921        13.50384         2.37963
| 64>    C        3.81251        12.16956         1.82740
| 65>    C        2.75719        12.35748         0.74432
| 66>    C        5.40171        13.22184         3.46760
| 67>    C        5.99537        14.49365         4.06075
| 68>    C        2.35390        14.12018         3.92381
| 69>    C        1.37090        15.06814         4.24860
| 70>    C        1.31108        16.25852         3.50918
| 71>    C        2.18923        16.52209         2.47884
| 72>    C        0.40977        14.86772         5.30765
| 73>    C        0.34163        13.80568         6.12663
| 74>    N       -0.60413        13.69863         7.11741
| 75>    C       -0.79728        12.65138         7.95999
| 76>    S       -1.60289        12.96005         9.47182
| 77>    C       -1.39462        11.29380         9.91389
| 78>    N       -1.92044        10.87625        11.13390
| 79>    O       -1.77350         9.70771        11.44847
| 80>    O       -2.49325        11.72262        11.80447
| 81>    C       -0.74191        10.56477         8.95376
| 82>    C       -0.40318        11.31887         7.81900
| 83>    C        0.18270        10.73453         6.61902
| 84>    C        1.01549         9.70201         6.62575
| 85>    H       14.11515        -0.66814         6.24305
| 86>    H       13.44631         0.71335         5.44644
| 87>    H       17.30728         1.58975         2.52776
| 88>    H       13.73644         2.19625         4.08046
| 89>    H       15.76647         3.17775         2.01900
| 90>    H       10.48029         7.51156         1.84741
| 91>    H       13.09022         8.48639        -0.95271
| 92>    H       12.34652        10.64794        -2.14976
| 93>    H       11.18812        12.62552        -2.88714
| 94>    H        9.59140        14.62514        -3.13519
| 95>    H        7.59481        15.65324        -2.13802
| 96>    H        6.50700        13.16588         0.54350
| 97>    H        3.99993        17.43080         0.10359
| 98>    H        5.89693        16.95570        -1.38175
| 99>    H        3.38608        11.59670         2.65341
|100>    H        4.65036        11.59869         1.42248
|101>    H        1.90056        12.90498         1.13130
|102>    H        2.41412        11.39011         0.38554
|103>    H        3.16539        12.91107        -0.09821
|104>    H        6.20019        12.61795         3.03218
|105>    H        4.93482        12.63559         4.26166
|106>    H        6.49373        15.08004         3.29218
|107>    H        6.72410        14.24246         4.82755
|108>    H        5.21874        15.10774         4.51148
|109>    H        2.42106        13.19461         4.47409
|110>    H        0.55311        16.98711         3.75918
|111>    H        2.12301        17.44678         1.92549
|112>    H       -0.31853        15.65991         5.43339
|113>    H        1.03553        12.98349         6.07550
|114>    H       -1.14178        14.53377         7.31338
|115>    H       -0.55600         9.51174         9.06041
|116>    H       -0.13329        11.17271         5.68081
|117>    H        1.36106         9.25365         7.54138
|118>    H        1.39375         9.27856         5.71192
|119> *
|120>
|121>                          ****END OF INPUT****

CARTESIAN COORDINATES (ANGSTROEM)
---------------------------------
  N     14.210770    0.071960    5.571790
  C     15.329720    0.186400    4.838130
  S     16.627660   -0.935930    5.050830
  C     17.542880   -0.098880    3.823110
  N     18.809910   -0.587780    3.521710
  O     19.458600   -0.006400    2.667720
  O     19.184040   -1.571470    4.144090
  C     16.876050    0.972270    3.293810
  C     15.599910    1.162630    3.858370
  C     14.663430    2.191760    3.529580
  C     14.850760    3.152010    2.592950
  C     13.938980    4.195500    2.257400
  C     12.667900    4.425970    2.832390
  C     11.840570    5.542440    2.437960
  N     10.652620    5.720700    3.016830
  C     10.229240    4.881840    3.941020
  C     11.040560    3.776870    4.326170
  N     12.216080    3.581750    3.774920
  C     10.628270    2.845970    5.310440
  N     10.328700    2.074270    6.103460
  C      8.966240    5.091950    4.539760
  N      7.948210    5.230480    5.048700
  C     12.233030    6.494110    1.433900
  C     13.498030    6.234450    0.836780
  C     14.316260    5.119050    1.252350
  N     15.465190    5.064760    0.580120
  S     15.524370    6.278300   -0.467940
  N     14.094290    6.936960   -0.121210
  C     11.346950    7.552190    1.196390
  C     11.347600    8.625360    0.325040
  C     12.206140    9.045030   -0.709320
  C     11.807540   10.190730   -1.339270
  C     10.615310   10.742900   -0.830940
  S     10.004150    9.752530    0.467490
  C      9.966790   11.900860   -1.233430
  C     10.323470   12.789060   -2.269630
  C      9.477200   13.847330   -2.400750
  C      8.400110   13.868670   -1.472680
  S      8.517900   12.452600   -0.435310
  C      7.460220   14.861860   -1.409030
  C      6.355330   15.039770   -0.525180
  C      5.973730   14.097060    0.449020
  C      4.915010   14.364540    1.275180
  C      4.195810   15.570130    1.166930
  C      4.548390   16.505850    0.200570
  C      5.611500   16.233730   -0.629870
  C      3.156870   15.576370    2.168580
  C      3.229610   14.375250    2.898590
  C      4.349210   13.503840    2.379630
  C      3.812510   12.169560    1.827400
  C      2.757190   12.357480    0.744320
  C      5.401710   13.221840    3.467600
  C      5.995370   14.493650    4.060750
  C      2.353900   14.120180    3.923810
  C      1.370900   15.068140    4.248600
  C      1.311080   16.258520    3.509180
  C      2.189230   16.522090    2.478840
  C      0.409770   14.867720    5.307650
  C      0.341630   13.805680    6.126630
  N     -0.604130   13.698630    7.117410
  C     -0.797280   12.651380    7.959990
  S     -1.602890   12.960050    9.471820
  C     -1.394620   11.293800    9.913890
  N     -1.920440   10.876250   11.133900
  O     -1.773500    9.707710   11.448470
  O     -2.493250   11.722620   11.804470
  C     -0.741910   10.564770    8.953760
  C     -0.403180   11.318870    7.819000
  C      0.182700   10.734530    6.619020
  C      1.015490    9.702010    6.625750
  H     14.115150   -0.668140    6.243050
  H     13.446310    0.713350    5.446440
  H     17.307280    1.589750    2.527760
  H     13.736440    2.196250    4.080460
  H     15.766470    3.177750    2.019000
  H     10.480290    7.511560    1.847410
  H     13.090220    8.486390   -0.952710
  H     12.346520   10.647940   -2.149760
  H     11.188120   12.625520   -2.887140
  H      9.591400   14.625140   -3.135190
  H      7.594810   15.653240   -2.138020
  H      6.507000   13.165880    0.543500
  H      3.999930   17.430800    0.103590
  H      5.896930   16.955700   -1.381750
  H      3.386080   11.596700    2.653410
  H      4.650360   11.598690    1.422480
  H      1.900560   12.904980    1.131300
  H      2.414120   11.390110    0.385540
  H      3.165390   12.911070   -0.098210
  H      6.200190   12.617950    3.032180
  H      4.934820   12.635590    4.261660
  H      6.493730   15.080040    3.292180
  H      6.724100   14.242460    4.827550
  H      5.218740   15.107740    4.511480
  H      2.421060   13.194610    4.474090
  H      0.553110   16.987110    3.759180
  H      2.123010   17.446780    1.925490
  H     -0.318530   15.659910    5.433390
  H      1.035530   12.983490    6.075500
  H     -1.141780   14.533770    7.313380
  H     -0.556000    9.511740    9.060410
  H     -0.133290   11.172710    5.680810
  H      1.361060    9.253650    7.541380
  H      1.393750    9.278560    5.711920

 Total Charge           Charge          ....    0
 Multiplicity           Mult            ....    1
 Number of Electrons    NEL             ....  522
 Basis Dimension        Dim             .... 1170

ORBITAL ENERGIES
----------------

  NO   OCC          E(Eh)            E(eV)
   0   2.0000     -89.034985     -2422.7651
   1   2.0000     -88.977759     -2421.2079
   2   2.0000     -88.968219     -2420.9483
   3   2.0000     -88.963765     -2420.8271
   4   2.0000     -88.955351     -2420.5982
   5   2.0000     -19.227707      -523.2125
   6   2.0000     -19.227111      -523.1963
   7   2.0000     -19.218414      -522.9596
   8   2.0000     -19.217478      -522.9342
   9   2.0000     -14.639631      -398.3646
  10   2.0000     -14.630361      -398.1124
  11   2.0000     -14.480526      -394.0351
  12   2.0000     -14.455686      -393.3592
  13   2.0000     -14.453429      -393.2978
  14   2.0000     -14.451752      -393.2522
  15   2.0000     -14.449092      -393.1798
  16   2.0000     -14.443541      -393.0287
  17   2.0000     -14.431621      -392.7044
  18   2.0000     -14.421092      -392.4179
  19   2.0000     -10.374415      -282.3022
  20   2.0000     -10.367781      -282.1217
  21   2.0000     -10.366421      -282.0847
  22   2.0000     -10.362704      -281.9835
  23   2.0000     -10.339630      -281.3556
  24   2.0000     -10.337818      -281.3063
  25   2.0000     -10.336440      -281.2688
  26   2.0000     -10.333820      -281.1975
  27   2.0000     -10.332181      -281.1529
  28   2.0000     -10.330479      -281.1066
  29   2.0000     -10.329372      -281.0765
  30   2.0000     -10.326400      -280.9956
  31   2.0000     -10.323389      -280.9137
  32   2.0000     -10.321966      -280.8750
  33   2.0000     -10.320635      -280.8388
  34   2.0000     -10.319398      -280.8051
  35   2.0000     -10.316051      -280.7140
  36   2.0000     -10.311295      -280.5846
  37   2.0000     -10.303150      -280.3630
  38   2.0000     -10.302865      -280.3552
  39   2.0000     -10.300774      -280.2983
  40   2.0000     -10.299223      -280.2561
  41   2.0000     -10.297276      -280.2031
  42   2.0000     -10.295637      -280.1585
  43   2.0000     -10.294813      -280.1361
  44   2.0000     -10.293155      -280.0910
  45   2.0000     -10.291696      -280.0513
  46   2.0000     -10.289083      -279.9802
  47   2.0000     -10.288985      -279.9775
  48   2.0000     -10.285307      -279.8774
  49   2.0000     -10.283369      -279.8247
  50   2.0000     -10.283241      -279.8212
  51   2.0000     -10.282358      -279.7972
  52   2.0000     -10.280542      -279.7478
  53   2.0000     -10.280304      -279.7413
  54   2.0000     -10.279287      -279.7136
  55   2.0000     -10.279239      -279.7123
  56   2.0000     -10.279230      -279.7121
  57   2.0000     -10.278524      -279.6929
  58   2.0000     -10.276612      -279.6408
  59   2.0000     -10.275939      -279.6225
  60   2.0000     -10.275713      -279.6164
  61   2.0000     -10.275187      -279.6020
  62   2.0000     -10.274868      -279.5934
  63   2.0000     -10.274672      -279.5880
  64   2.0000     -10.274241      -279.5763
  65   2.0000     -10.269808      -279.4557
  66   2.0000     -10.267975      -279.4058
  67   2.0000     -10.267122      -279.3826
  68   2.0000     -10.251121      -278.9472
  69   2.0000     -10.250057      -278.9182
  70   2.0000      -8.126384      -221.1302
  71   2.0000      -8.073844      -219.7005
  72   2.0000      -8.064418      -219.4440
  73   2.0000      -8.059310      -219.3050
  74   2.0000      -8.051773      -219.0999
  75   2.0000      -6.097560      -165.9230
  76   2.0000      -6.089866      -165.7137
  77   2.0000      -6.088896      -165.6873
  78   2.0000      -6.043572      -164.4540
  79   2.0000      -6.039204      -164.3351
  80   2.0000      -6.035048      -164.2220
  81   2.0000      -6.034203      -164.1990
  82   2.0000      -6.029815      -164.0796
  83   2.0000      -6.029011      -164.0577
  84   2.0000      -6.025499      -163.9622
  85   2.0000      -6.024943      -163.9470
  86   2.0000      -6.021383      -163.8502
  87   2.0000      -6.020424      -163.8241
  88   2.0000      -6.017285      -163.7386
  89   2.0000      -6.012968      -163.6212
  90   2.0000      -1.307637       -35.5826
  91   2.0000      -1.298127       -35.3238
  92   2.0000      -1.133662       -30.8485
  93   2.0000      -1.126429       -30.6517
  94   2.0000      -1.116757       -30.3885
  95   2.0000      -1.111068       -30.2337
  96   2.0000      -1.085125       -29.5277
  97   2.0000      -1.050816       -28.5942
  98   2.0000      -1.038176       -28.2502
  99   2.0000      -1.011353       -27.5203
 100   2.0000      -1.008748       -27.4494
 101   2.0000      -0.999438       -27.1961
 102   2.0000      -0.998234       -27.1633
 103   2.0000      -0.995232       -27.0816
 104   2.0000      -0.989707       -26.9313
 105   2.0000      -0.983477       -26.7618
 106   2.0000      -0.977750       -26.6059
 107   2.0000      -0.966749       -26.3066
 108   2.0000      -0.954548       -25.9746
 109   2.0000      -0.929157       -25.2837
 110   2.0000      -0.910433       -24.7741
 111   2.0000      -0.908506       -24.7217
 112   2.0000      -0.902552       -24.5597
 113   2.0000      -0.899778       -24.4842
 114   2.0000      -0.896091       -24.3839
 115   2.0000      -0.888505       -24.1774
 116   2.0000      -0.876927       -23.8624
 117   2.0000      -0.865867       -23.5614
 118   2.0000      -0.860611       -23.4184
 119   2.0000      -0.854165       -23.2430
 120   2.0000      -0.847701       -23.0671
 121   2.0000      -0.841646       -22.9023
 122   2.0000      -0.840889       -22.8818
 123   2.0000      -0.835948       -22.7473
 124   2.0000      -0.833227       -22.6733
 125   2.0000      -0.833003       -22.6672
 126   2.0000      -0.827260       -22.5109
 127   2.0000      -0.816856       -22.2278
 128   2.0000      -0.811925       -22.0936
 129   2.0000      -0.795178       -21.6379
 130   2.0000      -0.783666       -21.3246
 131   2.0000      -0.771846       -21.0030
 132   2.0000      -0.767667       -20.8893
 133   2.0000      -0.763199       -20.7677
 134   2.0000      -0.752800       -20.4847
 135   2.0000      -0.735990       -20.0273
 136   2.0000      -0.725848       -19.7513
 137   2.0000      -0.722426       -19.6582
 138   2.0000      -0.708532       -19.2801
 139   2.0000      -0.701884       -19.0992
 140   2.0000      -0.698039       -18.9946
 141   2.0000      -0.692535       -18.8448
 142   2.0000      -0.690234       -18.7822
 143   2.0000      -0.685979       -18.6664
 144   2.0000      -0.680296       -18.5118
 145   2.0000      -0.678573       -18.4649
 146   2.0000      -0.674648       -18.3581
 147   2.0000      -0.669525       -18.2187
 148   2.0000      -0.660070       -17.9614
 149   2.0000      -0.654330       -17.8052
 150   2.0000      -0.650988       -17.7143
 151   2.0000      -0.644465       -17.5368
 152   2.0000      -0.639577       -17.4038
 153   2.0000      -0.636714       -17.3259
 154   2.0000      -0.634203       -17.2575
 155   2.0000      -0.627014       -17.0619
 156   2.0000      -0.621749       -16.9186
 157   2.0000      -0.620306       -16.8794
 158   2.0000      -0.617343       -16.7987
 159   2.0000      -0.615301       -16.7432
 160   2.0000      -0.613198       -16.6860
 161   2.0000      -0.611585       -16.6421
 162   2.0000      -0.607645       -16.5349
 163   2.0000      -0.605563       -16.4782
 164   2.0000      -0.602626       -16.3983
 165   2.0000      -0.601039       -16.3551
 166   2.0000      -0.585995       -15.9457
 167   2.0000      -0.581286       -15.8176
 168   2.0000      -0.574619       -15.6362
 169   2.0000      -0.570837       -15.5333
 170   2.0000      -0.570267       -15.5177
 171   2.0000      -0.567272       -15.4363
 172   2.0000      -0.562575       -15.3084
 173   2.0000      -0.555680       -15.1208
 174   2.0000      -0.549809       -14.9611
 175   2.0000      -0.548721       -14.9315
 176   2.0000      -0.548164       -14.9163
 177   2.0000      -0.545609       -14.8468
 178   2.0000      -0.543297       -14.7839
 179   2.0000      -0.542598       -14.7649
 180   2.0000      -0.533431       -14.5154
 181   2.0000      -0.533047       -14.5049
 182   2.0000      -0.529645       -14.4124
 183   2.0000      -0.527990       -14.3673
 184   2.0000      -0.525178       -14.2908
 185   2.0000      -0.522997       -14.2315
 186   2.0000      -0.522221       -14.2103
 187   2.0000      -0.517033       -14.0692
 188   2.0000      -0.511712       -13.9244
 189   2.0000      -0.510111       -13.8808
 190   2.0000      -0.506397       -13.7798
 191   2.0000      -0.506356       -13.7787
 192   2.0000      -0.504923       -13.7396
 193   2.0000      -0.499733       -13.5984
 194   2.0000      -0.487810       -13.2740
 195   2.0000      -0.487262       -13.2591
 196   2.0000      -0.485972       -13.2240
 197   2.0000      -0.484980       -13.1970
 198   2.0000      -0.482857       -13.1392
 199   2.0000      -0.477759       -13.0005
 200   2.0000      -0.476698       -12.9716
 201   2.0000      -0.475810       -12.9475
 202   2.0000      -0.474418       -12.9096
 203   2.0000      -0.473815       -12.8932
 204   2.0000      -0.472219       -12.8497
 205   2.0000      -0.471096       -12.8192
 206   2.0000      -0.466612       -12.6972
 207   2.0000      -0.462416       -12.5830
 208   2.0000      -0.460654       -12.5350
 209   2.0000      -0.457199       -12.4410
 210   2.0000      -0.454602       -12.3703
 211   2.0000      -0.452025       -12.3002
 212   2.0000      -0.450786       -12.2665
 213   2.0000      -0.449312       -12.2264
 214   2.0000      -0.448027       -12.1914
 215   2.0000      -0.444449       -12.0941
 216   2.0000      -0.443098       -12.0573
 217   2.0000      -0.440196       -11.9783
 218   2.0000      -0.438117       -11.9218
 219   2.0000      -0.437146       -11.8953
 220   2.0000      -0.435334       -11.8460
 221   2.0000      -0.429871       -11.6974
 222   2.0000      -0.429049       -11.6750
 223   2.0000      -0.427961       -11.6454
 224   2.0000      -0.426255       -11.5990
 225   2.0000      -0.420179       -11.4336
 226   2.0000      -0.412689       -11.2298
 227   2.0000      -0.411446       -11.1960
 228   2.0000      -0.410552       -11.1717
 229   2.0000      -0.410014       -11.1571
 230   2.0000      -0.407266       -11.0823
 231   2.0000      -0.406526       -11.0621
 232   2.0000      -0.396295       -10.7837
 233   2.0000      -0.395699       -10.7675
 234   2.0000      -0.393365       -10.7040
 235   2.0000      -0.387641       -10.5482
 236   2.0000      -0.385306       -10.4847
 237   2.0000      -0.384545       -10.4640
 238   2.0000      -0.380747       -10.3607
 239   2.0000      -0.376209       -10.2372
 240   2.0000      -0.372444       -10.1347
 241   2.0000      -0.367726       -10.0063
 242   2.0000      -0.367664       -10.0046
 243   2.0000      -0.360009        -9.7963
 244   2.0000      -0.357923        -9.7396
 245   2.0000      -0.356090        -9.6897
 246   2.0000      -0.349816        -9.5190
 247   2.0000      -0.348407        -9.4806
 248   2.0000      -0.345749        -9.4083
 249   2.0000      -0.343303        -9.3417
 250   2.0000      -0.338155        -9.2017
 251   2.0000      -0.332902        -9.0587
 252   2.0000      -0.329499        -8.9661
 253   2.0000      -0.326078        -8.8730
 254   2.0000      -0.321988        -8.7617
 255   2.0000      -0.317132        -8.6296
 256   2.0000      -0.300313        -8.1719
 257   2.0000      -0.284655        -7.7459
 258   2.0000      -0.261537        -7.1168
 259   2.0000      -0.247325        -6.7301
 260   2.0000      -0.207928        -5.6580
 261   0.0000      -0.123995        -3.3741
 262   0.0000      -0.074140        -2.0175
 263   0.0000      -0.051281        -1.3954
 264   0.0000      -0.045686        -1.2432
 265   0.0000      -0.034360        -0.9350

MULLIKEN ATOMIC CHARGES
-----------------------
   0 N :   -0.022375
   1 C :   -0.141147
   2 S :    0.152771
   3 C :   -0.025118
   4 N :    0.281712
   5 O :   -0.264774
   6 O :   -0.280369
   7 C :    0.012376
   8 C :    0.127364
   9 C :   -0.005570
  10 C :   -0.087196
  11 C :    0.101962
  12 C :   -0.063537
  13 C :   -0.044831
  14 N :    0.052355
  15 C :   -0.132606
  16 C :   -0.113639
  17 N :    0.017574
  18 C :   -0.231317
  19 N :    0.224458
  20 C :   -0.233388
  21 N :    0.226641
  22 C :    0.095368
  23 C :    0.037579
  24 C :   -0.009223
  25 N :   -0.283030
  26 S :    0.524399
  27 N :   -0.299852
  28 C :   -0.053186
  29 C :   -0.052245
  30 C :    0.044019
  31 C :    0.012023
  32 C :   -0.042911
  33 S :    0.103388
  34 C :   -0.009827
  35 C :    0.025228
  36 C :    0.042055
  37 C :   -0.015302
  38 S :    0.058464
  39 C :   -0.022286
  40 C :    0.109264
  41 C :   -0.084401
  42 C :    0.003782
  43 C :    0.103970
  44 C :   -0.042490
  45 C :   -0.015151
  46 C :    0.092589
  47 C :    0.023185
  48 C :   -0.143168
  49 C :    0.066868
  50 C :    0.027112
  51 C :    0.065660
  52 C :    0.023096
  53 C :   -0.096839
  54 C :    0.128566
  55 C :   -0.030123
  56 C :   -0.038927
  57 C :   -0.036896
  58 C :    0.063271
  59 N :   -0.024168
  60 C :   -0.106913
  61 S :    0.159018
  62 C :   -0.016633
  63 N :    0.281058
  64 O :   -0.257424
  65 O :   -0.274360
  66 C :    0.003434
  67 C :    0.062820
  68 C :   -0.046475
  69 C :   -0.022818
  70 H :    0.138973
  71 H :    0.135294
  72 H :    0.011674
  73 H :   -0.029015
  74 H :   -0.017013
  75 H :    0.003942
  76 H :   -0.013453
  77 H :   -0.013141
  78 H :   -0.008830
  79 H :   -0.004672
  80 H :   -0.015104
  81 H :   -0.024385
  82 H :   -0.033976
  83 H :   -0.025040
  84 H :   -0.002584
  85 H :    0.003246
  86 H :    0.020522
  87 H :    0.010017
  88 H :    0.020376
  89 H :    0.002345
  90 H :   -0.001012
  91 H :    0.020709
  92 H :    0.013133
  93 H :    0.020910
  94 H :   -0.051175
  95 H :   -0.031305
  96 H :   -0.035965
  97 H :   -0.032202
  98 H :    0.037605
  99 H :    0.133062
 100 H :    0.010668
 101 H :    0.017313
 102 H :    0.026069
 103 H :    0.030103
Sum of atomic charges:   -0.0000000

LOEWDIN ATOMIC CHARGES
----------------------
   0 N :    0.014976
   1 C :   -0.078500
   2 S :    0.434589
   3 C :   -0.219876
   4 N :    0.273947
   5 O :   -0.230766
   6 O :   -0.245448
   7 C :    0.012278
   8 C :   -0.126008
   9 C :   -0.003870
  10 C :   -0.036370
  11 C :   -0.044601
  12 C :   -0.010024
  13 C :   -0.002957
  14 N :    0.003643
  15 C :   -0.050210
  16 C :   -0.031526
  17 N :   -0.005458
  18 C :   -0.033960
  19 N :   -0.026567
  20 C :   -0.038978
  21 N :   -0.022927
  22 C :   -0.029130
  23 C :   -0.040633
  24 C :   -0.038361
  25 N :   -0.284505
  26 S :    0.649388
  27 N :   -0.269088
  28 C :   -0.054595
  29 C :   -0.119627
  30 C :   -0.040936
  31 C :   -0.021141
  32 C :   -0.191347
  33 S :    0.396783
  34 C :   -0.156672
  35 C :   -0.043003
  36 C :   -0.013020
  37 C :   -0.156515
  38 S :    0.398779
  39 C :   -0.018959
  40 C :   -0.037105
  41 C :   -0.021861
  42 C :    0.005336
  43 C :   -0.004574
  44 C :   -0.022242
  45 C :   -0.007264
  46 C :   -0.028210
  47 C :    0.011544
  48 C :   -0.035966
  49 C :   -0.010983
  50 C :   -0.057495
  51 C :   -0.011347
  52 C :   -0.058019
  53 C :   -0.027878
  54 C :   -0.012249
  55 C :   -0.026846
  56 C :   -0.013434
  57 C :   -0.078447
  58 C :    0.033298
  59 N :    0.032065
  60 C :   -0.098580
  61 S :    0.440763
  62 C :   -0.217109
  63 N :    0.274425
  64 O :   -0.223035
  65 O :   -0.240134
  66 C :    0.008744
  67 C :   -0.112733
  68 C :   -0.032125
  69 C :   -0.040044
  70 H :    0.086635
  71 H :    0.089683
  72 H :    0.044997
  73 H :    0.015497
  74 H :    0.029297
  75 H :    0.032715
  76 H :    0.022987
  77 H :    0.032294
  78 H :    0.034025
  79 H :    0.036188
  80 H :    0.036922
  81 H :    0.008064
  82 H :    0.028035
  83 H :    0.027211
  84 H :    0.019871
  85 H :    0.021893
  86 H :    0.024997
  87 H :    0.024706
  88 H :    0.025082
  89 H :    0.021746
  90 H :    0.020545
  91 H :    0.024932
  92 H :    0.025577
  93 H :    0.025138
  94 H :    0.021314
  95 H :    0.024948
  96 H :    0.027081
  97 H :    0.024039
  98 H :    0.033159
  99 H :    0.091499
 100 H :    0.045980
 101 H :    0.032081
 102 H :    0.025440
 103 H :    0.028125

  Mayer bond orders larger than 0.100000
B(  0-N ,  1-C ) :   1.3548 B(  0-N , 70-H ) :   0.9357 B(  0-N , 71-H ) :   0.9443
B(  1-C ,  2-S ) :   1.1366 B(  1-C ,  8-C ) :   1.2873 B(  2-S ,  3-C ) :   1.0487
B(  3-C ,  4-N ) :   0.9931 B(  3-C ,  7-C ) :   1.4816 B(  4-N ,  5-O ) :   1.5194
B(  4-N ,  6-O ) :   1.4967 B(  5-O ,  6-O ) :   0.2470 B(  7-C ,  8-C ) :   1.2285
B(  7-C , 72-H ) :   1.0028 B(  8-C ,  9-C ) :   1.0799 B(  9-C , 10-C ) :   1.6274
B(  9-C , 73-H ) :   0.9495 B( 10-C , 11-C ) :   1.2080 B( 10-C , 74-H ) :   0.9627
B( 11-C , 12-C ) :   1.2261 B( 11-C , 22-C ) :   0.1079 B( 11-C , 24-C ) :   1.1626
B( 12-C , 13-C ) :   1.0987 B( 12-C , 17-N ) :   1.4269 B( 13-C , 14-N ) :   1.5030
B( 13-C , 22-C ) :   1.1818 B( 14-N , 15-C ) :   1.6800 B( 15-C , 16-C ) :   1.2358
B( 15-C , 20-C ) :   1.1731 B( 16-C , 17-N ) :   1.7059 B( 16-C , 18-C ) :   1.1588
B( 18-C , 19-N ) :   3.0299 B( 20-C , 21-N ) :   3.0365 B( 22-C , 23-C ) :   1.1301
B( 22-C , 28-C ) :   1.3809 B( 23-C , 24-C ) :   1.1086 B( 23-C , 27-N ) :   1.5166
B( 24-C , 25-N ) :   1.5427 B( 25-N , 26-S ) :   1.2651 B( 25-N , 27-N ) :   0.1430
B( 26-S , 27-N ) :   1.2497 B( 27-N , 76-H ) :   0.1027 B( 28-C , 29-C ) :   1.3884
B( 28-C , 75-H ) :   0.9106 B( 29-C , 30-C ) :   1.2257 B( 29-C , 33-S ) :   1.0862
B( 30-C , 31-C ) :   1.5184 B( 30-C , 76-H ) :   0.9676 B( 31-C , 32-C ) :   1.2282
B( 31-C , 77-H ) :   0.9955 B( 32-C , 33-S ) :   1.0558 B( 32-C , 34-C ) :   1.4335
B( 34-C , 35-C ) :   1.2050 B( 34-C , 38-S ) :   1.0691 B( 35-C , 36-C ) :   1.5742
B( 35-C , 78-H ) :   0.9937 B( 36-C , 37-C ) :   1.1465 B( 36-C , 79-H ) :   0.9998
B( 37-C , 38-S ) :   1.0226 B( 37-C , 39-C ) :   1.5685 B( 39-C , 40-C ) :   1.1210
B( 39-C , 80-H ) :   0.9708 B( 40-C , 41-C ) :   1.2668 B( 40-C , 45-C ) :   1.3001
B( 41-C , 42-C ) :   1.4555 B( 41-C , 81-H ) :   0.9766 B( 42-C , 43-C ) :   1.3509
B( 42-C , 48-C ) :   0.9153 B( 43-C , 44-C ) :   1.3304 B( 43-C , 46-C ) :   1.0012
B( 44-C , 45-C ) :   1.3956 B( 44-C , 82-H ) :   0.9907 B( 45-C , 83-H ) :   0.9933
B( 46-C , 47-C ) :   1.3510 B( 46-C , 56-C ) :   1.3428 B( 47-C , 48-C ) :   0.9174
B( 47-C , 53-C ) :   1.4223 B( 48-C , 49-C ) :   1.0367 B( 48-C , 51-C ) :   1.0373
B( 49-C , 50-C ) :   1.1008 B( 49-C , 84-H ) :   0.9387 B( 49-C , 85-H ) :   0.9393
B( 50-C , 86-H ) :   0.9641 B( 50-C , 87-H ) :   0.9637 B( 50-C , 88-H ) :   0.9643
B( 51-C , 52-C ) :   1.1008 B( 51-C , 89-H ) :   0.9387 B( 51-C , 90-H ) :   0.9390
B( 52-C , 91-H ) :   0.9640 B( 52-C , 92-H ) :   0.9642 B( 52-C , 93-H ) :   0.9647
B( 53-C , 54-C ) :   1.2990 B( 53-C , 94-H ) :   0.9950 B( 54-C , 55-C ) :   1.3392
B( 54-C , 57-C ) :   1.0938 B( 55-C , 56-C ) :   1.3803 B( 55-C , 95-H ) :   0.9929
B( 56-C , 96-H ) :   0.9899 B( 57-C , 58-C ) :   1.6971 B( 57-C , 97-H ) :   0.9750
B( 58-C , 59-N ) :   1.1167 B( 58-C , 98-H ) :   0.9491 B( 59-N , 60-C ) :   1.1976
B( 59-N , 99-H ) :   0.9143 B( 60-C , 61-S ) :   1.1362 B( 60-C , 67-C ) :   1.3935
B( 61-S , 62-C ) :   1.0740 B( 62-C , 63-N ) :   0.9844 B( 62-C , 66-C ) :   1.4715
B( 63-N , 64-O ) :   1.5280 B( 63-N , 65-O ) :   1.5017 B( 64-O , 65-O ) :   0.2526
B( 66-C , 67-C ) :   1.2598 B( 66-C ,100-H ) :   1.0045 B( 67-C , 68-C ) :   1.0343
B( 68-C , 69-C ) :   1.9646 B( 68-C ,101-H ) :   0.9605 B( 69-C ,102-H ) :   0.9607
B( 69-C ,103-H ) :   0.9526

-----------------------------------------------------------------------------
         ABSORPTION SPECTRUM VIA TRANSITION ELECTRIC DIPOLE MOMENTS
-----------------------------------------------------------------------------
State   Energy  Wavelength   fosc         T2         TX        TY        TZ
        (cm-1)    (nm)                  (au**2)     (au)      (au)      (au)
-----------------------------------------------------------------------------
   0    4669.1   2141.7   0.402242191  28.36147   2.89643  -4.28408   1.27233
   1   14751.2    677.9   0.270992827   6.04793  -1.82833   1.51325   0.64439
   2   15411.8    648.9   0.439129976   9.38026   1.82160  -2.42434   0.42967
   3   18789.4    532.2   0.234140518   4.10241   1.51767   0.11996  -1.33593
   4   20438.6    489.3   0.330651176   5.32592  -1.99522   1.02350   0.54539
   5   21531.3    464.4   0.122823537   1.87797  -0.58189   1.03131  -0.68977
   6   22774.7    439.1   0.122041002   1.76412  -0.46485   1.14149  -0.49502
   7   24670.2    405.3   0.555868753   7.41780   0.53813   1.54079  -2.18041
   8   25321.0    394.9   0.608374375   7.90981  -1.63911  -0.92677   2.08907
   9   25697.0    389.2   0.273866070   3.50858  -1.06783  -0.52689   1.44593
  10   26736.3    374.0   0.003485545   0.04292  -0.17400  -0.00127  -0.11243
  11   26787.8    373.3   0.009696127   0.11916  -0.24723   0.18693   0.15198
  12   27489.1    363.8   0.021406027   0.25636  -0.29636   0.39627  -0.10726
  13   28282.9    353.6   0.297316716   3.46075  -0.49334  -1.04914   1.45488
  14   28355.2    352.7   0.008888293   0.10320   0.03185   0.20246  -0.24737
  15   29627.2    337.5   0.059403396   0.66008   0.69148  -0.15984  -0.39545
  16   30055.9    332.7   0.039351757   0.43103   0.58743  -0.29041  -0.04025
  17   30671.3    326.0   0.080020030   0.85890  -0.32814  -0.45419   0.73820
  18   31115.9    321.4   0.014091349   0.14909   0.19393  -0.31236   0.11796
  19   31295.6    319.5   0.363082854   3.81942   1.76022  -0.31355  -0.78914
  20   31928.7    313.2   0.075192208   0.77529  -0.42021  -0.47576   0.61022
  21   32143.7    311.1   0.002730268   0.02796   0.09016   0.10097  -0.09818
  22   32770.2    305.2   0.078485187   0.78847  -0.16228  -0.60445   0.62990
  23   32921.7    303.8   0.026834595   0.26834  -0.27827  -0.11206   0.42231
  24   33290.9    300.4   0.092449597   0.91423  -0.11110  -0.73158   0.60553
  25   33421.1    299.2   0.010978663   0.10814   0.25261  -0.03947  -0.20682
  26   33641.6    297.3   0.006101570   0.05971   0.17102  -0.16308   0.06216
  27   34142.5    292.9   0.235063183   2.26655  -1.31653   0.68226   0.26042
  28   34362.0    291.0   0.068374476   0.65508  -0.63857   0.30287   0.39442
  29   34513.7    289.7   0.000026820   0.00026   0.00145   0.01494  -0.00553
  30   34673.6    288.4   0.382940553   3.63586   0.79544   1.09802  -1.34071
  31   35308.4    283.2   0.042358240   0.39494   0.57141  -0.23992  -0.10429
  32   35848.6    279.0   0.026299602   0.24152  -0.14541   0.44847  -0.13876
  33   36321.7    275.3   0.015356223   0.13919  -0.21878   0.28465  -0.10146
  34   36551.2    273.6   0.049326051   0.44427  -0.15154  -0.57216   0.30650
  35   36661.4    272.8   0.168123220   1.50971   0.61816   0.70645  -0.79280
  36   37640.6    265.7   0.003461222   0.03027  -0.05606  -0.15426   0.05773
  37   37884.8    264.0   0.158193722   1.37468   0.85736  -0.41541  -0.68340
  38   38388.1    260.5   0.000121605   0.00104   0.01668   0.02250   0.01607
  39   38739.1    258.1   0.067587821   0.57437  -0.43925  -0.11066   0.60761
  40   38977.7    256.6   0.009537528   0.08056  -0.02314  -0.23366   0.15945
  41   39078.1    255.9   0.001842594   0.01552   0.08265  -0.08896  -0.02788
  42   39203.3    255.1   0.146366146   1.22912   0.85949   0.05654  -0.69799
  43   39566.9    252.7   0.063071667   0.52478  -0.29160  -0.50522   0.42954
  44   39726.8    251.7   0.048666391   0.40329  -0.50889  -0.07173   0.37307
  45   40039.8    249.8   0.041443410   0.34075  -0.00962   0.48720  -0.32140
  46   40104.2    249.4   0.022816530   0.18730   0.00395   0.34894  -0.25598
  47   40267.8    248.3   0.037806156   0.30909  -0.07635  -0.52643   0.16163

FINAL SINGLE POINT ENERGY     -4798.830110292198

DIPOLE MOMENT
-------------
                                X             Y             Z
Electronic contribution:     68.26049     -73.90466      12.22051
Nuclear contribution   :    -69.50172      78.91941     -16.09334
                        -----------------------------------------
Total Dipole Moment    :     -1.24123       5.01474      -3.87283
                        -----------------------------------------
Magnitude (a.u.)       :      6.45655
Magnitude (Debye)      :     16.41126

Rotational constants in cm-1:     0.000934     0.000267     0.000210
Rotational constants in MHz :    28.010533     8.015905     6.304849

                             ****ORCA TERMINATED NORMALLY****
TOTAL RUN TIME: 0 days 0 hours 10 minutes 29 seconds 361 msec
