                         Program Version 4.2.0 -  RELEASE  -
|  1> # ORCA input file
|  2> # SCF done       -175.921536653085          0.000413914399
|  3> ! CAM-B3LYP def2-SVP def2/J RIJCOSX Grid4 TightSCF
|  4> %maxcore 5000
|  5> %tddft
|  6>     Mode sTDDFT
|  7>     Ethresh 5.0
|  8>     maxcore 5000
|  9> end
| 10>
| 11> %pal
| 12>   nprocs 6
| 13>   end
| 14> * xyz 0 1
| 15>    C       16.23800        -9.10046         2.06619
| 16>    C       16.47186       -10.10511         2.96326
| 17>    F       17.73674       -10.51581         3.18339
| 18>    C       15.44119       -10.73319         3.67358
| 19>    C       14.15209       -10.32696         3.46408
| 20>    C       13.85391        -9.29464         2.55234
| 21>    C       14.91669        -8.67088         1.83737
| 22>    C       14.64137        -7.63851         0.90916
| 23>    C       13.34784        -7.24084         0.71459
| 24>    C       12.29035        -7.85601         1.44455
| 25>    C       12.52508        -8.86163         2.33515
| 26>    C       11.01060        -7.21221         1.07717
| 27>    O        9.89853        -7.49788         1.46777
| 28>    C       11.38168        -6.09754         0.17682
| 29>    C       12.76431        -6.24680        -0.18394
| 30>    C       13.36602        -5.76568        -1.32533
| 31>    C       12.65284        -5.10424        -2.34270
| 32>    N       12.08759        -4.61258        -3.21408
| 33>    C       14.72179        -5.95630        -1.64089
| 34>    N       15.83176        -6.04586        -1.92573
| 35>    C       10.46341        -5.10456        -0.07530
| 36>    C       10.67098        -3.77605        -0.44861
| 37>    S       12.22493        -2.99375        -0.37462
| 38>    C       11.59386        -1.45161        -0.83958
| 39>    C       10.19961        -1.53033        -1.03676
| 40>    C        9.67837        -2.83631        -0.80871
| 41>    C        8.30749        -3.08309        -0.97869
| 42>    C        7.49178        -2.04998        -1.35291
| 43>    F        6.17665        -2.26211        -1.51403
| 44>    C        8.00655        -0.75666        -1.57593
| 45>    F        7.16764         0.22692        -1.94304
| 46>    C        9.33905        -0.49003        -1.42502
| 47>    C       12.42944        -0.32873        -0.99620
| 48>    C       13.78211        -0.36225        -0.85991
| 49>    C       14.61690         0.76919        -1.06385
| 50>    C       15.96668         0.78243        -1.05370
| 51>    C       16.83901        -0.39416        -0.76696
| 52>    C       16.71035         2.06877        -1.31305
| 53>    N       17.32811         2.55248        -0.09629
| 54>    C       18.57223         2.19253         0.28322
| 55>    C       19.05935         2.31683         1.55019
| 56>    C       20.38090         2.00319         1.89963
| 57>    C       20.91111         2.14187         3.15946
| 58>    C       22.22219         1.82166         3.57723
| 59>    C       22.47152         2.07774         4.89394
| 60>    C       21.37215         2.61933         5.59030
| 61>    S       19.99849         2.78371         4.52081
| 62>    C       21.30978         3.00382         6.91965
| 63>    C       22.32528         2.92790         7.89444
| 64>    C       21.95172         3.40370         9.11625
| 65>    C       20.62170         3.88539         9.18085
| 66>    S       19.86014         3.69722         7.60945
| 67>    C       20.02174         4.42180        10.29345
| 68>    C       18.71353         4.92620        10.42981
| 69>    C       17.67837         5.01395         9.49457
| 70>    C       16.55134         5.60039        10.12077
| 71>    C       15.29444         5.90144         9.64523
| 72>    C       14.38082         6.48830        10.53584
| 73>    C       13.06718         6.89929        10.37517
| 74>    C       12.58544         7.43533        11.61223
| 75>    C       13.60680         7.35633        12.54016
| 76>    C       14.75128         6.76991        11.91335
| 77>    C       15.99814         6.47435        12.39113
| 78>    C       16.91974         5.88220        11.49852
| 79>    C       18.22397         5.47060        11.67008
| 80>    C       11.24805         7.95086        11.78594
| 81>    C       10.75268         8.45064        12.91501
| 82>    H       17.05664        -8.64200         1.53360
| 83>    H       15.68541       -11.52117         4.36825
| 84>    H       13.34031       -10.79569         3.99993
| 85>    H       15.46370        -7.18113         0.38168
| 86>    H       11.70888        -9.32343         2.87034
| 87>    H        9.43895        -5.37489         0.15984
| 88>    H        7.88815        -4.06360        -0.82508
| 89>    H        9.70560         0.50640        -1.60828
| 90>    H       11.94662         0.60182        -1.26176
| 91>    H       14.24306        -1.30811        -0.61359
| 92>    H       14.10027         1.69544        -1.28823
| 93>    H       16.28972        -1.21766        -0.32403
| 94>    H       17.64391        -0.11066        -0.08692
| 95>    H       17.29870        -0.74813        -1.69081
| 96>    H       16.03066         2.83995        -1.68539
| 97>    H       17.50063         1.91084        -2.05198
| 98>    H       16.68662         2.79415         0.64728
| 99>    H       19.21728         1.84773        -0.51438
|100>    H       18.40676         2.67839         2.33414
|101>    H       21.03634         1.61949         1.12850
|102>    H       22.94269         1.41117         2.89169
|103>    H       23.41484         1.89535         5.37657
|104>    H       23.29844         2.52762         7.67341
|105>    H       22.59408         3.42637         9.97927
|106>    H       20.64089         4.46387        11.18189
|107>    H       17.70982         4.69577         8.47061
|108>    H       15.01306         5.69522         8.62229
|109>    H       12.48720         6.83193         9.47150
|110>    H       13.57046         7.67470        13.56501
|111>    H       16.28237         6.67927        13.41407
|112>    H       18.80200         5.53650        12.57506
|113>    H       10.62342         7.90991        10.90172
|114>    H       11.33624         8.51055        13.81760
|115>    H        9.74297         8.81817        12.97423
|116> *
|117>
|118>                          ****END OF INPUT****

CARTESIAN COORDINATES (ANGSTROEM)
---------------------------------
  C     16.238000   -9.100460    2.066190
  C     16.471860  -10.105110    2.963260
  F     17.736740  -10.515810    3.183390
  C     15.441190  -10.733190    3.673580
  C     14.152090  -10.326960    3.464080
  C     13.853910   -9.294640    2.552340
  C     14.916690   -8.670880    1.837370
  C     14.641370   -7.638510    0.909160
  C     13.347840   -7.240840    0.714590
  C     12.290350   -7.856010    1.444550
  C     12.525080   -8.861630    2.335150
  C     11.010600   -7.212210    1.077170
  O      9.898530   -7.497880    1.467770
  C     11.381680   -6.097540    0.176820
  C     12.764310   -6.246800   -0.183940
  C     13.366020   -5.765680   -1.325330
  C     12.652840   -5.104240   -2.342700
  N     12.087590   -4.612580   -3.214080
  C     14.721790   -5.956300   -1.640890
  N     15.831760   -6.045860   -1.925730
  C     10.463410   -5.104560   -0.075300
  C     10.670980   -3.776050   -0.448610
  S     12.224930   -2.993750   -0.374620
  C     11.593860   -1.451610   -0.839580
  C     10.199610   -1.530330   -1.036760
  C      9.678370   -2.836310   -0.808710
  C      8.307490   -3.083090   -0.978690
  C      7.491780   -2.049980   -1.352910
  F      6.176650   -2.262110   -1.514030
  C      8.006550   -0.756660   -1.575930
  F      7.167640    0.226920   -1.943040
  C      9.339050   -0.490030   -1.425020
  C     12.429440   -0.328730   -0.996200
  C     13.782110   -0.362250   -0.859910
  C     14.616900    0.769190   -1.063850
  C     15.966680    0.782430   -1.053700
  C     16.839010   -0.394160   -0.766960
  C     16.710350    2.068770   -1.313050
  N     17.328110    2.552480   -0.096290
  C     18.572230    2.192530    0.283220
  C     19.059350    2.316830    1.550190
  C     20.380900    2.003190    1.899630
  C     20.911110    2.141870    3.159460
  C     22.222190    1.821660    3.577230
  C     22.471520    2.077740    4.893940
  C     21.372150    2.619330    5.590300
  S     19.998490    2.783710    4.520810
  C     21.309780    3.003820    6.919650
  C     22.325280    2.927900    7.894440
  C     21.951720    3.403700    9.116250
  C     20.621700    3.885390    9.180850
  S     19.860140    3.697220    7.609450
  C     20.021740    4.421800   10.293450
  C     18.713530    4.926200   10.429810
  C     17.678370    5.013950    9.494570
  C     16.551340    5.600390   10.120770
  C     15.294440    5.901440    9.645230
  C     14.380820    6.488300   10.535840
  C     13.067180    6.899290   10.375170
  C     12.585440    7.435330   11.612230
  C     13.606800    7.356330   12.540160
  C     14.751280    6.769910   11.913350
  C     15.998140    6.474350   12.391130
  C     16.919740    5.882200   11.498520
  C     18.223970    5.470600   11.670080
  C     11.248050    7.950860   11.785940
  C     10.752680    8.450640   12.915010
  H     17.056640   -8.642000    1.533600
  H     15.685410  -11.521170    4.368250
  H     13.340310  -10.795690    3.999930
  H     15.463700   -7.181130    0.381680
  H     11.708880   -9.323430    2.870340
  H      9.438950   -5.374890    0.159840
  H      7.888150   -4.063600   -0.825080
  H      9.705600    0.506400   -1.608280
  H     11.946620    0.601820   -1.261760
  H     14.243060   -1.308110   -0.613590
  H     14.100270    1.695440   -1.288230
  H     16.289720   -1.217660   -0.324030
  H     17.643910   -0.110660   -0.086920
  H     17.298700   -0.748130   -1.690810
  H     16.030660    2.839950   -1.685390
  H     17.500630    1.910840   -2.051980
  H     16.686620    2.794150    0.647280
  H     19.217280    1.847730   -0.514380
  H     18.406760    2.678390    2.334140
  H     21.036340    1.619490    1.128500
  H     22.942690    1.411170    2.891690
  H     23.414840    1.895350    5.376570
  H     23.298440    2.527620    7.673410
  H     22.594080    3.426370    9.979270
  H     20.640890    4.463870   11.181890
  H     17.709820    4.695770    8.470610
  H     15.013060    5.695220    8.622290
  H     12.487200    6.831930    9.471500
  H     13.570460    7.674700   13.565010
  H     16.282370    6.679270   13.414070
  H     18.802000    5.536500   12.575060
  H     10.623420    7.909910   10.901720
  H     11.336240    8.510550   13.817600
  H      9.742970    8.818170   12.974230

 Total Charge           Charge          ....    0
 Multiplicity           Mult            ....    1
 Number of Electrons    NEL             ....  480
 Basis Dimension        Dim             .... 1120

ORBITAL ENERGIES
----------------

  NO   OCC          E(Eh)            E(eV)
   0   2.0000     -88.985243     -2421.4116
   1   2.0000     -88.928640     -2419.8713
   2   2.0000     -88.928007     -2419.8541
   3   2.0000     -24.799160      -674.8195
   4   2.0000     -24.796521      -674.7476
   5   2.0000     -24.781306      -674.3336
   6   2.0000     -19.204855      -522.5907
   7   2.0000     -14.446849      -393.1187
   8   2.0000     -14.410439      -392.1280
   9   2.0000     -14.408242      -392.0682
  10   2.0000     -10.384790      -282.5845
  11   2.0000     -10.379969      -282.4533
  12   2.0000     -10.364773      -282.0398
  13   2.0000     -10.357239      -281.8348
  14   2.0000     -10.340592      -281.3818
  15   2.0000     -10.334989      -281.2293
  16   2.0000     -10.333524      -281.1895
  17   2.0000     -10.328007      -281.0394
  18   2.0000     -10.321713      -280.8681
  19   2.0000     -10.320534      -280.8360
  20   2.0000     -10.318603      -280.7835
  21   2.0000     -10.314961      -280.6843
  22   2.0000     -10.314022      -280.6588
  23   2.0000     -10.310836      -280.5721
  24   2.0000     -10.310129      -280.5529
  25   2.0000     -10.307809      -280.4897
  26   2.0000     -10.306809      -280.4625
  27   2.0000     -10.306602      -280.4569
  28   2.0000     -10.305068      -280.4151
  29   2.0000     -10.301999      -280.3316
  30   2.0000     -10.300845      -280.3002
  31   2.0000     -10.299911      -280.2748
  32   2.0000     -10.295703      -280.1603
  33   2.0000     -10.295666      -280.1593
  34   2.0000     -10.293756      -280.1074
  35   2.0000     -10.293064      -280.0885
  36   2.0000     -10.292477      -280.0725
  37   2.0000     -10.291688      -280.0511
  38   2.0000     -10.289826      -280.0004
  39   2.0000     -10.289317      -279.9866
  40   2.0000     -10.288372      -279.9608
  41   2.0000     -10.287589      -279.9395
  42   2.0000     -10.286705      -279.9155
  43   2.0000     -10.286510      -279.9102
  44   2.0000     -10.284712      -279.8612
  45   2.0000     -10.283591      -279.8307
  46   2.0000     -10.283193      -279.8199
  47   2.0000     -10.282885      -279.8115
  48   2.0000     -10.274882      -279.5938
  49   2.0000     -10.273954      -279.5685
  50   2.0000     -10.272136      -279.5190
  51   2.0000     -10.270527      -279.4752
  52   2.0000     -10.270053      -279.4623
  53   2.0000     -10.268164      -279.4109
  54   2.0000     -10.264926      -279.3228
  55   2.0000     -10.261779      -279.2372
  56   2.0000     -10.261024      -279.2167
  57   2.0000     -10.260474      -279.2017
  58   2.0000     -10.259608      -279.1781
  59   2.0000     -10.256708      -279.0992
  60   2.0000     -10.256264      -279.0871
  61   2.0000     -10.253919      -279.0233
  62   2.0000     -10.253662      -279.0163
  63   2.0000     -10.252967      -278.9974
  64   2.0000     -10.252066      -278.9729
  65   2.0000     -10.251341      -278.9532
  66   2.0000     -10.249279      -278.8971
  67   2.0000      -8.079567      -219.8562
  68   2.0000      -8.024980      -218.3708
  69   2.0000      -8.023775      -218.3380
  70   2.0000      -6.048577      -164.5902
  71   2.0000      -6.044537      -164.4802
  72   2.0000      -6.042274      -164.4186
  73   2.0000      -5.994733      -163.1250
  74   2.0000      -5.993494      -163.0913
  75   2.0000      -5.990762      -163.0169
  76   2.0000      -5.989473      -162.9819
  77   2.0000      -5.985838      -162.8829
  78   2.0000      -5.984823      -162.8553
  79   2.0000      -1.319941       -35.9174
  80   2.0000      -1.304627       -35.5007
  81   2.0000      -1.295367       -35.2487
  82   2.0000      -1.119320       -30.4582
  83   2.0000      -1.049631       -28.5619
  84   2.0000      -1.023886       -27.8613
  85   2.0000      -1.011428       -27.5224
  86   2.0000      -0.994715       -27.0676
  87   2.0000      -0.987940       -26.8832
  88   2.0000      -0.978029       -26.6135
  89   2.0000      -0.973455       -26.4891
  90   2.0000      -0.971267       -26.4295
  91   2.0000      -0.960953       -26.1489
  92   2.0000      -0.956435       -26.0259
  93   2.0000      -0.946344       -25.7513
  94   2.0000      -0.942475       -25.6461
  95   2.0000      -0.925717       -25.1900
  96   2.0000      -0.915277       -24.9059
  97   2.0000      -0.896147       -24.3854
  98   2.0000      -0.890532       -24.2326
  99   2.0000      -0.885906       -24.1067
 100   2.0000      -0.881051       -23.9746
 101   2.0000      -0.877930       -23.8897
 102   2.0000      -0.864081       -23.5128
 103   2.0000      -0.858888       -23.3715
 104   2.0000      -0.850845       -23.1527
 105   2.0000      -0.849777       -23.1236
 106   2.0000      -0.841171       -22.8894
 107   2.0000      -0.831198       -22.6180
 108   2.0000      -0.828422       -22.5425
 109   2.0000      -0.825928       -22.4747
 110   2.0000      -0.822062       -22.3694
 111   2.0000      -0.804830       -21.9005
 112   2.0000      -0.803738       -21.8708
 113   2.0000      -0.795544       -21.6479
 114   2.0000      -0.784168       -21.3383
 115   2.0000      -0.774637       -21.0789
 116   2.0000      -0.766568       -20.8594
 117   2.0000      -0.754590       -20.5334
 118   2.0000      -0.750972       -20.4350
 119   2.0000      -0.743414       -20.2293
 120   2.0000      -0.734728       -19.9930
 121   2.0000      -0.731406       -19.9026
 122   2.0000      -0.720106       -19.5951
 123   2.0000      -0.713734       -19.4217
 124   2.0000      -0.705954       -19.2100
 125   2.0000      -0.703381       -19.1400
 126   2.0000      -0.698187       -18.9986
 127   2.0000      -0.678049       -18.4507
 128   2.0000      -0.676106       -18.3978
 129   2.0000      -0.674535       -18.3550
 130   2.0000      -0.668051       -18.1786
 131   2.0000      -0.659851       -17.9554
 132   2.0000      -0.657045       -17.8791
 133   2.0000      -0.649907       -17.6849
 134   2.0000      -0.641994       -17.4695
 135   2.0000      -0.631512       -17.1843
 136   2.0000      -0.628987       -17.1156
 137   2.0000      -0.628739       -17.1089
 138   2.0000      -0.625465       -17.0198
 139   2.0000      -0.622600       -16.9418
 140   2.0000      -0.620821       -16.8934
 141   2.0000      -0.613892       -16.7048
 142   2.0000      -0.612095       -16.6560
 143   2.0000      -0.610807       -16.6209
 144   2.0000      -0.607079       -16.5195
 145   2.0000      -0.599348       -16.3091
 146   2.0000      -0.597360       -16.2550
 147   2.0000      -0.585652       -15.9364
 148   2.0000      -0.585314       -15.9272
 149   2.0000      -0.584825       -15.9139
 150   2.0000      -0.578850       -15.7513
 151   2.0000      -0.576037       -15.6748
 152   2.0000      -0.571911       -15.5625
 153   2.0000      -0.566583       -15.4175
 154   2.0000      -0.561948       -15.2914
 155   2.0000      -0.560644       -15.2559
 156   2.0000      -0.558197       -15.1893
 157   2.0000      -0.553926       -15.0731
 158   2.0000      -0.553372       -15.0580
 159   2.0000      -0.549714       -14.9585
 160   2.0000      -0.546466       -14.8701
 161   2.0000      -0.544613       -14.8197
 162   2.0000      -0.541168       -14.7259
 163   2.0000      -0.538532       -14.6542
 164   2.0000      -0.530820       -14.4443
 165   2.0000      -0.527784       -14.3617
 166   2.0000      -0.526204       -14.3187
 167   2.0000      -0.522177       -14.2092
 168   2.0000      -0.520871       -14.1736
 169   2.0000      -0.518727       -14.1153
 170   2.0000      -0.516535       -14.0556
 171   2.0000      -0.512552       -13.9473
 172   2.0000      -0.510997       -13.9049
 173   2.0000      -0.508345       -13.8328
 174   2.0000      -0.506111       -13.7720
 175   2.0000      -0.501490       -13.6462
 176   2.0000      -0.494645       -13.4600
 177   2.0000      -0.491838       -13.3836
 178   2.0000      -0.490776       -13.3547
 179   2.0000      -0.488684       -13.2978
 180   2.0000      -0.485928       -13.2228
 181   2.0000      -0.485089       -13.1999
 182   2.0000      -0.483324       -13.1519
 183   2.0000      -0.480448       -13.0737
 184   2.0000      -0.479098       -13.0369
 185   2.0000      -0.476903       -12.9772
 186   2.0000      -0.476471       -12.9654
 187   2.0000      -0.473741       -12.8912
 188   2.0000      -0.471700       -12.8356
 189   2.0000      -0.470062       -12.7910
 190   2.0000      -0.464430       -12.6378
 191   2.0000      -0.462649       -12.5893
 192   2.0000      -0.458782       -12.4841
 193   2.0000      -0.456701       -12.4275
 194   2.0000      -0.456199       -12.4138
 195   2.0000      -0.453742       -12.3470
 196   2.0000      -0.451872       -12.2961
 197   2.0000      -0.450028       -12.2459
 198   2.0000      -0.449448       -12.2301
 199   2.0000      -0.446722       -12.1559
 200   2.0000      -0.444073       -12.0838
 201   2.0000      -0.440323       -11.9818
 202   2.0000      -0.439029       -11.9466
 203   2.0000      -0.438906       -11.9432
 204   2.0000      -0.437347       -11.9008
 205   2.0000      -0.432598       -11.7716
 206   2.0000      -0.432375       -11.7655
 207   2.0000      -0.431977       -11.7547
 208   2.0000      -0.425585       -11.5807
 209   2.0000      -0.424209       -11.5433
 210   2.0000      -0.421658       -11.4739
 211   2.0000      -0.419603       -11.4180
 212   2.0000      -0.413901       -11.2628
 213   2.0000      -0.412135       -11.2148
 214   2.0000      -0.411764       -11.2047
 215   2.0000      -0.405652       -11.0383
 216   2.0000      -0.402356       -10.9487
 217   2.0000      -0.395513       -10.7625
 218   2.0000      -0.393062       -10.6958
 219   2.0000      -0.387891       -10.5551
 220   2.0000      -0.380387       -10.3509
 221   2.0000      -0.379101       -10.3159
 222   2.0000      -0.373005       -10.1500
 223   2.0000      -0.369126       -10.0444
 224   2.0000      -0.354340        -9.6421
 225   2.0000      -0.343641        -9.3510
 226   2.0000      -0.340914        -9.2767
 227   2.0000      -0.329474        -8.9654
 228   2.0000      -0.326382        -8.8813
 229   2.0000      -0.323181        -8.7942
 230   2.0000      -0.321427        -8.7465
 231   2.0000      -0.307698        -8.3729
 232   2.0000      -0.307436        -8.3658
 233   2.0000      -0.303418        -8.2564
 234   2.0000      -0.293496        -7.9864
 235   2.0000      -0.269627        -7.3369
 236   2.0000      -0.256573        -6.9817
 237   2.0000      -0.251888        -6.8542
 238   2.0000      -0.233477        -6.3532
 239   2.0000      -0.184504        -5.0206
 240   0.0000      -0.109555        -2.9811
 241   0.0000      -0.085995        -2.3400
 242   0.0000      -0.058969        -1.6046
 243   0.0000      -0.051555        -1.4029
 244   0.0000      -0.041291        -1.1236

MULLIKEN ATOMIC CHARGES
-----------------------
   0 C :   -0.095887
   1 C :    0.301390
   2 F :   -0.194073
   3 C :   -0.033948
   4 C :   -0.008928
   5 C :    0.098291
   6 C :    0.100207
   7 C :   -0.085999
   8 C :    0.043156
   9 C :    0.004955
  10 C :   -0.079996
  11 C :    0.141648
  12 O :   -0.154038
  13 C :   -0.149059
  14 C :    0.257938
  15 C :   -0.341943
  16 C :   -0.224426
  17 N :    0.168770
  18 C :   -0.168775
  19 N :    0.138136
  20 C :    0.015541
  21 C :   -0.111173
  22 S :    0.163935
  23 C :   -0.050382
  24 C :    0.120565
  25 C :    0.169233
  26 C :   -0.110180
  27 C :    0.240493
  28 F :   -0.170272
  29 C :    0.225455
  30 F :   -0.176828
  31 C :   -0.107163
  32 C :   -0.017975
  33 C :    0.026925
  34 C :    0.002509
  35 C :   -0.177372
  36 C :    0.087526
  37 C :    0.203239
  38 N :   -0.144179
  39 C :    0.039120
  40 C :   -0.021210
  41 C :   -0.009917
  42 C :   -0.037396
  43 C :    0.039682
  44 C :    0.012433
  45 C :   -0.041519
  46 S :    0.051490
  47 C :   -0.040707
  48 C :    0.023481
  49 C :    0.025368
  50 C :   -0.013254
  51 S :    0.043912
  52 C :   -0.032740
  53 C :    0.067104
  54 C :   -0.050051
  55 C :    0.057435
  56 C :   -0.011885
  57 C :    0.065867
  58 C :   -0.037708
  59 C :    0.064529
  60 C :   -0.029582
  61 C :    0.048596
  62 C :   -0.005850
  63 C :    0.060380
  64 C :   -0.037216
  65 C :    0.003934
  66 C :   -0.015367
  67 H :   -0.005161
  68 H :    0.002958
  69 H :   -0.009994
  70 H :   -0.009051
  71 H :   -0.013687
  72 H :    0.018158
  73 H :    0.002577
  74 H :   -0.008388
  75 H :   -0.009951
  76 H :    0.009038
  77 H :   -0.024513
  78 H :    0.021794
  79 H :    0.039483
  80 H :    0.039284
  81 H :    0.013566
  82 H :    0.023094
  83 H :    0.120593
  84 H :    0.002735
  85 H :   -0.014216
  86 H :   -0.025953
  87 H :   -0.021500
  88 H :   -0.021623
  89 H :   -0.022865
  90 H :   -0.021533
  91 H :   -0.034108
  92 H :   -0.020673
  93 H :   -0.033388
  94 H :   -0.029634
  95 H :   -0.035324
  96 H :   -0.030023
  97 H :   -0.026478
  98 H :   -0.024049
  99 H :    0.006942
 100 H :    0.015641
Sum of atomic charges:   -0.0000000

LOEWDIN ATOMIC CHARGES
----------------------
   0 C :   -0.043182
   1 C :    0.092481
   2 F :   -0.068493
   3 C :   -0.039237
   4 C :    0.004099
   5 C :   -0.019792
   6 C :    0.002169
   7 C :    0.006568
   8 C :   -0.015612
   9 C :   -0.057146
  10 C :    0.031398
  11 C :    0.079980
  12 O :   -0.156963
  13 C :   -0.115489
  14 C :    0.060414
  15 C :   -0.162410
  16 C :   -0.040452
  17 N :   -0.057982
  18 C :   -0.020409
  19 N :   -0.065593
  20 C :    0.047124
  21 C :   -0.192597
  22 S :    0.521194
  23 C :   -0.122787
  24 C :   -0.051388
  25 C :   -0.008094
  26 C :   -0.036896
  27 C :    0.078663
  28 F :   -0.048050
  29 C :    0.060326
  30 F :   -0.055523
  31 C :   -0.028703
  32 C :   -0.052937
  33 C :    0.011702
  34 C :   -0.058216
  35 C :   -0.012863
  36 C :   -0.049134
  37 C :    0.047637
  38 N :    0.000524
  39 C :    0.033139
  40 C :   -0.117155
  41 C :   -0.042374
  42 C :   -0.172654
  43 C :   -0.032319
  44 C :   -0.048593
  45 C :   -0.173111
  46 S :    0.351998
  47 C :   -0.194694
  48 C :   -0.042027
  49 C :   -0.041995
  50 C :   -0.147947
  51 S :    0.374828
  52 C :   -0.065906
  53 C :   -0.064019
  54 C :   -0.017659
  55 C :   -0.054255
  56 C :    0.057345
  57 C :   -0.064873
  58 C :    0.029736
  59 C :   -0.062921
  60 C :    0.011934
  61 C :   -0.057113
  62 C :    0.069759
  63 C :   -0.066885
  64 C :    0.045550
  65 C :   -0.024788
  66 C :   -0.050554
  67 H :    0.041986
  68 H :    0.041367
  69 H :    0.035245
  70 H :    0.037689
  71 H :    0.038889
  72 H :    0.047787
  73 H :    0.045647
  74 H :    0.041429
  75 H :    0.034179
  76 H :    0.023631
  77 H :    0.026966
  78 H :    0.032709
  79 H :    0.041005
  80 H :    0.045485
  81 H :    0.028170
  82 H :    0.033949
  83 H :    0.080612
  84 H :    0.026103
  85 H :    0.018661
  86 H :    0.028992
  87 H :    0.029886
  88 H :    0.028671
  89 H :    0.028229
  90 H :    0.029352
  91 H :    0.029172
  92 H :    0.009872
  93 H :    0.031586
  94 H :    0.022248
  95 H :    0.020842
  96 H :    0.032730
  97 H :    0.023696
  98 H :    0.025826
  99 H :    0.018302
 100 H :    0.022307

  Mayer bond orders larger than 0.100000
B(  0-C ,  1-C ) :   1.4394 B(  0-C ,  6-C ) :   1.2056 B(  0-C , 67-H ) :   1.0062
B(  1-C ,  2-F ) :   1.0849 B(  1-C ,  3-C ) :   1.2575 B(  3-C ,  4-C ) :   1.4577
B(  3-C , 68-H ) :   0.9937 B(  4-C ,  5-C ) :   1.2371 B(  4-C , 69-H ) :   0.9969
B(  5-C ,  6-C ) :   1.2592 B(  5-C , 10-C ) :   1.1860 B(  6-C ,  7-C ) :   1.1971
B(  7-C ,  8-C ) :   1.4705 B(  7-C , 70-H ) :   0.9942 B(  8-C ,  9-C ) :   1.2153
B(  8-C , 14-C ) :   1.0003 B(  9-C , 10-C ) :   1.4828 B(  9-C , 11-C ) :   0.9212
B( 10-C , 71-H ) :   1.0144 B( 11-C , 12-O ) :   2.2511 B( 11-C , 13-C ) :   0.9609
B( 13-C , 14-C ) :   1.0786 B( 13-C , 20-C ) :   1.5319 B( 14-C , 15-C ) :   1.6028
B( 15-C , 16-C ) :   1.1610 B( 15-C , 18-C ) :   1.1430 B( 16-C , 17-N ) :   3.0257
B( 18-C , 19-N ) :   2.9763 B( 20-C , 21-C ) :   1.2651 B( 20-C , 72-H ) :   0.9367
B( 21-C , 22-S ) :   1.0986 B( 21-C , 25-C ) :   1.2639 B( 22-S , 23-C ) :   1.1964
B( 23-C , 24-C ) :   1.2801 B( 23-C , 32-C ) :   1.1812 B( 24-C , 25-C ) :   1.2358
B( 24-C , 31-C ) :   1.1742 B( 25-C , 26-C ) :   1.1980 B( 26-C , 27-C ) :   1.4717
B( 26-C , 31-C ) :   0.1113 B( 26-C , 73-H ) :   0.9981 B( 27-C , 28-F ) :   1.1365
B( 27-C , 29-C ) :   1.1712 B( 29-C , 30-F ) :   1.1304 B( 29-C , 31-C ) :   1.4924
B( 31-C , 74-H ) :   0.9976 B( 32-C , 33-C ) :   1.6325 B( 32-C , 75-H ) :   0.9763
B( 33-C , 34-C ) :   1.1332 B( 33-C , 76-H ) :   0.9693 B( 34-C , 35-C ) :   1.7206
B( 34-C , 77-H ) :   0.9776 B( 35-C , 36-C ) :   1.0779 B( 35-C , 37-C ) :   1.0376
B( 36-C , 78-H ) :   0.9497 B( 36-C , 79-H ) :   0.9395 B( 36-C , 80-H ) :   0.9405
B( 37-C , 38-N ) :   1.0130 B( 37-C , 81-H ) :   0.9427 B( 37-C , 82-H ) :   0.9299
B( 38-N , 39-C ) :   1.2140 B( 38-N , 83-H ) :   0.9361 B( 39-C , 40-C ) :   1.5940
B( 39-C , 84-H ) :   0.9634 B( 40-C , 41-C ) :   1.1754 B( 40-C , 85-H ) :   0.9612
B( 41-C , 42-C ) :   1.5790 B( 41-C , 86-H ) :   0.9772 B( 42-C , 43-C ) :   1.1524
B( 42-C , 46-S ) :   1.0128 B( 43-C , 44-C ) :   1.5799 B( 43-C , 87-H ) :   0.9973
B( 44-C , 45-C ) :   1.1993 B( 44-C , 88-H ) :   0.9934 B( 45-C , 46-S ) :   1.0496
B( 45-C , 47-C ) :   1.4938 B( 47-C , 48-C ) :   1.1974 B( 47-C , 51-S ) :   1.0309
B( 48-C , 49-C ) :   1.5782 B( 48-C , 89-H ) :   0.9926 B( 49-C , 50-C ) :   1.1489
B( 49-C , 90-H ) :   0.9992 B( 50-C , 51-S ) :   1.0354 B( 50-C , 52-C ) :   1.5641
B( 52-C , 53-C ) :   1.1381 B( 52-C , 91-H ) :   0.9682 B( 53-C , 54-C ) :   1.4437
B( 53-C , 64-C ) :   1.1217 B( 54-C , 55-C ) :   1.1304 B( 54-C , 92-H ) :   0.9954
B( 55-C , 56-C ) :   1.4414 B( 55-C , 63-C ) :   1.1304 B( 56-C , 57-C ) :   1.1316
B( 56-C , 93-H ) :   1.0041 B( 57-C , 58-C ) :   1.4176 B( 57-C , 61-C ) :   1.1301
B( 58-C , 59-C ) :   1.1476 B( 58-C , 94-H ) :   1.0123 B( 59-C , 60-C ) :   1.5135
B( 59-C , 65-C ) :   1.0742 B( 60-C , 61-C ) :   1.1013 B( 60-C , 95-H ) :   1.0103
B( 61-C , 62-C ) :   1.4598 B( 62-C , 63-C ) :   1.1186 B( 62-C , 96-H ) :   1.0043
B( 63-C , 64-C ) :   1.4306 B( 64-C , 97-H ) :   1.0158 B( 65-C , 66-C ) :   1.9468
B( 65-C , 98-H ) :   0.9656 B( 66-C , 99-H ) :   0.9520 B( 66-C ,100-H ) :   0.9485

-----------------------------------------------------------------------------
         ABSORPTION SPECTRUM VIA TRANSITION ELECTRIC DIPOLE MOMENTS
-----------------------------------------------------------------------------
State   Energy  Wavelength   fosc         T2         TX        TY        TZ
        (cm-1)    (nm)                  (au**2)     (au)      (au)      (au)
-----------------------------------------------------------------------------
   0    5489.9   1821.5   0.040456050   2.42603  -0.57643   0.81177   1.19783
   1    7128.1   1402.9   0.128486960   5.93416  -1.21510  -1.61907  -1.35509
   2   13881.0    720.4   0.369617779   8.76613   0.75857  -1.99683  -2.05021
   3   14557.3    686.9   0.428260685   9.68510  -0.18961  -3.08992  -0.31863
   4   15801.4    632.9   0.931109003  19.39908   0.92880  -0.61950  -4.26059
   5   18696.0    534.9   0.126321886   2.22436   1.33820  -0.52181  -0.40161
   6   19153.7    522.1   0.005903553   0.10147  -0.16316   0.02276   0.27264
   7   22156.7    451.3   0.152689202   2.26871  -1.29838   0.59755   0.47525
   8   23301.4    429.2   0.010429774   0.14736   0.26176  -0.25580  -0.11578
   9   23813.4    419.9   0.036351690   0.50255   0.57109  -0.30863   0.28488
  10   24227.1    412.8   0.097662213   1.32709  -1.06362   0.08955  -0.43333
  11   24873.6    402.0   0.007597102   0.10055   0.30011   0.05259  -0.08786
  12   25480.7    392.5   0.163486286   2.11225   1.29404   0.45798  -0.47745
  13   25673.8    389.5   0.060699517   0.77834  -0.87581   0.00636   0.10612
  14   25933.5    385.6   0.057860383   0.73451  -0.80505   0.23306   0.17913
  15   26605.1    375.9   0.281552586   3.48394   1.33000   0.95144  -0.89989
  16   27389.2    365.1   0.498479809   5.99162   2.23441  -0.76917   0.63827
  17   28064.9    356.3   0.074833297   0.87782   0.26259   0.62766  -0.64414
  18   28437.8    351.6   0.363362169   4.20649  -1.89429   0.71818  -0.31996
  19   28594.0    349.7   0.590686699   6.80077   2.39902  -0.81184   0.62161
  20   29111.3    343.5   0.206920113   2.34000  -1.45177   0.31430  -0.36547
  21   29466.3    339.4   0.100489160   1.12271   0.59406  -0.77509   0.41115
  22   29793.0    335.6   0.366718933   4.05224  -1.86074   0.57948  -0.50406
  23   30010.4    333.2   0.117767115   1.29190   1.13117  -0.08224   0.07476
  24   30657.9    326.2   0.011039642   0.11855  -0.30392  -0.11374   0.11508
  25   30680.6    325.9   0.014484608   0.15542   0.09231   0.05648   0.37909
  26   30760.6    325.1   0.039351863   0.42116  -0.64486   0.07254   0.00734
  27   32061.4    311.9   0.002721350   0.02794   0.14985  -0.05648   0.04795
  28   32240.0    310.2   0.060638948   0.61920  -0.74150  -0.21571   0.15117
  29   32306.9    309.5   0.187481633   1.91046   0.84868  -0.63642   0.88610
  30   33117.9    302.0   0.056124417   0.55791   0.71280  -0.13491   0.17785
  31   33325.9    300.1   0.236912561   2.34035  -1.22038   0.53078  -0.75453
  32   33464.5    298.8   0.358285157   3.52468  -0.98081   1.29360  -0.94302
  33   33737.4    296.4   0.090604759   0.88413   0.83427  -0.40002   0.16764
  34   34178.1    292.6   0.053884664   0.51903  -0.62425  -0.35767   0.03762
  35   34845.7    287.0   0.023880947   0.22562  -0.38876   0.26314  -0.07238
  36   34985.3    285.8   0.016787055   0.15797  -0.37424  -0.12765   0.04020
  37   35329.8    283.0   0.114760708   1.06937  -0.98065  -0.21787   0.24542
  38   35819.5    279.2   0.055907585   0.51384   0.61786   0.36125   0.03976
  39   36380.4    274.9   0.006695212   0.06059   0.20424   0.11480   0.07547
  40   36561.4    273.5   0.179085686   1.61255   0.98705  -0.53131   0.59666
  41   36608.6    273.2   0.115683693   1.04032   0.80469  -0.35389   0.51726
  42   37134.2    269.3   0.083523213   0.74047  -0.41880  -0.25622   0.70670
  43   37517.5    266.5   0.217424057   1.90787  -1.24268   0.58764   0.13523
  44   37724.3    265.1   0.156700769   1.36750  -1.01814   0.28641   0.49885
  45   37938.4    263.6   0.058508262   0.50771  -0.69795   0.08042  -0.11878
  46   38168.3    262.0   0.016003412   0.13803  -0.07001  -0.02402  -0.36408
  47   38693.6    258.4   0.267813605   2.27860   0.81002   0.72442  -1.04771
  48   38877.2    257.2   0.010134656   0.08582   0.07742  -0.20748   0.19177
  49   38979.9    256.5   0.085807740   0.72471  -0.58519  -0.37921   0.48832
  50   39166.6    255.3   0.043074816   0.36206   0.30295  -0.04380  -0.51804
  51   39578.2    252.7   0.031721219   0.26386  -0.42771   0.22757   0.17067
  52   39979.0    250.1   0.023963681   0.19733  -0.34977  -0.06194  -0.26674
  53   40076.0    249.5   0.038976958   0.32018   0.27612  -0.11349   0.48069
  54   40243.8    248.5   0.222142289   1.81722  -1.07553   0.68290  -0.44057

FINAL SINGLE POINT ENERGY     -3922.117651945938

DIPOLE MOMENT
-------------
                                X             Y             Z
Electronic contribution:    -41.18957     -59.03713     -38.42233
Nuclear contribution   :     41.95349      59.89849      38.35239
                        -----------------------------------------
Total Dipole Moment    :      0.76391       0.86136      -0.06994
                        -----------------------------------------
Magnitude (a.u.)       :      1.15343
Magnitude (Debye)      :      2.93178

Rotational constants in cm-1:     0.000814     0.000320     0.000289
Rotational constants in MHz :    24.404576     9.601028     8.673338

                             ****ORCA TERMINATED NORMALLY****
TOTAL RUN TIME: 0 days 0 hours 11 minutes 46 seconds 185 msec
