                         Program Version 4.2.0 -  RELEASE  -
|  1> # ORCA input file
|  2> # SCF done       -198.273180443441          0.000703061969
|  3> ! CAM-B3LYP def2-SVP def2/J RIJCOSX Grid4 TightSCF
|  4> %maxcore 5000
|  5> %tddft
|  6>     Mode sTDDFT
|  7>     Ethresh 5.0
|  8>     maxcore 5000
|  9> end
| 10>
| 11> %pal
| 12>   nprocs 6
| 13>   end
| 14> * xyz 0 1
| 15>    C       -6.05681        -0.98596         0.57762
| 16>    C       -7.41041        -1.10113         0.75669
| 17>    C       -8.03485        -2.21964         1.34962
| 18>    N       -8.59846        -3.10785         1.80828
| 19>    C       -8.38107        -0.15940         0.35567
| 20>    N       -9.24991         0.52150         0.03648
| 21>    C       -5.05440        -1.98905         0.91345
| 22>    C       -3.77765        -1.51785         0.51350
| 23>    C       -2.62815        -2.24719         0.69791
| 24>    C       -2.74193        -3.50379         1.30164
| 25>    C       -4.01972        -3.96435         1.70194
| 26>    C       -5.18199        -3.22611         1.51831
| 27>    S       -3.93070        -5.53557         2.43721
| 28>    C       -2.20316        -5.55336         2.19956
| 29>    C       -1.71566        -4.44102         1.60008
| 30>   Br       -1.20745        -7.03639         2.76736
| 31>    C       -3.90874        -0.16714        -0.06395
| 32>    O       -3.01260         0.58552        -0.37635
| 33>    C       -5.36326         0.13190        -0.03427
| 34>    C       -5.92231         1.33390        -0.34216
| 35>    C       -5.33077         2.41702        -1.02548
| 36>    S       -5.96567         3.99364        -0.67490
| 37>    C       -4.91975         4.79204        -1.81976
| 38>    C       -4.11774         3.82350        -2.44001
| 39>    C       -4.35771         2.51424        -2.02031
| 40>    O       -3.77538         1.44978        -2.63153
| 41>    C       -2.84262         1.66146        -3.58389
| 42>    O       -2.33277         0.73720        -4.14476
| 43>    C       -2.48163         3.10991        -3.95596
| 44>    O       -1.62174         3.35694        -4.74842
| 45>    O       -3.18956         4.11996        -3.39331
| 46>    C       -4.96492         6.16628        -2.09898
| 47>    C       -5.86195         7.03798        -1.52019
| 48>    C       -6.12910         8.39712        -1.82823
| 49>    C       -7.19184         8.93177        -1.15245
| 50>    C       -7.80579         8.02458        -0.26486
| 51>    S       -6.95721         6.49885        -0.27786
| 52>    C       -8.93697         8.05967         0.54131
| 53>    C       -9.91486         9.03509         0.81263
| 54>    C      -10.91002         8.58566         1.63578
| 55>    C      -10.76696         7.23544         2.05182
| 56>    S       -9.31265         6.56997         1.37186
| 57>    C      -11.63352         6.54801         2.87774
| 58>    C      -11.56792         5.22553         3.33666
| 59>    S      -12.78648         4.70785         4.48141
| 60>    C      -12.10534         3.11358         4.67735
| 61>    C      -11.00879         2.99544         3.82860
| 62>    C      -10.69961         4.14809         3.10482
| 63>    O       -9.63636         4.16343         2.25083
| 64>    C       -8.82772         3.09365         2.15179
| 65>    O       -7.87969         3.12100         1.41479
| 66>    C       -9.13902         1.85577         2.99856
| 67>    O       -8.41733         0.90004         2.98146
| 68>    O      -10.24928         1.86567         3.76194
| 69>    C      -12.63532         2.09304         5.49262
| 70>    C      -13.46978         2.21192         6.56261
| 71>    C      -13.82544         3.34787         7.38280
| 72>    C      -13.00917         4.40929         7.68325
| 73>    C      -13.36986         5.45255         8.55843
| 74>    N      -13.62978         6.33357         9.24702
| 75>    C      -11.68023         4.51396         7.22610
| 76>    N      -10.58051         4.60484         6.90776
| 77>    C      -15.06561         3.01306         8.07255
| 78>    C      -15.33120         1.63271         7.88085
| 79>    C      -14.29704         1.05212         6.99942
| 80>    O      -14.17037        -0.09937         6.65880
| 81>    C      -16.40868         1.00456         8.45643
| 82>    C      -17.26830         1.77544         9.24692
| 83>    C      -17.00154         3.15544         9.41892
| 84>    C      -15.90675         3.79021         8.84464
| 85>    S      -18.19501         3.91647        10.42490
| 86>    C      -19.02236         2.39189        10.60480
| 87>    C      -18.43764         1.36475         9.94336
| 88>   Br      -20.57897         2.30222        11.64559
| 89>    H       -1.67112        -1.86159         0.38326
| 90>    H       -6.13122        -3.61570         1.84614
| 91>    H       -0.67579        -4.28547         1.37755
| 92>    H       -6.91476         1.55102         0.03438
| 93>    H       -4.28158         6.53420        -2.85168
| 94>    H       -5.54927         8.93095        -2.56041
| 95>    H       -7.54967         9.93723        -1.28542
| 96>    H       -9.87106        10.02694         0.39924
| 97>    H      -11.74802         9.18140         1.95194
| 98>    H      -12.48170         7.10940         3.24900
| 99>    H      -12.39273         1.08044         5.18467
|100>    H      -16.58273        -0.04908         8.30502
|101>    H      -15.74260         4.84410         8.99781
|102>    H      -18.81389         0.35812         9.94550
|103> *
|104>
|105>                          ****END OF INPUT****

CARTESIAN COORDINATES (ANGSTROEM)
---------------------------------
  C     -6.056810   -0.985960    0.577620
  C     -7.410410   -1.101130    0.756690
  C     -8.034850   -2.219640    1.349620
  N     -8.598460   -3.107850    1.808280
  C     -8.381070   -0.159400    0.355670
  N     -9.249910    0.521500    0.036480
  C     -5.054400   -1.989050    0.913450
  C     -3.777650   -1.517850    0.513500
  C     -2.628150   -2.247190    0.697910
  C     -2.741930   -3.503790    1.301640
  C     -4.019720   -3.964350    1.701940
  C     -5.181990   -3.226110    1.518310
  S     -3.930700   -5.535570    2.437210
  C     -2.203160   -5.553360    2.199560
  C     -1.715660   -4.441020    1.600080
  Br    -1.207450   -7.036390    2.767360
  C     -3.908740   -0.167140   -0.063950
  O     -3.012600    0.585520   -0.376350
  C     -5.363260    0.131900   -0.034270
  C     -5.922310    1.333900   -0.342160
  C     -5.330770    2.417020   -1.025480
  S     -5.965670    3.993640   -0.674900
  C     -4.919750    4.792040   -1.819760
  C     -4.117740    3.823500   -2.440010
  C     -4.357710    2.514240   -2.020310
  O     -3.775380    1.449780   -2.631530
  C     -2.842620    1.661460   -3.583890
  O     -2.332770    0.737200   -4.144760
  C     -2.481630    3.109910   -3.955960
  O     -1.621740    3.356940   -4.748420
  O     -3.189560    4.119960   -3.393310
  C     -4.964920    6.166280   -2.098980
  C     -5.861950    7.037980   -1.520190
  C     -6.129100    8.397120   -1.828230
  C     -7.191840    8.931770   -1.152450
  C     -7.805790    8.024580   -0.264860
  S     -6.957210    6.498850   -0.277860
  C     -8.936970    8.059670    0.541310
  C     -9.914860    9.035090    0.812630
  C    -10.910020    8.585660    1.635780
  C    -10.766960    7.235440    2.051820
  S     -9.312650    6.569970    1.371860
  C    -11.633520    6.548010    2.877740
  C    -11.567920    5.225530    3.336660
  S    -12.786480    4.707850    4.481410
  C    -12.105340    3.113580    4.677350
  C    -11.008790    2.995440    3.828600
  C    -10.699610    4.148090    3.104820
  O     -9.636360    4.163430    2.250830
  C     -8.827720    3.093650    2.151790
  O     -7.879690    3.121000    1.414790
  C     -9.139020    1.855770    2.998560
  O     -8.417330    0.900040    2.981460
  O    -10.249280    1.865670    3.761940
  C    -12.635320    2.093040    5.492620
  C    -13.469780    2.211920    6.562610
  C    -13.825440    3.347870    7.382800
  C    -13.009170    4.409290    7.683250
  C    -13.369860    5.452550    8.558430
  N    -13.629780    6.333570    9.247020
  C    -11.680230    4.513960    7.226100
  N    -10.580510    4.604840    6.907760
  C    -15.065610    3.013060    8.072550
  C    -15.331200    1.632710    7.880850
  C    -14.297040    1.052120    6.999420
  O    -14.170370   -0.099370    6.658800
  C    -16.408680    1.004560    8.456430
  C    -17.268300    1.775440    9.246920
  C    -17.001540    3.155440    9.418920
  C    -15.906750    3.790210    8.844640
  S    -18.195010    3.916470   10.424900
  C    -19.022360    2.391890   10.604800
  C    -18.437640    1.364750    9.943360
  Br   -20.578970    2.302220   11.645590
  H     -1.671120   -1.861590    0.383260
  H     -6.131220   -3.615700    1.846140
  H     -0.675790   -4.285470    1.377550
  H     -6.914760    1.551020    0.034380
  H     -4.281580    6.534200   -2.851680
  H     -5.549270    8.930950   -2.560410
  H     -7.549670    9.937230   -1.285420
  H     -9.871060   10.026940    0.399240
  H    -11.748020    9.181400    1.951940
  H    -12.481700    7.109400    3.249000
  H    -12.392730    1.080440    5.184670
  H    -16.582730   -0.049080    8.305020
  H    -15.742600    4.844100    8.997810
  H    -18.813890    0.358120    9.945500

 Total Charge           Charge          ....    0
 Multiplicity           Mult            ....    1
 Number of Electrons    NEL             ....  600
 Basis Dimension        Dim             .... 1166

ORBITAL ENERGIES
----------------

  NO   OCC          E(Eh)            E(eV)
   0   2.0000    -482.887895    -13140.0477
   1   2.0000    -482.880625    -13139.8498
   2   2.0000     -88.989597     -2421.5300
   3   2.0000     -88.978423     -2421.2260
   4   2.0000     -88.978103     -2421.2173
   5   2.0000     -88.969576     -2420.9852
   6   2.0000     -88.965724     -2420.8804
   7   2.0000     -88.962872     -2420.8028
   8   2.0000     -62.565596     -1702.4964
   9   2.0000     -62.558367     -1702.2997
  10   2.0000     -56.399552     -1534.7098
  11   2.0000     -56.396829     -1534.6357
  12   2.0000     -56.396798     -1534.6349
  13   2.0000     -56.392309     -1534.5127
  14   2.0000     -56.389605     -1534.4392
  15   2.0000     -56.389570     -1534.4382
  16   2.0000     -19.330346      -526.0055
  17   2.0000     -19.329202      -525.9743
  18   2.0000     -19.313118      -525.5367
  19   2.0000     -19.308687      -525.4161
  20   2.0000     -19.256802      -524.0042
  21   2.0000     -19.252981      -523.9003
  22   2.0000     -19.238811      -523.5147
  23   2.0000     -19.236116      -523.4413
  24   2.0000     -19.217605      -522.9376
  25   2.0000     -19.209702      -522.7226
  26   2.0000     -14.420379      -392.3985
  27   2.0000     -14.418313      -392.3422
  28   2.0000     -14.410447      -392.1282
  29   2.0000     -14.407191      -392.0396
  30   2.0000     -10.459484      -284.6170
  31   2.0000     -10.455500      -284.5086
  32   2.0000     -10.440387      -284.0974
  33   2.0000     -10.438574      -284.0480
  34   2.0000     -10.387969      -282.6710
  35   2.0000     -10.381516      -282.4954
  36   2.0000     -10.373058      -282.2653
  37   2.0000     -10.369319      -282.1635
  38   2.0000     -10.367873      -282.1242
  39   2.0000     -10.361401      -281.9481
  40   2.0000     -10.359753      -281.9032
  41   2.0000     -10.353350      -281.7290
  42   2.0000     -10.351910      -281.6898
  43   2.0000     -10.347608      -281.5727
  44   2.0000     -10.346650      -281.5467
  45   2.0000     -10.338671      -281.3295
  46   2.0000     -10.336570      -281.2724
  47   2.0000     -10.335104      -281.2325
  48   2.0000     -10.334827      -281.2249
  49   2.0000     -10.334727      -281.2222
  50   2.0000     -10.333589      -281.1912
  51   2.0000     -10.331467      -281.1335
  52   2.0000     -10.330871      -281.1173
  53   2.0000     -10.329253      -281.0733
  54   2.0000     -10.328173      -281.0439
  55   2.0000     -10.324224      -280.9364
  56   2.0000     -10.322913      -280.9007
  57   2.0000     -10.321212      -280.8545
  58   2.0000     -10.319278      -280.8018
  59   2.0000     -10.315830      -280.7080
  60   2.0000     -10.315181      -280.6903
  61   2.0000     -10.314500      -280.6718
  62   2.0000     -10.313019      -280.6315
  63   2.0000     -10.312722      -280.6234
  64   2.0000     -10.311964      -280.6028
  65   2.0000     -10.310609      -280.5659
  66   2.0000     -10.310546      -280.5642
  67   2.0000     -10.310221      -280.5554
  68   2.0000     -10.309760      -280.5428
  69   2.0000     -10.309508      -280.5360
  70   2.0000     -10.308771      -280.5159
  71   2.0000     -10.304397      -280.3969
  72   2.0000     -10.303183      -280.3639
  73   2.0000     -10.301678      -280.3229
  74   2.0000     -10.301465      -280.3171
  75   2.0000     -10.299171      -280.2547
  76   2.0000     -10.299012      -280.2504
  77   2.0000     -10.296486      -280.1816
  78   2.0000     -10.294341      -280.1232
  79   2.0000     -10.293305      -280.0951
  80   2.0000     -10.291059      -280.0340
  81   2.0000     -10.285845      -279.8921
  82   2.0000      -8.795014      -239.3245
  83   2.0000      -8.787815      -239.1286
  84   2.0000      -8.084348      -219.9863
  85   2.0000      -8.074500      -219.7183
  86   2.0000      -8.072938      -219.6758
  87   2.0000      -8.065647      -219.4774
  88   2.0000      -8.062699      -219.3972
  89   2.0000      -8.059427      -219.3081
  90   2.0000      -6.631335      -180.4478
  91   2.0000      -6.624108      -180.2511
  92   2.0000      -6.616736      -180.0505
  93   2.0000      -6.616539      -180.0452
  94   2.0000      -6.609557      -179.8552
  95   2.0000      -6.609351      -179.8496
  96   2.0000      -6.053901      -164.7350
  97   2.0000      -6.049979      -164.6283
  98   2.0000      -6.045662      -164.5108
  99   2.0000      -6.044170      -164.4702
 100   2.0000      -6.042312      -164.4197
 101   2.0000      -6.039920      -164.3546
 102   2.0000      -6.038172      -164.3070
 103   2.0000      -6.035714      -164.2401
 104   2.0000      -6.035344      -164.2301
 105   2.0000      -6.034593      -164.2096
 106   2.0000      -6.032363      -164.1489
 107   2.0000      -6.031058      -164.1134
 108   2.0000      -6.029134      -164.0611
 109   2.0000      -6.028043      -164.0314
 110   2.0000      -6.026846      -163.9988
 111   2.0000      -6.024778      -163.9425
 112   2.0000      -6.023687      -163.9129
 113   2.0000      -6.020306      -163.8209
 114   2.0000      -2.747211       -74.7554
 115   2.0000      -2.743102       -74.6436
 116   2.0000      -2.742954       -74.6396
 117   2.0000      -2.739963       -74.5582
 118   2.0000      -2.735904       -74.4477
 119   2.0000      -2.735763       -74.4439
 120   2.0000      -2.731364       -74.3242
 121   2.0000      -2.731340       -74.3235
 122   2.0000      -2.724190       -74.1290
 123   2.0000      -2.724177       -74.1286
 124   2.0000      -1.274322       -34.6761
 125   2.0000      -1.255042       -34.1514
 126   2.0000      -1.238746       -33.7080
 127   2.0000      -1.220123       -33.2012
 128   2.0000      -1.174002       -31.9462
 129   2.0000      -1.157758       -31.5042
 130   2.0000      -1.146005       -31.1844
 131   2.0000      -1.133595       -30.8467
 132   2.0000      -1.130634       -30.7661
 133   2.0000      -1.123781       -30.5796
 134   2.0000      -1.029668       -28.0187
 135   2.0000      -1.024762       -27.8852
 136   2.0000      -1.021868       -27.8064
 137   2.0000      -1.016700       -27.6658
 138   2.0000      -1.015374       -27.6297
 139   2.0000      -1.011811       -27.5328
 140   2.0000      -1.007205       -27.4074
 141   2.0000      -0.997723       -27.1494
 142   2.0000      -0.995108       -27.0783
 143   2.0000      -0.993436       -27.0328
 144   2.0000      -0.987986       -26.8845
 145   2.0000      -0.982736       -26.7416
 146   2.0000      -0.948084       -25.7987
 147   2.0000      -0.938435       -25.5361
 148   2.0000      -0.930015       -25.3070
 149   2.0000      -0.920082       -25.0367
 150   2.0000      -0.912000       -24.8168
 151   2.0000      -0.903997       -24.5990
 152   2.0000      -0.902295       -24.5527
 153   2.0000      -0.894156       -24.3312
 154   2.0000      -0.889407       -24.2020
 155   2.0000      -0.882038       -24.0015
 156   2.0000      -0.881251       -23.9801
 157   2.0000      -0.879598       -23.9351
 158   2.0000      -0.872764       -23.7491
 159   2.0000      -0.868840       -23.6423
 160   2.0000      -0.854904       -23.2631
 161   2.0000      -0.844010       -22.9667
 162   2.0000      -0.842094       -22.9145
 163   2.0000      -0.832981       -22.6666
 164   2.0000      -0.831585       -22.6286
 165   2.0000      -0.823129       -22.3985
 166   2.0000      -0.817067       -22.2335
 167   2.0000      -0.809350       -22.0235
 168   2.0000      -0.799224       -21.7480
 169   2.0000      -0.787432       -21.4271
 170   2.0000      -0.778636       -21.1878
 171   2.0000      -0.776520       -21.1302
 172   2.0000      -0.763922       -20.7874
 173   2.0000      -0.753618       -20.5070
 174   2.0000      -0.741610       -20.1802
 175   2.0000      -0.738102       -20.0848
 176   2.0000      -0.731343       -19.9008
 177   2.0000      -0.722096       -19.6492
 178   2.0000      -0.720539       -19.6069
 179   2.0000      -0.706237       -19.2177
 180   2.0000      -0.697491       -18.9797
 181   2.0000      -0.694121       -18.8880
 182   2.0000      -0.691860       -18.8265
 183   2.0000      -0.686469       -18.6798
 184   2.0000      -0.681099       -18.5336
 185   2.0000      -0.670363       -18.2415
 186   2.0000      -0.664273       -18.0758
 187   2.0000      -0.663188       -18.0463
 188   2.0000      -0.655421       -17.8349
 189   2.0000      -0.652505       -17.7556
 190   2.0000      -0.644947       -17.5499
 191   2.0000      -0.642407       -17.4808
 192   2.0000      -0.632038       -17.1986
 193   2.0000      -0.627648       -17.0792
 194   2.0000      -0.626070       -17.0362
 195   2.0000      -0.619497       -16.8574
 196   2.0000      -0.616965       -16.7885
 197   2.0000      -0.613412       -16.6918
 198   2.0000      -0.605816       -16.4851
 199   2.0000      -0.602726       -16.4010
 200   2.0000      -0.598322       -16.2812
 201   2.0000      -0.596356       -16.2277
 202   2.0000      -0.591268       -16.0892
 203   2.0000      -0.584509       -15.9053
 204   2.0000      -0.578709       -15.7475
 205   2.0000      -0.573069       -15.5940
 206   2.0000      -0.571624       -15.5547
 207   2.0000      -0.570098       -15.5132
 208   2.0000      -0.563894       -15.3443
 209   2.0000      -0.561365       -15.2755
 210   2.0000      -0.556012       -15.1298
 211   2.0000      -0.551810       -15.0155
 212   2.0000      -0.551758       -15.0141
 213   2.0000      -0.547991       -14.9116
 214   2.0000      -0.545677       -14.8486
 215   2.0000      -0.543095       -14.7784
 216   2.0000      -0.542647       -14.7662
 217   2.0000      -0.541518       -14.7355
 218   2.0000      -0.539876       -14.6908
 219   2.0000      -0.539405       -14.6779
 220   2.0000      -0.535087       -14.5605
 221   2.0000      -0.531448       -14.4614
 222   2.0000      -0.531092       -14.4518
 223   2.0000      -0.529463       -14.4074
 224   2.0000      -0.527755       -14.3609
 225   2.0000      -0.524265       -14.2660
 226   2.0000      -0.521120       -14.1804
 227   2.0000      -0.518068       -14.0973
 228   2.0000      -0.515223       -14.0199
 229   2.0000      -0.513395       -13.9702
 230   2.0000      -0.512172       -13.9369
 231   2.0000      -0.511949       -13.9308
 232   2.0000      -0.503865       -13.7109
 233   2.0000      -0.501669       -13.6511
 234   2.0000      -0.501174       -13.6377
 235   2.0000      -0.499425       -13.5901
 236   2.0000      -0.496199       -13.5023
 237   2.0000      -0.495628       -13.4867
 238   2.0000      -0.489242       -13.3130
 239   2.0000      -0.488032       -13.2800
 240   2.0000      -0.487457       -13.2644
 241   2.0000      -0.483864       -13.1666
 242   2.0000      -0.480886       -13.0856
 243   2.0000      -0.475077       -12.9275
 244   2.0000      -0.470980       -12.8160
 245   2.0000      -0.467348       -12.7172
 246   2.0000      -0.464385       -12.6366
 247   2.0000      -0.462411       -12.5829
 248   2.0000      -0.461192       -12.5497
 249   2.0000      -0.458311       -12.4713
 250   2.0000      -0.456305       -12.4167
 251   2.0000      -0.453334       -12.3358
 252   2.0000      -0.451946       -12.2981
 253   2.0000      -0.449348       -12.2274
 254   2.0000      -0.449184       -12.2229
 255   2.0000      -0.447439       -12.1754
 256   2.0000      -0.446999       -12.1635
 257   2.0000      -0.445749       -12.1294
 258   2.0000      -0.442315       -12.0360
 259   2.0000      -0.441847       -12.0233
 260   2.0000      -0.438328       -11.9275
 261   2.0000      -0.437406       -11.9024
 262   2.0000      -0.433625       -11.7995
 263   2.0000      -0.432116       -11.7585
 264   2.0000      -0.429932       -11.6991
 265   2.0000      -0.428836       -11.6692
 266   2.0000      -0.424604       -11.5541
 267   2.0000      -0.420505       -11.4425
 268   2.0000      -0.418486       -11.3876
 269   2.0000      -0.415468       -11.3054
 270   2.0000      -0.414249       -11.2723
 271   2.0000      -0.412603       -11.2275
 272   2.0000      -0.405072       -11.0226
 273   2.0000      -0.401771       -10.9327
 274   2.0000      -0.400274       -10.8920
 275   2.0000      -0.398268       -10.8374
 276   2.0000      -0.394798       -10.7430
 277   2.0000      -0.389444       -10.5973
 278   2.0000      -0.382296       -10.4028
 279   2.0000      -0.381825       -10.3900
 280   2.0000      -0.377246       -10.2654
 281   2.0000      -0.376459       -10.2440
 282   2.0000      -0.370118       -10.0714
 283   2.0000      -0.369976       -10.0676
 284   2.0000      -0.365720        -9.9517
 285   2.0000      -0.360260        -9.8032
 286   2.0000      -0.355003        -9.6601
 287   2.0000      -0.343205        -9.3391
 288   2.0000      -0.339729        -9.2445
 289   2.0000      -0.334426        -9.1002
 290   2.0000      -0.332638        -9.0515
 291   2.0000      -0.330181        -8.9847
 292   2.0000      -0.318563        -8.6685
 293   2.0000      -0.318333        -8.6623
 294   2.0000      -0.309084        -8.4106
 295   2.0000      -0.307566        -8.3693
 296   2.0000      -0.297007        -8.0820
 297   2.0000      -0.288070        -7.8388
 298   2.0000      -0.278995        -7.5919
 299   2.0000      -0.232020        -6.3136
 300   0.0000      -0.124369        -3.3842
 301   0.0000      -0.094198        -2.5633
 302   0.0000      -0.076201        -2.0735
 303   0.0000      -0.060385        -1.6432
 304   0.0000      -0.057185        -1.5561

MULLIKEN ATOMIC CHARGES
-----------------------
   0 C :    0.315968
   1 C :   -0.347002
   2 C :   -0.191689
   3 N :    0.153598
   4 C :   -0.171253
   5 N :    0.123600
   6 C :    0.020857
   7 C :   -0.022636
   8 C :   -0.071400
   9 C :    0.122917
  10 C :   -0.087318
  11 C :   -0.026249
  12 S :    0.184537
  13 C :   -0.123358
  14 C :    0.036391
  15 Br:    0.021392
  16 C :    0.149451
  17 O :   -0.151252
  18 C :   -0.069655
  19 C :    0.011979
  20 C :   -0.161817
  21 S :    0.154769
  22 C :   -0.133390
  23 C :    0.146022
  24 C :    0.224626
  25 O :   -0.172737
  26 C :    0.153718
  27 O :   -0.097651
  28 C :    0.144008
  29 O :   -0.098955
  30 O :   -0.197726
  31 C :    0.024630
  32 C :   -0.017092
  33 C :    0.042149
  34 C :    0.038576
  35 C :   -0.017538
  36 S :    0.046130
  37 C :   -0.028807
  38 C :    0.050226
  39 C :    0.029824
  40 C :   -0.014319
  41 S :    0.095161
  42 C :    0.038306
  43 C :   -0.166086
  44 S :    0.175988
  45 C :   -0.205956
  46 C :    0.227815
  47 C :    0.201115
  48 O :   -0.211430
  49 C :    0.194306
  50 O :   -0.127028
  51 C :    0.180263
  52 O :   -0.107207
  53 O :   -0.179506
  54 C :    0.052577
  55 C :   -0.132466
  56 C :    0.245438
  57 C :   -0.324611
  58 C :   -0.173304
  59 N :    0.148851
  60 C :   -0.197794
  61 N :    0.160978
  62 C :    0.006820
  63 C :   -0.001633
  64 C :    0.140660
  65 O :   -0.132069
  66 C :   -0.069104
  67 C :    0.110850
  68 C :   -0.086526
  69 C :   -0.021405
  70 S :    0.185153
  71 C :   -0.124021
  72 C :    0.041048
  73 Br:    0.025862
  74 H :   -0.010204
  75 H :   -0.006766
  76 H :   -0.003087
  77 H :    0.030112
  78 H :    0.010928
  79 H :    0.001645
  80 H :   -0.004862
  81 H :   -0.003704
  82 H :   -0.001962
  83 H :   -0.009698
  84 H :    0.043060
  85 H :   -0.005562
  86 H :   -0.002820
  87 H :   -0.001647
Sum of atomic charges:   -0.0000000

LOEWDIN ATOMIC CHARGES
----------------------
   0 C :    0.077272
   1 C :   -0.132946
   2 C :   -0.015224
   3 N :   -0.055082
   4 C :   -0.011371
   5 N :   -0.079427
   6 C :   -0.019523
   7 C :   -0.048470
   8 C :    0.022271
   9 C :   -0.032074
  10 C :   -0.144097
  11 C :   -0.009032
  12 S :    0.431294
  13 C :   -0.272371
  14 C :   -0.069890
  15 Br:    0.135486
  16 C :    0.080506
  17 O :   -0.143202
  18 C :   -0.084046
  19 C :    0.042636
  20 C :   -0.194278
  21 S :    0.499349
  22 C :   -0.177852
  23 C :   -0.015870
  24 C :    0.012594
  25 O :    0.000025
  26 C :    0.058299
  27 O :   -0.080683
  28 C :    0.057690
  29 O :   -0.082434
  30 O :   -0.026180
  31 C :   -0.056633
  32 C :   -0.146820
  33 C :   -0.019450
  34 C :   -0.031623
  35 C :   -0.166008
  36 S :    0.400442
  37 C :   -0.176979
  38 C :   -0.019027
  39 C :   -0.028360
  40 C :   -0.130232
  41 S :    0.423469
  42 C :   -0.088313
  43 C :   -0.149202
  44 S :    0.490125
  45 C :   -0.202471
  46 C :    0.028643
  47 C :   -0.023924
  48 O :   -0.016807
  49 C :    0.075664
  50 O :   -0.104207
  51 C :    0.069805
  52 O :   -0.079065
  53 O :   -0.005027
  54 C :    0.049936
  55 C :   -0.093314
  56 C :    0.060371
  57 C :   -0.146133
  58 C :   -0.020234
  59 N :   -0.051952
  60 C :   -0.033066
  61 N :   -0.056332
  62 C :   -0.018268
  63 C :   -0.052247
  64 C :    0.082516
  65 O :   -0.134942
  66 C :    0.024104
  67 C :   -0.032846
  68 C :   -0.143108
  69 C :   -0.013189
  70 S :    0.432552
  71 C :   -0.271568
  72 C :   -0.069236
  73 Br:    0.138693
  74 H :    0.041222
  75 H :    0.041071
  76 H :    0.038920
  77 H :    0.043173
  78 H :    0.047703
  79 H :    0.038686
  80 H :    0.036658
  81 H :    0.037030
  82 H :    0.036665
  83 H :    0.038687
  84 H :    0.057928
  85 H :    0.042732
  86 H :    0.040775
  87 H :    0.039639

  Mayer bond orders larger than 0.100000
B(  0-C ,  1-C ) :   1.6364 B(  0-C ,  6-C ) :   1.0061 B(  0-C , 18-C ) :   1.0719
B(  1-C ,  2-C ) :   1.1479 B(  1-C ,  4-C ) :   1.1578 B(  2-C ,  3-N ) :   2.9725
B(  4-C ,  5-N ) :   2.9291 B(  6-C ,  7-C ) :   1.2727 B(  6-C , 11-C ) :   1.4070
B(  7-C ,  8-C ) :   1.4250 B(  7-C , 16-C ) :   0.9379 B(  8-C ,  9-C ) :   1.2449
B(  8-C , 74-H ) :   1.0171 B(  9-C , 10-C ) :   1.3049 B(  9-C , 14-C ) :   1.1613
B( 10-C , 11-C ) :   1.3303 B( 10-C , 12-S ) :   1.0850 B( 11-C , 75-H ) :   0.9810
B( 12-S , 13-C ) :   1.0860 B( 13-C , 14-C ) :   1.6184 B( 13-C , 15-Br) :   1.0179
B( 14-C , 76-H ) :   1.0011 B( 16-C , 17-O ) :   2.2202 B( 16-C , 18-C ) :   0.9483
B( 18-C , 19-C ) :   1.6105 B( 19-C , 20-C ) :   1.1914 B( 19-C , 77-H ) :   0.9081
B( 20-C , 21-S ) :   1.1233 B( 20-C , 22-C ) :   0.1065 B( 20-C , 24-C ) :   1.3928
B( 21-S , 22-C ) :   1.0898 B( 22-C , 23-C ) :   1.4008 B( 22-C , 31-C ) :   1.2146
B( 23-C , 24-C ) :   1.2974 B( 23-C , 30-O ) :   1.0834 B( 24-C , 25-O ) :   1.0946
B( 25-O , 26-C ) :   1.0747 B( 26-C , 27-O ) :   2.2509 B( 26-C , 28-C ) :   0.8349
B( 28-C , 29-O ) :   2.2535 B( 28-C , 30-O ) :   1.0679 B( 31-C , 32-C ) :   1.5108
B( 31-C , 78-H ) :   0.9811 B( 32-C , 33-C ) :   1.1531 B( 32-C , 36-S ) :   1.0537
B( 33-C , 34-C ) :   1.5754 B( 33-C , 79-H ) :   0.9989 B( 34-C , 35-C ) :   1.2017
B( 34-C , 80-H ) :   0.9956 B( 35-C , 36-S ) :   1.0533 B( 35-C , 37-C ) :   1.4633
B( 37-C , 38-C ) :   1.2040 B( 37-C , 41-S ) :   1.0448 B( 38-C , 39-C ) :   1.5697
B( 38-C , 81-H ) :   0.9961 B( 39-C , 40-C ) :   1.1609 B( 39-C , 82-H ) :   0.9993
B( 40-C , 41-S ) :   1.0784 B( 40-C , 42-C ) :   1.5431 B( 42-C , 43-C ) :   1.2144
B( 42-C , 83-H ) :   0.9380 B( 43-C , 44-S ) :   1.1354 B( 43-C , 45-C ) :   0.1040
B( 43-C , 47-C ) :   1.3639 B( 44-S , 45-C ) :   1.0876 B( 45-C , 46-C ) :   1.4300
B( 45-C , 54-C ) :   1.1497 B( 46-C , 47-C ) :   1.2918 B( 46-C , 53-O ) :   1.1005
B( 47-C , 48-O ) :   1.0397 B( 48-O , 49-C ) :   1.0833 B( 49-C , 50-O ) :   2.1392
B( 49-C , 51-C ) :   0.8496 B( 51-C , 52-O ) :   2.2046 B( 51-C , 53-O ) :   1.0802
B( 54-C , 55-C ) :   1.6169 B( 54-C , 84-H ) :   0.9495 B( 55-C , 56-C ) :   1.0485
B( 55-C , 64-C ) :   0.9375 B( 56-C , 57-C ) :   1.6399 B( 56-C , 62-C ) :   1.0172
B( 57-C , 58-C ) :   1.1324 B( 57-C , 60-C ) :   1.1576 B( 58-C , 59-N ) :   2.9879
B( 60-C , 61-N ) :   3.0180 B( 62-C , 63-C ) :   1.2743 B( 62-C , 69-C ) :   1.4144
B( 63-C , 64-C ) :   0.9191 B( 63-C , 66-C ) :   1.4279 B( 64-C , 65-O ) :   2.2827
B( 66-C , 67-C ) :   1.2515 B( 66-C , 85-H ) :   1.0162 B( 67-C , 68-C ) :   1.3054
B( 67-C , 72-C ) :   1.1653 B( 68-C , 69-C ) :   1.3266 B( 68-C , 70-S ) :   1.0852
B( 69-C , 86-H ) :   0.9840 B( 70-S , 71-C ) :   1.0866 B( 71-C , 72-C ) :   1.6174
B( 71-C , 73-Br) :   1.0198 B( 72-C , 87-H ) :   1.0007

-----------------------------------------------------------------------------
         ABSORPTION SPECTRUM VIA TRANSITION ELECTRIC DIPOLE MOMENTS
-----------------------------------------------------------------------------
State   Energy  Wavelength   fosc         T2         TX        TY        TZ
        (cm-1)    (nm)                  (au**2)     (au)      (au)      (au)
-----------------------------------------------------------------------------
   0    9512.7   1051.2   0.763901544  26.43694  -3.84574   0.90326   3.29111
   1   16011.2    624.6   0.342079229   7.03361  -0.19235  -2.36693   1.18078
   2   19081.6    524.1   0.340891309   5.88133   0.29899   1.91907  -1.45227
   3   20059.9    498.5   0.361770994   5.93718   0.49227   2.09085  -1.15030
   4   21694.3    461.0   0.426209275   6.46774  -1.21509  -1.74967   1.38922
   5   23781.1    420.5   0.042527422   0.58873   0.59746   0.47304  -0.08945
   6   24219.5    412.9   0.192789931   2.62057  -1.56693   0.30867   0.26464
   7   24910.9    401.4   0.330583898   4.36885   0.29994   1.95900  -0.66422
   8   25083.2    398.7   0.104406582   1.37032  -0.30398  -1.03518   0.45421
   9   25943.0    385.5   0.030662560   0.38910  -0.20345  -0.34657   0.47708
  10   25997.0    384.7   0.023938807   0.30315   0.28019   0.39669   0.25937
  11   26884.4    372.0   0.166238592   2.03567  -1.14678   0.38635   0.75585
  12   27299.3    366.3   0.014437255   0.17410  -0.19624   0.24905   0.27124
  13   27495.4    363.7   0.046412559   0.55571   0.29921  -0.68202   0.03224
  14   27979.5    357.4   0.033304365   0.39187   0.53454  -0.29109  -0.14629
  15   28167.3    355.0   0.198117149   2.31554  -0.00099  -1.42575   0.53178
  16   28647.3    349.1   0.040615881   0.46675   0.52841   0.17862  -0.39451
  17   28764.0    347.7   0.012922688   0.14790  -0.28442   0.11559   0.23162
  18   29011.0    344.7   0.043284324   0.49118   0.24719   0.38666  -0.52970
  19   29307.2    341.2   0.399192920   4.48420  -1.43696   1.55513  -0.03012
  20   29656.1    337.2   0.017510444   0.19438   0.43807   0.02373   0.04377
  21   30074.4    332.5   0.037799966   0.41378  -0.34109  -0.48711  -0.24529
  22   30874.9    323.9   0.098074663   1.04575  -0.25717   0.96400   0.22431
  23   31605.3    316.4   0.009447852   0.09841   0.27039  -0.07280  -0.14142
  24   31765.5    314.8   0.335822665   3.48041  -1.84639   0.26445  -0.03618
  25   31932.2    313.2   0.134205654   1.38362   0.65957   0.86055  -0.45611
  26   32266.2    309.9   0.229593808   2.34255  -0.87861   0.25283   1.22746
  27   32569.3    307.0   0.013417967   0.13563  -0.33497   0.01706   0.15209
  28   32775.5    305.1   0.008220046   0.08257   0.19884  -0.00163   0.20743
  29   32891.2    304.0   0.083059920   0.83136  -0.57332  -0.59195   0.39019
  30   33487.8    298.6   0.138642101   1.36296  -1.04982  -0.20537   0.46761
  31   33639.0    297.3   0.003590525   0.03514   0.07129  -0.17234  -0.01881
  32   33704.6    296.7   0.072678422   0.70989  -0.73824   0.39650  -0.08764
  33   33955.1    294.5   0.011747815   0.11390  -0.26494   0.14297   0.15253
  34   34305.2    291.5   0.238583156   2.28958   1.28002  -0.78488  -0.18735
  35   34751.2    287.8   0.025826115   0.24466  -0.34757  -0.32787   0.12791
  36   34956.6    286.1   0.121166727   1.14112   1.00047  -0.36864   0.06539
  37   35232.7    283.8   0.047464841   0.44351  -0.37572  -0.13903   0.53199
  38   35558.7    281.2   0.003553377   0.03290   0.15278  -0.00887   0.09735
  39   35857.6    278.9   0.032401919   0.29749   0.38049   0.26775  -0.28465
  40   36060.5    277.3   0.108031206   0.98626   0.60789  -0.01154  -0.78524
  41   36531.9    273.7   0.291536738   2.62722   0.95788   1.30752  -0.00842
  42   36886.4    271.1   0.001155629   0.01031   0.08870   0.03181  -0.03787
  43   37083.4    269.7   0.016671241   0.14800  -0.19918  -0.22250   0.24253
  44   37216.6    268.7   0.019134823   0.16926   0.17442   0.33824  -0.15631
  45   37456.2    267.0   0.002097051   0.01843  -0.11304  -0.00488   0.07502
  46   37730.2    265.0   0.086650911   0.75607  -0.45547   0.73993  -0.03343
  47   37982.9    263.3   0.006939999   0.06015  -0.18187  -0.05989  -0.15326
  48   38253.1    261.4   0.113507275   0.97686  -0.85078  -0.14245   0.48244
  49   38559.7    259.3   0.078827692   0.67301  -0.69184   0.28446   0.33681
  50   38597.6    259.1   0.035517863   0.30294   0.37408   0.30951  -0.25925
  51   39051.8    256.1   0.026815383   0.22606  -0.20443  -0.42838   0.02756
  52   39202.1    255.1   0.086427775   0.72581   0.67823  -0.29220  -0.42477
  53   39299.7    254.5   0.173044906   1.44959  -1.02070  -0.09796   0.63101
  54   39515.7    253.1   0.021833362   0.18190   0.26668   0.31714   0.10100
  55   39676.5    252.0   0.046419973   0.38517   0.29519  -0.45389  -0.30333
  56   40093.7    249.4   0.062244687   0.51110   0.61473  -0.10247  -0.35029
  57   40167.3    249.0   0.031858562   0.26111  -0.48067   0.15730   0.07299
  58   40179.6    248.9   0.052458404   0.42982  -0.26812   0.03877   0.59702

FINAL SINGLE POINT ENERGY    -10493.781244588747

DIPOLE MOMENT
-------------
                                X             Y             Z
Electronic contribution:    -32.97801     -97.60943      84.70792
Nuclear contribution   :     30.95154     100.75077     -84.54654
                        -----------------------------------------
Total Dipole Moment    :     -2.02647       3.14134       0.16138
                        -----------------------------------------
Magnitude (a.u.)       :      3.74174
Magnitude (Debye)      :      9.51076

Rotational constants in cm-1:     0.000776     0.000277     0.000210
Rotational constants in MHz :    23.269371     8.293919     6.305253

                             ****ORCA TERMINATED NORMALLY****
TOTAL RUN TIME: 0 days 0 hours 23 minutes 0 seconds 200 msec
