                         Program Version 4.2.0 -  RELEASE  -
|  1> # ORCA input file
|  2> # SCF done       -172.780157388473          0.000544859815
|  3> ! CAM-B3LYP def2-SVP def2/J RIJCOSX Grid4 TightSCF
|  4> %maxcore 5000
|  5> %tddft
|  6>     Mode sTDDFT
|  7>     Ethresh 5.0
|  8>     maxcore 5000
|  9> end
| 10>
| 11> %pal
| 12>   nprocs 6
| 13>   end
| 14> * xyz 0 1
| 15>    C       14.43394        -8.63891       -15.91464
| 16>    C       14.61959        -8.15096       -14.67857
| 17>    C       14.95303        -6.81011       -14.30215
| 18>    C       15.07210        -6.62065       -12.96603
| 19>    C       14.84335        -7.78582       -12.18935
| 20>    S       14.47160        -9.14444       -13.21927
| 21>    C       14.88694        -7.88750       -10.80846
| 22>    C       15.16730        -6.86928        -9.87942
| 23>    C       15.11835        -7.28645        -8.57604
| 24>    C       14.80012        -8.64473        -8.41767
| 25>    S       14.56607        -9.39525        -9.97688
| 26>    C       14.66845        -9.31857        -7.20572
| 27>    C       14.34911       -10.64575        -7.04913
| 28>    C       14.20003       -11.26004        -5.80392
| 29>    C       13.86954       -12.58964        -5.52760
| 30>    C       13.77608       -12.88123        -4.18326
| 31>    C       14.02961       -11.78619        -3.35552
| 32>    S       14.40096       -10.37412        -4.30904
| 33>    C       14.00379       -11.68954        -1.95946
| 34>    C       13.72403       -12.65099        -0.98649
| 35>    C       13.77114       -12.16158         0.30008
| 36>    C       14.08644       -10.79851         0.38883
| 37>    S       14.33821       -10.14952        -1.21073
| 38>    C       14.17924       -10.02453         1.54489
| 39>    C       14.46313        -8.67600         1.59852
| 40>    S       14.77733        -7.73773         0.16618
| 41>    C       14.99720        -6.24358         1.04849
| 42>    C       14.83058        -6.46993         2.43557
| 43>    C       14.54010        -7.82872         2.74412
| 44>    C       14.36024        -8.21771         4.07246
| 45>    C       14.46839        -7.27049         5.06643
| 46>    C       14.28388        -7.64690         6.50697
| 47>    F       14.07124        -8.95831         6.69125
| 48>    F       15.35434        -7.32828         7.25787
| 49>    F       13.23713        -7.01265         7.06894
| 50>    C       14.75065        -5.92715         4.76957
| 51>    C       14.92986        -5.52809         3.47059
| 52>    C       15.29498        -5.10209         0.30964
| 53>    S       15.48937        -3.47747         0.95137
| 54>    C       15.77131        -2.73837        -0.62372
| 55>    C       15.77089        -3.75211        -1.59219
| 56>    C       15.49331        -5.03587        -1.07492
| 57>    N       15.56709        -5.88214        -2.14659
| 58>    C       15.90021        -5.09943        -3.21502
| 59>    N       16.04185        -3.84043        -2.92553
| 60>    C       16.01684        -1.37658        -0.75214
| 61>    C       15.87356        -0.68920        -1.94370
| 62>    C       16.43702         0.58718        -2.28164
| 63>    C       17.32531         1.32231        -1.52798
| 64>    C       17.86199         2.56117        -1.92472
| 65>    N       18.32385         3.57872        -2.19309
| 66>    C       17.82393         0.93427        -0.27002
| 67>    N       18.28808         0.67852         0.74992
| 68>    C       15.97056         0.94137        -3.62188
| 69>    C       15.10656        -0.08022        -4.08251
| 70>    C       14.96339        -1.11032        -3.02921
| 71>    O       14.15375        -2.01359        -3.02041
| 72>    C       14.51644        -0.04903        -5.32042
| 73>    C       14.80437         1.03823        -6.15381
| 74>    C       15.66517         2.05556        -5.68414
| 75>    C       16.25395         2.02926        -4.42462
| 76>    S       15.88451         3.30638        -6.87250
| 77>    C       14.83457         2.45087        -7.97018
| 78>    C       14.34159         1.29195        -7.47479
| 79>   Br       14.48985         3.16538        -9.67113
| 80>    H       14.53217        -8.00152       -16.77548
| 81>    H       14.18421        -9.66999       -16.08449
| 82>    H       15.08781        -6.04612       -15.04657
| 83>    H       15.31570        -5.67873       -12.50831
| 84>    H       15.39483        -5.86308       -10.18077
| 85>    H       15.30073        -6.64705        -7.73039
| 86>    H       14.82738        -8.72425        -6.31379
| 87>    H       14.19346       -11.25966        -7.92675
| 88>    H       13.70256       -13.30677        -6.31184
| 89>    H       13.52782       -13.85144        -3.79221
| 90>    H       13.49151       -13.67123        -1.23357
| 91>    H       13.57940       -12.75528         1.17634
| 92>    H       13.99800       -10.53661         2.47952
| 93>    H       14.14292        -9.24472         4.31929
| 94>    H       14.82597        -5.21547         5.57671
| 95>    H       15.14800        -4.49812         3.24165
| 96>    H       15.40570        -6.87577        -2.15167
| 97>    H       16.03690        -5.50503        -4.19823
| 98>    H       16.33038        -0.84629         0.13761
| 99>    H       13.85995        -0.84253        -5.64113
|100>    H       16.89934         2.83278        -4.11145
|101>    H       13.67892         0.64125        -8.01574
|102> *
|103>
|104>                          ****END OF INPUT****

CARTESIAN COORDINATES (ANGSTROEM)
---------------------------------
  C     14.433940   -8.638910  -15.914640
  C     14.619590   -8.150960  -14.678570
  C     14.953030   -6.810110  -14.302150
  C     15.072100   -6.620650  -12.966030
  C     14.843350   -7.785820  -12.189350
  S     14.471600   -9.144440  -13.219270
  C     14.886940   -7.887500  -10.808460
  C     15.167300   -6.869280   -9.879420
  C     15.118350   -7.286450   -8.576040
  C     14.800120   -8.644730   -8.417670
  S     14.566070   -9.395250   -9.976880
  C     14.668450   -9.318570   -7.205720
  C     14.349110  -10.645750   -7.049130
  C     14.200030  -11.260040   -5.803920
  C     13.869540  -12.589640   -5.527600
  C     13.776080  -12.881230   -4.183260
  C     14.029610  -11.786190   -3.355520
  S     14.400960  -10.374120   -4.309040
  C     14.003790  -11.689540   -1.959460
  C     13.724030  -12.650990   -0.986490
  C     13.771140  -12.161580    0.300080
  C     14.086440  -10.798510    0.388830
  S     14.338210  -10.149520   -1.210730
  C     14.179240  -10.024530    1.544890
  C     14.463130   -8.676000    1.598520
  S     14.777330   -7.737730    0.166180
  C     14.997200   -6.243580    1.048490
  C     14.830580   -6.469930    2.435570
  C     14.540100   -7.828720    2.744120
  C     14.360240   -8.217710    4.072460
  C     14.468390   -7.270490    5.066430
  C     14.283880   -7.646900    6.506970
  F     14.071240   -8.958310    6.691250
  F     15.354340   -7.328280    7.257870
  F     13.237130   -7.012650    7.068940
  C     14.750650   -5.927150    4.769570
  C     14.929860   -5.528090    3.470590
  C     15.294980   -5.102090    0.309640
  S     15.489370   -3.477470    0.951370
  C     15.771310   -2.738370   -0.623720
  C     15.770890   -3.752110   -1.592190
  C     15.493310   -5.035870   -1.074920
  N     15.567090   -5.882140   -2.146590
  C     15.900210   -5.099430   -3.215020
  N     16.041850   -3.840430   -2.925530
  C     16.016840   -1.376580   -0.752140
  C     15.873560   -0.689200   -1.943700
  C     16.437020    0.587180   -2.281640
  C     17.325310    1.322310   -1.527980
  C     17.861990    2.561170   -1.924720
  N     18.323850    3.578720   -2.193090
  C     17.823930    0.934270   -0.270020
  N     18.288080    0.678520    0.749920
  C     15.970560    0.941370   -3.621880
  C     15.106560   -0.080220   -4.082510
  C     14.963390   -1.110320   -3.029210
  O     14.153750   -2.013590   -3.020410
  C     14.516440   -0.049030   -5.320420
  C     14.804370    1.038230   -6.153810
  C     15.665170    2.055560   -5.684140
  C     16.253950    2.029260   -4.424620
  S     15.884510    3.306380   -6.872500
  C     14.834570    2.450870   -7.970180
  C     14.341590    1.291950   -7.474790
  Br    14.489850    3.165380   -9.671130
  H     14.532170   -8.001520  -16.775480
  H     14.184210   -9.669990  -16.084490
  H     15.087810   -6.046120  -15.046570
  H     15.315700   -5.678730  -12.508310
  H     15.394830   -5.863080  -10.180770
  H     15.300730   -6.647050   -7.730390
  H     14.827380   -8.724250   -6.313790
  H     14.193460  -11.259660   -7.926750
  H     13.702560  -13.306770   -6.311840
  H     13.527820  -13.851440   -3.792210
  H     13.491510  -13.671230   -1.233570
  H     13.579400  -12.755280    1.176340
  H     13.998000  -10.536610    2.479520
  H     14.142920   -9.244720    4.319290
  H     14.825970   -5.215470    5.576710
  H     15.148000   -4.498120    3.241650
  H     15.405700   -6.875770   -2.151670
  H     16.036900   -5.505030   -4.198230
  H     16.330380   -0.846290    0.137610
  H     13.859950   -0.842530   -5.641130
  H     16.899340    2.832780   -4.111450
  H     13.678920    0.641250   -8.015740

 Total Charge           Charge          ....    0
 Multiplicity           Mult            ....    1
 Number of Electrons    NEL             ....  526
 Basis Dimension        Dim             .... 1066

ORBITAL ENERGIES
----------------

  NO   OCC          E(Eh)            E(eV)
   0   2.0000    -482.873176    -13139.6471
   1   2.0000     -88.975381     -2421.1432
   2   2.0000     -88.969451     -2420.9818
   3   2.0000     -88.966801     -2420.9097
   4   2.0000     -88.966528     -2420.9023
   5   2.0000     -88.965624     -2420.8777
   6   2.0000     -88.960435     -2420.7365
   7   2.0000     -88.957809     -2420.6651
   8   2.0000     -62.550895     -1702.0964
   9   2.0000     -56.384815     -1534.3088
  10   2.0000     -56.382155     -1534.2364
  11   2.0000     -56.382112     -1534.2353
  12   2.0000     -24.795395      -674.7170
  13   2.0000     -24.787613      -674.5052
  14   2.0000     -24.786771      -674.4823
  15   2.0000     -19.180539      -521.9290
  16   2.0000     -14.477700      -393.9583
  17   2.0000     -14.394013      -391.6810
  18   2.0000     -14.386818      -391.4852
  19   2.0000     -14.386426      -391.4746
  20   2.0000     -10.508415      -285.9485
  21   2.0000     -10.344204      -281.4801
  22   2.0000     -10.342083      -281.4224
  23   2.0000     -10.340362      -281.3755
  24   2.0000     -10.333151      -281.1793
  25   2.0000     -10.332871      -281.1717
  26   2.0000     -10.332210      -281.1537
  27   2.0000     -10.330869      -281.1172
  28   2.0000     -10.330674      -281.1119
  29   2.0000     -10.330369      -281.1036
  30   2.0000     -10.325903      -280.9821
  31   2.0000     -10.323417      -280.9145
  32   2.0000     -10.321652      -280.8664
  33   2.0000     -10.319404      -280.8053
  34   2.0000     -10.315160      -280.6898
  35   2.0000     -10.312824      -280.6262
  36   2.0000     -10.311417      -280.5879
  37   2.0000     -10.310738      -280.5694
  38   2.0000     -10.310137      -280.5531
  39   2.0000     -10.309866      -280.5457
  40   2.0000     -10.308075      -280.4970
  41   2.0000     -10.307483      -280.4809
  42   2.0000     -10.304091      -280.3886
  43   2.0000     -10.303282      -280.3665
  44   2.0000     -10.302316      -280.3403
  45   2.0000     -10.299866      -280.2736
  46   2.0000     -10.299123      -280.2534
  47   2.0000     -10.298602      -280.2392
  48   2.0000     -10.298554      -280.2379
  49   2.0000     -10.298052      -280.2242
  50   2.0000     -10.297924      -280.2208
  51   2.0000     -10.296744      -280.1887
  52   2.0000     -10.296462      -280.1810
  53   2.0000     -10.295893      -280.1655
  54   2.0000     -10.295852      -280.1644
  55   2.0000     -10.295109      -280.1442
  56   2.0000     -10.291659      -280.0503
  57   2.0000     -10.291651      -280.0501
  58   2.0000     -10.291312      -280.0408
  59   2.0000     -10.291242      -280.0389
  60   2.0000     -10.288995      -279.9778
  61   2.0000     -10.286228      -279.9025
  62   2.0000     -10.285694      -279.8880
  63   2.0000     -10.282799      -279.8092
  64   2.0000     -10.281665      -279.7783
  65   2.0000     -10.280952      -279.7589
  66   2.0000     -10.277348      -279.6609
  67   2.0000     -10.266248      -279.3588
  68   2.0000     -10.261858      -279.2394
  69   2.0000      -8.780317      -238.9246
  70   2.0000      -8.070339      -219.6051
  71   2.0000      -8.065718      -219.4793
  72   2.0000      -8.063144      -219.4093
  73   2.0000      -8.062513      -219.3921
  74   2.0000      -8.062408      -219.3893
  75   2.0000      -8.054804      -219.1824
  76   2.0000      -8.053682      -219.1518
  77   2.0000      -6.616479      -180.0435
  78   2.0000      -6.602103      -179.6524
  79   2.0000      -6.601967      -179.6487
  80   2.0000      -6.039661      -164.3475
  81   2.0000      -6.035505      -164.2345
  82   2.0000      -6.035312      -164.2292
  83   2.0000      -6.032666      -164.1572
  84   2.0000      -6.032465      -164.1517
  85   2.0000      -6.032125      -164.1425
  86   2.0000      -6.032058      -164.1406
  87   2.0000      -6.031346      -164.1213
  88   2.0000      -6.028708      -164.0495
  89   2.0000      -6.028185      -164.0352
  90   2.0000      -6.027877      -164.0269
  91   2.0000      -6.026855      -163.9991
  92   2.0000      -6.024611      -163.9380
  93   2.0000      -6.024442      -163.9334
  94   2.0000      -6.023991      -163.9211
  95   2.0000      -6.023397      -163.9050
  96   2.0000      -6.023119      -163.8974
  97   2.0000      -6.020273      -163.8199
  98   2.0000      -6.019122      -163.7886
  99   2.0000      -6.016226      -163.7098
 100   2.0000      -6.014923      -163.6744
 101   2.0000      -2.732388       -74.3520
 102   2.0000      -2.728303       -74.2409
 103   2.0000      -2.728246       -74.2393
 104   2.0000      -2.716794       -73.9277
 105   2.0000      -2.716786       -73.9275
 106   2.0000      -1.379603       -37.5409
 107   2.0000      -1.284520       -34.9536
 108   2.0000      -1.278048       -34.7775
 109   2.0000      -1.121907       -30.5286
 110   2.0000      -1.095569       -29.8119
 111   2.0000      -1.017761       -27.6947
 112   2.0000      -1.015932       -27.6449
 113   2.0000      -1.009586       -27.4722
 114   2.0000      -1.000448       -27.2236
 115   2.0000      -0.995028       -27.0761
 116   2.0000      -0.989787       -26.9335
 117   2.0000      -0.987233       -26.8640
 118   2.0000      -0.978825       -26.6352
 119   2.0000      -0.972156       -26.4537
 120   2.0000      -0.966169       -26.2908
 121   2.0000      -0.962632       -26.1945
 122   2.0000      -0.949471       -25.8364
 123   2.0000      -0.926468       -25.2105
 124   2.0000      -0.920864       -25.0580
 125   2.0000      -0.909174       -24.7399
 126   2.0000      -0.896305       -24.3897
 127   2.0000      -0.887262       -24.1436
 128   2.0000      -0.880895       -23.9704
 129   2.0000      -0.874324       -23.7916
 130   2.0000      -0.867834       -23.6150
 131   2.0000      -0.864842       -23.5335
 132   2.0000      -0.862904       -23.4808
 133   2.0000      -0.860072       -23.4037
 134   2.0000      -0.856205       -23.2985
 135   2.0000      -0.846744       -23.0411
 136   2.0000      -0.842076       -22.9141
 137   2.0000      -0.835500       -22.7351
 138   2.0000      -0.829734       -22.5782
 139   2.0000      -0.825516       -22.4634
 140   2.0000      -0.812986       -22.1225
 141   2.0000      -0.807677       -21.9780
 142   2.0000      -0.794395       -21.6166
 143   2.0000      -0.783092       -21.3090
 144   2.0000      -0.770530       -20.9672
 145   2.0000      -0.758982       -20.6530
 146   2.0000      -0.740265       -20.1436
 147   2.0000      -0.730247       -19.8710
 148   2.0000      -0.725998       -19.7554
 149   2.0000      -0.724456       -19.7134
 150   2.0000      -0.714973       -19.4554
 151   2.0000      -0.710797       -19.3418
 152   2.0000      -0.706251       -19.2181
 153   2.0000      -0.695035       -18.9129
 154   2.0000      -0.691973       -18.8295
 155   2.0000      -0.683363       -18.5953
 156   2.0000      -0.680013       -18.5041
 157   2.0000      -0.664130       -18.0719
 158   2.0000      -0.661896       -18.0111
 159   2.0000      -0.661363       -17.9966
 160   2.0000      -0.661104       -17.9896
 161   2.0000      -0.659537       -17.9469
 162   2.0000      -0.654550       -17.8112
 163   2.0000      -0.645730       -17.5712
 164   2.0000      -0.643409       -17.5081
 165   2.0000      -0.636084       -17.3087
 166   2.0000      -0.632135       -17.2013
 167   2.0000      -0.627412       -17.0727
 168   2.0000      -0.623789       -16.9742
 169   2.0000      -0.620326       -16.8799
 170   2.0000      -0.614182       -16.7127
 171   2.0000      -0.613470       -16.6934
 172   2.0000      -0.609263       -16.5789
 173   2.0000      -0.599179       -16.3045
 174   2.0000      -0.581663       -15.8279
 175   2.0000      -0.580507       -15.7964
 176   2.0000      -0.576187       -15.6788
 177   2.0000      -0.569914       -15.5081
 178   2.0000      -0.563887       -15.3441
 179   2.0000      -0.558828       -15.2065
 180   2.0000      -0.552875       -15.0445
 181   2.0000      -0.548120       -14.9151
 182   2.0000      -0.544812       -14.8251
 183   2.0000      -0.542110       -14.7516
 184   2.0000      -0.540209       -14.6998
 185   2.0000      -0.539686       -14.6856
 186   2.0000      -0.536714       -14.6047
 187   2.0000      -0.534072       -14.5328
 188   2.0000      -0.531446       -14.4614
 189   2.0000      -0.529834       -14.4175
 190   2.0000      -0.522856       -14.2276
 191   2.0000      -0.521725       -14.1969
 192   2.0000      -0.519665       -14.1408
 193   2.0000      -0.518611       -14.1121
 194   2.0000      -0.517562       -14.0836
 195   2.0000      -0.512540       -13.9469
 196   2.0000      -0.511267       -13.9123
 197   2.0000      -0.509895       -13.8749
 198   2.0000      -0.508067       -13.8252
 199   2.0000      -0.505446       -13.7539
 200   2.0000      -0.503443       -13.6994
 201   2.0000      -0.499351       -13.5880
 202   2.0000      -0.497759       -13.5447
 203   2.0000      -0.496535       -13.5114
 204   2.0000      -0.494527       -13.4568
 205   2.0000      -0.489046       -13.3076
 206   2.0000      -0.488509       -13.2930
 207   2.0000      -0.487484       -13.2651
 208   2.0000      -0.486254       -13.2316
 209   2.0000      -0.483403       -13.1541
 210   2.0000      -0.480297       -13.0695
 211   2.0000      -0.478627       -13.0241
 212   2.0000      -0.478164       -13.0115
 213   2.0000      -0.475679       -12.9439
 214   2.0000      -0.471457       -12.8290
 215   2.0000      -0.467728       -12.7275
 216   2.0000      -0.462604       -12.5881
 217   2.0000      -0.461422       -12.5559
 218   2.0000      -0.455357       -12.3909
 219   2.0000      -0.454137       -12.3577
 220   2.0000      -0.450249       -12.2519
 221   2.0000      -0.448882       -12.2147
 222   2.0000      -0.446234       -12.1426
 223   2.0000      -0.442469       -12.0402
 224   2.0000      -0.440711       -11.9923
 225   2.0000      -0.438500       -11.9322
 226   2.0000      -0.437473       -11.9043
 227   2.0000      -0.430166       -11.7054
 228   2.0000      -0.426448       -11.6042
 229   2.0000      -0.425325       -11.5737
 230   2.0000      -0.423131       -11.5140
 231   2.0000      -0.420731       -11.4487
 232   2.0000      -0.419218       -11.4075
 233   2.0000      -0.417563       -11.3625
 234   2.0000      -0.416874       -11.3437
 235   2.0000      -0.409943       -11.1551
 236   2.0000      -0.400251       -10.8914
 237   2.0000      -0.397818       -10.8252
 238   2.0000      -0.395988       -10.7754
 239   2.0000      -0.393611       -10.7107
 240   2.0000      -0.386220       -10.5096
 241   2.0000      -0.382105       -10.3976
 242   2.0000      -0.373974       -10.1764
 243   2.0000      -0.368872       -10.0375
 244   2.0000      -0.362964        -9.8768
 245   2.0000      -0.360390        -9.8067
 246   2.0000      -0.359132        -9.7725
 247   2.0000      -0.352535        -9.5930
 248   2.0000      -0.351577        -9.5669
 249   2.0000      -0.345982        -9.4147
 250   2.0000      -0.344306        -9.3690
 251   2.0000      -0.341333        -9.2881
 252   2.0000      -0.330675        -8.9981
 253   2.0000      -0.326407        -8.8820
 254   2.0000      -0.322183        -8.7671
 255   2.0000      -0.310559        -8.4507
 256   2.0000      -0.303426        -8.2566
 257   2.0000      -0.293582        -7.9888
 258   2.0000      -0.290567        -7.9067
 259   2.0000      -0.275455        -7.4955
 260   2.0000      -0.266703        -7.2574
 261   2.0000      -0.237637        -6.4664
 262   2.0000      -0.195942        -5.3318
 263   0.0000      -0.126868        -3.4523
 264   0.0000      -0.081974        -2.2306
 265   0.0000      -0.057602        -1.5674
 266   0.0000      -0.039367        -1.0712
 267   0.0000      -0.026853        -0.7307

MULLIKEN ATOMIC CHARGES
-----------------------
   0 C :   -0.008403
   1 C :   -0.075800
   2 C :    0.063558
   3 C :    0.028064
   4 C :   -0.054879
   5 S :    0.104492
   6 C :   -0.054896
   7 C :    0.032810
   8 C :    0.024102
   9 C :   -0.012375
  10 S :    0.101332
  11 C :   -0.022556
  12 C :    0.022509
  13 C :   -0.039297
  14 C :    0.037453
  15 C :    0.008884
  16 C :   -0.019252
  17 S :    0.069777
  18 C :   -0.032566
  19 C :    0.033975
  20 C :    0.013875
  21 C :   -0.030570
  22 S :    0.043568
  23 C :   -0.010151
  24 C :   -0.042094
  25 S :    0.037764
  26 C :   -0.075573
  27 C :    0.100372
  28 C :    0.117474
  29 C :   -0.048762
  30 C :   -0.099308
  31 C :    0.515679
  32 F :   -0.161401
  33 F :   -0.169951
  34 F :   -0.170780
  35 C :    0.028413
  36 C :   -0.031946
  37 C :   -0.138076
  38 S :    0.127292
  39 C :   -0.180535
  40 C :    0.103634
  41 C :    0.058921
  42 N :   -0.055329
  43 C :    0.131363
  44 N :   -0.075770
  45 C :    0.023697
  46 C :   -0.122421
  47 C :    0.312607
  48 C :   -0.374303
  49 C :   -0.186623
  50 N :    0.130723
  51 C :   -0.200237
  52 N :    0.138960
  53 C :    0.022059
  54 C :   -0.005643
  55 C :    0.141611
  56 O :   -0.157626
  57 C :   -0.086657
  58 C :    0.123326
  59 C :   -0.092711
  60 C :   -0.033317
  61 S :    0.173480
  62 C :   -0.123447
  63 C :    0.031695
  64 Br:    0.003302
  65 H :    0.032869
  66 H :    0.032413
  67 H :    0.000849
  68 H :   -0.002828
  69 H :   -0.004233
  70 H :   -0.007532
  71 H :   -0.008086
  72 H :   -0.000204
  73 H :   -0.006115
  74 H :   -0.010318
  75 H :   -0.012471
  76 H :   -0.010437
  77 H :   -0.012436
  78 H :   -0.014640
  79 H :    0.005047
  80 H :   -0.005509
  81 H :    0.139294
  82 H :    0.007742
  83 H :    0.012088
  84 H :   -0.024463
  85 H :   -0.011678
  86 H :   -0.012868
Sum of atomic charges:   -0.0000000

LOEWDIN ATOMIC CHARGES
----------------------
   0 C :   -0.047380
   1 C :   -0.142581
   2 C :   -0.015023
   3 C :   -0.027547
   4 C :   -0.156885
   5 S :    0.374851
   6 C :   -0.187917
   7 C :   -0.017552
   8 C :   -0.041746
   9 C :   -0.128926
  10 S :    0.392403
  11 C :   -0.076759
  12 C :   -0.027442
  13 C :   -0.163164
  14 C :   -0.022080
  15 C :   -0.048555
  16 C :   -0.155152
  17 S :    0.387455
  18 C :   -0.199319
  19 C :   -0.031840
  20 C :   -0.048983
  21 C :   -0.145698
  22 S :    0.384623
  23 C :   -0.085962
  24 C :   -0.146278
  25 S :    0.436881
  26 C :   -0.207109
  27 C :   -0.028282
  28 C :   -0.046888
  29 C :    0.010680
  30 C :   -0.088842
  31 C :    0.169006
  32 F :   -0.059752
  33 F :   -0.067153
  34 F :   -0.068976
  35 C :    0.004437
  36 C :   -0.014746
  37 C :   -0.170284
  38 S :    0.444651
  39 C :   -0.189021
  40 C :   -0.017585
  41 C :   -0.052005
  42 N :    0.060051
  43 C :    0.064797
  44 N :   -0.100231
  45 C :    0.035562
  46 C :   -0.112808
  47 C :    0.073371
  48 C :   -0.163996
  49 C :   -0.019262
  50 N :   -0.076693
  51 C :   -0.021796
  52 N :   -0.072688
  53 C :   -0.016138
  54 C :   -0.040930
  55 C :    0.077460
  56 O :   -0.151069
  57 C :    0.010504
  58 C :   -0.038705
  59 C :   -0.148083
  60 C :   -0.016206
  61 S :    0.422309
  62 C :   -0.278509
  63 C :   -0.073725
  64 Br:    0.121344
  65 H :    0.034461
  66 H :    0.031184
  67 H :    0.038579
  68 H :    0.036105
  69 H :    0.035523
  70 H :    0.035931
  71 H :    0.025798
  72 H :    0.032992
  73 H :    0.036337
  74 H :    0.033658
  75 H :    0.033340
  76 H :    0.034175
  77 H :    0.040109
  78 H :    0.032095
  79 H :    0.038765
  80 H :    0.022364
  81 H :    0.077483
  82 H :    0.018977
  83 H :    0.040944
  84 H :    0.035298
  85 H :    0.039192
  86 H :    0.034579

  Mayer bond orders larger than 0.100000
B(  0-C ,  1-C ) :   1.8515 B(  0-C , 65-H ) :   0.9513 B(  0-C , 66-H ) :   0.9421
B(  1-C ,  2-C ) :   1.0874 B(  1-C ,  5-S ) :   1.0053 B(  2-C ,  3-C ) :   1.6404
B(  2-C , 67-H ) :   0.9937 B(  3-C ,  4-C ) :   1.1737 B(  3-C , 68-H ) :   0.9927
B(  4-C ,  5-S ) :   1.0762 B(  4-C ,  6-C ) :   1.4788 B(  6-C ,  7-C ) :   1.2281
B(  6-C , 10-S ) :   1.0448 B(  7-C ,  8-C ) :   1.5246 B(  7-C , 69-H ) :   0.9940
B(  8-C ,  9-C ) :   1.2113 B(  8-C , 70-H ) :   1.0010 B(  9-C , 10-S ) :   1.0741
B(  9-C , 11-C ) :   1.4374 B( 11-C , 12-C ) :   1.2996 B( 11-C , 71-H ) :   0.9679
B( 12-C , 13-C ) :   1.4236 B( 12-C , 72-H ) :   0.9755 B( 13-C , 14-C ) :   1.2550
B( 13-C , 17-S ) :   1.0500 B( 14-C , 15-C ) :   1.4604 B( 14-C , 73-H ) :   1.0001
B( 15-C , 16-C ) :   1.2991 B( 15-C , 74-H ) :   0.9968 B( 16-C , 17-S ) :   1.0860
B( 16-C , 18-C ) :   1.3479 B( 18-C , 19-C ) :   1.2958 B( 18-C , 22-S ) :   1.0528
B( 19-C , 20-C ) :   1.4716 B( 19-C , 75-H ) :   0.9938 B( 20-C , 21-C ) :   1.2505
B( 20-C , 76-H ) :   0.9995 B( 21-C , 22-S ) :   1.0755 B( 21-C , 23-C ) :   1.3852
B( 23-C , 24-C ) :   1.3746 B( 23-C , 77-H ) :   0.9628 B( 24-C , 25-S ) :   1.1088
B( 24-C , 28-C ) :   1.1863 B( 25-S , 26-C ) :   1.0663 B( 26-C , 27-C ) :   1.2541
B( 26-C , 37-C ) :   1.3477 B( 27-C , 28-C ) :   1.2542 B( 27-C , 36-C ) :   1.2380
B( 28-C , 29-C ) :   1.2572 B( 29-C , 30-C ) :   1.4876 B( 29-C , 78-H ) :   0.9913
B( 30-C , 31-C ) :   0.9573 B( 30-C , 35-C ) :   1.2569 B( 31-C , 32-F ) :   1.1536
B( 31-C , 33-F ) :   1.1587 B( 31-C , 34-F ) :   1.1613 B( 35-C , 36-C ) :   1.5049
B( 35-C , 79-H ) :   0.9902 B( 36-C , 80-H ) :   0.9846 B( 37-C , 38-S ) :   1.1166
B( 37-C , 41-C ) :   1.3202 B( 38-S , 39-C ) :   1.0464 B( 39-C , 40-C ) :   1.2728
B( 39-C , 45-C ) :   1.3414 B( 40-C , 41-C ) :   1.3168 B( 40-C , 44-N ) :   1.3622
B( 41-C , 42-N ) :   1.1803 B( 42-N , 43-C ) :   1.1860 B( 42-N , 81-H ) :   0.9189
B( 43-C , 44-N ) :   1.6778 B( 43-C , 82-H ) :   0.9788 B( 45-C , 46-C ) :   1.4332
B( 45-C , 83-H ) :   0.9301 B( 46-C , 47-C ) :   1.1547 B( 46-C , 55-C ) :   0.9781
B( 47-C , 48-C ) :   1.5736 B( 47-C , 53-C ) :   0.9854 B( 48-C , 49-C ) :   1.1527
B( 48-C , 51-C ) :   1.1550 B( 49-C , 50-N ) :   2.9604 B( 51-C , 52-N ) :   2.9757
B( 53-C , 54-C ) :   1.2834 B( 53-C , 60-C ) :   1.4193 B( 54-C , 55-C ) :   0.9223
B( 54-C , 57-C ) :   1.4375 B( 55-C , 56-O ) :   2.2174 B( 57-C , 58-C ) :   1.2330
B( 57-C , 84-H ) :   1.0163 B( 58-C , 59-C ) :   1.3232 B( 58-C , 63-C ) :   1.1581
B( 59-C , 60-C ) :   1.3178 B( 59-C , 61-S ) :   1.0781 B( 60-C , 85-H ) :   0.9805
B( 61-S , 62-C ) :   1.0856 B( 62-C , 63-C ) :   1.6206 B( 62-C , 64-Br) :   1.0069
B( 63-C , 86-H ) :   1.0003

-----------------------------------------------------------------------------
         ABSORPTION SPECTRUM VIA TRANSITION ELECTRIC DIPOLE MOMENTS
-----------------------------------------------------------------------------
State   Energy  Wavelength   fosc         T2         TX        TY        TZ
        (cm-1)    (nm)                  (au**2)     (au)      (au)      (au)
-----------------------------------------------------------------------------
   0    3618.1   2763.9   0.282981174  25.74888   0.43078   2.62799   4.31937
   1   10515.1    951.0   0.015743569   0.49291  -0.09269  -0.48054  -0.50339
   2   14180.8    705.2   2.450371013  56.88627   1.05984   5.20214  -5.35730
   3   17037.7    586.9   0.005141748   0.09935  -0.08087  -0.12826   0.27634
   4   19330.4    517.3   0.018828424   0.32066   0.25413   0.20920   0.46078
   5   20634.9    484.6   0.002350386   0.03750   0.12065   0.11363  -0.10016
   6   21688.0    461.1   0.007606848   0.11547   0.09720  -0.21128  -0.24775
   7   22216.5    450.1   0.076283240   1.13039   0.31091  -0.22528   0.99145
   8   22245.5    449.5   0.022072277   0.32665  -0.00679   0.05451  -0.56889
   9   23650.8    422.8   0.024132271   0.33591   0.08423   0.26490  -0.50857
  10   25283.2    395.5   0.054546575   0.71025  -0.25439   0.29912  -0.74570
  11   25525.5    391.8   0.016043102   0.20691   0.07023   0.22812  -0.38723
  12   26499.5    377.4   0.003421886   0.04251   0.02488   0.19883   0.04857
  13   26877.9    372.1   0.004906063   0.06009  -0.06554  -0.22324  -0.07719
  14   26968.7    370.8   0.000251202   0.00307  -0.00745   0.04688  -0.02852
  15   27237.9    367.1   0.057212038   0.69150  -0.00359  -0.19930  -0.80732
  16   27741.6    360.5   0.052645462   0.62475   0.05011   0.40596  -0.67634
  17   28886.7    346.2   0.062871077   0.71652  -0.03648  -0.19254  -0.82348
  18   29366.4    340.5   0.035466722   0.39760   0.05699   0.36353  -0.51205
  19   29854.6    335.0   0.053652630   0.59164   0.53218   0.03010   0.55454
  20   29940.1    334.0   0.029251088   0.32164   0.28389  -0.25740   0.41808
  21   30346.3    329.5   0.249542974   2.70717  -0.57427  -0.50731  -1.45603
  22   30875.3    323.9   0.095275066   1.01588   0.24081   0.39680   0.89467
  23   31210.7    320.4   0.009940825   0.10486  -0.17030   0.15353  -0.22865
  24   31628.9    316.2   0.076932578   0.80076   0.02184  -0.32216  -0.83456
  25   31798.3    314.5   0.027678130   0.28656   0.12692   0.22975   0.46654
  26   32057.9    311.9   0.051187934   0.52566  -0.02685   0.46796  -0.55314
  27   32370.6    308.9   0.013294688   0.13521  -0.29045  -0.06794  -0.21501
  28   32460.6    308.1   0.002701656   0.02740   0.02427  -0.14804  -0.06997
  29   32705.1    305.8   0.111405820   1.12142  -0.23866  -0.85645  -0.57529
  30   32822.5    304.7   0.002606382   0.02614  -0.05377  -0.11241  -0.10303
  31   33042.9    302.6   0.068784035   0.68531   0.31424   0.73751   0.20649
  32   33372.8    299.6   0.247143091   2.43799  -0.13541   1.43058   0.61082
  33   33716.8    296.6   0.031046323   0.30314   0.40383  -0.26609   0.26317
  34   33871.7    295.2   0.239161437   2.32450  -0.65977   0.08590  -1.37180
  35   34332.7    291.3   0.041616539   0.39906   0.30582  -0.23727   0.49923
  36   34692.2    288.2   0.055129617   0.52315   0.15107  -0.06252  -0.70457
  37   35020.1    285.6   0.069599027   0.65428   0.04809   0.30512   0.74757
  38   35284.8    283.4   0.012036776   0.11230   0.11218   0.08881   0.30304
  39   35794.9    279.4   0.194446950   1.78836   0.42932   0.39517   1.20328
  40   36529.2    273.8   0.005730585   0.05165   0.01732  -0.16194   0.15850
  41   36717.5    272.3   0.007869396   0.07056  -0.08432  -0.25094  -0.02186
  42   37175.9    269.0   0.000277306   0.00246   0.04177   0.01767  -0.01997
  43   37199.6    268.8   0.037718302   0.33380   0.22870   0.26249  -0.46108
  44   37523.8    266.5   0.033938851   0.29776  -0.04922   0.34563  -0.41938
  45   37784.7    264.7   0.007935567   0.06914   0.00387  -0.21520  -0.15105
  46   38013.3    263.1   0.022138331   0.19173  -0.39626  -0.18606   0.00946
  47   38030.9    262.9   0.190297402   1.64730  -0.64052  -0.81026  -0.76191
  48   38227.8    261.6   0.001698929   0.01463   0.02721  -0.09221   0.07340
  49   38483.3    259.9   0.000375629   0.00321  -0.00066   0.04953  -0.02756
  50   38949.9    256.7   0.008065630   0.06817  -0.11568  -0.03251  -0.23180
  51   39148.2    255.4   0.113796612   0.95696   0.28386   0.65474   0.66910
  52   39420.8    253.7   0.011202039   0.09355   0.29168   0.07436  -0.05428
  53   39598.9    252.5   0.030266597   0.25163   0.00496  -0.17987   0.46824
  54   39710.2    251.8   0.069447921   0.57575  -0.26819  -0.28128  -0.65170

FINAL SINGLE POINT ENERGY     -7831.499575809223

DIPOLE MOMENT
-------------
                                X             Y             Z
Electronic contribution:     -2.79645     104.27875      -3.32500
Nuclear contribution   :      0.91498    -110.71424      -2.35815
                        -----------------------------------------
Total Dipole Moment    :     -1.88146      -6.43549      -5.68315
                        -----------------------------------------
Magnitude (a.u.)       :      8.78940
Magnitude (Debye)      :     22.34088

Rotational constants in cm-1:     0.000650     0.000469     0.000279
Rotational constants in MHz :    19.500619    14.057066     8.351868

                             ****ORCA TERMINATED NORMALLY****
TOTAL RUN TIME: 0 days 0 hours 9 minutes 48 seconds 806 msec
