                         Program Version 4.2.0 -  RELEASE  -
|  1> # ORCA input file
|  2> # SCF done       -162.127220197023          0.000814880029
|  3> ! CAM-B3LYP def2-SVP def2/J RIJCOSX Grid4 TightSCF
|  4> %maxcore 5000
|  5> %tddft
|  6>     Mode sTDDFT
|  7>     Ethresh 5.0
|  8>     maxcore 5000
|  9> end
| 10>
| 11> %pal
| 12>   nprocs 6
| 13>   end
| 14> * xyz 0 1
| 15>    C        8.47325        -5.33894        -8.20952
| 16>    C        8.65740        -4.61863        -7.09451
| 17>    C        9.29233        -3.33778        -6.97266
| 18>    C        9.33284        -2.85202        -5.71222
| 19>    C        8.73805        -3.69868        -4.73601
| 20>    S        8.12005        -5.15458        -5.49427
| 21>    C        8.62735        -3.46658        -3.38630
| 22>    C        9.07878        -2.33774        -2.65832
| 23>    C        8.80978        -2.39714        -1.32853
| 24>    C        8.12704        -3.57217        -0.91724
| 25>    S        7.85140        -4.61175        -2.30441
| 26>    C        7.72734        -3.84987         0.36408
| 27>    C        7.03606        -4.97572         0.83386
| 28>    C        6.61271        -5.17313         2.15018
| 29>    C        5.93569        -6.36516         2.31891
| 30>    C        5.83512        -7.10707         1.13410
| 31>    S        6.57872        -6.32207        -0.20038
| 32>    C        5.12007        -8.29123         1.39537
| 33>    C        4.74940        -8.31749         2.74439
| 34>    C        5.25423        -7.08909         3.44345
| 35>    C        4.01600        -9.44252         3.08627
| 36>    C        3.81820       -10.29753         2.00947
| 37>    S        4.56914        -9.67627         0.54590
| 38>    C        3.11495       -11.52404         1.94290
| 39>    C        2.41249       -12.07129         2.96822
| 40>    C        1.69441       -13.28973         2.90544
| 41>    C        1.59348       -14.21712         1.87752
| 42>    C        0.77481       -15.28818         2.20586
| 43>    C        0.23362       -15.19089         3.49068
| 44>    S        0.74702       -13.77228         4.30624
| 45>    C       -0.59086       -16.30924         3.73098
| 46>    C       -0.57816       -17.13669         2.60443
| 47>    C        0.30103       -16.54733         1.53987
| 48>    C       -1.37267       -18.26451         2.75034
| 49>    C       -2.00850       -18.31182         3.98367
| 50>    S       -1.59514       -16.92265         4.97829
| 51>    C       -2.90944       -19.26949         4.50643
| 52>    C       -3.29338       -20.41487         3.88817
| 53>    C       -4.22022       -21.33906         4.42449
| 54>    C       -4.62124       -22.54047         3.85575
| 55>    C       -5.55898       -23.21107         4.62729
| 56>    C       -5.88886       -22.52379         5.79898
| 57>    S       -5.03081       -21.04475         5.95671
| 58>    C       -6.84936       -23.26454         6.51410
| 59>    C       -7.14044       -24.43892         5.80872
| 60>    C       -6.33467       -24.49313         4.54322
| 61>    C       -8.07969       -25.23511         6.44083
| 62>    C       -8.52903       -24.68389         7.63812
| 63>    S       -7.74975       -23.13920         7.96808
| 64>    C       -9.47282       -25.17689         8.55927
| 65>    C      -10.12401       -26.37461         8.46015
| 66>    C      -11.06168       -26.82191         9.39945
| 67>    C      -11.70815       -28.03141         9.33836
| 68>    C      -12.66710       -28.53295        10.25214
| 69>    C      -13.13821       -29.77271         9.95136
| 70>    C      -12.57785       -30.33262         8.77724
| 71>    S      -11.43199       -29.21287         8.06475
| 72>    C      -12.83658       -31.56397         8.22299
| 73>    C      -13.73287       -32.55760         8.70302
| 74>    C      -13.77554       -33.68179         7.95321
| 75>    C      -12.90874       -33.66624         6.81049
| 76>    S      -12.04297       -32.12219         6.76114
| 77>    C      -12.73713       -34.63104         5.89605
| 78>    H        8.81766        -4.97424        -9.16109
| 79>    H        7.98318        -6.29485        -8.19114
| 80>    H        9.68957        -2.83826        -7.83853
| 81>    H        9.76987        -1.90724        -5.44079
| 82>    H        9.58479        -1.51879        -3.13725
| 83>    H        9.07471        -1.63268        -0.61893
| 84>    H        7.96116        -3.10309         1.11314
| 85>    H        6.80164        -4.45207         2.92531
| 86>    H        5.95021        -7.33763         4.24778
| 87>    H        4.44200        -6.50064         3.87515
| 88>    H        3.63782        -9.64721         4.07100
| 89>    H        3.14138       -12.02951         0.98794
| 90>    H        2.36497       -11.55051         3.91436
| 91>    H        2.10344       -14.10464         0.93839
| 92>    H       -0.25320       -16.34029         0.62206
| 93>    H        1.13202       -17.20882         1.28564
| 94>    H       -1.50123       -19.02163         1.99867
| 95>    H       -3.31647       -19.05142         5.48579
| 96>    H       -2.88357       -20.67326         2.92137
| 97>    H       -4.23119       -22.89058         2.91658
| 98>    H       -6.97229       -24.52593         3.65710
| 99>    H       -5.67920       -25.36605         4.51439
|100>    H       -8.43930       -26.17476         6.06354
|101>    H       -9.68371       -24.54410         9.41190
|102>    H       -9.91779       -27.02849         7.62363
|103>    H      -11.29811       -26.17641        10.23566
|104>    H      -12.97671       -27.95550        11.10588
|105>    H      -13.86853       -30.30097        10.53781
|106>    H      -14.31654       -32.40110         9.59314
|107>    H      -14.39240       -34.53796         8.16177
|108>    H      -13.28277       -35.55544         5.96479
|109>    H      -12.05523       -34.51596         5.07372
|110> *
|111>
|112>                          ****END OF INPUT****

CARTESIAN COORDINATES (ANGSTROEM)
---------------------------------
  C      8.473250   -5.338940   -8.209520
  C      8.657400   -4.618630   -7.094510
  C      9.292330   -3.337780   -6.972660
  C      9.332840   -2.852020   -5.712220
  C      8.738050   -3.698680   -4.736010
  S      8.120050   -5.154580   -5.494270
  C      8.627350   -3.466580   -3.386300
  C      9.078780   -2.337740   -2.658320
  C      8.809780   -2.397140   -1.328530
  C      8.127040   -3.572170   -0.917240
  S      7.851400   -4.611750   -2.304410
  C      7.727340   -3.849870    0.364080
  C      7.036060   -4.975720    0.833860
  C      6.612710   -5.173130    2.150180
  C      5.935690   -6.365160    2.318910
  C      5.835120   -7.107070    1.134100
  S      6.578720   -6.322070   -0.200380
  C      5.120070   -8.291230    1.395370
  C      4.749400   -8.317490    2.744390
  C      5.254230   -7.089090    3.443450
  C      4.016000   -9.442520    3.086270
  C      3.818200  -10.297530    2.009470
  S      4.569140   -9.676270    0.545900
  C      3.114950  -11.524040    1.942900
  C      2.412490  -12.071290    2.968220
  C      1.694410  -13.289730    2.905440
  C      1.593480  -14.217120    1.877520
  C      0.774810  -15.288180    2.205860
  C      0.233620  -15.190890    3.490680
  S      0.747020  -13.772280    4.306240
  C     -0.590860  -16.309240    3.730980
  C     -0.578160  -17.136690    2.604430
  C      0.301030  -16.547330    1.539870
  C     -1.372670  -18.264510    2.750340
  C     -2.008500  -18.311820    3.983670
  S     -1.595140  -16.922650    4.978290
  C     -2.909440  -19.269490    4.506430
  C     -3.293380  -20.414870    3.888170
  C     -4.220220  -21.339060    4.424490
  C     -4.621240  -22.540470    3.855750
  C     -5.558980  -23.211070    4.627290
  C     -5.888860  -22.523790    5.798980
  S     -5.030810  -21.044750    5.956710
  C     -6.849360  -23.264540    6.514100
  C     -7.140440  -24.438920    5.808720
  C     -6.334670  -24.493130    4.543220
  C     -8.079690  -25.235110    6.440830
  C     -8.529030  -24.683890    7.638120
  S     -7.749750  -23.139200    7.968080
  C     -9.472820  -25.176890    8.559270
  C    -10.124010  -26.374610    8.460150
  C    -11.061680  -26.821910    9.399450
  C    -11.708150  -28.031410    9.338360
  C    -12.667100  -28.532950   10.252140
  C    -13.138210  -29.772710    9.951360
  C    -12.577850  -30.332620    8.777240
  S    -11.431990  -29.212870    8.064750
  C    -12.836580  -31.563970    8.222990
  C    -13.732870  -32.557600    8.703020
  C    -13.775540  -33.681790    7.953210
  C    -12.908740  -33.666240    6.810490
  S    -12.042970  -32.122190    6.761140
  C    -12.737130  -34.631040    5.896050
  H      8.817660   -4.974240   -9.161090
  H      7.983180   -6.294850   -8.191140
  H      9.689570   -2.838260   -7.838530
  H      9.769870   -1.907240   -5.440790
  H      9.584790   -1.518790   -3.137250
  H      9.074710   -1.632680   -0.618930
  H      7.961160   -3.103090    1.113140
  H      6.801640   -4.452070    2.925310
  H      5.950210   -7.337630    4.247780
  H      4.442000   -6.500640    3.875150
  H      3.637820   -9.647210    4.071000
  H      3.141380  -12.029510    0.987940
  H      2.364970  -11.550510    3.914360
  H      2.103440  -14.104640    0.938390
  H     -0.253200  -16.340290    0.622060
  H      1.132020  -17.208820    1.285640
  H     -1.501230  -19.021630    1.998670
  H     -3.316470  -19.051420    5.485790
  H     -2.883570  -20.673260    2.921370
  H     -4.231190  -22.890580    2.916580
  H     -6.972290  -24.525930    3.657100
  H     -5.679200  -25.366050    4.514390
  H     -8.439300  -26.174760    6.063540
  H     -9.683710  -24.544100    9.411900
  H     -9.917790  -27.028490    7.623630
  H    -11.298110  -26.176410   10.235660
  H    -12.976710  -27.955500   11.105880
  H    -13.868530  -30.300970   10.537810
  H    -14.316540  -32.401100    9.593140
  H    -14.392400  -34.537960    8.161770
  H    -13.282770  -35.555440    5.964790
  H    -12.055230  -34.515960    5.073720

 Total Charge           Charge          ....    0
 Multiplicity           Mult            ....    1
 Number of Electrons    NEL             ....  510
 Basis Dimension        Dim             .... 1082

ORBITAL ENERGIES
----------------

  NO   OCC          E(Eh)            E(eV)
   0   2.0000     -88.951947     -2420.5055
   1   2.0000     -88.951254     -2420.4867
   2   2.0000     -88.950792     -2420.4741
   3   2.0000     -88.950601     -2420.4689
   4   2.0000     -88.950442     -2420.4646
   5   2.0000     -88.950303     -2420.4608
   6   2.0000     -88.934937     -2420.0427
   7   2.0000     -88.933035     -2419.9909
   8   2.0000     -88.928993     -2419.8809
   9   2.0000     -88.928987     -2419.8808
  10   2.0000     -10.300104      -280.2801
  11   2.0000     -10.299498      -280.2636
  12   2.0000     -10.299048      -280.2513
  13   2.0000     -10.298958      -280.2489
  14   2.0000     -10.297767      -280.2165
  15   2.0000     -10.297743      -280.2158
  16   2.0000     -10.295658      -280.1591
  17   2.0000     -10.295078      -280.1433
  18   2.0000     -10.293661      -280.1048
  19   2.0000     -10.293236      -280.0932
  20   2.0000     -10.292968      -280.0859
  21   2.0000     -10.292808      -280.0815
  22   2.0000     -10.292778      -280.0807
  23   2.0000     -10.292302      -280.0678
  24   2.0000     -10.292265      -280.0668
  25   2.0000     -10.292130      -280.0631
  26   2.0000     -10.291450      -280.0446
  27   2.0000     -10.291429      -280.0440
  28   2.0000     -10.291167      -280.0369
  29   2.0000     -10.291109      -280.0353
  30   2.0000     -10.281095      -279.7628
  31   2.0000     -10.281066      -279.7620
  32   2.0000     -10.280526      -279.7473
  33   2.0000     -10.279850      -279.7290
  34   2.0000     -10.279597      -279.7221
  35   2.0000     -10.277997      -279.6785
  36   2.0000     -10.276504      -279.6379
  37   2.0000     -10.276225      -279.6303
  38   2.0000     -10.275666      -279.6151
  39   2.0000     -10.275547      -279.6119
  40   2.0000     -10.275493      -279.6104
  41   2.0000     -10.275079      -279.5991
  42   2.0000     -10.274854      -279.5930
  43   2.0000     -10.273489      -279.5558
  44   2.0000     -10.273357      -279.5523
  45   2.0000     -10.272815      -279.5375
  46   2.0000     -10.272734      -279.5353
  47   2.0000     -10.270001      -279.4609
  48   2.0000     -10.269806      -279.4556
  49   2.0000     -10.268799      -279.4282
  50   2.0000     -10.268702      -279.4256
  51   2.0000     -10.268551      -279.4215
  52   2.0000     -10.268511      -279.4204
  53   2.0000     -10.268107      -279.4094
  54   2.0000     -10.268007      -279.4067
  55   2.0000     -10.267680      -279.3978
  56   2.0000     -10.267170      -279.3839
  57   2.0000     -10.267031      -279.3801
  58   2.0000     -10.266763      -279.3728
  59   2.0000     -10.266159      -279.3564
  60   2.0000     -10.265901      -279.3494
  61   2.0000     -10.260574      -279.2044
  62   2.0000     -10.260443      -279.2009
  63   2.0000      -8.047049      -218.9713
  64   2.0000      -8.045950      -218.9414
  65   2.0000      -8.045867      -218.9392
  66   2.0000      -8.045788      -218.9370
  67   2.0000      -8.045548      -218.9305
  68   2.0000      -8.045310      -218.9240
  69   2.0000      -8.030988      -218.5343
  70   2.0000      -8.029252      -218.4871
  71   2.0000      -8.025726      -218.3911
  72   2.0000      -8.025630      -218.3885
  73   2.0000      -6.016375      -163.7139
  74   2.0000      -6.015294      -163.6845
  75   2.0000      -6.015277      -163.6840
  76   2.0000      -6.015135      -163.6802
  77   2.0000      -6.014873      -163.6730
  78   2.0000      -6.014681      -163.6678
  79   2.0000      -6.012366      -163.6048
  80   2.0000      -6.011249      -163.5744
  81   2.0000      -6.011120      -163.5709
  82   2.0000      -6.011109      -163.5706
  83   2.0000      -6.010853      -163.5636
  84   2.0000      -6.010696      -163.5593
  85   2.0000      -6.009098      -163.5159
  86   2.0000      -6.007989      -163.4857
  87   2.0000      -6.007848      -163.4818
  88   2.0000      -6.007814      -163.4809
  89   2.0000      -6.007615      -163.4755
  90   2.0000      -6.007236      -163.4652
  91   2.0000      -6.000817      -163.2905
  92   2.0000      -5.999007      -163.2413
  93   2.0000      -5.996737      -163.1795
  94   2.0000      -5.995563      -163.1476
  95   2.0000      -5.995462      -163.1448
  96   2.0000      -5.995106      -163.1351
  97   2.0000      -5.991757      -163.0440
  98   2.0000      -5.991667      -163.0415
  99   2.0000      -5.991571      -163.0389
 100   2.0000      -5.990037      -162.9972
 101   2.0000      -5.986212      -162.8931
 102   2.0000      -5.986149      -162.8914
 103   2.0000      -1.000468       -27.2241
 104   2.0000      -0.999608       -27.2007
 105   2.0000      -0.999063       -27.1859
 106   2.0000      -0.982935       -26.7470
 107   2.0000      -0.982509       -26.7354
 108   2.0000      -0.966200       -26.2916
 109   2.0000      -0.964891       -26.2560
 110   2.0000      -0.961996       -26.1773
 111   2.0000      -0.959570       -26.1112
 112   2.0000      -0.956561       -26.0293
 113   2.0000      -0.917191       -24.9580
 114   2.0000      -0.911287       -24.7974
 115   2.0000      -0.903590       -24.5879
 116   2.0000      -0.892050       -24.2739
 117   2.0000      -0.877169       -23.8690
 118   2.0000      -0.870685       -23.6925
 119   2.0000      -0.865987       -23.5647
 120   2.0000      -0.863365       -23.4934
 121   2.0000      -0.850305       -23.1380
 122   2.0000      -0.844846       -22.9894
 123   2.0000      -0.838368       -22.8132
 124   2.0000      -0.835436       -22.7334
 125   2.0000      -0.835110       -22.7245
 126   2.0000      -0.829963       -22.5844
 127   2.0000      -0.822424       -22.3793
 128   2.0000      -0.818405       -22.2699
 129   2.0000      -0.818084       -22.2612
 130   2.0000      -0.817215       -22.2375
 131   2.0000      -0.809916       -22.0389
 132   2.0000      -0.808243       -21.9934
 133   2.0000      -0.793345       -21.5880
 134   2.0000      -0.785136       -21.3646
 135   2.0000      -0.775217       -21.0947
 136   2.0000      -0.768750       -20.9188
 137   2.0000      -0.761035       -20.7088
 138   2.0000      -0.759849       -20.6765
 139   2.0000      -0.752190       -20.4681
 140   2.0000      -0.736990       -20.0545
 141   2.0000      -0.729061       -19.8388
 142   2.0000      -0.709338       -19.3021
 143   2.0000      -0.696301       -18.9473
 144   2.0000      -0.686644       -18.6845
 145   2.0000      -0.677131       -18.4257
 146   2.0000      -0.671125       -18.2622
 147   2.0000      -0.660421       -17.9710
 148   2.0000      -0.649359       -17.6700
 149   2.0000      -0.644918       -17.5491
 150   2.0000      -0.640195       -17.4206
 151   2.0000      -0.637908       -17.3584
 152   2.0000      -0.629637       -17.1333
 153   2.0000      -0.626961       -17.0605
 154   2.0000      -0.622240       -16.9320
 155   2.0000      -0.619872       -16.8676
 156   2.0000      -0.613739       -16.7007
 157   2.0000      -0.611961       -16.6523
 158   2.0000      -0.610124       -16.6023
 159   2.0000      -0.608331       -16.5535
 160   2.0000      -0.605253       -16.4698
 161   2.0000      -0.599272       -16.3070
 162   2.0000      -0.595183       -16.1958
 163   2.0000      -0.590090       -16.0572
 164   2.0000      -0.588789       -16.0218
 165   2.0000      -0.585988       -15.9455
 166   2.0000      -0.582668       -15.8552
 167   2.0000      -0.567449       -15.4411
 168   2.0000      -0.563829       -15.3426
 169   2.0000      -0.561203       -15.2711
 170   2.0000      -0.555327       -15.1112
 171   2.0000      -0.552675       -15.0390
 172   2.0000      -0.551793       -15.0150
 173   2.0000      -0.541893       -14.7456
 174   2.0000      -0.535155       -14.5623
 175   2.0000      -0.534400       -14.5418
 176   2.0000      -0.534063       -14.5326
 177   2.0000      -0.532684       -14.4951
 178   2.0000      -0.529522       -14.4090
 179   2.0000      -0.523984       -14.2583
 180   2.0000      -0.521088       -14.1795
 181   2.0000      -0.514251       -13.9935
 182   2.0000      -0.508863       -13.8469
 183   2.0000      -0.503315       -13.6959
 184   2.0000      -0.501064       -13.6346
 185   2.0000      -0.498290       -13.5592
 186   2.0000      -0.490188       -13.3387
 187   2.0000      -0.486637       -13.2421
 188   2.0000      -0.485731       -13.2174
 189   2.0000      -0.485522       -13.2117
 190   2.0000      -0.481677       -13.1071
 191   2.0000      -0.477409       -12.9910
 192   2.0000      -0.475009       -12.9256
 193   2.0000      -0.472543       -12.8585
 194   2.0000      -0.468749       -12.7553
 195   2.0000      -0.466234       -12.6869
 196   2.0000      -0.466131       -12.6841
 197   2.0000      -0.465323       -12.6621
 198   2.0000      -0.464219       -12.6320
 199   2.0000      -0.462622       -12.5886
 200   2.0000      -0.462234       -12.5780
 201   2.0000      -0.459503       -12.5037
 202   2.0000      -0.456808       -12.4304
 203   2.0000      -0.455635       -12.3985
 204   2.0000      -0.453217       -12.3327
 205   2.0000      -0.452543       -12.3143
 206   2.0000      -0.450485       -12.2583
 207   2.0000      -0.446811       -12.1584
 208   2.0000      -0.445766       -12.1299
 209   2.0000      -0.445337       -12.1182
 210   2.0000      -0.442940       -12.0530
 211   2.0000      -0.442215       -12.0333
 212   2.0000      -0.440620       -11.9899
 213   2.0000      -0.438380       -11.9289
 214   2.0000      -0.435339       -11.8462
 215   2.0000      -0.434284       -11.8175
 216   2.0000      -0.428414       -11.6577
 217   2.0000      -0.422278       -11.4908
 218   2.0000      -0.421983       -11.4827
 219   2.0000      -0.418274       -11.3818
 220   2.0000      -0.415092       -11.2952
 221   2.0000      -0.410799       -11.1784
 222   2.0000      -0.409658       -11.1474
 223   2.0000      -0.409020       -11.1300
 224   2.0000      -0.407648       -11.0927
 225   2.0000      -0.406879       -11.0717
 226   2.0000      -0.405756       -11.0412
 227   2.0000      -0.401195       -10.9171
 228   2.0000      -0.401085       -10.9141
 229   2.0000      -0.398833       -10.8528
 230   2.0000      -0.389032       -10.5861
 231   2.0000      -0.387103       -10.5336
 232   2.0000      -0.379790       -10.3346
 233   2.0000      -0.378227       -10.2921
 234   2.0000      -0.365603        -9.9486
 235   2.0000      -0.350865        -9.5475
 236   2.0000      -0.336941        -9.1686
 237   2.0000      -0.330025        -8.9804
 238   2.0000      -0.328349        -8.9348
 239   2.0000      -0.323640        -8.8067
 240   2.0000      -0.320260        -8.7147
 241   2.0000      -0.318888        -8.6774
 242   2.0000      -0.317974        -8.6525
 243   2.0000      -0.314822        -8.5667
 244   2.0000      -0.311661        -8.4807
 245   2.0000      -0.309578        -8.4240
 246   2.0000      -0.309223        -8.4144
 247   2.0000      -0.305323        -8.3083
 248   2.0000      -0.298397        -8.1198
 249   2.0000      -0.282065        -7.6754
 250   2.0000      -0.260635        -7.0922
 251   2.0000      -0.239863        -6.5270
 252   2.0000      -0.217253        -5.9118
 253   2.0000      -0.197690        -5.3794
 254   2.0000      -0.189178        -5.1478
 255   0.0000      -0.070013        -1.9052
 256   0.0000      -0.063401        -1.7252
 257   0.0000      -0.042220        -1.1489
 258   0.0000      -0.021278        -0.5790
 259   0.0000      -0.000839        -0.0228

MULLIKEN ATOMIC CHARGES
-----------------------
   0 C :   -0.030987
   1 C :   -0.065187
   2 C :    0.050684
   3 C :    0.028649
   4 C :   -0.071197
   5 S :    0.076621
   6 C :   -0.034566
   7 C :    0.025710
   8 C :    0.033527
   9 C :   -0.037585
  10 S :    0.057391
  11 C :   -0.012376
  12 C :   -0.058072
  13 C :   -0.046128
  14 C :   -0.113998
  15 C :   -0.075960
  16 S :    0.126866
  17 C :   -0.081775
  18 C :   -0.140646
  19 C :    0.374115
  20 C :   -0.030393
  21 C :   -0.076886
  22 S :    0.139689
  23 C :    0.039095
  24 C :    0.039560
  25 C :   -0.076916
  26 C :   -0.029414
  27 C :   -0.141173
  28 C :   -0.086442
  29 S :    0.135399
  30 C :   -0.087065
  31 C :   -0.137256
  32 C :    0.374361
  33 C :   -0.032689
  34 C :   -0.077802
  35 S :    0.139544
  36 C :    0.033488
  37 C :    0.002324
  38 C :   -0.042015
  39 C :   -0.042547
  40 C :   -0.129071
  41 C :   -0.080940
  42 S :    0.123458
  43 C :   -0.081557
  44 C :   -0.144866
  45 C :    0.378858
  46 C :   -0.021432
  47 C :   -0.076885
  48 S :    0.139577
  49 C :    0.036969
  50 C :   -0.001415
  51 C :   -0.013408
  52 C :   -0.023386
  53 C :    0.039593
  54 C :    0.018137
  55 C :   -0.041303
  56 S :    0.061376
  57 C :   -0.070520
  58 C :    0.029252
  59 C :    0.046995
  60 C :   -0.061573
  61 S :    0.072024
  62 C :   -0.034272
  63 H :    0.015855
  64 H :    0.018497
  65 H :   -0.015584
  66 H :   -0.014816
  67 H :   -0.019176
  68 H :   -0.016944
  69 H :   -0.017345
  70 H :   -0.029776
  71 H :    0.028497
  72 H :    0.027284
  73 H :   -0.029606
  74 H :   -0.024490
  75 H :   -0.024916
  76 H :   -0.029338
  77 H :    0.027643
  78 H :    0.027917
  79 H :   -0.030157
  80 H :   -0.015027
  81 H :   -0.020003
  82 H :   -0.030707
  83 H :    0.028860
  84 H :    0.029028
  85 H :   -0.025474
  86 H :   -0.022144
  87 H :   -0.001967
  88 H :   -0.020983
  89 H :   -0.017070
  90 H :   -0.016698
  91 H :   -0.014874
  92 H :   -0.014964
  93 H :    0.016189
  94 H :    0.018726
Sum of atomic charges:    0.0000000

LOEWDIN ATOMIC CHARGES
----------------------
   0 C :   -0.083236
   1 C :   -0.138874
   2 C :   -0.035750
   3 C :   -0.026757
   4 C :   -0.181479
   5 S :    0.347575
   6 C :   -0.178330
   7 C :   -0.042370
   8 C :   -0.032634
   9 C :   -0.162101
  10 S :    0.358663
  11 C :   -0.072185
  12 C :   -0.171208
  13 C :   -0.056319
  14 C :   -0.053479
  15 C :   -0.197633
  16 S :    0.430364
  17 C :   -0.201145
  18 C :   -0.048914
  19 C :   -0.008796
  20 C :   -0.058427
  21 C :   -0.165408
  22 S :    0.429052
  23 C :   -0.047329
  24 C :   -0.047223
  25 C :   -0.165941
  26 C :   -0.057856
  27 C :   -0.050351
  28 C :   -0.201413
  29 S :    0.426905
  30 C :   -0.200952
  31 C :   -0.050697
  32 C :   -0.008745
  33 C :   -0.057716
  34 C :   -0.167138
  35 S :    0.429620
  36 C :   -0.057162
  37 C :   -0.043230
  38 C :   -0.161959
  39 C :   -0.058527
  40 C :   -0.053404
  41 C :   -0.196163
  42 S :    0.423945
  43 C :   -0.197940
  44 C :   -0.049385
  45 C :   -0.008345
  46 C :   -0.051407
  47 C :   -0.168625
  48 S :    0.428586
  49 C :   -0.041099
  50 C :   -0.035849
  51 C :   -0.054931
  52 C :   -0.150978
  53 C :   -0.034208
  54 C :   -0.037573
  55 C :   -0.177762
  56 S :    0.358368
  57 C :   -0.183333
  58 C :   -0.026626
  59 C :   -0.037667
  60 C :   -0.138462
  61 S :    0.345109
  62 C :   -0.084972
  63 H :    0.026929
  64 H :    0.024965
  65 H :    0.031800
  66 H :    0.031179
  67 H :    0.029458
  68 H :    0.031610
  69 H :    0.038626
  70 H :    0.028374
  71 H :    0.050815
  72 H :    0.049854
  73 H :    0.027485
  74 H :    0.024736
  75 H :    0.024343
  76 H :    0.027703
  77 H :    0.050163
  78 H :    0.050528
  79 H :    0.027216
  80 H :    0.019462
  81 H :    0.031158
  82 H :    0.028434
  83 H :    0.051055
  84 H :    0.051015
  85 H :    0.029878
  86 H :    0.026462
  87 H :    0.020741
  88 H :    0.031273
  89 H :    0.031951
  90 H :    0.029903
  91 H :    0.031195
  92 H :    0.031827
  93 H :    0.027000
  94 H :    0.024686

  Mayer bond orders larger than 0.100000
B(  0-C ,  1-C ) :   1.8626 B(  0-C , 63-H ) :   0.9505 B(  0-C , 64-H ) :   0.9410
B(  1-C ,  2-C ) :   1.0804 B(  1-C ,  5-S ) :   1.0098 B(  2-C ,  3-C ) :   1.6584
B(  2-C , 65-H ) :   0.9930 B(  3-C ,  4-C ) :   1.1555 B(  3-C , 66-H ) :   0.9911
B(  4-C ,  5-S ) :   1.0393 B(  4-C ,  6-C ) :   1.5584 B(  6-C ,  7-C ) :   1.1715
B(  6-C , 10-S ) :   1.0342 B(  7-C ,  8-C ) :   1.6039 B(  7-C , 67-H ) :   0.9910
B(  8-C ,  9-C ) :   1.1426 B(  8-C , 68-H ) :   0.9987 B(  9-C , 10-S ) :   1.0264
B(  9-C , 11-C ) :   1.5600 B( 11-C , 12-C ) :   1.2036 B( 11-C , 69-H ) :   0.9684
B( 12-C , 13-C ) :   1.3926 B( 12-C , 16-S ) :   1.0845 B( 13-C , 14-C ) :   1.3222
B( 13-C , 70-H ) :   1.0109 B( 14-C , 15-C ) :   1.4886 B( 14-C , 19-C ) :   1.0076
B( 15-C , 16-S ) :   1.0901 B( 15-C , 17-C ) :   1.1986 B( 17-C , 18-C ) :   1.5054
B( 17-C , 22-S ) :   1.0814 B( 18-C , 19-C ) :   1.0110 B( 18-C , 20-C ) :   1.3164
B( 19-C , 71-H ) :   0.8661 B( 19-C , 72-H ) :   0.8697 B( 20-C , 21-C ) :   1.4509
B( 20-C , 73-H ) :   0.9983 B( 21-C , 22-S ) :   1.0998 B( 21-C , 23-C ) :   1.1403
B( 23-C , 24-C ) :   1.6902 B( 23-C , 74-H ) :   0.9578 B( 24-C , 25-C ) :   1.1386
B( 24-C , 75-H ) :   0.9564 B( 25-C , 26-C ) :   1.4576 B( 25-C , 29-S ) :   1.0982
B( 26-C , 27-C ) :   1.3102 B( 26-C , 76-H ) :   0.9980 B( 27-C , 28-C ) :   1.5202
B( 27-C , 32-C ) :   1.0107 B( 28-C , 29-S ) :   1.0826 B( 28-C , 30-C ) :   1.1906
B( 30-C , 31-C ) :   1.5172 B( 30-C , 35-S ) :   1.0840 B( 31-C , 32-C ) :   1.0104
B( 31-C , 33-C ) :   1.3113 B( 32-C , 77-H ) :   0.8684 B( 32-C , 78-H ) :   0.8671
B( 33-C , 34-C ) :   1.4586 B( 33-C , 79-H ) :   0.9982 B( 34-C , 35-S ) :   1.0992
B( 34-C , 36-C ) :   1.1422 B( 36-C , 37-C ) :   1.6493 B( 36-C , 80-H ) :   0.9534
B( 37-C , 38-C ) :   1.1807 B( 37-C , 81-H ) :   0.9758 B( 38-C , 39-C ) :   1.4337
B( 38-C , 42-S ) :   1.0906 B( 39-C , 40-C ) :   1.2864 B( 39-C , 82-H ) :   1.0101
B( 40-C , 41-C ) :   1.5194 B( 40-C , 45-C ) :   1.0104 B( 41-C , 42-S ) :   1.0771
B( 41-C , 43-C ) :   1.2017 B( 43-C , 44-C ) :   1.4973 B( 43-C , 48-S ) :   1.0874
B( 44-C , 45-C ) :   1.0108 B( 44-C , 46-C ) :   1.3288 B( 45-C , 83-H ) :   0.8669
B( 45-C , 84-H ) :   0.8666 B( 46-C , 47-C ) :   1.4363 B( 46-C , 85-H ) :   0.9980
B( 47-C , 48-S ) :   1.0909 B( 47-C , 49-C ) :   1.1432 B( 49-C , 50-C ) :   1.6287
B( 49-C , 86-H ) :   0.9678 B( 50-C , 51-C ) :   1.1779 B( 50-C , 87-H ) :   0.9687
B( 51-C , 52-C ) :   1.5521 B( 51-C , 88-H ) :   0.9839 B( 52-C , 53-C ) :   1.1430
B( 52-C , 56-S ) :   1.0253 B( 53-C , 54-C ) :   1.5958 B( 53-C , 89-H ) :   0.9990
B( 54-C , 55-C ) :   1.1776 B( 54-C , 90-H ) :   0.9934 B( 55-C , 56-S ) :   1.0384
B( 55-C , 57-C ) :   1.5491 B( 57-C , 58-C ) :   1.1584 B( 57-C , 61-S ) :   1.0390
B( 58-C , 59-C ) :   1.6563 B( 58-C , 91-H ) :   0.9917 B( 59-C , 60-C ) :   1.0823
B( 59-C , 92-H ) :   0.9926 B( 60-C , 61-S ) :   1.0087 B( 60-C , 62-C ) :   1.8621
B( 62-C , 93-H ) :   0.9498 B( 62-C , 94-H ) :   0.9416

-----------------------------------------------------------------------------
         ABSORPTION SPECTRUM VIA TRANSITION ELECTRIC DIPOLE MOMENTS
-----------------------------------------------------------------------------
State   Energy  Wavelength   fosc         T2         TX        TY        TZ
        (cm-1)    (nm)                  (au**2)     (au)      (au)      (au)
-----------------------------------------------------------------------------
   0   13923.8    718.2   4.587347154 108.46224   5.86144   7.83707  -3.56175
   1   15756.6    634.7   0.403144033   8.42315  -0.25389  -0.93467  -2.73589
   2   19943.3    501.4   0.100240378   1.65471   0.94187   0.63616   0.60241
   3   20453.2    488.9   0.131818563   2.12174   0.69230   0.98438   0.82064
   4   21584.8    463.3   0.012061241   0.18396   0.05404   0.40342   0.13524
   5   23796.7    420.2   0.135097751   1.86899  -0.54899  -1.14870  -0.49809
   6   24190.8    413.4   0.468077391   6.37007  -0.60136   0.98047   2.24658
   7   24500.6    408.2   0.459536415   6.17474   0.52441   1.93390   1.46962
   8   26876.1    372.1   0.014186828   0.17378   0.17569   0.37372   0.05694
   9   27086.3    369.2   0.000602845   0.00733  -0.03307  -0.06906   0.03827
  10   28270.2    353.7   0.039852177   0.46409  -0.56206   0.25309   0.29003
  11   28495.3    350.9   0.059910622   0.69216   0.05247  -0.53720  -0.63311
  12   29756.3    336.1   0.035077150   0.38808  -0.08759   0.36212   0.49928
  13   30716.2    325.6   0.163916772   1.75684  -0.90950  -0.89746   0.35243
  14   31536.1    317.1   0.027465415   0.28672   0.18566   0.47532   0.16224
  15   32117.0    311.4   0.322458948   3.30533  -0.14964   1.08662   1.44989
  16   32730.8    305.5   0.000388042   0.00390   0.02699   0.04897   0.02786
  17   33167.7    301.5   0.014099084   0.13994  -0.27260  -0.09645   0.23734
  18   34158.4    292.8   0.018962308   0.18275  -0.05890   0.27070   0.32559
  19   34622.8    288.8   0.013524568   0.12860   0.10459  -0.20929  -0.27177
  20   35284.5    283.4   0.023361606   0.21797  -0.23775  -0.40126   0.02093
  21   35346.7    282.9   0.004605224   0.04289   0.15044   0.07149  -0.12308
  22   35850.7    278.9   0.023286442   0.21384   0.02293  -0.14977  -0.43690
  23   36062.5    277.3   0.010183111   0.09296  -0.17979   0.02369   0.24510
  24   36398.8    274.7   0.006580166   0.05951   0.12425   0.18832   0.09280
  25   37355.4    267.7   0.005885438   0.05187  -0.08194   0.09817   0.18846
  26   37868.4    264.1   0.016305334   0.14175  -0.22546  -0.30129   0.01206
  27   37912.9    263.8   0.014612055   0.12688   0.06368   0.24611   0.24951
  28   38958.5    256.7   0.014869636   0.12565   0.03399   0.21003   0.28352
  29   38988.5    256.5   0.079972036   0.67527  -0.33150  -0.74329  -0.11358
  30   39380.8    253.9   0.047788593   0.39950  -0.08671  -0.48012  -0.40182
  31   39772.7    251.4   0.032583202   0.26970   0.03981   0.27298   0.44000
  32   39947.9    250.3   0.256566333   2.11437   0.23906  -0.34622  -1.39189
  33   40101.7    249.4   0.083565838   0.68603   0.31339  -0.38046  -0.66563
  34   40230.8    248.6   0.028201916   0.23078  -0.15685  -0.31971   0.32243

FINAL SINGLE POINT ENERGY     -6016.802821344502

DIPOLE MOMENT
-------------
                                X             Y             Z
Electronic contribution:     12.90979      22.11359       5.27425
Nuclear contribution   :    -12.82953     -21.77925      -5.16320
                        -----------------------------------------
Total Dipole Moment    :      0.08026       0.33434       0.11105
                        -----------------------------------------
Magnitude (a.u.)       :      0.36132
Magnitude (Debye)      :      0.91841

Rotational constants in cm-1:     0.003719     0.000099     0.000097
Rotational constants in MHz :   111.481841     2.970242     2.902897

                             ****ORCA TERMINATED NORMALLY****
TOTAL RUN TIME: 0 days 0 hours 6 minutes 53 seconds 358 msec
