                         Program Version 4.2.0 -  RELEASE  -
|  1> # ORCA input file
|  2> # SCF done       -177.809122196992          0.000740903277
|  3> ! CAM-B3LYP def2-SVP def2/J RIJCOSX Grid4 TightSCF
|  4> %maxcore 5000
|  5> %tddft
|  6>     Mode sTDDFT
|  7>     Ethresh 5.0
|  8>     maxcore 5000
|  9> end
| 10>
| 11> %pal
| 12>   nprocs 6
| 13>   end
| 14> * xyz 0 1
| 15>    C        1.12720         1.08732         0.16020
| 16>    C        0.60787         0.63001         1.36756
| 17>    C        0.44397        -0.77616         1.63396
| 18>    N       -0.15846        -1.17453         2.77715
| 19>    C       -0.48520        -0.27227         3.65070
| 20>    C       -0.23117         1.10622         3.43223
| 21>    N        0.26637         1.53875         2.31557
| 22>    C        0.84911        -1.74396         0.69501
| 23>    C        1.37687        -1.27591        -0.51540
| 24>    C        1.50257         0.14262        -0.78359
| 25>    N        2.03820         0.36965        -1.99355
| 26>    S        2.35508        -1.03425        -2.68601
| 27>    N        1.85668        -2.01163        -1.52680
| 28>    C        0.70622        -3.15931         0.97138
| 29>    C        0.20737        -4.05155         0.00704
| 30>    C        0.11364        -5.46290         0.27319
| 31>    N       -0.47224        -6.27127        -0.61847
| 32>    C       -0.77192        -5.80443        -1.80264
| 33>    C       -0.59896        -4.41047        -2.10133
| 34>    N       -0.19997        -3.57394        -1.18195
| 35>    C       -0.94473        -3.90736        -3.38045
| 36>    N       -1.20890        -3.52444        -4.42726
| 37>    C       -1.33022        -6.68428        -2.76063
| 38>    N       -1.75445        -7.38732        -3.55971
| 39>    C        0.57733        -6.03673         1.48088
| 40>    C        1.04492        -5.13969         2.45673
| 41>    C        1.10194        -3.71407         2.19831
| 42>    N        1.66783        -3.05277         3.21212
| 43>    S        2.06352        -4.08874         4.36181
| 44>    N        1.56856        -5.44225         3.64806
| 45>    C        0.65427        -7.46654         1.52891
| 46>    N        0.39263        -8.28488         2.59179
| 47>    C       -0.15462        -7.89893         3.86998
| 48>    C       -1.57817        -7.36658         3.73484
| 49>    C        0.51097        -9.64473         2.23898
| 50>    O        0.29078       -10.55604         3.01407
| 51>    C        0.92388        -9.62701         0.85592
| 52>    C        0.99461        -8.27411         0.44511
| 53>    C        1.48911        -8.24306        -0.91693
| 54>    O        1.76444        -7.33498        -1.67424
| 55>    N        1.62948        -9.60030        -1.25953
| 56>    C        2.11732        -9.98949        -2.56015
| 57>    C        3.60270       -10.34223        -2.52714
| 58>    C        1.30984       -10.43586        -0.21598
| 59>    C        1.37001       -11.84697        -0.29171
| 60>    C        1.01666       -12.64464         0.75225
| 61>    C        1.04941       -14.05986         0.73410
| 62>    S        0.46758       -14.94996         2.11563
| 63>    C        0.81505       -16.47737         1.37148
| 64>    C        1.36621       -16.27973         0.09787
| 65>    C        1.48938       -14.92722        -0.24852
| 66>    C        1.76135       -17.28881        -0.79770
| 67>    N        2.10679       -18.04970        -1.58463
| 68>    C        0.51268       -17.66635         2.08015
| 69>    C        0.81118       -18.92032         1.65894
| 70>    C        0.50526       -20.13987         2.33773
| 71>    C       -0.28272       -20.28233         3.50699
| 72>    C       -0.51974       -21.57865         4.09116
| 73>    N       -1.27540       -21.69593         5.21297
| 74>    C       -1.77570       -20.61608         5.73224
| 75>    C       -1.55755       -19.34400         5.15337
| 76>    N       -0.83688       -19.19031         4.08055
| 77>    C        0.00576       -22.74615         3.54131
| 78>    C        0.77383       -22.63029         2.39285
| 79>    C        1.02009       -21.33662         1.79420
| 80>    N        1.78272       -21.43818         0.70153
| 81>    S        2.14006       -22.97801         0.45750
| 82>    N        1.36930       -23.61642         1.70391
| 83>    H        1.25021         2.14278        -0.01476
| 84>    H       -0.98411        -0.61579         4.54708
| 85>    H       -0.47691         1.84771         4.18045
| 86>    H        0.49435        -7.14671         4.32507
| 87>    H       -0.14894        -8.80580         4.48073
| 88>    H       -1.59609        -6.46262         3.12955
| 89>    H       -1.97753        -7.13398         4.71807
| 90>    H       -2.21782        -8.11075         3.26555
| 91>    H        1.96009        -9.12638        -3.21291
| 92>    H        1.52305       -10.82566        -2.93817
| 93>    H        4.17916        -9.48251        -2.19463
| 94>    H        3.93732       -10.62044        -3.52260
| 95>    H        3.79433       -11.16997        -1.84750
| 96>    H        1.69591       -12.28719        -1.22219
| 97>    H        0.67968       -12.18524         1.67240
| 98>    H        1.89441       -14.60705        -1.19198
| 99>    H        0.00784       -17.53932         3.02681
|100>    H        1.34904       -19.06302         0.73103
|101>    H       -2.37384       -20.73306         6.62599
|102>    H       -1.98787       -18.44789         5.58050
|103>    H       -0.18721       -23.69844         4.00505
|104> *
|105>
|106>                          ****END OF INPUT****

CARTESIAN COORDINATES (ANGSTROEM)
---------------------------------
  C      1.127200    1.087320    0.160200
  C      0.607870    0.630010    1.367560
  C      0.443970   -0.776160    1.633960
  N     -0.158460   -1.174530    2.777150
  C     -0.485200   -0.272270    3.650700
  C     -0.231170    1.106220    3.432230
  N      0.266370    1.538750    2.315570
  C      0.849110   -1.743960    0.695010
  C      1.376870   -1.275910   -0.515400
  C      1.502570    0.142620   -0.783590
  N      2.038200    0.369650   -1.993550
  S      2.355080   -1.034250   -2.686010
  N      1.856680   -2.011630   -1.526800
  C      0.706220   -3.159310    0.971380
  C      0.207370   -4.051550    0.007040
  C      0.113640   -5.462900    0.273190
  N     -0.472240   -6.271270   -0.618470
  C     -0.771920   -5.804430   -1.802640
  C     -0.598960   -4.410470   -2.101330
  N     -0.199970   -3.573940   -1.181950
  C     -0.944730   -3.907360   -3.380450
  N     -1.208900   -3.524440   -4.427260
  C     -1.330220   -6.684280   -2.760630
  N     -1.754450   -7.387320   -3.559710
  C      0.577330   -6.036730    1.480880
  C      1.044920   -5.139690    2.456730
  C      1.101940   -3.714070    2.198310
  N      1.667830   -3.052770    3.212120
  S      2.063520   -4.088740    4.361810
  N      1.568560   -5.442250    3.648060
  C      0.654270   -7.466540    1.528910
  N      0.392630   -8.284880    2.591790
  C     -0.154620   -7.898930    3.869980
  C     -1.578170   -7.366580    3.734840
  C      0.510970   -9.644730    2.238980
  O      0.290780  -10.556040    3.014070
  C      0.923880   -9.627010    0.855920
  C      0.994610   -8.274110    0.445110
  C      1.489110   -8.243060   -0.916930
  O      1.764440   -7.334980   -1.674240
  N      1.629480   -9.600300   -1.259530
  C      2.117320   -9.989490   -2.560150
  C      3.602700  -10.342230   -2.527140
  C      1.309840  -10.435860   -0.215980
  C      1.370010  -11.846970   -0.291710
  C      1.016660  -12.644640    0.752250
  C      1.049410  -14.059860    0.734100
  S      0.467580  -14.949960    2.115630
  C      0.815050  -16.477370    1.371480
  C      1.366210  -16.279730    0.097870
  C      1.489380  -14.927220   -0.248520
  C      1.761350  -17.288810   -0.797700
  N      2.106790  -18.049700   -1.584630
  C      0.512680  -17.666350    2.080150
  C      0.811180  -18.920320    1.658940
  C      0.505260  -20.139870    2.337730
  C     -0.282720  -20.282330    3.506990
  C     -0.519740  -21.578650    4.091160
  N     -1.275400  -21.695930    5.212970
  C     -1.775700  -20.616080    5.732240
  C     -1.557550  -19.344000    5.153370
  N     -0.836880  -19.190310    4.080550
  C      0.005760  -22.746150    3.541310
  C      0.773830  -22.630290    2.392850
  C      1.020090  -21.336620    1.794200
  N      1.782720  -21.438180    0.701530
  S      2.140060  -22.978010    0.457500
  N      1.369300  -23.616420    1.703910
  H      1.250210    2.142780   -0.014760
  H     -0.984110   -0.615790    4.547080
  H     -0.476910    1.847710    4.180450
  H      0.494350   -7.146710    4.325070
  H     -0.148940   -8.805800    4.480730
  H     -1.596090   -6.462620    3.129550
  H     -1.977530   -7.133980    4.718070
  H     -2.217820   -8.110750    3.265550
  H      1.960090   -9.126380   -3.212910
  H      1.523050  -10.825660   -2.938170
  H      4.179160   -9.482510   -2.194630
  H      3.937320  -10.620440   -3.522600
  H      3.794330  -11.169970   -1.847500
  H      1.695910  -12.287190   -1.222190
  H      0.679680  -12.185240    1.672400
  H      1.894410  -14.607050   -1.191980
  H      0.007840  -17.539320    3.026810
  H      1.349040  -19.063020    0.731030
  H     -2.373840  -20.733060    6.625990
  H     -1.987870  -18.447890    5.580500
  H     -0.187210  -23.698440    4.005050

 Total Charge           Charge          ....    0
 Multiplicity           Mult            ....    1
 Number of Electrons    NEL             ....  490
 Basis Dimension        Dim             .... 1073

ORBITAL ENERGIES
----------------

  NO   OCC          E(Eh)            E(eV)
   0   2.0000     -89.043893     -2423.0075
   1   2.0000     -89.034339     -2422.7475
   2   2.0000     -89.031904     -2422.6813
   3   2.0000     -88.975603     -2421.1492
   4   2.0000     -19.196739      -522.3698
   5   2.0000     -19.190183      -522.1914
   6   2.0000     -14.456719      -393.3873
   7   2.0000     -14.452710      -393.2782
   8   2.0000     -14.451371      -393.2418
   9   2.0000     -14.449909      -393.2020
  10   2.0000     -14.448388      -393.1606
  11   2.0000     -14.447052      -393.1243
  12   2.0000     -14.439791      -392.9267
  13   2.0000     -14.438714      -392.8974
  14   2.0000     -14.435469      -392.8091
  15   2.0000     -14.435390      -392.8069
  16   2.0000     -14.434098      -392.7718
  17   2.0000     -14.431300      -392.6956
  18   2.0000     -14.427241      -392.5852
  19   2.0000     -14.426531      -392.5659
  20   2.0000     -14.421793      -392.4369
  21   2.0000     -14.418774      -392.3548
  22   2.0000     -14.406983      -392.0339
  23   2.0000     -10.377994      -282.3996
  24   2.0000     -10.372984      -282.2632
  25   2.0000     -10.370813      -282.2042
  26   2.0000     -10.368001      -282.1277
  27   2.0000     -10.346726      -281.5487
  28   2.0000     -10.344349      -281.4840
  29   2.0000     -10.342415      -281.4314
  30   2.0000     -10.340221      -281.3717
  31   2.0000     -10.339481      -281.3516
  32   2.0000     -10.339388      -281.3491
  33   2.0000     -10.331022      -281.1214
  34   2.0000     -10.330919      -281.1186
  35   2.0000     -10.329015      -281.0668
  36   2.0000     -10.327705      -281.0311
  37   2.0000     -10.327228      -281.0182
  38   2.0000     -10.326537      -280.9994
  39   2.0000     -10.326274      -280.9922
  40   2.0000     -10.326215      -280.9906
  41   2.0000     -10.326121      -280.9881
  42   2.0000     -10.325132      -280.9611
  43   2.0000     -10.324257      -280.9373
  44   2.0000     -10.323396      -280.9139
  45   2.0000     -10.322600      -280.8922
  46   2.0000     -10.318995      -280.7941
  47   2.0000     -10.318043      -280.7682
  48   2.0000     -10.317626      -280.7569
  49   2.0000     -10.315339      -280.6946
  50   2.0000     -10.314618      -280.6750
  51   2.0000     -10.313036      -280.6320
  52   2.0000     -10.309256      -280.5291
  53   2.0000     -10.307809      -280.4897
  54   2.0000     -10.304710      -280.4054
  55   2.0000     -10.304363      -280.3960
  56   2.0000     -10.303650      -280.3766
  57   2.0000     -10.302956      -280.3577
  58   2.0000     -10.295050      -280.1426
  59   2.0000     -10.292379      -280.0699
  60   2.0000     -10.291251      -280.0392
  61   2.0000     -10.290874      -280.0289
  62   2.0000     -10.286506      -279.9101
  63   2.0000     -10.285750      -279.8895
  64   2.0000     -10.269367      -279.4437
  65   2.0000     -10.265241      -279.3314
  66   2.0000     -10.261444      -279.2281
  67   2.0000     -10.259252      -279.1684
  68   2.0000      -8.135205      -221.3702
  69   2.0000      -8.125643      -221.1100
  70   2.0000      -8.123177      -221.0429
  71   2.0000      -8.071283      -219.6308
  72   2.0000      -6.106235      -166.1591
  73   2.0000      -6.098418      -165.9464
  74   2.0000      -6.098136      -165.9387
  75   2.0000      -6.096489      -165.8939
  76   2.0000      -6.093987      -165.8258
  77   2.0000      -6.088868      -165.6865
  78   2.0000      -6.088760      -165.6836
  79   2.0000      -6.086508      -165.6223
  80   2.0000      -6.086220      -165.6145
  81   2.0000      -6.040343      -164.3661
  82   2.0000      -6.036266      -164.2551
  83   2.0000      -6.033695      -164.1852
  84   2.0000      -1.140017       -31.0215
  85   2.0000      -1.136807       -30.9341
  86   2.0000      -1.129081       -30.7238
  87   2.0000      -1.127794       -30.6888
  88   2.0000      -1.126147       -30.6440
  89   2.0000      -1.110189       -30.2098
  90   2.0000      -1.087919       -29.6038
  91   2.0000      -1.084097       -29.4998
  92   2.0000      -1.066581       -29.0231
  93   2.0000      -1.057687       -28.7811
  94   2.0000      -1.036299       -28.1991
  95   2.0000      -1.013436       -27.5770
  96   2.0000      -1.011552       -27.5257
  97   2.0000      -1.010327       -27.4924
  98   2.0000      -1.004674       -27.3386
  99   2.0000      -0.995133       -27.0789
 100   2.0000      -0.991326       -26.9753
 101   2.0000      -0.986032       -26.8313
 102   2.0000      -0.981334       -26.7035
 103   2.0000      -0.979854       -26.6632
 104   2.0000      -0.971570       -26.4378
 105   2.0000      -0.958400       -26.0794
 106   2.0000      -0.951654       -25.8958
 107   2.0000      -0.930385       -25.3171
 108   2.0000      -0.921837       -25.0844
 109   2.0000      -0.900382       -24.5007
 110   2.0000      -0.898896       -24.4602
 111   2.0000      -0.895183       -24.3592
 112   2.0000      -0.872856       -23.7516
 113   2.0000      -0.870248       -23.6806
 114   2.0000      -0.868315       -23.6280
 115   2.0000      -0.866579       -23.5808
 116   2.0000      -0.859998       -23.4017
 117   2.0000      -0.851786       -23.1783
 118   2.0000      -0.825930       -22.4747
 119   2.0000      -0.823590       -22.4110
 120   2.0000      -0.819448       -22.2983
 121   2.0000      -0.804431       -21.8897
 122   2.0000      -0.792503       -21.5651
 123   2.0000      -0.789811       -21.4919
 124   2.0000      -0.782921       -21.3044
 125   2.0000      -0.774763       -21.0824
 126   2.0000      -0.760114       -20.6838
 127   2.0000      -0.752486       -20.4762
 128   2.0000      -0.744432       -20.2570
 129   2.0000      -0.737484       -20.0680
 130   2.0000      -0.734776       -19.9943
 131   2.0000      -0.724578       -19.7168
 132   2.0000      -0.718739       -19.5579
 133   2.0000      -0.708874       -19.2894
 134   2.0000      -0.704386       -19.1673
 135   2.0000      -0.698683       -19.0121
 136   2.0000      -0.697945       -18.9921
 137   2.0000      -0.690620       -18.7927
 138   2.0000      -0.680793       -18.5253
 139   2.0000      -0.677480       -18.4352
 140   2.0000      -0.666290       -18.1307
 141   2.0000      -0.662842       -18.0368
 142   2.0000      -0.651893       -17.7389
 143   2.0000      -0.650696       -17.7063
 144   2.0000      -0.647010       -17.6060
 145   2.0000      -0.644216       -17.5300
 146   2.0000      -0.638441       -17.3729
 147   2.0000      -0.626916       -17.0592
 148   2.0000      -0.625208       -17.0128
 149   2.0000      -0.620927       -16.8963
 150   2.0000      -0.615765       -16.7558
 151   2.0000      -0.608618       -16.5613
 152   2.0000      -0.608256       -16.5515
 153   2.0000      -0.600737       -16.3469
 154   2.0000      -0.588568       -16.0157
 155   2.0000      -0.587162       -15.9775
 156   2.0000      -0.578607       -15.7447
 157   2.0000      -0.571685       -15.5563
 158   2.0000      -0.569169       -15.4879
 159   2.0000      -0.565764       -15.3952
 160   2.0000      -0.560338       -15.2476
 161   2.0000      -0.557692       -15.1756
 162   2.0000      -0.556030       -15.1303
 163   2.0000      -0.555879       -15.1262
 164   2.0000      -0.554725       -15.0948
 165   2.0000      -0.552421       -15.0321
 166   2.0000      -0.550753       -14.9868
 167   2.0000      -0.549514       -14.9530
 168   2.0000      -0.543970       -14.8022
 169   2.0000      -0.540201       -14.6996
 170   2.0000      -0.530439       -14.4340
 171   2.0000      -0.530032       -14.4229
 172   2.0000      -0.526514       -14.3272
 173   2.0000      -0.526045       -14.3144
 174   2.0000      -0.521683       -14.1957
 175   2.0000      -0.520722       -14.1696
 176   2.0000      -0.517776       -14.0894
 177   2.0000      -0.513529       -13.9738
 178   2.0000      -0.512325       -13.9411
 179   2.0000      -0.511071       -13.9070
 180   2.0000      -0.510575       -13.8935
 181   2.0000      -0.507063       -13.7979
 182   2.0000      -0.502362       -13.6700
 183   2.0000      -0.487834       -13.2746
 184   2.0000      -0.486055       -13.2262
 185   2.0000      -0.483401       -13.1540
 186   2.0000      -0.479718       -13.0538
 187   2.0000      -0.477948       -13.0056
 188   2.0000      -0.475339       -12.9346
 189   2.0000      -0.473029       -12.8718
 190   2.0000      -0.470009       -12.7896
 191   2.0000      -0.467473       -12.7206
 192   2.0000      -0.466724       -12.7002
 193   2.0000      -0.463931       -12.6242
 194   2.0000      -0.460898       -12.5417
 195   2.0000      -0.459993       -12.5170
 196   2.0000      -0.454880       -12.3779
 197   2.0000      -0.451505       -12.2861
 198   2.0000      -0.449394       -12.2286
 199   2.0000      -0.448275       -12.1982
 200   2.0000      -0.447189       -12.1686
 201   2.0000      -0.445272       -12.1165
 202   2.0000      -0.442738       -12.0475
 203   2.0000      -0.439433       -11.9576
 204   2.0000      -0.436186       -11.8692
 205   2.0000      -0.434603       -11.8261
 206   2.0000      -0.433989       -11.8094
 207   2.0000      -0.433670       -11.8008
 208   2.0000      -0.430627       -11.7180
 209   2.0000      -0.429575       -11.6893
 210   2.0000      -0.428434       -11.6583
 211   2.0000      -0.426107       -11.5950
 212   2.0000      -0.422511       -11.4971
 213   2.0000      -0.416709       -11.3392
 214   2.0000      -0.411078       -11.1860
 215   2.0000      -0.409408       -11.1406
 216   2.0000      -0.406554       -11.0629
 217   2.0000      -0.406070       -11.0497
 218   2.0000      -0.405336       -11.0297
 219   2.0000      -0.403990       -10.9931
 220   2.0000      -0.400619       -10.9014
 221   2.0000      -0.398334       -10.8392
 222   2.0000      -0.394737       -10.7413
 223   2.0000      -0.388743       -10.5782
 224   2.0000      -0.388221       -10.5640
 225   2.0000      -0.386850       -10.5267
 226   2.0000      -0.370232       -10.0745
 227   2.0000      -0.368903       -10.0383
 228   2.0000      -0.366319        -9.9680
 229   2.0000      -0.356957        -9.7133
 230   2.0000      -0.350072        -9.5259
 231   2.0000      -0.346388        -9.4257
 232   2.0000      -0.340691        -9.2707
 233   2.0000      -0.336942        -9.1687
 234   2.0000      -0.336060        -9.1446
 235   2.0000      -0.334050        -9.0900
 236   2.0000      -0.329751        -8.9730
 237   2.0000      -0.327338        -8.9073
 238   2.0000      -0.322243        -8.7687
 239   2.0000      -0.314509        -8.5582
 240   2.0000      -0.312319        -8.4986
 241   2.0000      -0.309729        -8.4282
 242   2.0000      -0.282447        -7.6858
 243   2.0000      -0.263896        -7.1810
 244   2.0000      -0.233809        -6.3623
 245   0.0000      -0.119758        -3.2588
 246   0.0000      -0.101486        -2.7616
 247   0.0000      -0.086911        -2.3650
 248   0.0000      -0.071089        -1.9344
 249   0.0000      -0.038852        -1.0572

MULLIKEN ATOMIC CHARGES
-----------------------
   0 C :   -0.103893
   1 C :    0.019100
   2 C :   -0.049473
   3 N :   -0.000554
   4 C :    0.024148
   5 C :    0.019426
   6 N :   -0.021577
   7 C :    0.036705
   8 C :   -0.005421
   9 C :    0.114715
  10 N :   -0.275202
  11 S :    0.546800
  12 N :   -0.279635
  13 C :    0.058616
  14 C :   -0.056821
  15 C :   -0.057597
  16 N :    0.052536
  17 C :   -0.114189
  18 C :   -0.120200
  19 N :    0.074904
  20 C :   -0.220817
  21 N :    0.233205
  22 C :   -0.210637
  23 N :    0.226934
  24 C :    0.046733
  25 C :    0.041218
  26 C :    0.009106
  27 N :   -0.259522
  28 S :    0.539828
  29 N :   -0.285619
  30 C :    0.022665
  31 N :   -0.241163
  32 C :    0.108326
  33 C :   -0.005137
  34 C :    0.169735
  35 O :   -0.214705
  36 C :   -0.107041
  37 C :    0.004537
  38 C :    0.138366
  39 O :   -0.199168
  40 N :   -0.259926
  41 C :    0.099605
  42 C :    0.002817
  43 C :    0.160704
  44 C :   -0.037005
  45 C :    0.095259
  46 C :   -0.082007
  47 S :    0.184609
  48 C :   -0.045833
  49 C :   -0.074076
  50 C :    0.012103
  51 C :   -0.172504
  52 N :    0.124170
  53 C :    0.070267
  54 C :   -0.108115
  55 C :    0.127302
  56 C :   -0.054278
  57 C :    0.018534
  58 N :   -0.020022
  59 C :    0.019183
  60 C :    0.036540
  61 N :   -0.028968
  62 C :   -0.086336
  63 C :    0.115768
  64 C :   -0.030853
  65 N :   -0.276269
  66 S :    0.542087
  67 N :   -0.274866
  68 H :   -0.025383
  69 H :    0.009722
  70 H :    0.015683
  71 H :    0.033205
  72 H :    0.036155
  73 H :    0.019269
  74 H :    0.018761
  75 H :    0.024238
  76 H :    0.048392
  77 H :    0.028221
  78 H :    0.029906
  79 H :    0.026279
  80 H :    0.013310
  81 H :   -0.028189
  82 H :    0.009491
  83 H :   -0.002689
  84 H :   -0.002757
  85 H :    0.021568
  86 H :    0.018502
  87 H :    0.015203
  88 H :   -0.026011
Sum of atomic charges:   -0.0000000

LOEWDIN ATOMIC CHARGES
----------------------
   0 C :    0.005054
   1 C :   -0.016255
   2 C :    0.000358
   3 N :   -0.029396
   4 C :    0.008354
   5 C :    0.005478
   6 N :   -0.035153
   7 C :   -0.020179
   8 C :   -0.038011
   9 C :   -0.052971
  10 N :   -0.294582
  11 S :    0.691123
  12 N :   -0.288419
  13 C :   -0.000517
  14 C :    0.001996
  15 C :    0.010996
  16 N :    0.014354
  17 C :   -0.024670
  18 C :   -0.019515
  19 N :    0.011182
  20 C :   -0.033538
  21 N :   -0.013100
  22 C :   -0.033228
  23 N :   -0.018218
  24 C :   -0.037725
  25 C :   -0.037130
  26 C :   -0.034102
  27 N :   -0.269366
  28 S :    0.675387
  29 N :   -0.284835
  30 C :    0.071958
  31 N :    0.013203
  32 C :    0.028219
  33 C :   -0.062068
  34 C :    0.080496
  35 O :   -0.205016
  36 C :   -0.131219
  37 C :   -0.088260
  38 C :    0.084535
  39 O :   -0.193916
  40 N :    0.002555
  41 C :    0.037461
  42 C :   -0.061213
  43 C :    0.092565
  44 C :   -0.053239
  45 C :    0.024396
  46 C :   -0.179473
  47 S :    0.486684
  48 C :   -0.129917
  49 C :   -0.105962
  50 C :   -0.007422
  51 C :   -0.030620
  52 N :   -0.052724
  53 C :   -0.034928
  54 C :    0.005077
  55 C :   -0.023015
  56 C :   -0.009100
  57 C :   -0.013896
  58 N :   -0.030804
  59 C :    0.005071
  60 C :    0.013573
  61 N :   -0.030027
  62 C :   -0.004118
  63 C :   -0.055010
  64 C :   -0.043415
  65 N :   -0.285074
  66 S :    0.685003
  67 N :   -0.293415
  68 H :    0.045320
  69 H :    0.024939
  70 H :    0.026905
  71 H :    0.017493
  72 H :    0.032705
  73 H :    0.020842
  74 H :    0.029507
  75 H :    0.028856
  76 H :    0.040162
  77 H :    0.025235
  78 H :    0.032577
  79 H :    0.031795
  80 H :    0.020893
  81 H :    0.028190
  82 H :    0.037931
  83 H :    0.038399
  84 H :    0.026709
  85 H :    0.040777
  86 H :    0.028452
  87 H :    0.027592
  88 H :    0.044405

  Mayer bond orders larger than 0.100000
B(  0-C ,  1-C ) :   1.2919 B(  0-C ,  7-C ) :   0.1505 B(  0-C ,  9-C ) :   1.1619
B(  0-C , 68-H ) :   1.0751 B(  1-C ,  2-C ) :   1.1378 B(  1-C ,  6-N ) :   1.3542
B(  2-C ,  3-N ) :   1.4068 B(  2-C ,  7-C ) :   1.3901 B(  3-N ,  4-C ) :   1.7212
B(  4-C ,  5-C ) :   1.1526 B(  4-C , 69-H ) :   0.9725 B(  5-C ,  6-N ) :   1.7477
B(  5-C , 70-H ) :   0.9733 B(  7-C ,  8-C ) :   1.3159 B(  7-C , 13-C ) :   0.9399
B(  8-C ,  9-C ) :   1.1271 B(  8-C , 12-N ) :   1.4567 B(  9-C , 10-N ) :   1.4410
B( 10-N , 11-S ) :   1.3202 B( 10-N , 12-N ) :   0.1665 B( 11-S , 12-N ) :   1.3053
B( 13-C , 14-C ) :   1.3577 B( 13-C , 24-C ) :   0.1453 B( 13-C , 26-C ) :   1.2793
B( 14-C , 15-C ) :   1.1020 B( 14-C , 19-N ) :   1.4146 B( 15-C , 16-N ) :   1.4502
B( 15-C , 24-C ) :   1.2876 B( 16-N , 17-C ) :   1.7083 B( 17-C , 18-C ) :   1.1879
B( 17-C , 22-C ) :   1.1548 B( 18-C , 19-N ) :   1.7398 B( 18-C , 20-C ) :   1.1575
B( 20-C , 21-N ) :   3.0523 B( 22-C , 23-N ) :   3.0473 B( 24-C , 25-C ) :   1.2117
B( 24-C , 30-C ) :   1.0486 B( 25-C , 26-C ) :   1.0940 B( 25-C , 29-N ) :   1.4946
B( 26-C , 27-N ) :   1.4926 B( 27-N , 28-S ) :   1.3054 B( 27-N , 29-N ) :   0.1545
B( 28-S , 29-N ) :   1.2659 B( 30-C , 31-N ) :   1.2362 B( 30-C , 37-C ) :   1.3966
B( 31-N , 32-C ) :   0.9429 B( 31-N , 34-C ) :   1.0509 B( 32-C , 33-C ) :   1.1180
B( 32-C , 71-H ) :   0.9258 B( 32-C , 72-H ) :   0.9256 B( 33-C , 73-H ) :   0.9665
B( 33-C , 74-H ) :   0.9673 B( 33-C , 75-H ) :   0.9656 B( 34-C , 35-O ) :   2.0117
B( 34-C , 36-C ) :   0.9990 B( 35-O , 82-H ) :   0.1204 B( 36-C , 37-C ) :   1.2638
B( 36-C , 43-C ) :   1.3031 B( 37-C , 38-C ) :   0.9492 B( 38-C , 39-O ) :   2.1038
B( 38-C , 40-N ) :   1.0463 B( 40-N , 41-C ) :   0.9434 B( 40-N , 43-C ) :   1.1682
B( 41-C , 42-C ) :   1.1203 B( 41-C , 76-H ) :   0.9276 B( 41-C , 77-H ) :   0.9498
B( 42-C , 78-H ) :   0.9634 B( 42-C , 79-H ) :   0.9683 B( 42-C , 80-H ) :   0.9684
B( 43-C , 44-C ) :   1.1819 B( 44-C , 45-C ) :   1.6023 B( 44-C , 81-H ) :   0.9617
B( 45-C , 46-C ) :   1.1325 B( 45-C , 82-H ) :   0.9329 B( 46-C , 47-S ) :   1.1168
B( 46-C , 50-C ) :   1.4470 B( 47-S , 48-C ) :   1.1628 B( 48-C , 49-C ) :   1.4108
B( 48-C , 53-C ) :   1.1313 B( 49-C , 50-C ) :   1.3262 B( 49-C , 51-C ) :   1.1168
B( 50-C , 83-H ) :   0.9994 B( 51-C , 52-N ) :   2.9754 B( 53-C , 54-C ) :   1.6321
B( 53-C , 84-H ) :   0.9255 B( 54-C , 55-C ) :   1.1776 B( 54-C , 85-H ) :   0.9544
B( 55-C , 56-C ) :   1.2718 B( 55-C , 62-C ) :   0.1481 B( 55-C , 64-C ) :   1.2095
B( 56-C , 57-C ) :   1.1422 B( 56-C , 61-N ) :   1.4202 B( 57-C , 58-N ) :   1.3607
B( 57-C , 62-C ) :   1.3047 B( 58-N , 59-C ) :   1.7351 B( 59-C , 60-C ) :   1.1676
B( 59-C , 86-H ) :   0.9744 B( 60-C , 61-N ) :   1.6962 B( 60-C , 87-H ) :   0.9729
B( 62-C , 63-C ) :   1.1875 B( 62-C , 88-H ) :   1.0594 B( 63-C , 64-C ) :   1.1255
B( 63-C , 67-N ) :   1.4436 B( 64-C , 65-N ) :   1.5049 B( 65-N , 66-S ) :   1.2950
B( 65-N , 67-N ) :   0.1652 B( 66-S , 67-N ) :   1.3119

-----------------------------------------------------------------------------
         ABSORPTION SPECTRUM VIA TRANSITION ELECTRIC DIPOLE MOMENTS
-----------------------------------------------------------------------------
State   Energy  Wavelength   fosc         T2         TX        TY        TZ
        (cm-1)    (nm)                  (au**2)     (au)      (au)      (au)
-----------------------------------------------------------------------------
   0    9338.9   1070.8   0.613876320  21.64019  -0.26959   4.64408   0.00523
   1   16031.4    623.8   0.609540131  12.51722  -0.26851  -3.45680   0.70401
   2   17797.8    561.9   0.011639609   0.21530   0.10723   0.40615  -0.19709
   3   18285.4    546.9   0.090722407   1.63338  -0.13440  -1.25705  -0.18748
   4   19753.9    506.2   0.138303270   2.30492   0.57878   0.80796  -1.14767
   5   20441.6    489.2   0.225508438   3.63181   0.14405  -1.89904  -0.06860
   6   22422.2    446.0   0.004250362   0.06241   0.01187   0.24750   0.03175
   7   23103.0    432.8   0.008877398   0.12650   0.06068  -0.34032  -0.08368
   8   23983.7    417.0   0.027286655   0.37455  -0.19465  -0.57527   0.07570
   9   24507.7    408.0   0.003650059   0.04903   0.12757  -0.07016   0.16684
  10   24651.1    405.7   0.036637582   0.48929   0.01739  -0.52074   0.46671
  11   25337.1    394.7   0.048832880   0.63450  -0.16381   0.62133  -0.47076
  12   25561.9    391.2   0.037891554   0.48801   0.08415   0.68658  -0.09764
  13   26071.8    383.6   0.004549478   0.05745  -0.17760  -0.12300  -0.10380
  14   26407.6    378.7   0.007752885   0.09665   0.02410   0.28415  -0.12382
  15   26611.6    375.8   0.023797104   0.29439   0.19691   0.06432  -0.50148
  16   27160.8    368.2   0.067428379   0.81729   0.23360   0.82324   0.29152
  17   27533.8    363.2   0.208065732   2.48777   0.32534   1.34238  -0.76153
  18   28579.2    349.9   0.021064675   0.24265   0.10845  -0.47835  -0.04551
  19   29202.4    342.4   0.022404773   0.25258  -0.47797  -0.05078   0.14680
  20   29755.9    336.1   0.011728590   0.12976   0.07899  -0.22713  -0.26821
  21   30028.2    333.0   0.029945214   0.32830  -0.32876  -0.43740  -0.17001
  22   30298.5    330.0   0.017934115   0.19487   0.28584   0.14548   0.30331
  23   30498.9    327.9   0.159398488   1.72058  -0.43413  -1.23056  -0.13361
  24   30573.6    327.1   0.041854231   0.45068   0.03516  -0.15830   0.65145
  25   30925.5    323.4   0.297147650   3.16323  -0.94747   0.61287  -1.37475
  26   31099.1    321.6   0.036596510   0.38741  -0.05089  -0.28252   0.55227
  27   31503.1    317.4   0.121911174   1.27399   0.13273  -0.40298  -1.04593
  28   31870.8    313.8   0.231256751   2.38879   0.80316  -0.24189  -1.29816
  29   32017.2    312.3   0.037164572   0.38214   0.28403  -0.02406  -0.54853
  30   32112.4    311.4   0.015315696   0.15701   0.25965  -0.07918   0.28866
  31   32603.2    306.7   0.000298518   0.00301   0.03745  -0.01682   0.03645
  32   33104.8    302.1   0.101446043   1.00884  -0.43853   0.29490   0.85414
  33   33198.7    301.2   0.051676244   0.51244  -0.36546   0.12874   0.60192
  34   33558.9    298.0   0.016841798   0.16522   0.16589  -0.09886  -0.35767
  35   33603.3    297.6   0.035190505   0.34476  -0.19758   0.02161   0.55250
  36   34002.2    294.1   0.163667975   1.58464   0.20229   0.09953  -1.23847
  37   34363.4    291.0   0.054642543   0.52349   0.03696  -0.13443  -0.70997
  38   34553.9    289.4   0.061693608   0.58779   0.53642  -0.54346  -0.06846
  39   35216.9    284.0   0.028827070   0.26948  -0.31735  -0.33958  -0.23120
  40   35516.8    281.6   0.083794551   0.77671  -0.18197  -0.47741  -0.71810
  41   35631.9    280.6   0.013400013   0.12381  -0.15902  -0.26238  -0.17226
  42   35776.2    279.5   0.007697113   0.07083   0.20741  -0.14268  -0.08634
  43   36201.6    276.2   0.012403636   0.11280  -0.04344   0.23455   0.23642
  44   36723.6    272.3   0.098365597   0.88181   0.28100   0.09534   0.89093
  45   37050.9    269.9   0.042330803   0.37613  -0.09486   0.36273  -0.48534
  46   37116.8    269.4   0.050570848   0.44854   0.21359   0.39890   0.49376
  47   37135.9    269.3   0.092508082   0.82009  -0.27104  -0.47264  -0.72335
  48   37296.2    268.1   0.004746790   0.04190  -0.01047  -0.13197   0.15612
  49   37450.3    267.0   0.026430081   0.23234   0.28925   0.16243   0.34969
  50   37860.2    264.1   0.015309226   0.13312   0.11381   0.27532   0.21063
  51   38080.8    262.6   0.059131546   0.51120  -0.38541  -0.54341   0.25954
  52   38241.4    261.5   0.006939788   0.05974  -0.08976   0.16087  -0.16065
  53   38373.2    260.6   0.005910580   0.05071  -0.02492  -0.22353  -0.01099
  54   38811.1    257.7   0.002961869   0.02512   0.09790   0.11528   0.04743
  55   38977.0    256.6   0.015208966   0.12846   0.13135   0.07800   0.32423
  56   39402.2    253.8   0.010718863   0.08956  -0.26750   0.08561  -0.10330
  57   39715.6    251.8   0.031962480   0.26494  -0.15007  -0.06065  -0.48862
  58   40044.7    249.7   0.014878093   0.12231   0.12262  -0.32044  -0.06777
  59   40209.2    248.7   0.001570877   0.01286   0.10862  -0.02917   0.01460
  60   40297.4    248.2   0.005303689   0.04333  -0.10647   0.16851  -0.05999

FINAL SINGLE POINT ENERGY     -4397.318333620369

DIPOLE MOMENT
-------------
                                X             Y             Z
Electronic contribution:      4.32340      17.00737      -9.87731
Nuclear contribution   :     -3.82589     -17.04286      13.46565
                        -----------------------------------------
Total Dipole Moment    :      0.49751      -0.03549       3.58834
                        -----------------------------------------
Magnitude (a.u.)       :      3.62284
Magnitude (Debye)      :      9.20852

Rotational constants in cm-1:     0.002681     0.000292     0.000273
Rotational constants in MHz :    80.371381     8.747056     8.189070

                             ****ORCA TERMINATED NORMALLY****
TOTAL RUN TIME: 0 days 0 hours 8 minutes 42 seconds 819 msec
