                         Program Version 4.2.0 -  RELEASE  -
|  1> # ORCA input file
|  2> # SCF done       -221.143877269489          0.000588294337
|  3> ! CAM-B3LYP def2-SVP def2/J RIJCOSX Grid4 TightSCF
|  4> %maxcore 5000
|  5> %tddft
|  6>     Mode sTDDFT
|  7>     Ethresh 5.0
|  8>     maxcore 5000
|  9> end
| 10>
| 11> %pal
| 12>   nprocs 6
| 13>   end
| 14> * xyz 0 1
| 15>    C        2.18325        -7.37539         6.91870
| 16>    C        3.01458        -8.46001         6.94077
| 17>    F        3.97789        -8.55096         7.86495
| 18>    C        2.87030        -9.49455         5.99346
| 19>    F        3.69994       -10.54402         6.03846
| 20>    C        1.89608        -9.42959         5.03707
| 21>    C        1.02446        -8.32414         4.98741
| 22>    C        1.16836        -7.27805         5.94542
| 23>    C        0.30355        -6.16053         5.91644
| 24>    C       -0.67330        -6.09123         4.95788
| 25>    C       -0.80398        -7.13486         3.99901
| 26>    C        0.01506        -8.22796         4.00455
| 27>    C       -1.89671        -6.81762         3.06044
| 28>    O       -2.25118        -7.49180         2.11845
| 29>    C       -2.38920        -5.47384         3.47064
| 30>    C       -1.69837        -5.09001         4.69163
| 31>    C       -2.02952        -4.03750         5.50013
| 32>    C       -3.14247        -3.19088         5.29662
| 33>    N       -4.05823        -2.50349         5.22491
| 34>    C       -1.33825        -3.71395         6.68757
| 35>    N       -0.80357        -3.40896         7.65588
| 36>    C       -3.17122        -4.64037         2.72912
| 37>    C       -3.91826        -4.96043         1.56974
| 38>    O       -4.32614        -6.20571         1.28775
| 39>    C       -5.02171        -6.16578         0.13499
| 40>    C       -5.08369        -4.86111        -0.34226
| 41>    C       -4.38473        -4.07393         0.57967
| 42>    C       -4.13102        -2.62039         0.54198
| 43>    O       -3.32602        -2.09744         1.27878
| 44>    C       -4.93900        -1.86390        -0.47192
| 45>    C       -5.56808        -7.32731        -0.46592
| 46>    N       -5.52637        -8.59085         0.04344
| 47>    C       -4.98269        -8.99177         1.31259
| 48>    C       -6.12402        -9.52502        -0.83447
| 49>    O       -6.19447       -10.70966        -0.59653
| 50>    C       -6.56133        -8.72596        -1.96240
| 51>    C       -6.21245        -7.38279        -1.70503
| 52>    C       -6.61665        -6.58124        -2.84156
| 53>    O       -6.53377        -5.39049        -3.06712
| 54>    N       -7.17876        -7.50943        -3.72820
| 55>    C       -7.71970        -7.11103        -4.99993
| 56>    C       -7.15745        -8.79212        -3.22831
| 57>    C       -7.63302        -9.90734        -3.94385
| 58>    C       -7.69142       -11.15818        -3.39849
| 59>    C       -8.10053       -12.32212        -4.08964
| 60>    C       -8.27605       -13.53539        -3.36373
| 61>    C       -8.68795       -14.75441        -3.99649
| 62>    N       -8.81663       -15.87694        -3.26789
| 63>    C       -8.59915       -15.82894        -1.97887
| 64>    C       -8.23896       -14.59649        -1.33829
| 65>    N       -8.07346       -13.50449        -2.03993
| 66>    C       -8.04217       -14.55825         0.06588
| 67>    N       -7.89838       -14.57421         1.20175
| 68>    C       -8.70910       -17.01753        -1.21133
| 69>    N       -8.78918       -17.95263        -0.55570
| 70>    C       -9.00534       -14.81700        -5.37724
| 71>    C       -8.78048       -13.63184        -6.10968
| 72>    C       -8.34229       -12.40607        -5.48088
| 73>    N       -8.18877       -11.42845        -6.37612
| 74>    S       -8.53913       -11.98301        -7.83866
| 75>    N       -8.90719       -13.48971        -7.43095
| 76>    C       -9.45265       -16.04688        -5.93023
| 77>    C      -10.14826       -16.29951        -7.07256
| 78>    C      -10.11728       -17.68083        -7.63930
| 79>    O       -9.71741       -18.67940        -7.09138
| 80>    C      -10.62141       -17.54150        -9.02081
| 81>    C      -10.68611       -18.48169       -10.00803
| 82>    C      -11.18527       -18.11124       -11.27711
| 83>    C      -11.60246       -16.76640       -11.49893
| 84>    C      -12.08999       -16.40172       -12.77005
| 85>    C      -12.16368       -17.32847       -13.77177
| 86>    C      -11.75386       -18.65878       -13.55020
| 87>    C      -11.27470       -19.04326       -12.32921
| 88>    F      -11.83693       -19.54537       -14.55060
| 89>    F      -12.62732       -16.97918       -14.97860
| 90>    C      -11.53112       -15.81651       -10.45412
| 91>    C      -11.05351       -16.20048        -9.22964
| 92>    C      -10.89650       -15.46186        -7.97995
| 93>    C      -11.53202       -14.28757        -7.66934
| 94>    C      -11.55454       -13.72670        -6.37805
| 95>    N      -11.60584       -13.23396        -5.34200
| 96>    C      -12.26697       -13.52009        -8.59455
| 97>    N      -12.84277       -12.83359        -9.31214
| 98>    H        2.30650        -6.59366         7.65187
| 99>    H        1.79899       -10.22917         4.31948
|100>    H        0.44058        -5.38159         6.64901
|101>    H       -0.10533        -9.00798         3.26813
|102>    H       -3.20582        -3.58729         2.98238
|103>    H       -5.56778        -4.56112        -1.25078
|104>    H       -6.00003        -2.03961        -0.30991
|105>    H       -4.69014        -2.21353        -1.47184
|106>    H       -4.72440        -0.80177        -0.39383
|107>    H       -5.56218        -8.56179         2.13183
|108>    H       -3.94420        -8.67426         1.41132
|109>    H       -5.04739       -10.07863         1.35794
|110>    H       -7.60242        -6.02964        -5.06964
|111>    H       -8.77877        -7.36412        -5.06939
|112>    H       -7.17836        -7.58499        -5.82059
|113>    H       -7.96069        -9.75947        -4.96232
|114>    H       -7.42082       -11.30816        -2.36108
|115>    H       -9.15353       -16.92850        -5.37004
|116>    H      -10.36079       -19.49429        -9.82418
|117>    H      -12.41167       -15.38891       -12.95604
|118>    H      -10.96482       -20.06503       -12.17543
|119>    H      -11.84781       -14.80472       -10.65116
|120> *
|121>
|122>                          ****END OF INPUT****

CARTESIAN COORDINATES (ANGSTROEM)
---------------------------------
  C      2.183250   -7.375390    6.918700
  C      3.014580   -8.460010    6.940770
  F      3.977890   -8.550960    7.864950
  C      2.870300   -9.494550    5.993460
  F      3.699940  -10.544020    6.038460
  C      1.896080   -9.429590    5.037070
  C      1.024460   -8.324140    4.987410
  C      1.168360   -7.278050    5.945420
  C      0.303550   -6.160530    5.916440
  C     -0.673300   -6.091230    4.957880
  C     -0.803980   -7.134860    3.999010
  C      0.015060   -8.227960    4.004550
  C     -1.896710   -6.817620    3.060440
  O     -2.251180   -7.491800    2.118450
  C     -2.389200   -5.473840    3.470640
  C     -1.698370   -5.090010    4.691630
  C     -2.029520   -4.037500    5.500130
  C     -3.142470   -3.190880    5.296620
  N     -4.058230   -2.503490    5.224910
  C     -1.338250   -3.713950    6.687570
  N     -0.803570   -3.408960    7.655880
  C     -3.171220   -4.640370    2.729120
  C     -3.918260   -4.960430    1.569740
  O     -4.326140   -6.205710    1.287750
  C     -5.021710   -6.165780    0.134990
  C     -5.083690   -4.861110   -0.342260
  C     -4.384730   -4.073930    0.579670
  C     -4.131020   -2.620390    0.541980
  O     -3.326020   -2.097440    1.278780
  C     -4.939000   -1.863900   -0.471920
  C     -5.568080   -7.327310   -0.465920
  N     -5.526370   -8.590850    0.043440
  C     -4.982690   -8.991770    1.312590
  C     -6.124020   -9.525020   -0.834470
  O     -6.194470  -10.709660   -0.596530
  C     -6.561330   -8.725960   -1.962400
  C     -6.212450   -7.382790   -1.705030
  C     -6.616650   -6.581240   -2.841560
  O     -6.533770   -5.390490   -3.067120
  N     -7.178760   -7.509430   -3.728200
  C     -7.719700   -7.111030   -4.999930
  C     -7.157450   -8.792120   -3.228310
  C     -7.633020   -9.907340   -3.943850
  C     -7.691420  -11.158180   -3.398490
  C     -8.100530  -12.322120   -4.089640
  C     -8.276050  -13.535390   -3.363730
  C     -8.687950  -14.754410   -3.996490
  N     -8.816630  -15.876940   -3.267890
  C     -8.599150  -15.828940   -1.978870
  C     -8.238960  -14.596490   -1.338290
  N     -8.073460  -13.504490   -2.039930
  C     -8.042170  -14.558250    0.065880
  N     -7.898380  -14.574210    1.201750
  C     -8.709100  -17.017530   -1.211330
  N     -8.789180  -17.952630   -0.555700
  C     -9.005340  -14.817000   -5.377240
  C     -8.780480  -13.631840   -6.109680
  C     -8.342290  -12.406070   -5.480880
  N     -8.188770  -11.428450   -6.376120
  S     -8.539130  -11.983010   -7.838660
  N     -8.907190  -13.489710   -7.430950
  C     -9.452650  -16.046880   -5.930230
  C    -10.148260  -16.299510   -7.072560
  C    -10.117280  -17.680830   -7.639300
  O     -9.717410  -18.679400   -7.091380
  C    -10.621410  -17.541500   -9.020810
  C    -10.686110  -18.481690  -10.008030
  C    -11.185270  -18.111240  -11.277110
  C    -11.602460  -16.766400  -11.498930
  C    -12.089990  -16.401720  -12.770050
  C    -12.163680  -17.328470  -13.771770
  C    -11.753860  -18.658780  -13.550200
  C    -11.274700  -19.043260  -12.329210
  F    -11.836930  -19.545370  -14.550600
  F    -12.627320  -16.979180  -14.978600
  C    -11.531120  -15.816510  -10.454120
  C    -11.053510  -16.200480   -9.229640
  C    -10.896500  -15.461860   -7.979950
  C    -11.532020  -14.287570   -7.669340
  C    -11.554540  -13.726700   -6.378050
  N    -11.605840  -13.233960   -5.342000
  C    -12.266970  -13.520090   -8.594550
  N    -12.842770  -12.833590   -9.312140
  H      2.306500   -6.593660    7.651870
  H      1.798990  -10.229170    4.319480
  H      0.440580   -5.381590    6.649010
  H     -0.105330   -9.007980    3.268130
  H     -3.205820   -3.587290    2.982380
  H     -5.567780   -4.561120   -1.250780
  H     -6.000030   -2.039610   -0.309910
  H     -4.690140   -2.213530   -1.471840
  H     -4.724400   -0.801770   -0.393830
  H     -5.562180   -8.561790    2.131830
  H     -3.944200   -8.674260    1.411320
  H     -5.047390  -10.078630    1.357940
  H     -7.602420   -6.029640   -5.069640
  H     -8.778770   -7.364120   -5.069390
  H     -7.178360   -7.584990   -5.820590
  H     -7.960690   -9.759470   -4.962320
  H     -7.420820  -11.308160   -2.361080
  H     -9.153530  -16.928500   -5.370040
  H    -10.360790  -19.494290   -9.824180
  H    -12.411670  -15.388910  -12.956040
  H    -10.964820  -20.065030  -12.175430
  H    -11.847810  -14.804720  -10.651160

 Total Charge           Charge          ....    0
 Multiplicity           Mult            ....    1
 Number of Electrons    NEL             ....  566
 Basis Dimension        Dim             .... 1276

ORBITAL ENERGIES
----------------

  NO   OCC          E(Eh)            E(eV)
   0   2.0000     -89.059968     -2423.4449
   1   2.0000     -24.804462      -674.9637
   2   2.0000     -24.803684      -674.9426
   3   2.0000     -24.800980      -674.8690
   4   2.0000     -24.800674      -674.8606
   5   2.0000     -19.332059      -526.0521
   6   2.0000     -19.231300      -523.3103
   7   2.0000     -19.226507      -523.1798
   8   2.0000     -19.220600      -523.0191
   9   2.0000     -19.214710      -522.8588
  10   2.0000     -19.208624      -522.6932
  11   2.0000     -14.477499      -393.9528
  12   2.0000     -14.472265      -393.8104
  13   2.0000     -14.470911      -393.7735
  14   2.0000     -14.469128      -393.7250
  15   2.0000     -14.468807      -393.7163
  16   2.0000     -14.463520      -393.5724
  17   2.0000     -14.435433      -392.8081
  18   2.0000     -14.430343      -392.6696
  19   2.0000     -14.425511      -392.5381
  20   2.0000     -14.424701      -392.5161
  21   2.0000     -14.423328      -392.4787
  22   2.0000     -14.422888      -392.4667
  23   2.0000     -10.395792      -282.8839
  24   2.0000     -10.393411      -282.8191
  25   2.0000     -10.392328      -282.7896
  26   2.0000     -10.388409      -282.6830
  27   2.0000     -10.387913      -282.6695
  28   2.0000     -10.386636      -282.6347
  29   2.0000     -10.384297      -282.5711
  30   2.0000     -10.384108      -282.5659
  31   2.0000     -10.383955      -282.5618
  32   2.0000     -10.381835      -282.5041
  33   2.0000     -10.376712      -282.3647
  34   2.0000     -10.375555      -282.3332
  35   2.0000     -10.371012      -282.2096
  36   2.0000     -10.370793      -282.2036
  37   2.0000     -10.362504      -281.9781
  38   2.0000     -10.359050      -281.8841
  39   2.0000     -10.356720      -281.8207
  40   2.0000     -10.355514      -281.7879
  41   2.0000     -10.355332      -281.7829
  42   2.0000     -10.354290      -281.7545
  43   2.0000     -10.351070      -281.6669
  44   2.0000     -10.347566      -281.5716
  45   2.0000     -10.344974      -281.5011
  46   2.0000     -10.336302      -281.2651
  47   2.0000     -10.332163      -281.1524
  48   2.0000     -10.327778      -281.0331
  49   2.0000     -10.327343      -281.0213
  50   2.0000     -10.327028      -281.0127
  51   2.0000     -10.326081      -280.9869
  52   2.0000     -10.324671      -280.9486
  53   2.0000     -10.323770      -280.9241
  54   2.0000     -10.323468      -280.9158
  55   2.0000     -10.319950      -280.8201
  56   2.0000     -10.319707      -280.8135
  57   2.0000     -10.319167      -280.7988
  58   2.0000     -10.318717      -280.7866
  59   2.0000     -10.318457      -280.7795
  60   2.0000     -10.316815      -280.7348
  61   2.0000     -10.314117      -280.6614
  62   2.0000     -10.313539      -280.6457
  63   2.0000     -10.313060      -280.6326
  64   2.0000     -10.311969      -280.6029
  65   2.0000     -10.311485      -280.5898
  66   2.0000     -10.310954      -280.5753
  67   2.0000     -10.310658      -280.5673
  68   2.0000     -10.310262      -280.5565
  69   2.0000     -10.308110      -280.4979
  70   2.0000     -10.307229      -280.4740
  71   2.0000     -10.306166      -280.4450
  72   2.0000     -10.305773      -280.4343
  73   2.0000     -10.305573      -280.4289
  74   2.0000     -10.304625      -280.4031
  75   2.0000     -10.304117      -280.3893
  76   2.0000     -10.303581      -280.3747
  77   2.0000     -10.303251      -280.3657
  78   2.0000     -10.303101      -280.3616
  79   2.0000     -10.297117      -280.1988
  80   2.0000     -10.289027      -279.9787
  81   2.0000     -10.286795      -279.9179
  82   2.0000     -10.281077      -279.7623
  83   2.0000      -8.150865      -221.7963
  84   2.0000      -6.121911      -166.5857
  85   2.0000      -6.114119      -166.3736
  86   2.0000      -6.113804      -166.3651
  87   2.0000      -1.327478       -36.1225
  88   2.0000      -1.323904       -36.0253
  89   2.0000      -1.312563       -35.7166
  90   2.0000      -1.309046       -35.6209
  91   2.0000      -1.255455       -34.1627
  92   2.0000      -1.155969       -31.4555
  93   2.0000      -1.154711       -31.4213
  94   2.0000      -1.146853       -31.2075
  95   2.0000      -1.146685       -31.2029
  96   2.0000      -1.144135       -31.1335
  97   2.0000      -1.136324       -30.9209
  98   2.0000      -1.129659       -30.7396
  99   2.0000      -1.085535       -29.5389
 100   2.0000      -1.074860       -29.2484
 101   2.0000      -1.055567       -28.7235
 102   2.0000      -1.029375       -28.0107
 103   2.0000      -1.027909       -27.9708
 104   2.0000      -1.018493       -27.7146
 105   2.0000      -1.012567       -27.5534
 106   2.0000      -1.010859       -27.5069
 107   2.0000      -1.009204       -27.4618
 108   2.0000      -1.006166       -27.3792
 109   2.0000      -1.002685       -27.2844
 110   2.0000      -1.002515       -27.2798
 111   2.0000      -0.990987       -26.9661
 112   2.0000      -0.990286       -26.9470
 113   2.0000      -0.983696       -26.7677
 114   2.0000      -0.948608       -25.8129
 115   2.0000      -0.946425       -25.7535
 116   2.0000      -0.939225       -25.5576
 117   2.0000      -0.936443       -25.4819
 118   2.0000      -0.931801       -25.3556
 119   2.0000      -0.929317       -25.2880
 120   2.0000      -0.917593       -24.9690
 121   2.0000      -0.908207       -24.7136
 122   2.0000      -0.905948       -24.6521
 123   2.0000      -0.899598       -24.4793
 124   2.0000      -0.897330       -24.4176
 125   2.0000      -0.892448       -24.2847
 126   2.0000      -0.879398       -23.9296
 127   2.0000      -0.864585       -23.5266
 128   2.0000      -0.855486       -23.2790
 129   2.0000      -0.848960       -23.1014
 130   2.0000      -0.848549       -23.0902
 131   2.0000      -0.844858       -22.9897
 132   2.0000      -0.843737       -22.9592
 133   2.0000      -0.830061       -22.5871
 134   2.0000      -0.817809       -22.2537
 135   2.0000      -0.811998       -22.0956
 136   2.0000      -0.791595       -21.5404
 137   2.0000      -0.783734       -21.3265
 138   2.0000      -0.777562       -21.1585
 139   2.0000      -0.776706       -21.1352
 140   2.0000      -0.769713       -20.9450
 141   2.0000      -0.758150       -20.6303
 142   2.0000      -0.753186       -20.4952
 143   2.0000      -0.747601       -20.3433
 144   2.0000      -0.742808       -20.2128
 145   2.0000      -0.732153       -19.9229
 146   2.0000      -0.726917       -19.7804
 147   2.0000      -0.723370       -19.6839
 148   2.0000      -0.719890       -19.5892
 149   2.0000      -0.717753       -19.5310
 150   2.0000      -0.704622       -19.1737
 151   2.0000      -0.697367       -18.9763
 152   2.0000      -0.695979       -18.9385
 153   2.0000      -0.694959       -18.9108
 154   2.0000      -0.689390       -18.7593
 155   2.0000      -0.687511       -18.7081
 156   2.0000      -0.685500       -18.6534
 157   2.0000      -0.673631       -18.3304
 158   2.0000      -0.670660       -18.2496
 159   2.0000      -0.665330       -18.1045
 160   2.0000      -0.661847       -18.0098
 161   2.0000      -0.656122       -17.8540
 162   2.0000      -0.652788       -17.7633
 163   2.0000      -0.649499       -17.6738
 164   2.0000      -0.646020       -17.5791
 165   2.0000      -0.639231       -17.3944
 166   2.0000      -0.633805       -17.2467
 167   2.0000      -0.627355       -17.0712
 168   2.0000      -0.620469       -16.8838
 169   2.0000      -0.616666       -16.7803
 170   2.0000      -0.614952       -16.7337
 171   2.0000      -0.607172       -16.5220
 172   2.0000      -0.604411       -16.4469
 173   2.0000      -0.600613       -16.3435
 174   2.0000      -0.597127       -16.2486
 175   2.0000      -0.593646       -16.1539
 176   2.0000      -0.592969       -16.1355
 177   2.0000      -0.591830       -16.1045
 178   2.0000      -0.591554       -16.0970
 179   2.0000      -0.588370       -16.0104
 180   2.0000      -0.585857       -15.9420
 181   2.0000      -0.582224       -15.8431
 182   2.0000      -0.581528       -15.8242
 183   2.0000      -0.578096       -15.7308
 184   2.0000      -0.572822       -15.5873
 185   2.0000      -0.570583       -15.5263
 186   2.0000      -0.566204       -15.4072
 187   2.0000      -0.562589       -15.3088
 188   2.0000      -0.560274       -15.2458
 189   2.0000      -0.557816       -15.1789
 190   2.0000      -0.557764       -15.1775
 191   2.0000      -0.553204       -15.0534
 192   2.0000      -0.549936       -14.9645
 193   2.0000      -0.549670       -14.9573
 194   2.0000      -0.547864       -14.9081
 195   2.0000      -0.545910       -14.8550
 196   2.0000      -0.543536       -14.7904
 197   2.0000      -0.543253       -14.7827
 198   2.0000      -0.541433       -14.7331
 199   2.0000      -0.539293       -14.6749
 200   2.0000      -0.538567       -14.6551
 201   2.0000      -0.535751       -14.5785
 202   2.0000      -0.534496       -14.5444
 203   2.0000      -0.530873       -14.4458
 204   2.0000      -0.529069       -14.3967
 205   2.0000      -0.527030       -14.3412
 206   2.0000      -0.524231       -14.2650
 207   2.0000      -0.521505       -14.1909
 208   2.0000      -0.521135       -14.1808
 209   2.0000      -0.517507       -14.0821
 210   2.0000      -0.514370       -13.9967
 211   2.0000      -0.513640       -13.9768
 212   2.0000      -0.508537       -13.8380
 213   2.0000      -0.507135       -13.7999
 214   2.0000      -0.505647       -13.7594
 215   2.0000      -0.503316       -13.6959
 216   2.0000      -0.502076       -13.6622
 217   2.0000      -0.496573       -13.5124
 218   2.0000      -0.494661       -13.4604
 219   2.0000      -0.493411       -13.4264
 220   2.0000      -0.492447       -13.4002
 221   2.0000      -0.490303       -13.3418
 222   2.0000      -0.488744       -13.2994
 223   2.0000      -0.484531       -13.1848
 224   2.0000      -0.484025       -13.1710
 225   2.0000      -0.483103       -13.1459
 226   2.0000      -0.480963       -13.0877
 227   2.0000      -0.478288       -13.0149
 228   2.0000      -0.477302       -12.9880
 229   2.0000      -0.471177       -12.8214
 230   2.0000      -0.470862       -12.8128
 231   2.0000      -0.467442       -12.7198
 232   2.0000      -0.464706       -12.6453
 233   2.0000      -0.462191       -12.5769
 234   2.0000      -0.459501       -12.5037
 235   2.0000      -0.459295       -12.4981
 236   2.0000      -0.458542       -12.4776
 237   2.0000      -0.457510       -12.4495
 238   2.0000      -0.455019       -12.3817
 239   2.0000      -0.454227       -12.3602
 240   2.0000      -0.453042       -12.3279
 241   2.0000      -0.450971       -12.2715
 242   2.0000      -0.450834       -12.2678
 243   2.0000      -0.448143       -12.1946
 244   2.0000      -0.447487       -12.1767
 245   2.0000      -0.443865       -12.0782
 246   2.0000      -0.439937       -11.9713
 247   2.0000      -0.437946       -11.9171
 248   2.0000      -0.437581       -11.9072
 249   2.0000      -0.435256       -11.8439
 250   2.0000      -0.434767       -11.8306
 251   2.0000      -0.434636       -11.8270
 252   2.0000      -0.432173       -11.7600
 253   2.0000      -0.426298       -11.6002
 254   2.0000      -0.424255       -11.5446
 255   2.0000      -0.421154       -11.4602
 256   2.0000      -0.420908       -11.4535
 257   2.0000      -0.414728       -11.2853
 258   2.0000      -0.413335       -11.2474
 259   2.0000      -0.412469       -11.2238
 260   2.0000      -0.404735       -11.0134
 261   2.0000      -0.396593       -10.7918
 262   2.0000      -0.392571       -10.6824
 263   2.0000      -0.390855       -10.6357
 264   2.0000      -0.385362       -10.4862
 265   2.0000      -0.374935       -10.2025
 266   2.0000      -0.369617       -10.0578
 267   2.0000      -0.368892       -10.0381
 268   2.0000      -0.367937       -10.0121
 269   2.0000      -0.357915        -9.7394
 270   2.0000      -0.353293        -9.6136
 271   2.0000      -0.352251        -9.5852
 272   2.0000      -0.351220        -9.5572
 273   2.0000      -0.347007        -9.4425
 274   2.0000      -0.338587        -9.2134
 275   2.0000      -0.335685        -9.1345
 276   2.0000      -0.326089        -8.8733
 277   2.0000      -0.319713        -8.6998
 278   2.0000      -0.319285        -8.6882
 279   2.0000      -0.306325        -8.3355
 280   2.0000      -0.303634        -8.2623
 281   2.0000      -0.298316        -8.1176
 282   2.0000      -0.250158        -6.8071
 283   0.0000      -0.149664        -4.0726
 284   0.0000      -0.114069        -3.1040
 285   0.0000      -0.086313        -2.3487
 286   0.0000      -0.079639        -2.1671
 287   0.0000      -0.069929        -1.9029

MULLIKEN ATOMIC CHARGES
-----------------------
   0 C :   -0.106749
   1 C :    0.242832
   2 F :   -0.168467
   3 C :    0.239889
   4 F :   -0.169255
   5 C :   -0.103520
   6 C :    0.116907
   7 C :    0.113764
   8 C :   -0.083097
   9 C :    0.058108
  10 C :   -0.012303
  11 C :   -0.079085
  12 C :    0.158404
  13 O :   -0.140928
  14 C :   -0.062428
  15 C :    0.290668
  16 C :   -0.321332
  17 C :   -0.201606
  18 N :    0.172189
  19 C :   -0.182231
  20 N :    0.155373
  21 C :   -0.052807
  22 C :    0.111161
  23 O :   -0.152038
  24 C :    0.092670
  25 C :   -0.074014
  26 C :    0.048561
  27 C :    0.004137
  28 O :   -0.170180
  29 C :    0.041847
  30 C :    0.184156
  31 N :   -0.256296
  32 C :    0.115879
  33 C :    0.163843
  34 O :   -0.166817
  35 C :   -0.047234
  36 C :   -0.097476
  37 C :    0.163189
  38 O :   -0.206007
  39 N :   -0.270102
  40 C :    0.116579
  41 C :    0.141562
  42 C :    0.014713
  43 C :   -0.089483
  44 C :    0.108363
  45 C :   -0.056355
  46 C :   -0.030669
  47 N :    0.063049
  48 C :   -0.128630
  49 C :   -0.135907
  50 N :    0.074890
  51 C :   -0.193919
  52 N :    0.234191
  53 C :   -0.200364
  54 N :    0.243530
  55 C :    0.099520
  56 C :   -0.028450
  57 C :    0.056762
  58 N :   -0.287498
  59 S :    0.562454
  60 N :   -0.287833
  61 C :   -0.044885
  62 C :   -0.104286
  63 C :    0.134414
  64 O :   -0.130669
  65 C :    0.014645
  66 C :   -0.082734
  67 C :    0.111720
  68 C :    0.113482
  69 C :   -0.107029
  70 C :    0.241556
  71 C :    0.238961
  72 C :   -0.103048
  73 F :   -0.171159
  74 F :   -0.170819
  75 C :   -0.088606
  76 C :    0.037632
  77 C :    0.336626
  78 C :   -0.341542
  79 C :   -0.198413
  80 N :    0.156701
  81 C :   -0.193467
  82 N :    0.155110
  83 H :    0.009862
  84 H :    0.002801
  85 H :   -0.002028
  86 H :   -0.008473
  87 H :    0.059509
  88 H :    0.013748
  89 H :    0.050095
  90 H :    0.053177
  91 H :    0.042691
  92 H :    0.030077
  93 H :    0.057159
  94 H :    0.058641
  95 H :    0.062325
  96 H :    0.042089
  97 H :    0.039814
  98 H :   -0.004751
  99 H :    0.033261
 100 H :    0.038702
 101 H :   -0.007592
 102 H :    0.005404
 103 H :    0.000232
 104 H :   -0.007042
Sum of atomic charges:   -0.0000000

LOEWDIN ATOMIC CHARGES
----------------------
   0 C :   -0.028895
   1 C :    0.068893
   2 F :   -0.045855
   3 C :    0.069074
   4 F :   -0.046641
   5 C :   -0.032314
   6 C :   -0.008176
   7 C :   -0.004713
   8 C :    0.018713
   9 C :   -0.022590
  10 C :   -0.054866
  11 C :    0.032599
  12 C :    0.086490
  13 O :   -0.137100
  14 C :   -0.069724
  15 C :    0.070130
  16 C :   -0.123184
  17 C :   -0.026134
  18 N :   -0.036781
  19 C :   -0.016635
  20 N :   -0.043867
  21 C :    0.050393
  22 C :    0.058826
  23 O :    0.062884
  24 C :    0.030169
  25 C :   -0.003046
  26 C :   -0.074968
  27 C :    0.087300
  28 O :   -0.131541
  29 C :   -0.070914
  30 C :    0.072785
  31 N :    0.008481
  32 C :    0.022980
  33 C :    0.085660
  34 O :   -0.161439
  35 C :   -0.094561
  36 C :   -0.116150
  37 C :    0.079527
  38 O :   -0.202863
  39 N :   -0.004263
  40 C :    0.029950
  41 C :    0.064618
  42 C :   -0.002932
  43 C :    0.020260
  44 C :    0.008974
  45 C :   -0.002038
  46 C :    0.020155
  47 N :   -0.001246
  48 C :   -0.011411
  49 C :   -0.026872
  50 N :    0.018309
  51 C :   -0.033665
  52 N :   -0.001292
  53 C :   -0.034301
  54 N :    0.006073
  55 C :   -0.046148
  56 C :   -0.034558
  57 C :   -0.033502
  58 N :   -0.272831
  59 S :    0.687736
  60 N :   -0.277709
  61 C :    0.071499
  62 C :   -0.074139
  63 C :    0.084292
  64 O :   -0.131595
  65 C :   -0.053876
  66 C :    0.031750
  67 C :   -0.009565
  68 C :   -0.005575
  69 C :   -0.031259
  70 C :    0.067085
  71 C :    0.066923
  72 C :   -0.032166
  73 F :   -0.048617
  74 F :   -0.048474
  75 C :    0.011761
  76 C :   -0.017286
  77 C :    0.076893
  78 C :   -0.139382
  79 C :   -0.016231
  80 N :   -0.061732
  81 C :   -0.021401
  82 N :   -0.055907
  83 H :    0.048600
  84 H :    0.045808
  85 H :    0.040921
  86 H :    0.040616
  87 H :    0.056959
  88 H :    0.039462
  89 H :    0.048668
  90 H :    0.050851
  91 H :    0.044041
  92 H :    0.027690
  93 H :    0.029633
  94 H :    0.039905
  95 H :    0.042953
  96 H :    0.030581
  97 H :    0.028991
  98 H :    0.031731
  99 H :    0.040914
 100 H :    0.051432
 101 H :    0.041297
 102 H :    0.046807
 103 H :    0.045251
 104 H :    0.038635

  Mayer bond orders larger than 0.100000
B(  0-C ,  1-C ) :   1.4428 B(  0-C ,  5-C ) :   0.1076 B(  0-C ,  7-C ) :   1.1888
B(  0-C , 83-H ) :   1.0065 B(  1-C ,  2-F ) :   1.1375 B(  1-C ,  3-C ) :   1.1882
B(  3-C ,  4-F ) :   1.1358 B(  3-C ,  5-C ) :   1.4445 B(  5-C ,  6-C ) :   1.1930
B(  5-C , 84-H ) :   1.0065 B(  6-C ,  7-C ) :   1.2524 B(  6-C , 11-C ) :   1.1954
B(  7-C ,  8-C ) :   1.2194 B(  8-C ,  9-C ) :   1.4491 B(  8-C , 85-H ) :   0.9911
B(  9-C , 10-C ) :   1.2192 B(  9-C , 15-C ) :   0.9955 B( 10-C , 11-C ) :   1.4686
B( 10-C , 12-C ) :   0.9485 B( 11-C , 86-H ) :   1.0159 B( 12-C , 13-O ) :   2.1776
B( 12-C , 14-C ) :   0.9360 B( 14-C , 15-C ) :   1.0434 B( 14-C , 21-C ) :   1.5852
B( 15-C , 16-C ) :   1.6658 B( 16-C , 17-C ) :   1.1344 B( 16-C , 19-C ) :   1.1412
B( 17-C , 18-N ) :   3.0021 B( 19-C , 20-N ) :   2.9691 B( 21-C , 22-C ) :   1.2029
B( 21-C , 87-H ) :   0.9134 B( 22-C , 23-O ) :   1.1829 B( 22-C , 24-C ) :   0.1096
B( 22-C , 26-C ) :   1.3462 B( 23-O , 24-C ) :   1.1661 B( 24-C , 25-C ) :   1.4373
B( 24-C , 30-C ) :   1.0754 B( 25-C , 26-C ) :   1.2569 B( 25-C , 88-H ) :   0.9732
B( 26-C , 27-C ) :   0.9097 B( 27-C , 28-O ) :   2.1475 B( 27-C , 29-C ) :   1.0800
B( 29-C , 89-H ) :   0.9502 B( 29-C , 90-H ) :   0.9359 B( 29-C , 91-H ) :   0.9462
B( 30-C , 31-N ) :   1.2378 B( 30-C , 36-C ) :   1.3472 B( 31-N , 32-C ) :   0.9422
B( 31-N , 33-C ) :   1.0282 B( 32-C , 92-H ) :   0.9722 B( 32-C , 93-H ) :   0.9578
B( 32-C , 94-H ) :   0.9492 B( 33-C , 34-O ) :   2.0864 B( 33-C , 35-C ) :   0.9711
B( 35-C , 36-C ) :   1.2816 B( 35-C , 41-C ) :   1.3098 B( 36-C , 37-C ) :   0.9784
B( 37-C , 38-O ) :   2.0554 B( 37-C , 39-N ) :   1.0692 B( 39-N , 40-C ) :   0.9615
B( 39-N , 41-C ) :   1.1559 B( 40-C , 95-H ) :   0.9515 B( 40-C , 96-H ) :   0.9731
B( 40-C , 97-H ) :   0.9715 B( 41-C , 42-C ) :   1.1825 B( 42-C , 43-C ) :   1.4716
B( 42-C , 98-H ) :   0.9499 B( 43-C , 44-C ) :   1.2503 B( 43-C , 99-H ) :   0.9449
B( 44-C , 45-C ) :   1.1928 B( 44-C , 55-C ) :   0.1262 B( 44-C , 57-C ) :   1.1618
B( 45-C , 46-C ) :   1.1360 B( 45-C , 50-N ) :   1.4747 B( 46-C , 47-N ) :   1.4622
B( 46-C , 55-C ) :   1.2550 B( 47-N , 48-C ) :   1.7446 B( 48-C , 49-C ) :   1.2048
B( 48-C , 53-C ) :   1.1498 B( 49-C , 50-N ) :   1.7410 B( 49-C , 51-C ) :   1.1460
B( 51-C , 52-N ) :   3.0442 B( 53-C , 54-N ) :   3.0486 B( 55-C , 56-C ) :   1.1909
B( 55-C , 61-C ) :   1.1377 B( 56-C , 57-C ) :   1.1153 B( 56-C , 60-N ) :   1.5123
B( 57-C , 58-N ) :   1.4988 B( 58-N , 59-S ) :   1.2878 B( 58-N , 60-N ) :   0.1429
B( 59-S , 60-N ) :   1.2713 B( 61-C , 62-C ) :   1.6139 B( 61-C ,100-H ) :   0.9339
B( 62-C , 63-C ) :   0.9350 B( 62-C , 77-C ) :   1.0462 B( 63-C , 64-O ) :   2.2777
B( 63-C , 65-C ) :   0.9157 B( 65-C , 66-C ) :   1.4750 B( 65-C , 76-C ) :   1.2171
B( 66-C , 67-C ) :   1.1933 B( 66-C ,101-H ) :   1.0160 B( 67-C , 68-C ) :   1.2572
B( 67-C , 72-C ) :   1.1943 B( 68-C , 69-C ) :   1.1896 B( 68-C , 75-C ) :   1.2131
B( 69-C , 70-C ) :   1.4419 B( 69-C , 72-C ) :   0.1082 B( 69-C ,102-H ) :   1.0064
B( 70-C , 71-C ) :   1.1909 B( 70-C , 74-F ) :   1.1345 B( 71-C , 72-C ) :   1.4429
B( 71-C , 73-F ) :   1.1337 B( 72-C ,103-H ) :   1.0068 B( 75-C , 76-C ) :   1.4546
B( 75-C ,104-H ) :   0.9931 B( 76-C , 77-C ) :   1.0048 B( 77-C , 78-C ) :   1.6293
B( 78-C , 79-C ) :   1.1767 B( 78-C , 81-C ) :   1.1447 B( 79-C , 80-N ) :   2.9865
B( 81-C , 82-N ) :   2.9818

-----------------------------------------------------------------------------
         ABSORPTION SPECTRUM VIA TRANSITION ELECTRIC DIPOLE MOMENTS
-----------------------------------------------------------------------------
State   Energy  Wavelength   fosc         T2         TX        TY        TZ
        (cm-1)    (nm)                  (au**2)     (au)      (au)      (au)
-----------------------------------------------------------------------------
   0    7581.9   1318.9   0.693563618  30.11495   2.47905   3.54687   3.37476
   1   15892.2    629.2   0.296669687   6.14560   1.41316   0.21737   2.02518
   2   16766.8    596.4   0.037882230   0.74381   0.54945   0.34823   0.56626
   3   19208.0    520.6   0.113848071   1.95128  -0.34593  -1.07872  -0.81730
   4   21420.3    466.8   0.285955357   4.39489   1.06877   0.68009   1.67036
   5   22215.4    450.1   0.029374739   0.43531  -0.05446  -0.64526  -0.12643
   6   22786.1    438.9   0.131530766   1.90035  -0.64284  -0.55174  -1.08751
   7   23078.3    433.3   0.016400486   0.23395  -0.07906   0.47706   0.01072
   8   23245.4    430.2   0.001548921   0.02194   0.01721   0.14619   0.01636
   9   24317.1    411.2   0.003138608   0.04249   0.12890   0.12076   0.10628
  10   24794.6    403.3   0.121980502   1.61960  -0.92170  -0.27228  -0.83423
  11   25019.3    399.7   0.001632449   0.02148   0.13638  -0.02021   0.04973
  12   25541.5    391.5   0.024285872   0.31303   0.00227   0.04418  -0.55774
  13   25664.1    389.6   0.030316110   0.38889  -0.32104  -0.45411  -0.28214
  14   26242.1    381.1   0.026265648   0.32951  -0.42057   0.10211   0.37710
  15   26660.5    375.1   0.093798736   1.15825   0.39186  -0.48250   0.87857
  16   27164.9    368.1   0.043304954   0.52481   0.62732  -0.35524   0.07131
  17   27586.9    362.5   0.026988444   0.32207  -0.04652  -0.46615   0.32032
  18   27769.8    360.1   0.067053169   0.79492   0.43647  -0.11554   0.76881
  19   27908.0    358.3   0.025801577   0.30436   0.36096  -0.29934   0.29064
  20   28039.3    356.6   0.214474696   2.51817   0.32482  -0.70446   1.38434
  21   28362.2    352.6   0.215743437   2.50422   0.16580   1.20314   1.01449
  22   28835.5    346.8   0.064004448   0.73073  -0.16289  -0.61568   0.57021
  23   29290.7    341.4   0.050196414   0.56418  -0.59821  -0.44238   0.10306
  24   29737.1    336.3   0.212723640   2.35501   0.97844  -0.72411   0.93453
  25   29810.5    335.5   0.008799738   0.09718   0.29508   0.04676   0.08901
  26   30166.3    331.5   0.019372016   0.21141   0.27196   0.12567  -0.34879
  27   30866.1    324.0   0.037551025   0.40051   0.17313  -0.34437   0.50194
  28   31046.0    322.1   0.028539092   0.30263   0.31934  -0.10257  -0.43604
  29   31077.2    321.8   0.482946441   5.11603  -0.37271  -0.11127  -2.22817
  30   31145.4    321.1   0.215944727   2.28257  -0.28602   1.39164  -0.51391
  31   31292.4    319.6   0.053613778   0.56404  -0.40394   0.42818   0.46641
  32   32336.5    309.2   0.037514727   0.38193  -0.26087  -0.49289  -0.26633
  33   32953.0    303.5   0.043027029   0.42986  -0.53318   0.38019  -0.03212
  34   33238.7    300.9   0.062830586   0.62230   0.24424   0.45336   0.59759
  35   33341.2    299.9   0.557711820   5.50687  -1.53085   1.77195  -0.15350
  36   33551.1    298.1   0.017069733   0.16749   0.09781   0.22042  -0.33067
  37   33591.4    297.7   0.046347542   0.45423  -0.34837   0.41146  -0.40444
  38   33606.6    297.6   0.089892214   0.88059   0.69591  -0.62138   0.10090
  39   34075.9    293.5   0.046028443   0.44469  -0.06322   0.62316  -0.22883
  40   34218.0    292.2   0.002833290   0.02726   0.14042  -0.05709  -0.06543
  41   34319.0    291.4   0.033542363   0.32176  -0.46454  -0.17834   0.27233
  42   34379.7    290.9   0.059896596   0.57356  -0.30278   0.49737   0.48426
  43   34676.8    288.4   0.046269153   0.43927  -0.33182   0.56666  -0.08978
  44   35561.9    281.2   0.218743675   2.02501  -0.12271  -1.14823  -0.83158
  45   35622.9    280.7   0.287708209   2.65888   0.14589  -0.77023  -1.42980
  46   35874.5    278.7   0.159197522   1.46092  -0.04640   0.70121   0.98340
  47   35972.6    278.0   0.104412327   0.95555   0.00223   0.86961   0.44646
  48   36337.1    275.2   0.132128277   1.19707  -0.18282   1.07504   0.08910
  49   36708.1    272.4   0.257769605   2.31178  -0.07454   1.45374   0.43914
  50   36920.4    270.9   0.035596772   0.31741  -0.40390   0.34421   0.18919
  51   37239.0    268.5   0.175638855   1.55274   0.13851  -0.48506   1.13942
  52   37310.5    268.0   0.060475376   0.53361   0.02013  -0.42702   0.59233
  53   37495.6    266.7   0.007185046   0.06308  -0.05088   0.23567   0.07040
  54   37788.4    264.6   0.009440259   0.08224   0.12244  -0.14768   0.21317
  55   37897.2    263.9   0.127078157   1.10392   0.13438   0.62459   0.83412
  56   38234.6    261.5   0.064277908   0.55345   0.17533   0.16787  -0.70323
  57   38380.3    260.6   0.048919397   0.41961  -0.47154  -0.21571  -0.38824
  58   38559.7    259.3   0.009001872   0.07686  -0.07923  -0.09461   0.24825
  59   39006.0    256.4   0.016652881   0.14055  -0.23203  -0.22229   0.19313
  60   39241.0    254.8   0.001847239   0.01550   0.12238   0.02146   0.00779
  61   39546.2    252.9   0.014191160   0.11814  -0.01754   0.06334   0.33737
  62   39643.6    252.2   0.127496527   1.05877  -0.30746  -0.06006  -0.98012
  63   39676.8    252.0   0.028121102   0.23333  -0.09048  -0.30560   0.36298
  64   39957.9    250.3   0.029474742   0.24284   0.04521  -0.27397   0.40711
  65   40053.7    249.7   0.139864975   1.14959   0.24203  -1.02926   0.17783

FINAL SINGLE POINT ENERGY     -4200.662631105140

DIPOLE MOMENT
-------------
                                X             Y             Z
Electronic contribution:     -0.52538     -46.64994     -12.74321
Nuclear contribution   :      2.13959      47.44190       9.52448
                        -----------------------------------------
Total Dipole Moment    :      1.61420       0.79196      -3.21873
                        -----------------------------------------
Magnitude (a.u.)       :      3.68688
Magnitude (Debye)      :      9.37130

Rotational constants in cm-1:     0.001463     0.000206     0.000190
Rotational constants in MHz :    43.853481     6.164405     5.681895

                             ****ORCA TERMINATED NORMALLY****
TOTAL RUN TIME: 0 days 0 hours 11 minutes 36 seconds 461 msec
