                         Program Version 4.2.0 -  RELEASE  -
|  1> # ORCA input file
|  2> # SCF done       -225.220699033164          0.000443474571
|  3> ! CAM-B3LYP def2-SVP def2/J RIJCOSX Grid4 TightSCF
|  4> %maxcore 5000
|  5> %tddft
|  6>     Mode sTDDFT
|  7>     Ethresh 5.0
|  8>     maxcore 5000
|  9> end
| 10>
| 11> %pal
| 12>   nprocs 6
| 13>   end
| 14> * xyz 0 1
| 15>    C       -7.49064        -0.01479        10.03214
| 16>    C       -8.33979        -0.22201        11.08328
| 17>    F       -8.32040         0.60289        12.13675
| 18>    C       -9.24458        -1.30288        11.07222
| 19>    F      -10.06512        -1.48179        12.11485
| 20>    C       -9.28773        -2.16180        10.00958
| 21>    C       -8.42632        -1.97391         8.91159
| 22>    C       -7.51076        -0.88182         8.92155
| 23>    C       -6.63710        -0.67168         7.82944
| 24>    C       -6.67938        -1.52559         6.75940
| 25>    C       -7.59931        -2.61246         6.75839
| 26>    C       -8.45295        -2.84306         7.79832
| 27>    C       -7.45270        -3.36257         5.50197
| 28>    O       -8.08603        -4.34881         5.16270
| 29>    C       -6.41344        -2.67603         4.73160
| 30>    C       -5.92195        -1.55497         5.50963
| 31>    C       -4.92649        -0.67664         5.16596
| 32>    C       -4.49747         0.38979         5.98491
| 33>    N       -4.10622         1.27435         6.60243
| 34>    C       -4.19008        -0.70587         3.96333
| 35>    N       -3.55719        -0.67615         3.00501
| 36>    C       -6.01048        -3.01490         3.46275
| 37>    C       -6.41724        -4.06441         2.63351
| 38>    S       -7.56461        -5.31222         3.02497
| 39>    C       -7.43528        -6.01447         1.46232
| 40>    C       -6.50196        -5.35398         0.64776
| 41>    C       -5.91519        -4.23874         1.31522
| 42>    C       -4.94080        -3.47617         0.65610
| 43>    C       -4.54472        -3.83309        -0.61608
| 44>    C       -3.56431        -3.07085        -1.29583
| 45>    N       -2.77463        -2.45310        -1.84895
| 46>    C       -5.09207        -4.98160        -1.25707
| 47>    C       -4.63195        -5.35044        -2.54382
| 48>    N       -4.27715        -5.66566        -3.58598
| 49>    C       -6.05646        -5.73676        -0.62783
| 50>    C       -8.23008        -7.16069         1.15003
| 51>    N       -8.99875        -7.31452         0.02272
| 52>    C       -9.38265        -6.27747        -0.90785
| 53>    C      -10.29436        -5.24552        -0.25029
| 54>    C       -9.67883        -8.56010         0.03054
| 55>    O      -10.45406        -8.90631        -0.83196
| 56>    C       -9.22065        -9.20010         1.24103
| 57>    C       -8.36074        -8.30622         1.92019
| 58>    C       -7.86384        -8.98336         3.10028
| 59>    O       -7.10171        -8.63642         3.97375
| 60>    N       -8.47268       -10.25924         3.05399
| 61>    C       -8.26377       -11.18468         4.14204
| 62>    C       -9.49401       -11.30345         5.03726
| 63>    C       -9.28356       -10.39902         1.94926
| 64>    C      -10.07449       -11.48312         1.50107
| 65>    C      -10.15423       -12.76244         1.95973
| 66>    C      -11.01199       -13.74250         1.40883
| 67>    S      -10.57854       -15.40865         1.55603
| 68>    C      -11.85903       -15.94151         0.51989
| 69>    C      -12.69181       -14.85708         0.18092
| 70>    C      -12.21244       -13.60514         0.67913
| 71>    C      -12.97726       -12.44550         0.48224
| 72>    C      -14.15923       -12.51599        -0.22305
| 73>    C      -14.93926       -11.35078        -0.41364
| 74>    N      -15.57008       -10.40444        -0.54734
| 75>    C      -14.63730       -13.76489        -0.71166
| 76>    C      -15.87224       -13.83622        -1.39841
| 77>    N      -16.86507       -13.93481        -1.96073
| 78>    C      -13.92278       -14.92034        -0.48856
| 79>    C      -11.93345       -17.29773         0.14759
| 80>    C      -12.48101       -17.85688        -0.97192
| 81>    C      -12.80433       -19.31211        -0.96907
| 82>    O      -12.45819       -20.12327        -0.14252
| 83>    C      -13.67370       -19.51714        -2.14410
| 84>    C      -14.34368       -20.64144        -2.53202
| 85>    C      -15.15980       -20.59100        -3.68470
| 86>    C      -15.27395       -19.36885        -4.40971
| 87>    C      -16.10109       -19.32155        -5.54957
| 88>    C      -16.77810       -20.43756        -5.95521
| 89>    C      -16.66089       -21.64714        -5.24041
| 90>    C      -15.86967       -21.72354        -4.12832
| 91>    F      -17.33491       -22.72464        -5.66090
| 92>    F      -17.56102       -20.39349        -7.03920
| 93>    C      -14.55996       -18.22286        -3.99055
| 94>    C      -13.76335       -18.30035        -2.87994
| 95>    C      -12.90286       -17.30802        -2.24136
| 96>    C      -12.41505       -16.17842        -2.84898
| 97>    C      -11.39719       -15.37537        -2.30133
| 98>    N      -10.54882       -14.71551        -1.89708
| 99>    C      -12.81518       -15.74079        -4.12854
|100>    N      -13.11803       -15.33321        -5.15729
|101>    H       -6.80439         0.81727        10.05693
|102>    H       -9.98615        -2.98391        10.01636
|103>    H       -5.95841         0.16462         7.86892
|104>    H       -9.13965        -3.67533         7.77100
|105>    H       -5.26998        -2.36895         3.01252
|106>    H       -4.47847        -2.62026         1.12459
|107>    H       -6.43717        -6.63064        -1.09867
|108>    H       -9.91651        -6.78725        -1.71450
|109>    H       -8.49811        -5.78856        -1.32139
|110>    H      -11.18383        -5.72824         0.14728
|111>    H      -10.60037        -4.50770        -0.98620
|112>    H       -9.78063        -4.73516         0.56226
|113>    H       -7.43150       -10.77113         4.71998
|114>    H       -7.95755       -12.15791         3.75000
|115>    H       -9.73077       -10.33415         5.46890
|116>    H       -9.29377       -12.00201         5.84482
|117>    H      -10.35862       -11.65281         4.47735
|118>    H      -10.63956       -11.22234         0.61626
|119>    H       -9.48779       -13.11774         2.73153
|120>    H      -12.67412       -11.50139         0.90484
|121>    H      -14.33371       -15.86962        -0.79588
|122>    H      -11.52140       -18.01289         0.85413
|123>    H      -14.25455       -21.55649        -1.96662
|124>    H      -16.19974       -18.40426        -6.10869
|125>    H      -15.79218       -22.65632        -3.59202
|126>    H      -14.67097       -17.30835        -4.55111
|127> *
|128>
|129>                          ****END OF INPUT****

CARTESIAN COORDINATES (ANGSTROEM)
---------------------------------
  C     -7.490640   -0.014790   10.032140
  C     -8.339790   -0.222010   11.083280
  F     -8.320400    0.602890   12.136750
  C     -9.244580   -1.302880   11.072220
  F    -10.065120   -1.481790   12.114850
  C     -9.287730   -2.161800   10.009580
  C     -8.426320   -1.973910    8.911590
  C     -7.510760   -0.881820    8.921550
  C     -6.637100   -0.671680    7.829440
  C     -6.679380   -1.525590    6.759400
  C     -7.599310   -2.612460    6.758390
  C     -8.452950   -2.843060    7.798320
  C     -7.452700   -3.362570    5.501970
  O     -8.086030   -4.348810    5.162700
  C     -6.413440   -2.676030    4.731600
  C     -5.921950   -1.554970    5.509630
  C     -4.926490   -0.676640    5.165960
  C     -4.497470    0.389790    5.984910
  N     -4.106220    1.274350    6.602430
  C     -4.190080   -0.705870    3.963330
  N     -3.557190   -0.676150    3.005010
  C     -6.010480   -3.014900    3.462750
  C     -6.417240   -4.064410    2.633510
  S     -7.564610   -5.312220    3.024970
  C     -7.435280   -6.014470    1.462320
  C     -6.501960   -5.353980    0.647760
  C     -5.915190   -4.238740    1.315220
  C     -4.940800   -3.476170    0.656100
  C     -4.544720   -3.833090   -0.616080
  C     -3.564310   -3.070850   -1.295830
  N     -2.774630   -2.453100   -1.848950
  C     -5.092070   -4.981600   -1.257070
  C     -4.631950   -5.350440   -2.543820
  N     -4.277150   -5.665660   -3.585980
  C     -6.056460   -5.736760   -0.627830
  C     -8.230080   -7.160690    1.150030
  N     -8.998750   -7.314520    0.022720
  C     -9.382650   -6.277470   -0.907850
  C    -10.294360   -5.245520   -0.250290
  C     -9.678830   -8.560100    0.030540
  O    -10.454060   -8.906310   -0.831960
  C     -9.220650   -9.200100    1.241030
  C     -8.360740   -8.306220    1.920190
  C     -7.863840   -8.983360    3.100280
  O     -7.101710   -8.636420    3.973750
  N     -8.472680  -10.259240    3.053990
  C     -8.263770  -11.184680    4.142040
  C     -9.494010  -11.303450    5.037260
  C     -9.283560  -10.399020    1.949260
  C    -10.074490  -11.483120    1.501070
  C    -10.154230  -12.762440    1.959730
  C    -11.011990  -13.742500    1.408830
  S    -10.578540  -15.408650    1.556030
  C    -11.859030  -15.941510    0.519890
  C    -12.691810  -14.857080    0.180920
  C    -12.212440  -13.605140    0.679130
  C    -12.977260  -12.445500    0.482240
  C    -14.159230  -12.515990   -0.223050
  C    -14.939260  -11.350780   -0.413640
  N    -15.570080  -10.404440   -0.547340
  C    -14.637300  -13.764890   -0.711660
  C    -15.872240  -13.836220   -1.398410
  N    -16.865070  -13.934810   -1.960730
  C    -13.922780  -14.920340   -0.488560
  C    -11.933450  -17.297730    0.147590
  C    -12.481010  -17.856880   -0.971920
  C    -12.804330  -19.312110   -0.969070
  O    -12.458190  -20.123270   -0.142520
  C    -13.673700  -19.517140   -2.144100
  C    -14.343680  -20.641440   -2.532020
  C    -15.159800  -20.591000   -3.684700
  C    -15.273950  -19.368850   -4.409710
  C    -16.101090  -19.321550   -5.549570
  C    -16.778100  -20.437560   -5.955210
  C    -16.660890  -21.647140   -5.240410
  C    -15.869670  -21.723540   -4.128320
  F    -17.334910  -22.724640   -5.660900
  F    -17.561020  -20.393490   -7.039200
  C    -14.559960  -18.222860   -3.990550
  C    -13.763350  -18.300350   -2.879940
  C    -12.902860  -17.308020   -2.241360
  C    -12.415050  -16.178420   -2.848980
  C    -11.397190  -15.375370   -2.301330
  N    -10.548820  -14.715510   -1.897080
  C    -12.815180  -15.740790   -4.128540
  N    -13.118030  -15.333210   -5.157290
  H     -6.804390    0.817270   10.056930
  H     -9.986150   -2.983910   10.016360
  H     -5.958410    0.164620    7.868920
  H     -9.139650   -3.675330    7.771000
  H     -5.269980   -2.368950    3.012520
  H     -4.478470   -2.620260    1.124590
  H     -6.437170   -6.630640   -1.098670
  H     -9.916510   -6.787250   -1.714500
  H     -8.498110   -5.788560   -1.321390
  H    -11.183830   -5.728240    0.147280
  H    -10.600370   -4.507700   -0.986200
  H     -9.780630   -4.735160    0.562260
  H     -7.431500  -10.771130    4.719980
  H     -7.957550  -12.157910    3.750000
  H     -9.730770  -10.334150    5.468900
  H     -9.293770  -12.002010    5.844820
  H    -10.358620  -11.652810    4.477350
  H    -10.639560  -11.222340    0.616260
  H     -9.487790  -13.117740    2.731530
  H    -12.674120  -11.501390    0.904840
  H    -14.333710  -15.869620   -0.795880
  H    -11.521400  -18.012890    0.854130
  H    -14.254550  -21.556490   -1.966620
  H    -16.199740  -18.404260   -6.108690
  H    -15.792180  -22.656320   -3.592020
  H    -14.670970  -17.308350   -4.551110

 Total Charge           Charge          ....    0
 Multiplicity           Mult            ....    1
 Number of Electrons    NEL             ....  592
 Basis Dimension        Dim             .... 1342

ORBITAL ENERGIES
----------------

  NO   OCC          E(Eh)            E(eV)
   0   2.0000     -89.012591     -2422.1557
   1   2.0000     -89.011958     -2422.1385
   2   2.0000     -24.807737      -675.0528
   3   2.0000     -24.806542      -675.0203
   4   2.0000     -24.803615      -674.9407
   5   2.0000     -24.802423      -674.9083
   6   2.0000     -19.241489      -523.5875
   7   2.0000     -19.229032      -523.2486
   8   2.0000     -19.214995      -522.8666
   9   2.0000     -19.212318      -522.7938
  10   2.0000     -14.478945      -393.9921
  11   2.0000     -14.476508      -393.9258
  12   2.0000     -14.435039      -392.7974
  13   2.0000     -14.430056      -392.6618
  14   2.0000     -14.427902      -392.6032
  15   2.0000     -14.426016      -392.5518
  16   2.0000     -14.425039      -392.5253
  17   2.0000     -14.421173      -392.4201
  18   2.0000     -14.420551      -392.4032
  19   2.0000     -14.419745      -392.3812
  20   2.0000     -10.398294      -282.9520
  21   2.0000     -10.397960      -282.9429
  22   2.0000     -10.391726      -282.7732
  23   2.0000     -10.390984      -282.7530
  24   2.0000     -10.388333      -282.6809
  25   2.0000     -10.387515      -282.6586
  26   2.0000     -10.386824      -282.6399
  27   2.0000     -10.380318      -282.4628
  28   2.0000     -10.372332      -282.2455
  29   2.0000     -10.366186      -282.0783
  30   2.0000     -10.358687      -281.8742
  31   2.0000     -10.358262      -281.8626
  32   2.0000     -10.357505      -281.8420
  33   2.0000     -10.357416      -281.8396
  34   2.0000     -10.355090      -281.7763
  35   2.0000     -10.352671      -281.7105
  36   2.0000     -10.351044      -281.6662
  37   2.0000     -10.350151      -281.6419
  38   2.0000     -10.349011      -281.6109
  39   2.0000     -10.348736      -281.6034
  40   2.0000     -10.348416      -281.5947
  41   2.0000     -10.347526      -281.5705
  42   2.0000     -10.343779      -281.4685
  43   2.0000     -10.340469      -281.3785
  44   2.0000     -10.337635      -281.3014
  45   2.0000     -10.334384      -281.2129
  46   2.0000     -10.333814      -281.1974
  47   2.0000     -10.333096      -281.1778
  48   2.0000     -10.332397      -281.1588
  49   2.0000     -10.332396      -281.1588
  50   2.0000     -10.331959      -281.1469
  51   2.0000     -10.331852      -281.1440
  52   2.0000     -10.331156      -281.1250
  53   2.0000     -10.330547      -281.1085
  54   2.0000     -10.330037      -281.0946
  55   2.0000     -10.329035      -281.0673
  56   2.0000     -10.328012      -281.0395
  57   2.0000     -10.327954      -281.0379
  58   2.0000     -10.325298      -280.9656
  59   2.0000     -10.324018      -280.9308
  60   2.0000     -10.322410      -280.8871
  61   2.0000     -10.321946      -280.8744
  62   2.0000     -10.321646      -280.8663
  63   2.0000     -10.320332      -280.8305
  64   2.0000     -10.318865      -280.7906
  65   2.0000     -10.318464      -280.7797
  66   2.0000     -10.318407      -280.7781
  67   2.0000     -10.318006      -280.7672
  68   2.0000     -10.317768      -280.7607
  69   2.0000     -10.317694      -280.7587
  70   2.0000     -10.317352      -280.7494
  71   2.0000     -10.316750      -280.7330
  72   2.0000     -10.315999      -280.7126
  73   2.0000     -10.314586      -280.6741
  74   2.0000     -10.311875      -280.6004
  75   2.0000     -10.311589      -280.5926
  76   2.0000     -10.310933      -280.5748
  77   2.0000     -10.310555      -280.5645
  78   2.0000     -10.307293      -280.4757
  79   2.0000     -10.307077      -280.4698
  80   2.0000     -10.305976      -280.4399
  81   2.0000     -10.303651      -280.3766
  82   2.0000     -10.291144      -280.0363
  83   2.0000     -10.289185      -279.9829
  84   2.0000     -10.283062      -279.8163
  85   2.0000     -10.277595      -279.6676
  86   2.0000      -8.107842      -220.6256
  87   2.0000      -8.103882      -220.5178
  88   2.0000      -6.076659      -165.3543
  89   2.0000      -6.072919      -165.2525
  90   2.0000      -6.072576      -165.2432
  91   2.0000      -6.070846      -165.1961
  92   2.0000      -6.068107      -165.1216
  93   2.0000      -6.067246      -165.0981
  94   2.0000      -1.330483       -36.2043
  95   2.0000      -1.326472       -36.0951
  96   2.0000      -1.315565       -35.7983
  97   2.0000      -1.311533       -35.6886
  98   2.0000      -1.157127       -31.4870
  99   2.0000      -1.156579       -31.4721
 100   2.0000      -1.149955       -31.2919
 101   2.0000      -1.144589       -31.1458
 102   2.0000      -1.089192       -29.6384
 103   2.0000      -1.079000       -29.3611
 104   2.0000      -1.048708       -28.5368
 105   2.0000      -1.042768       -28.3752
 106   2.0000      -1.035242       -28.1704
 107   2.0000      -1.030939       -28.0533
 108   2.0000      -1.018857       -27.7245
 109   2.0000      -1.018355       -27.7108
 110   2.0000      -1.015179       -27.6244
 111   2.0000      -1.014334       -27.6014
 112   2.0000      -1.009269       -27.4636
 113   2.0000      -1.005928       -27.3727
 114   2.0000      -1.002892       -27.2901
 115   2.0000      -1.000351       -27.2209
 116   2.0000      -0.995293       -27.0833
 117   2.0000      -0.991612       -26.9831
 118   2.0000      -0.980641       -26.6846
 119   2.0000      -0.977773       -26.6066
 120   2.0000      -0.955842       -26.0098
 121   2.0000      -0.952340       -25.9145
 122   2.0000      -0.948565       -25.8118
 123   2.0000      -0.939072       -25.5534
 124   2.0000      -0.934799       -25.4372
 125   2.0000      -0.918799       -25.0018
 126   2.0000      -0.913342       -24.8533
 127   2.0000      -0.908428       -24.7196
 128   2.0000      -0.904240       -24.6056
 129   2.0000      -0.900836       -24.5130
 130   2.0000      -0.898429       -24.4475
 131   2.0000      -0.895560       -24.3694
 132   2.0000      -0.894119       -24.3302
 133   2.0000      -0.889231       -24.1972
 134   2.0000      -0.887472       -24.1493
 135   2.0000      -0.866530       -23.5795
 136   2.0000      -0.857271       -23.3275
 137   2.0000      -0.852640       -23.2015
 138   2.0000      -0.848701       -23.0943
 139   2.0000      -0.840842       -22.8805
 140   2.0000      -0.832914       -22.6647
 141   2.0000      -0.822261       -22.3749
 142   2.0000      -0.801848       -21.8194
 143   2.0000      -0.793683       -21.5972
 144   2.0000      -0.783709       -21.3258
 145   2.0000      -0.780894       -21.2492
 146   2.0000      -0.778891       -21.1947
 147   2.0000      -0.778604       -21.1869
 148   2.0000      -0.777312       -21.1517
 149   2.0000      -0.764186       -20.7946
 150   2.0000      -0.759149       -20.6575
 151   2.0000      -0.747524       -20.3412
 152   2.0000      -0.739946       -20.1349
 153   2.0000      -0.733098       -19.9486
 154   2.0000      -0.730749       -19.8847
 155   2.0000      -0.726975       -19.7820
 156   2.0000      -0.726789       -19.7769
 157   2.0000      -0.721420       -19.6308
 158   2.0000      -0.711773       -19.3683
 159   2.0000      -0.706175       -19.2160
 160   2.0000      -0.701052       -19.0766
 161   2.0000      -0.696185       -18.9442
 162   2.0000      -0.694563       -18.9000
 163   2.0000      -0.693940       -18.8831
 164   2.0000      -0.678375       -18.4595
 165   2.0000      -0.672574       -18.3017
 166   2.0000      -0.670544       -18.2464
 167   2.0000      -0.666623       -18.1397
 168   2.0000      -0.661026       -17.9874
 169   2.0000      -0.654730       -17.8161
 170   2.0000      -0.650336       -17.6966
 171   2.0000      -0.650192       -17.6926
 172   2.0000      -0.645611       -17.5680
 173   2.0000      -0.640843       -17.4382
 174   2.0000      -0.634644       -17.2696
 175   2.0000      -0.632276       -17.2051
 176   2.0000      -0.627165       -17.0660
 177   2.0000      -0.625216       -17.0130
 178   2.0000      -0.624366       -16.9899
 179   2.0000      -0.613426       -16.6922
 180   2.0000      -0.610397       -16.6098
 181   2.0000      -0.607209       -16.5230
 182   2.0000      -0.603063       -16.4102
 183   2.0000      -0.598303       -16.2806
 184   2.0000      -0.594973       -16.1900
 185   2.0000      -0.594409       -16.1747
 186   2.0000      -0.592092       -16.1116
 187   2.0000      -0.590796       -16.0764
 188   2.0000      -0.585574       -15.9343
 189   2.0000      -0.583429       -15.8759
 190   2.0000      -0.583038       -15.8653
 191   2.0000      -0.571625       -15.5547
 192   2.0000      -0.571052       -15.5391
 193   2.0000      -0.570042       -15.5116
 194   2.0000      -0.566528       -15.4160
 195   2.0000      -0.565891       -15.3987
 196   2.0000      -0.562600       -15.3091
 197   2.0000      -0.561417       -15.2769
 198   2.0000      -0.560007       -15.2386
 199   2.0000      -0.558356       -15.1936
 200   2.0000      -0.556295       -15.1376
 201   2.0000      -0.554038       -15.0761
 202   2.0000      -0.553062       -15.0496
 203   2.0000      -0.552180       -15.0256
 204   2.0000      -0.549905       -14.9637
 205   2.0000      -0.548542       -14.9266
 206   2.0000      -0.546322       -14.8662
 207   2.0000      -0.542965       -14.7748
 208   2.0000      -0.541722       -14.7410
 209   2.0000      -0.539089       -14.6694
 210   2.0000      -0.537976       -14.6391
 211   2.0000      -0.536790       -14.6068
 212   2.0000      -0.535354       -14.5677
 213   2.0000      -0.529324       -14.4036
 214   2.0000      -0.527690       -14.3592
 215   2.0000      -0.526500       -14.3268
 216   2.0000      -0.525156       -14.2902
 217   2.0000      -0.524223       -14.2648
 218   2.0000      -0.521126       -14.1806
 219   2.0000      -0.514506       -14.0004
 220   2.0000      -0.514376       -13.9969
 221   2.0000      -0.513742       -13.9796
 222   2.0000      -0.512185       -13.9373
 223   2.0000      -0.510771       -13.8988
 224   2.0000      -0.508299       -13.8315
 225   2.0000      -0.506926       -13.7941
 226   2.0000      -0.506129       -13.7725
 227   2.0000      -0.498930       -13.5766
 228   2.0000      -0.495742       -13.4898
 229   2.0000      -0.495091       -13.4721
 230   2.0000      -0.492702       -13.4071
 231   2.0000      -0.489006       -13.3065
 232   2.0000      -0.485214       -13.2033
 233   2.0000      -0.482483       -13.1290
 234   2.0000      -0.478865       -13.0306
 235   2.0000      -0.476207       -12.9583
 236   2.0000      -0.475476       -12.9384
 237   2.0000      -0.473751       -12.8914
 238   2.0000      -0.473227       -12.8772
 239   2.0000      -0.470952       -12.8153
 240   2.0000      -0.470147       -12.7934
 241   2.0000      -0.468565       -12.7503
 242   2.0000      -0.465759       -12.6739
 243   2.0000      -0.465230       -12.6595
 244   2.0000      -0.462062       -12.5734
 245   2.0000      -0.460226       -12.5234
 246   2.0000      -0.457146       -12.4396
 247   2.0000      -0.456751       -12.4288
 248   2.0000      -0.456141       -12.4122
 249   2.0000      -0.454923       -12.3791
 250   2.0000      -0.452952       -12.3254
 251   2.0000      -0.452536       -12.3141
 252   2.0000      -0.450688       -12.2638
 253   2.0000      -0.449459       -12.2304
 254   2.0000      -0.446903       -12.1608
 255   2.0000      -0.446817       -12.1585
 256   2.0000      -0.446531       -12.1507
 257   2.0000      -0.444768       -12.1027
 258   2.0000      -0.444614       -12.0986
 259   2.0000      -0.442801       -12.0492
 260   2.0000      -0.442432       -12.0392
 261   2.0000      -0.439026       -11.9465
 262   2.0000      -0.437282       -11.8991
 263   2.0000      -0.437104       -11.8942
 264   2.0000      -0.434329       -11.8187
 265   2.0000      -0.430088       -11.7033
 266   2.0000      -0.428620       -11.6633
 267   2.0000      -0.428046       -11.6477
 268   2.0000      -0.424873       -11.5614
 269   2.0000      -0.423965       -11.5367
 270   2.0000      -0.422415       -11.4945
 271   2.0000      -0.421159       -11.4603
 272   2.0000      -0.420748       -11.4491
 273   2.0000      -0.416934       -11.3453
 274   2.0000      -0.410317       -11.1653
 275   2.0000      -0.401035       -10.9127
 276   2.0000      -0.399677       -10.8758
 277   2.0000      -0.390261       -10.6195
 278   2.0000      -0.389210       -10.5910
 279   2.0000      -0.374285       -10.1848
 280   2.0000      -0.370864       -10.0917
 281   2.0000      -0.359257        -9.7759
 282   2.0000      -0.358877        -9.7655
 283   2.0000      -0.356828        -9.7098
 284   2.0000      -0.354875        -9.6566
 285   2.0000      -0.350441        -9.5360
 286   2.0000      -0.346729        -9.4350
 287   2.0000      -0.345672        -9.4062
 288   2.0000      -0.341542        -9.2938
 289   2.0000      -0.330314        -8.9883
 290   2.0000      -0.324889        -8.8407
 291   2.0000      -0.314892        -8.5687
 292   2.0000      -0.309004        -8.4084
 293   2.0000      -0.303851        -8.2682
 294   2.0000      -0.293482        -7.9860
 295   2.0000      -0.259676        -7.0661
 296   0.0000      -0.138115        -3.7583
 297   0.0000      -0.119397        -3.2490
 298   0.0000      -0.091445        -2.4884
 299   0.0000      -0.078655        -2.1403
 300   0.0000      -0.073433        -1.9982

MULLIKEN ATOMIC CHARGES
-----------------------
   0 C :   -0.109695
   1 C :    0.244465
   2 F :   -0.167869
   3 C :    0.239908
   4 F :   -0.168994
   5 C :   -0.106406
   6 C :    0.119373
   7 C :    0.116200
   8 C :   -0.085208
   9 C :    0.047330
  10 C :   -0.001591
  11 C :   -0.081127
  12 C :    0.174184
  13 O :   -0.185614
  14 C :   -0.091526
  15 C :    0.328344
  16 C :   -0.347356
  17 C :   -0.182193
  18 N :    0.154768
  19 C :   -0.182094
  20 N :    0.154414
  21 C :   -0.033434
  22 C :   -0.079136
  23 S :    0.334157
  24 C :   -0.223988
  25 C :    0.184168
  26 C :    0.107946
  27 C :   -0.058860
  28 C :   -0.059526
  29 C :   -0.172809
  30 N :    0.191455
  31 C :   -0.078448
  32 C :   -0.175408
  33 N :    0.192595
  34 C :   -0.058092
  35 C :    0.087586
  36 N :   -0.267332
  37 C :    0.096177
  38 C :   -0.002597
  39 C :    0.163746
  40 O :   -0.173938
  41 C :   -0.058880
  42 C :   -0.020470
  43 C :    0.145512
  44 O :   -0.177180
  45 N :   -0.278693
  46 C :    0.096366
  47 C :   -0.002641
  48 C :    0.131004
  49 C :   -0.055476
  50 C :    0.070630
  51 C :   -0.113673
  52 S :    0.235340
  53 C :   -0.159086
  54 C :    0.109476
  55 C :    0.144389
  56 C :   -0.053210
  57 C :   -0.056663
  58 C :   -0.177435
  59 N :    0.183136
  60 C :   -0.074763
  61 C :   -0.170852
  62 N :    0.189893
  63 C :   -0.038364
  64 C :    0.075860
  65 C :   -0.141713
  66 C :    0.137349
  67 O :   -0.138794
  68 C :    0.022471
  69 C :   -0.083283
  70 C :    0.113498
  71 C :    0.110397
  72 C :   -0.103717
  73 C :    0.242404
  74 C :    0.240896
  75 C :   -0.102949
  76 F :   -0.168956
  77 F :   -0.167407
  78 C :   -0.079320
  79 C :    0.037513
  80 C :    0.225040
  81 C :   -0.322371
  82 C :   -0.184180
  83 N :    0.162887
  84 C :   -0.183669
  85 N :    0.173765
  86 H :    0.011034
  87 H :    0.002224
  88 H :   -0.003273
  89 H :   -0.007418
  90 H :   -0.011106
  91 H :    0.020566
  92 H :    0.017647
  93 H :    0.056185
  94 H :    0.024211
  95 H :    0.031831
  96 H :    0.033204
  97 H :    0.019107
  98 H :    0.051792
  99 H :    0.027313
 100 H :    0.030037
 101 H :    0.028246
 102 H :    0.019427
 103 H :    0.030464
 104 H :   -0.010126
 105 H :    0.003749
 106 H :    0.010827
 107 H :    0.028005
 108 H :   -0.006982
 109 H :    0.010812
 110 H :    0.001238
 111 H :    0.003330
Sum of atomic charges:   -0.0000000

LOEWDIN ATOMIC CHARGES
----------------------
   0 C :   -0.027923
   1 C :    0.068893
   2 F :   -0.045640
   3 C :    0.069482
   4 F :   -0.046687
   5 C :   -0.032411
   6 C :   -0.008432
   7 C :   -0.005375
   8 C :    0.020656
   9 C :   -0.022751
  10 C :   -0.053516
  11 C :    0.033028
  12 C :    0.086668
  13 O :   -0.169803
  14 C :   -0.098356
  15 C :    0.075875
  16 C :   -0.137417
  17 C :   -0.018085
  18 N :   -0.045998
  19 C :   -0.016639
  20 N :   -0.049716
  21 C :    0.051730
  22 C :   -0.186572
  23 S :    0.631055
  24 C :   -0.173431
  25 C :   -0.042681
  26 C :   -0.016124
  27 C :    0.030287
  28 C :   -0.037517
  29 C :   -0.032069
  30 N :   -0.017603
  31 C :   -0.047641
  32 C :   -0.033697
  33 N :   -0.023290
  34 C :    0.029790
  35 C :    0.048066
  36 N :   -0.003004
  37 C :    0.034941
  38 C :   -0.059451
  39 C :    0.081353
  40 O :   -0.175344
  41 C :   -0.106261
  42 C :   -0.114589
  43 C :    0.081982
  44 O :   -0.180107
  45 N :   -0.009141
  46 C :    0.035234
  47 C :   -0.062337
  48 C :    0.073685
  49 C :   -0.015545
  50 C :   -0.027157
  51 C :   -0.138498
  52 S :    0.539017
  53 C :   -0.182004
  54 C :   -0.026570
  55 C :   -0.031909
  56 C :    0.041359
  57 C :   -0.047678
  58 C :   -0.032025
  59 N :   -0.025831
  60 C :   -0.035886
  61 C :   -0.030761
  62 N :   -0.022863
  63 C :    0.026905
  64 C :    0.034829
  65 C :   -0.090280
  66 C :    0.083131
  67 O :   -0.138931
  68 C :   -0.056293
  69 C :    0.033225
  70 C :   -0.008549
  71 C :   -0.004206
  72 C :   -0.027403
  73 C :    0.069186
  74 C :    0.069207
  75 C :   -0.032568
  76 F :   -0.046842
  77 F :   -0.045285
  78 C :    0.018045
  79 C :   -0.023538
  80 C :    0.055472
  81 C :   -0.134559
  82 C :   -0.012915
  83 N :   -0.051312
  84 C :   -0.022111
  85 N :   -0.039328
  86 H :    0.048997
  87 H :    0.045543
  88 H :    0.041117
  89 H :    0.041292
  90 H :    0.048272
  91 H :    0.049058
  92 H :    0.047328
  93 H :    0.041891
  94 H :    0.023174
  95 H :    0.032297
  96 H :    0.035782
  97 H :    0.020557
  98 H :    0.040689
  99 H :    0.020434
 100 H :    0.033448
 101 H :    0.033155
 102 H :    0.020624
 103 H :    0.050939
 104 H :    0.033030
 105 H :    0.046919
 106 H :    0.045699
 107 H :    0.048604
 108 H :    0.041598
 109 H :    0.049366
 110 H :    0.045432
 111 H :    0.042107

  Mayer bond orders larger than 0.100000
B(  0-C ,  1-C ) :   1.4399 B(  0-C ,  5-C ) :   0.1074 B(  0-C ,  7-C ) :   1.1904
B(  0-C , 86-H ) :   1.0070 B(  1-C ,  2-F ) :   1.1376 B(  1-C ,  3-C ) :   1.1909
B(  3-C ,  4-F ) :   1.1364 B(  3-C ,  5-C ) :   1.4422 B(  5-C ,  6-C ) :   1.1928
B(  5-C , 87-H ) :   1.0073 B(  6-C ,  7-C ) :   1.2545 B(  6-C , 11-C ) :   1.1874
B(  7-C ,  8-C ) :   1.2137 B(  8-C ,  9-C ) :   1.4556 B(  8-C , 88-H ) :   0.9899
B(  9-C , 10-C ) :   1.2196 B(  9-C , 15-C ) :   0.9832 B( 10-C , 11-C ) :   1.4677
B( 10-C , 12-C ) :   0.9608 B( 11-C , 89-H ) :   1.0176 B( 12-C , 13-O ) :   2.1076
B( 12-C , 14-C ) :   0.9815 B( 14-C , 15-C ) :   1.0799 B( 14-C , 21-C ) :   1.5150
B( 15-C , 16-C ) :   1.6244 B( 16-C , 17-C ) :   1.1493 B( 16-C , 19-C ) :   1.1479
B( 17-C , 18-N ) :   2.9588 B( 19-C , 20-N ) :   2.9689 B( 21-C , 22-C ) :   1.2815
B( 21-C , 90-H ) :   0.9310 B( 22-C , 23-S ) :   1.1297 B( 22-C , 24-C ) :   0.1116
B( 22-C , 26-C ) :   1.2271 B( 23-S , 24-C ) :   1.2355 B( 24-C , 25-C ) :   1.2563
B( 24-C , 35-C ) :   1.0567 B( 25-C , 26-C ) :   1.2345 B( 25-C , 34-C ) :   1.2073
B( 26-C , 27-C ) :   1.2180 B( 27-C , 28-C ) :   1.5314 B( 27-C , 91-H ) :   0.9852
B( 28-C , 29-C ) :   1.0887 B( 28-C , 31-C ) :   1.2740 B( 29-C , 30-N ) :   3.0405
B( 31-C , 32-C ) :   1.0756 B( 31-C , 34-C ) :   1.5375 B( 32-C , 33-N ) :   3.0502
B( 34-C , 92-H ) :   0.9904 B( 35-C , 36-N ) :   1.2153 B( 35-C , 42-C ) :   1.4201
B( 36-N , 37-C ) :   0.9389 B( 36-N , 39-C ) :   1.0106 B( 37-C , 38-C ) :   1.1197
B( 37-C , 93-H ) :   0.9279 B( 37-C , 94-H ) :   0.9454 B( 38-C , 95-H ) :   0.9652
B( 38-C , 96-H ) :   0.9667 B( 38-C , 97-H ) :   0.9671 B( 39-C , 40-O ) :   2.1356
B( 39-C , 41-C ) :   0.9833 B( 41-C , 42-C ) :   1.2175 B( 41-C , 48-C ) :   1.3547
B( 42-C , 43-C ) :   0.9540 B( 43-C , 44-O ) :   2.1660 B( 43-C , 45-N ) :   1.0268
B( 45-N , 46-C ) :   0.9389 B( 45-N , 48-C ) :   1.1612 B( 46-C , 47-C ) :   1.1161
B( 46-C , 98-H ) :   0.9228 B( 46-C , 99-H ) :   0.9511 B( 47-C ,100-H ) :   0.9623
B( 47-C ,101-H ) :   0.9678 B( 47-C ,102-H ) :   0.9681 B( 48-C , 49-C ) :   1.2093
B( 49-C , 50-C ) :   1.5577 B( 49-C ,103-H ) :   0.9404 B( 50-C , 51-C ) :   1.1602
B( 50-C ,104-H ) :   0.9518 B( 51-C , 52-S ) :   1.1992 B( 51-C , 55-C ) :   1.2724
B( 52-S , 53-C ) :   1.1519 B( 53-C , 54-C ) :   1.2801 B( 53-C , 64-C ) :   1.1526
B( 54-C , 55-C ) :   1.2317 B( 54-C , 63-C ) :   1.2312 B( 55-C , 56-C ) :   1.2110
B( 56-C , 57-C ) :   1.5256 B( 56-C ,105-H ) :   0.9938 B( 57-C , 58-C ) :   1.0813
B( 57-C , 60-C ) :   1.2702 B( 58-C , 59-N ) :   3.0418 B( 60-C , 61-C ) :   1.0761
B( 60-C , 63-C ) :   1.5449 B( 61-C , 62-N ) :   3.0472 B( 63-C ,106-H ) :   0.9878
B( 64-C , 65-C ) :   1.6434 B( 64-C ,107-H ) :   0.9268 B( 65-C , 66-C ) :   0.9374
B( 65-C , 80-C ) :   1.0457 B( 66-C , 67-O ) :   2.2741 B( 66-C , 68-C ) :   0.9188
B( 68-C , 69-C ) :   1.4712 B( 68-C , 79-C ) :   1.2194 B( 69-C , 70-C ) :   1.1931
B( 69-C ,108-H ) :   1.0166 B( 70-C , 71-C ) :   1.2546 B( 70-C , 75-C ) :   1.1944
B( 71-C , 72-C ) :   1.1916 B( 71-C , 78-C ) :   1.2142 B( 72-C , 73-C ) :   1.4400
B( 72-C , 75-C ) :   0.1080 B( 72-C ,109-H ) :   1.0067 B( 73-C , 74-C ) :   1.1915
B( 73-C , 77-F ) :   1.1380 B( 74-C , 75-C ) :   1.4424 B( 74-C , 76-F ) :   1.1362
B( 75-C ,110-H ) :   1.0063 B( 78-C , 79-C ) :   1.4565 B( 78-C ,111-H ) :   0.9940
B( 79-C , 80-C ) :   0.9989 B( 80-C , 81-C ) :   1.6482 B( 81-C , 82-C ) :   1.1678
B( 81-C , 84-C ) :   1.1353 B( 82-C , 83-N ) :   2.9982 B( 84-C , 85-N ) :   2.9895

-----------------------------------------------------------------------------
         ABSORPTION SPECTRUM VIA TRANSITION ELECTRIC DIPOLE MOMENTS
-----------------------------------------------------------------------------
State   Energy  Wavelength   fosc         T2         TX        TY        TZ
        (cm-1)    (nm)                  (au**2)     (au)      (au)      (au)
-----------------------------------------------------------------------------
   0   11645.0    858.7   1.177113736  33.27784   2.02418   5.13389   1.68039
   1   16128.6    620.0   0.020940480   0.42743  -0.35121  -0.54489  -0.08473
   2   19632.3    509.4   0.032875473   0.55129   0.22406   0.28119   0.64963
   3   20965.4    477.0   0.691400393  10.85680  -0.51728  -1.89507  -2.64536
   4   21958.1    455.4   0.225411305   3.37953  -0.82931  -0.29521   1.61388
   5   23120.7    432.5   0.107016068   1.52378  -0.74460  -0.95709   0.23092
   6   24762.1    403.8   0.100847068   1.34076  -0.11689   0.46964   1.05192
   7   25181.9    397.1   0.055592851   0.72678  -0.27874  -0.26733  -0.76002
   8   25475.8    392.5   0.001663194   0.02149   0.08576   0.10883   0.04789
   9   26011.3    384.4   0.038247419   0.48408   0.36699   0.55120  -0.21347
  10   26134.6    382.6   0.016552806   0.20851  -0.37582   0.16399  -0.20094
  11   26192.0    381.8   0.092083522   1.15742  -0.56240   0.20675   0.89352
  12   26554.2    376.6   0.081794112   1.01406  -0.53091   0.06646   0.85310
  13   26913.9    371.6   0.008058644   0.09857   0.07461   0.20430   0.22643
  14   27008.3    370.3   0.035640205   0.43443   0.61739   0.20243  -0.11082
  15   27380.6    365.2   0.039242325   0.47183  -0.38342  -0.12300  -0.55650
  16   27647.6    361.7   0.030024762   0.35752  -0.39079  -0.36215  -0.27139
  17   27742.5    360.5   0.023168676   0.27494   0.12225  -0.06008  -0.50634
  18   28117.5    355.7   0.065203081   0.76343   0.03179  -0.86886   0.08661
  19   29474.8    339.3   0.064396648   0.71926  -0.41092   0.73829   0.07311
  20   29779.7    335.8   0.013330481   0.14737  -0.30119  -0.00067   0.23802
  21   30530.2    327.5   0.080868876   0.87202   0.91825  -0.16925  -0.01396
  22   30916.3    323.5   0.034175147   0.36391   0.58764   0.01276   0.13576
  23   31167.7    320.8   0.064139397   0.67748   0.56489   0.53005   0.27827
  24   31722.9    315.2   0.248354320   2.57736  -0.90805  -1.24400  -0.45306
  25   31749.1    315.0   0.257582493   2.67092   0.60750  -0.16162  -1.50856
  26   32078.4    311.7   0.139958437   1.43636   0.56155   0.17251  -1.04464
  27   32285.4    309.7   0.045746123   0.46647   0.30953  -0.47218  -0.38433
  28   32457.5    308.1   0.171514290   1.73964  -1.09457  -0.27475   0.68270
  29   32653.8    306.2   0.261365530   2.63506  -0.92583  -0.89355   0.98968
  30   33077.4    302.3   0.002686321   0.02674   0.02512   0.02988   0.15878
  31   33357.2    299.8   0.370022008   3.65186   0.34984   0.53429   1.80111
  32   33904.3    294.9   0.107546341   1.04428   0.88560  -0.32912  -0.38946
  33   34308.1    291.5   0.114391882   1.09767  -0.64426  -0.81205  -0.15227
  34   34395.9    290.7   0.104122050   0.99658  -0.70486  -0.17875  -0.68396
  35   34660.7    288.5   0.007271908   0.06907  -0.20112   0.08509   0.14622
  36   34775.1    287.6   0.032496344   0.30764   0.04679  -0.27974  -0.47665
  37   34790.1    287.4   0.013542936   0.12815   0.14465   0.31532   0.08832
  38   34941.3    286.2   0.169725738   1.59913   1.10633   0.32826   0.51711
  39   35258.4    283.6   0.077886547   0.72724  -0.62656  -0.19214   0.54566
  40   35577.6    281.1   0.179968534   1.66531  -0.63411  -1.08560  -0.29100
  41   35774.4    279.5   0.166963205   1.53647  -0.64491  -0.64565   0.83887
  42   36080.4    277.2   0.123667677   1.12839   0.12141   1.05412   0.04984
  43   36472.1    274.2   0.010111101   0.09127  -0.15104  -0.00967   0.26146
  44   36648.9    272.9   0.191641839   1.72149   0.81385   0.37341  -0.95901
  45   36753.3    272.1   0.048562683   0.43499  -0.23131   0.60004   0.14644
  46   37512.8    266.6   0.101124491   0.88747  -0.60904  -0.66290   0.27766
  47   37652.8    265.6   0.215163938   1.88125  -0.62323  -1.21999  -0.06678
  48   37790.7    264.6   0.020673448   0.18010  -0.32338  -0.27410  -0.01964
  49   37914.2    263.8   0.000596959   0.00518   0.05701   0.02956   0.03255
  50   37961.3    263.4   0.027939139   0.24230   0.15257   0.39988  -0.24314
  51   38441.4    260.1   0.030907601   0.26469  -0.20133  -0.40048   0.25254
  52   38540.4    259.5   0.028691620   0.24508   0.08873  -0.24527   0.42078
  53   38719.3    258.3   0.390327661   3.31878   0.95127   1.20848   0.97643
  54   38804.7    257.7   0.045199162   0.38346  -0.07049   0.36857   0.49260
  55   38989.4    256.5   0.036571934   0.30880   0.35616   0.18875   0.38252
  56   39234.0    254.9   0.037831900   0.31745   0.20780  -0.52361  -0.01002
  57   39488.1    253.2   0.010472834   0.08731   0.09919   0.22048   0.16989
  58   39742.7    251.6   0.028000008   0.23194  -0.17306   0.20421   0.40036
  59   39916.9    250.5   0.160135661   1.32071   0.41287   0.80863   0.70453
  60   39997.3    250.0   0.091375282   0.75210   0.48377   0.09928  -0.71289
  61   40267.5    248.3   0.123712634   1.01143   0.78273  -0.01128   0.63137

FINAL SINGLE POINT ENERGY     -4569.802338063522

DIPOLE MOMENT
-------------
                                X             Y             Z
Electronic contribution:    -10.97269      -7.29188      -1.11848
Nuclear contribution   :      9.61386       4.34656       5.48536
                        -----------------------------------------
Total Dipole Moment    :     -1.35883      -2.94533       4.36688
                        -----------------------------------------
Magnitude (a.u.)       :      5.43976
Magnitude (Debye)      :     13.82678

Rotational constants in cm-1:     0.001319     0.000194     0.000179
Rotational constants in MHz :    39.532245     5.812315     5.372161

                             ****ORCA TERMINATED NORMALLY****
TOTAL RUN TIME: 0 days 0 hours 14 minutes 0 seconds 517 msec
