                         Program Version 4.2.0 -  RELEASE  -
|  1> # ORCA input file
|  2> # SCF done       -189.146904864194          0.000370124043
|  3> ! CAM-B3LYP def2-SVP def2/J RIJCOSX Grid4 TightSCF
|  4> %maxcore 5000
|  5> %tddft
|  6>     Mode sTDDFT
|  7>     Ethresh 5.0
|  8>     maxcore 5000
|  9> end
| 10>
| 11> %pal
| 12>   nprocs 6
| 13>   end
| 14> * xyz 0 1
| 15>    C       -3.90029        -0.91838         0.67723
| 16>    C       -4.17746        -1.88551         1.60921
| 17>    C       -3.40939        -3.05582         1.78565
| 18>    N       -2.82973        -4.02710         1.98215
| 19>    C       -5.24530        -1.86786         2.53099
| 20>    N       -6.08089        -1.93676         3.31621
| 21>    C       -2.77782        -0.94615        -0.25545
| 22>    C       -2.80679         0.23606        -1.03802
| 23>    C       -1.87421         0.50841        -2.00978
| 24>    C       -0.86196        -0.43184        -2.22278
| 25>    C       -0.84018        -1.61040        -1.43903
| 26>    C       -1.78387        -1.88482        -0.45527
| 27>    S        0.49556        -2.62863        -1.87365
| 28>    C        1.00312        -1.49223        -3.07490
| 29>    C        0.21431        -0.39839        -3.15357
| 30>    C       -3.95572         1.05469        -0.62960
| 31>    O       -4.27460         2.13639        -1.09562
| 32>    C       -4.63408         0.31107         0.43844
| 33>    C       -5.77485         0.70791         1.08824
| 34>    C       -6.53903         1.87248         0.93898
| 35>    S       -6.22416         3.20083        -0.14611
| 36>    C       -7.60987         4.06775         0.42274
| 37>    C       -8.29243         3.34915         1.40893
| 38>    C       -7.69870         2.12610         1.69789
| 39>    S       -8.25578         0.94967         2.87667
| 40>    C       -9.72307         1.56203         3.65727
| 41>    O      -10.20969         0.86291         4.50093
| 42>    C      -10.38133         2.88356         3.32158
| 43>    O      -11.39222         3.19642         3.88904
| 44>    S       -9.74820         4.02091         2.13357
| 45>    C       -7.96762         5.34874        -0.06716
| 46>    C       -7.27837         5.98141        -1.04487
| 47>    C       -7.53904         7.28373        -1.58936
| 48>    C       -6.72350         7.73399        -2.64432
| 49>    C       -6.91926         8.98154        -3.18089
| 50>    C       -7.96507         9.79722        -2.70433
| 51>    C       -8.77909         9.36529        -1.66345
| 52>    C       -8.55768         8.12324        -1.11030
| 53>    C       -8.00137        11.00780        -3.48867
| 54>    C       -6.98180        10.94162        -4.45580
| 55>    C       -6.17044         9.67424        -4.29595
| 56>    C       -4.74841        10.10235        -3.86014
| 57>    C       -3.79598         8.97268        -3.49308
| 58>    C       -6.13583         8.83494        -5.58194
| 59>    C       -7.53158         8.53386        -6.11613
| 60>    C       -6.80851        11.96434        -5.35146
| 61>    C       -7.65324        13.09020        -5.30823
| 62>    C       -8.66497        13.13873        -4.33449
| 63>    C       -8.84375        12.11267        -3.43225
| 64>    C       -7.41812        14.12963        -6.26805
| 65>    C       -8.07559        15.31199        -6.39769
| 66>    C       -7.80010        16.31743        -7.35300
| 67>    C       -6.84408        16.35197        -8.33708
| 68>    C       -6.65009        17.42678        -9.24808
| 69>    C       -5.63989        17.24817       -10.14130
| 70>    C       -4.96485        16.01390        -9.99647
| 71>    S       -5.66528        15.09754        -8.68293
| 72>    C       -3.90926        15.49565       -10.71378
| 73>    C       -3.19666        16.05064       -11.80135
| 74>    C       -2.20310        15.25239       -12.27469
| 75>    C       -2.06518        14.01110       -11.59085
| 76>    S       -3.26212        13.91351       -10.31511
| 77>    C       -1.15333        13.03313       -11.86642
| 78>    C       -1.01892        11.79613       -11.18492
| 79>    O       -0.03958        10.94264       -11.61344
| 80>    C       -0.07268         9.85201       -10.85936
| 81>    C       -1.07270         9.96390        -9.92004
| 82>    C       -1.69052        11.22126       -10.12457
| 83>    N       -1.41675         9.00584        -8.93798
| 84>    O       -0.76986         7.97715        -8.90966
| 85>    O       -2.33251         9.27153        -8.18681
| 86>    H       -1.92575         1.41869        -2.58663
| 87>    H       -1.72128        -2.79770         0.11267
| 88>    H        1.87520        -1.71803        -3.65726
| 89>    H        0.37505         0.41233        -3.84089
| 90>    H       -6.16684         0.03451         1.84135
| 91>    H       -8.83570         5.80083         0.39191
| 92>    H       -6.42961         5.45839        -1.47068
| 93>    H       -5.95860         7.07557        -3.02750
| 94>    H       -9.57694         9.99303        -1.29574
| 95>    H       -9.18376         7.78947        -0.29780
| 96>    H       -4.84808        10.77309        -3.00199
| 97>    H       -4.31351        10.67625        -4.68083
| 98>    H       -4.15183         8.42623        -2.62387
| 99>    H       -2.82228         9.39294        -3.25059
|100>    H       -3.66418         8.28311        -4.32187
|101>    H       -5.62396         7.89409        -5.37883
|102>    H       -5.56052         9.37050        -6.33907
|103>    H       -8.11636         7.98804        -5.37814
|104>    H       -7.46355         7.92839        -7.01679
|105>    H       -8.06007         9.45318        -6.35930
|106>    H       -6.02954        11.91938        -6.09886
|107>    H       -9.31906        13.99582        -4.29163
|108>    H       -9.62778        12.16713        -2.69161
|109>    H       -6.60844        13.91488        -6.94962
|110>    H       -8.88849        15.53898        -5.72122
|111>    H       -8.43117        17.19703        -7.30636
|112>    H       -7.27243        18.30392        -9.20854
|113>    H       -5.36184        17.96247       -10.89547
|114>    H       -3.43875        17.01965       -12.20022
|115>    H       -1.55684        15.50627       -13.09609
|116>    H       -0.45873        13.19624       -12.67766
|117>    H        0.62956         9.06527       -11.05163
|118>    H       -2.50627        11.61261        -9.55683
|119> *
|120>
|121>                          ****END OF INPUT****

CARTESIAN COORDINATES (ANGSTROEM)
---------------------------------
  C     -3.900290   -0.918380    0.677230
  C     -4.177460   -1.885510    1.609210
  C     -3.409390   -3.055820    1.785650
  N     -2.829730   -4.027100    1.982150
  C     -5.245300   -1.867860    2.530990
  N     -6.080890   -1.936760    3.316210
  C     -2.777820   -0.946150   -0.255450
  C     -2.806790    0.236060   -1.038020
  C     -1.874210    0.508410   -2.009780
  C     -0.861960   -0.431840   -2.222780
  C     -0.840180   -1.610400   -1.439030
  C     -1.783870   -1.884820   -0.455270
  S      0.495560   -2.628630   -1.873650
  C      1.003120   -1.492230   -3.074900
  C      0.214310   -0.398390   -3.153570
  C     -3.955720    1.054690   -0.629600
  O     -4.274600    2.136390   -1.095620
  C     -4.634080    0.311070    0.438440
  C     -5.774850    0.707910    1.088240
  C     -6.539030    1.872480    0.938980
  S     -6.224160    3.200830   -0.146110
  C     -7.609870    4.067750    0.422740
  C     -8.292430    3.349150    1.408930
  C     -7.698700    2.126100    1.697890
  S     -8.255780    0.949670    2.876670
  C     -9.723070    1.562030    3.657270
  O    -10.209690    0.862910    4.500930
  C    -10.381330    2.883560    3.321580
  O    -11.392220    3.196420    3.889040
  S     -9.748200    4.020910    2.133570
  C     -7.967620    5.348740   -0.067160
  C     -7.278370    5.981410   -1.044870
  C     -7.539040    7.283730   -1.589360
  C     -6.723500    7.733990   -2.644320
  C     -6.919260    8.981540   -3.180890
  C     -7.965070    9.797220   -2.704330
  C     -8.779090    9.365290   -1.663450
  C     -8.557680    8.123240   -1.110300
  C     -8.001370   11.007800   -3.488670
  C     -6.981800   10.941620   -4.455800
  C     -6.170440    9.674240   -4.295950
  C     -4.748410   10.102350   -3.860140
  C     -3.795980    8.972680   -3.493080
  C     -6.135830    8.834940   -5.581940
  C     -7.531580    8.533860   -6.116130
  C     -6.808510   11.964340   -5.351460
  C     -7.653240   13.090200   -5.308230
  C     -8.664970   13.138730   -4.334490
  C     -8.843750   12.112670   -3.432250
  C     -7.418120   14.129630   -6.268050
  C     -8.075590   15.311990   -6.397690
  C     -7.800100   16.317430   -7.353000
  C     -6.844080   16.351970   -8.337080
  C     -6.650090   17.426780   -9.248080
  C     -5.639890   17.248170  -10.141300
  C     -4.964850   16.013900   -9.996470
  S     -5.665280   15.097540   -8.682930
  C     -3.909260   15.495650  -10.713780
  C     -3.196660   16.050640  -11.801350
  C     -2.203100   15.252390  -12.274690
  C     -2.065180   14.011100  -11.590850
  S     -3.262120   13.913510  -10.315110
  C     -1.153330   13.033130  -11.866420
  C     -1.018920   11.796130  -11.184920
  O     -0.039580   10.942640  -11.613440
  C     -0.072680    9.852010  -10.859360
  C     -1.072700    9.963900   -9.920040
  C     -1.690520   11.221260  -10.124570
  N     -1.416750    9.005840   -8.937980
  O     -0.769860    7.977150   -8.909660
  O     -2.332510    9.271530   -8.186810
  H     -1.925750    1.418690   -2.586630
  H     -1.721280   -2.797700    0.112670
  H      1.875200   -1.718030   -3.657260
  H      0.375050    0.412330   -3.840890
  H     -6.166840    0.034510    1.841350
  H     -8.835700    5.800830    0.391910
  H     -6.429610    5.458390   -1.470680
  H     -5.958600    7.075570   -3.027500
  H     -9.576940    9.993030   -1.295740
  H     -9.183760    7.789470   -0.297800
  H     -4.848080   10.773090   -3.001990
  H     -4.313510   10.676250   -4.680830
  H     -4.151830    8.426230   -2.623870
  H     -2.822280    9.392940   -3.250590
  H     -3.664180    8.283110   -4.321870
  H     -5.623960    7.894090   -5.378830
  H     -5.560520    9.370500   -6.339070
  H     -8.116360    7.988040   -5.378140
  H     -7.463550    7.928390   -7.016790
  H     -8.060070    9.453180   -6.359300
  H     -6.029540   11.919380   -6.098860
  H     -9.319060   13.995820   -4.291630
  H     -9.627780   12.167130   -2.691610
  H     -6.608440   13.914880   -6.949620
  H     -8.888490   15.538980   -5.721220
  H     -8.431170   17.197030   -7.306360
  H     -7.272430   18.303920   -9.208540
  H     -5.361840   17.962470  -10.895470
  H     -3.438750   17.019650  -12.200220
  H     -1.556840   15.506270  -13.096090
  H     -0.458730   13.196240  -12.677660
  H      0.629560    9.065270  -11.051630
  H     -2.506270   11.612610   -9.556830

 Total Charge           Charge          ....    0
 Multiplicity           Mult            ....    1
 Number of Electrons    NEL             ....  534
 Basis Dimension        Dim             .... 1183

ORBITAL ENERGIES
----------------

  NO   OCC          E(Eh)            E(eV)
   0   2.0000     -88.971736     -2421.0440
   1   2.0000     -88.970678     -2421.0152
   2   2.0000     -88.968836     -2420.9651
   3   2.0000     -88.964994     -2420.8606
   4   2.0000     -88.953116     -2420.5374
   5   2.0000     -88.952463     -2420.5196
   6   2.0000     -19.314352      -525.5702
   7   2.0000     -19.240891      -523.5713
   8   2.0000     -19.239622      -523.5367
   9   2.0000     -19.238571      -523.5081
  10   2.0000     -19.237782      -523.4867
  11   2.0000     -19.220793      -523.0244
  12   2.0000     -14.649984      -398.6463
  13   2.0000     -14.413014      -392.1980
  14   2.0000     -14.410575      -392.1317
  15   2.0000     -10.404408      -283.1183
  16   2.0000     -10.403729      -283.0998
  17   2.0000     -10.368647      -282.1452
  18   2.0000     -10.356660      -281.8190
  19   2.0000     -10.348223      -281.5895
  20   2.0000     -10.339066      -281.3403
  21   2.0000     -10.338749      -281.3317
  22   2.0000     -10.338056      -281.3128
  23   2.0000     -10.326892      -281.0090
  24   2.0000     -10.325532      -280.9720
  25   2.0000     -10.324982      -280.9571
  26   2.0000     -10.324810      -280.9524
  27   2.0000     -10.323926      -280.9283
  28   2.0000     -10.319419      -280.8057
  29   2.0000     -10.318825      -280.7895
  30   2.0000     -10.318684      -280.7857
  31   2.0000     -10.315712      -280.7048
  32   2.0000     -10.315241      -280.6920
  33   2.0000     -10.313795      -280.6526
  34   2.0000     -10.312422      -280.6153
  35   2.0000     -10.310812      -280.5715
  36   2.0000     -10.304318      -280.3948
  37   2.0000     -10.300887      -280.3014
  38   2.0000     -10.299899      -280.2745
  39   2.0000     -10.297895      -280.2200
  40   2.0000     -10.296944      -280.1941
  41   2.0000     -10.296130      -280.1719
  42   2.0000     -10.296116      -280.1716
  43   2.0000     -10.293132      -280.0904
  44   2.0000     -10.291913      -280.0572
  45   2.0000     -10.291606      -280.0488
  46   2.0000     -10.291348      -280.0418
  47   2.0000     -10.290588      -280.0211
  48   2.0000     -10.288795      -279.9723
  49   2.0000     -10.288432      -279.9625
  50   2.0000     -10.287520      -279.9376
  51   2.0000     -10.286472      -279.9091
  52   2.0000     -10.285658      -279.8870
  53   2.0000     -10.280808      -279.7550
  54   2.0000     -10.279191      -279.7110
  55   2.0000     -10.279095      -279.7084
  56   2.0000     -10.278801      -279.7004
  57   2.0000     -10.277853      -279.6746
  58   2.0000     -10.277433      -279.6632
  59   2.0000     -10.277288      -279.6592
  60   2.0000     -10.277057      -279.6529
  61   2.0000     -10.275287      -279.6048
  62   2.0000     -10.273441      -279.5545
  63   2.0000     -10.273335      -279.5517
  64   2.0000     -10.272745      -279.5356
  65   2.0000     -10.270646      -279.4785
  66   2.0000     -10.269681      -279.4522
  67   2.0000     -10.262047      -279.2445
  68   2.0000     -10.260187      -279.1939
  69   2.0000     -10.248653      -278.8800
  70   2.0000     -10.245097      -278.7833
  71   2.0000      -8.066834      -219.5097
  72   2.0000      -8.065314      -219.4684
  73   2.0000      -8.064902      -219.4571
  74   2.0000      -8.061261      -219.3581
  75   2.0000      -8.049092      -219.0269
  76   2.0000      -8.048183      -219.0022
  77   2.0000      -6.036723      -164.2676
  78   2.0000      -6.035152      -164.2248
  79   2.0000      -6.034337      -164.2027
  80   2.0000      -6.032003      -164.1392
  81   2.0000      -6.030752      -164.1051
  82   2.0000      -6.030603      -164.1011
  83   2.0000      -6.029994      -164.0845
  84   2.0000      -6.027753      -164.0235
  85   2.0000      -6.026825      -163.9983
  86   2.0000      -6.026469      -163.9886
  87   2.0000      -6.026217      -163.9817
  88   2.0000      -6.022942      -163.8926
  89   2.0000      -6.018879      -163.7820
  90   2.0000      -6.017945      -163.7566
  91   2.0000      -6.014768      -163.6702
  92   2.0000      -6.013844      -163.6450
  93   2.0000      -6.010020      -163.5410
  94   2.0000      -6.009167      -163.5178
  95   2.0000      -1.320964       -35.9452
  96   2.0000      -1.233722       -33.5713
  97   2.0000      -1.177101       -32.0306
  98   2.0000      -1.144429       -31.1415
  99   2.0000      -1.138907       -30.9912
 100   2.0000      -1.135966       -30.9112
 101   2.0000      -1.020590       -27.7717
 102   2.0000      -1.017039       -27.6750
 103   2.0000      -1.006034       -27.3756
 104   2.0000      -1.002500       -27.2794
 105   2.0000      -0.990692       -26.9581
 106   2.0000      -0.990442       -26.9513
 107   2.0000      -0.983387       -26.7593
 108   2.0000      -0.980052       -26.6686
 109   2.0000      -0.953075       -25.9345
 110   2.0000      -0.944544       -25.7024
 111   2.0000      -0.936981       -25.4965
 112   2.0000      -0.935475       -25.4556
 113   2.0000      -0.924908       -25.1680
 114   2.0000      -0.920609       -25.0510
 115   2.0000      -0.914092       -24.8737
 116   2.0000      -0.901167       -24.5220
 117   2.0000      -0.895954       -24.3802
 118   2.0000      -0.892729       -24.2924
 119   2.0000      -0.879442       -23.9308
 120   2.0000      -0.876507       -23.8510
 121   2.0000      -0.868590       -23.6355
 122   2.0000      -0.861295       -23.4370
 123   2.0000      -0.847367       -23.0580
 124   2.0000      -0.841619       -22.9016
 125   2.0000      -0.837783       -22.7972
 126   2.0000      -0.835421       -22.7330
 127   2.0000      -0.832556       -22.6550
 128   2.0000      -0.831268       -22.6200
 129   2.0000      -0.829095       -22.5608
 130   2.0000      -0.821719       -22.3601
 131   2.0000      -0.821307       -22.3489
 132   2.0000      -0.812850       -22.1188
 133   2.0000      -0.801450       -21.8086
 134   2.0000      -0.782943       -21.3050
 135   2.0000      -0.767592       -20.8872
 136   2.0000      -0.765184       -20.8217
 137   2.0000      -0.757560       -20.6142
 138   2.0000      -0.749640       -20.3987
 139   2.0000      -0.745916       -20.2974
 140   2.0000      -0.731451       -19.9038
 141   2.0000      -0.719606       -19.5815
 142   2.0000      -0.708595       -19.2819
 143   2.0000      -0.701562       -19.0905
 144   2.0000      -0.698366       -19.0035
 145   2.0000      -0.690311       -18.7843
 146   2.0000      -0.689079       -18.7508
 147   2.0000      -0.685990       -18.6667
 148   2.0000      -0.684432       -18.6243
 149   2.0000      -0.669507       -18.2182
 150   2.0000      -0.669019       -18.2049
 151   2.0000      -0.663056       -18.0427
 152   2.0000      -0.661298       -17.9948
 153   2.0000      -0.657167       -17.8824
 154   2.0000      -0.651739       -17.7347
 155   2.0000      -0.644108       -17.5271
 156   2.0000      -0.643124       -17.5003
 157   2.0000      -0.633982       -17.2515
 158   2.0000      -0.631607       -17.1869
 159   2.0000      -0.631452       -17.1827
 160   2.0000      -0.624373       -16.9901
 161   2.0000      -0.621253       -16.9052
 162   2.0000      -0.618588       -16.8326
 163   2.0000      -0.610702       -16.6180
 164   2.0000      -0.601986       -16.3809
 165   2.0000      -0.598318       -16.2811
 166   2.0000      -0.595128       -16.1943
 167   2.0000      -0.591493       -16.0953
 168   2.0000      -0.585600       -15.9350
 169   2.0000      -0.585084       -15.9209
 170   2.0000      -0.582371       -15.8471
 171   2.0000      -0.580048       -15.7839
 172   2.0000      -0.575020       -15.6471
 173   2.0000      -0.570256       -15.5174
 174   2.0000      -0.562879       -15.3167
 175   2.0000      -0.557162       -15.1611
 176   2.0000      -0.551895       -15.0178
 177   2.0000      -0.550494       -14.9797
 178   2.0000      -0.546283       -14.8651
 179   2.0000      -0.545668       -14.8484
 180   2.0000      -0.541335       -14.7305
 181   2.0000      -0.540298       -14.7022
 182   2.0000      -0.538103       -14.6425
 183   2.0000      -0.535432       -14.5699
 184   2.0000      -0.534220       -14.5369
 185   2.0000      -0.531416       -14.4606
 186   2.0000      -0.527528       -14.3548
 187   2.0000      -0.524653       -14.2765
 188   2.0000      -0.521387       -14.1877
 189   2.0000      -0.520464       -14.1626
 190   2.0000      -0.518194       -14.1008
 191   2.0000      -0.517147       -14.0723
 192   2.0000      -0.515317       -14.0225
 193   2.0000      -0.514488       -13.9999
 194   2.0000      -0.512200       -13.9377
 195   2.0000      -0.507706       -13.8154
 196   2.0000      -0.503809       -13.7093
 197   2.0000      -0.501835       -13.6556
 198   2.0000      -0.498999       -13.5784
 199   2.0000      -0.498572       -13.5668
 200   2.0000      -0.495249       -13.4764
 201   2.0000      -0.492978       -13.4146
 202   2.0000      -0.491666       -13.3789
 203   2.0000      -0.490584       -13.3495
 204   2.0000      -0.489297       -13.3145
 205   2.0000      -0.480318       -13.0701
 206   2.0000      -0.478993       -13.0341
 207   2.0000      -0.478669       -13.0252
 208   2.0000      -0.475090       -12.9279
 209   2.0000      -0.473567       -12.8864
 210   2.0000      -0.471704       -12.8357
 211   2.0000      -0.469440       -12.7741
 212   2.0000      -0.464139       -12.6299
 213   2.0000      -0.460194       -12.5225
 214   2.0000      -0.458669       -12.4810
 215   2.0000      -0.454543       -12.3688
 216   2.0000      -0.452337       -12.3087
 217   2.0000      -0.447810       -12.1855
 218   2.0000      -0.447286       -12.1713
 219   2.0000      -0.445777       -12.1302
 220   2.0000      -0.441265       -12.0074
 221   2.0000      -0.439786       -11.9672
 222   2.0000      -0.435803       -11.8588
 223   2.0000      -0.434894       -11.8341
 224   2.0000      -0.433834       -11.8052
 225   2.0000      -0.432376       -11.7655
 226   2.0000      -0.431190       -11.7333
 227   2.0000      -0.430399       -11.7117
 228   2.0000      -0.429244       -11.6803
 229   2.0000      -0.425174       -11.5696
 230   2.0000      -0.422888       -11.5074
 231   2.0000      -0.422070       -11.4851
 232   2.0000      -0.421127       -11.4595
 233   2.0000      -0.419436       -11.4134
 234   2.0000      -0.411257       -11.1909
 235   2.0000      -0.409496       -11.1429
 236   2.0000      -0.408432       -11.1140
 237   2.0000      -0.403031       -10.9670
 238   2.0000      -0.397633       -10.8201
 239   2.0000      -0.396213       -10.7815
 240   2.0000      -0.390331       -10.6214
 241   2.0000      -0.389859       -10.6086
 242   2.0000      -0.387838       -10.5536
 243   2.0000      -0.386622       -10.5205
 244   2.0000      -0.386058       -10.5052
 245   2.0000      -0.382492       -10.4081
 246   2.0000      -0.379305       -10.3214
 247   2.0000      -0.378364       -10.2958
 248   2.0000      -0.376415       -10.2428
 249   2.0000      -0.374505       -10.1908
 250   2.0000      -0.367511       -10.0005
 251   2.0000      -0.357681        -9.7330
 252   2.0000      -0.348401        -9.4805
 253   2.0000      -0.342690        -9.3251
 254   2.0000      -0.341770        -9.3000
 255   2.0000      -0.332472        -9.0470
 256   2.0000      -0.330256        -8.9867
 257   2.0000      -0.326493        -8.8843
 258   2.0000      -0.325046        -8.8450
 259   2.0000      -0.317398        -8.6368
 260   2.0000      -0.313571        -8.5327
 261   2.0000      -0.303242        -8.2516
 262   2.0000      -0.299073        -8.1382
 263   2.0000      -0.292638        -7.9631
 264   2.0000      -0.276173        -7.5150
 265   2.0000      -0.252099        -6.8600
 266   2.0000      -0.218874        -5.9559
 267   0.0000      -0.098672        -2.6850
 268   0.0000      -0.085156        -2.3172
 269   0.0000      -0.061928        -1.6852
 270   0.0000      -0.054118        -1.4726
 271   0.0000      -0.040405        -1.0995

MULLIKEN ATOMIC CHARGES
-----------------------
   0 C :    0.322660
   1 C :   -0.352182
   2 C :   -0.190251
   3 N :    0.150455
   4 C :   -0.194273
   5 N :    0.154662
   6 C :    0.010184
   7 C :   -0.009385
   8 C :   -0.066352
   9 C :    0.113148
  10 C :   -0.097082
  11 C :   -0.021033
  12 S :    0.141642
  13 C :   -0.049337
  14 C :    0.024435
  15 C :    0.157560
  16 O :   -0.187583
  17 C :   -0.092421
  18 C :   -0.060014
  19 C :   -0.085026
  20 S :    0.196538
  21 C :   -0.059332
  22 C :   -0.030561
  23 C :   -0.014642
  24 S :    0.092678
  25 C :    0.089195
  26 O :   -0.120949
  27 C :    0.082898
  28 O :   -0.132285
  29 S :    0.074237
  30 C :   -0.015367
  31 C :    0.001354
  32 C :    0.120815
  33 C :   -0.108097
  34 C :    0.029824
  35 C :    0.105574
  36 C :   -0.046276
  37 C :   -0.004813
  38 C :    0.100128
  39 C :    0.027743
  40 C :   -0.136058
  41 C :    0.076080
  42 C :    0.030305
  43 C :    0.048676
  44 C :    0.025084
  45 C :   -0.116791
  46 C :    0.129021
  47 C :   -0.016450
  48 C :   -0.043978
  49 C :   -0.013824
  50 C :    0.023010
  51 C :   -0.001093
  52 C :   -0.015871
  53 C :    0.041558
  54 C :    0.023613
  55 C :   -0.016413
  56 S :    0.039438
  57 C :   -0.041192
  58 C :    0.038469
  59 C :    0.033428
  60 C :   -0.019476
  61 S :    0.048738
  62 C :   -0.014431
  63 C :    0.152904
  64 O :   -0.173092
  65 C :    0.099428
  66 C :    0.132088
  67 C :   -0.097238
  68 N :    0.266894
  69 O :   -0.254060
  70 O :   -0.248777
  71 H :   -0.012194
  72 H :   -0.007935
  73 H :    0.038499
  74 H :   -0.005211
  75 H :    0.033103
  76 H :    0.006387
  77 H :    0.001359
  78 H :   -0.029240
  79 H :   -0.032060
  80 H :   -0.027486
  81 H :    0.003347
  82 H :    0.004110
  83 H :    0.013188
  84 H :    0.013265
  85 H :    0.014698
  86 H :    0.009169
  87 H :    0.010896
  88 H :    0.016486
  89 H :    0.012487
  90 H :    0.019349
  91 H :   -0.028781
  92 H :   -0.030888
  93 H :   -0.034883
  94 H :   -0.006563
  95 H :   -0.019538
  96 H :   -0.015231
  97 H :   -0.009158
  98 H :   -0.013042
  99 H :   -0.010613
 100 H :   -0.010657
 101 H :   -0.003922
 102 H :    0.027807
 103 H :    0.014794
Sum of atomic charges:   -0.0000000

LOEWDIN ATOMIC CHARGES
----------------------
   0 C :    0.075542
   1 C :   -0.142415
   2 C :   -0.017731
   3 N :   -0.055025
   4 C :   -0.025936
   5 N :   -0.047667
   6 C :   -0.021019
   7 C :   -0.053892
   8 C :    0.023645
   9 C :   -0.035988
  10 C :   -0.145338
  11 C :   -0.008426
  12 S :    0.430825
  13 C :   -0.149695
  14 C :   -0.057754
  15 C :    0.085472
  16 O :   -0.173170
  17 C :   -0.106400
  18 C :    0.042424
  19 C :   -0.208383
  20 S :    0.525868
  21 C :   -0.160616
  22 C :   -0.233196
  23 C :   -0.182983
  24 S :    0.412200
  25 C :   -0.108707
  26 O :   -0.093842
  27 C :   -0.113688
  28 O :   -0.105384
  29 S :    0.384703
  30 C :   -0.065079
  31 C :    0.020903
  32 C :   -0.035888
  33 C :   -0.010317
  34 C :    0.004233
  35 C :   -0.004395
  36 C :   -0.017780
  37 C :   -0.004764
  38 C :   -0.019352
  39 C :    0.008461
  40 C :   -0.034761
  41 C :   -0.008471
  42 C :   -0.058551
  43 C :   -0.013747
  44 C :   -0.057076
  45 C :   -0.015701
  46 C :   -0.022245
  47 C :   -0.013064
  48 C :   -0.015419
  49 C :   -0.012951
  50 C :   -0.041249
  51 C :   -0.046827
  52 C :   -0.148791
  53 C :   -0.019562
  54 C :   -0.044285
  55 C :   -0.167542
  56 S :    0.389137
  57 C :   -0.183453
  58 C :   -0.027286
  59 C :   -0.035361
  60 C :   -0.133217
  61 S :    0.380533
  62 C :   -0.085057
  63 C :    0.033281
  64 O :    0.034517
  65 C :    0.074998
  66 C :   -0.083242
  67 C :   -0.068178
  68 N :    0.287289
  69 O :   -0.216254
  70 O :   -0.212920
  71 H :    0.040172
  72 H :    0.040745
  73 H :    0.029377
  74 H :    0.035667
  75 H :    0.039984
  76 H :    0.024931
  77 H :    0.027438
  78 H :    0.026845
  79 H :    0.028600
  80 H :    0.027644
  81 H :    0.025354
  82 H :    0.023248
  83 H :    0.021403
  84 H :    0.028747
  85 H :    0.024261
  86 H :    0.021367
  87 H :    0.025267
  88 H :    0.023842
  89 H :    0.025279
  90 H :    0.024405
  91 H :    0.027041
  92 H :    0.025429
  93 H :    0.027201
  94 H :    0.008232
  95 H :    0.027691
  96 H :    0.035176
  97 H :    0.034723
  98 H :    0.032171
  99 H :    0.033799
 100 H :    0.034099
 101 H :    0.041745
 102 H :    0.036064
 103 H :    0.028061

  Mayer bond orders larger than 0.100000
B(  0-C ,  1-C ) :   1.6199 B(  0-C ,  6-C ) :   0.9979 B(  0-C , 17-C ) :   1.0805
B(  1-C ,  2-C ) :   1.1492 B(  1-C ,  4-C ) :   1.1443 B(  2-C ,  3-N ) :   2.9667
B(  4-C ,  5-N ) :   2.9629 B(  6-C ,  7-C ) :   1.2688 B(  6-C , 11-C ) :   1.4194
B(  7-C ,  8-C ) :   1.4202 B(  7-C , 15-C ) :   0.9659 B(  8-C ,  9-C ) :   1.2457
B(  8-C , 71-H ) :   1.0170 B(  9-C , 10-C ) :   1.3025 B(  9-C , 14-C ) :   1.1716
B( 10-C , 11-C ) :   1.3197 B( 10-C , 12-S ) :   1.1012 B( 11-C , 72-H ) :   0.9816
B( 12-S , 13-C ) :   1.1266 B( 13-C , 14-C ) :   1.6270 B( 13-C , 73-H ) :   0.9690
B( 14-C , 74-H ) :   0.9997 B( 15-C , 16-O ) :   2.1177 B( 15-C , 17-C ) :   0.9757
B( 17-C , 18-C ) :   1.5358 B( 18-C , 19-C ) :   1.2772 B( 18-C , 75-H ) :   0.9256
B( 19-C , 20-S ) :   1.0875 B( 19-C , 23-C ) :   1.4298 B( 20-S , 21-C ) :   1.1199
B( 21-C , 22-C ) :   1.4532 B( 21-C , 30-C ) :   1.1786 B( 22-C , 23-C ) :   1.3797
B( 22-C , 29-S ) :   0.9588 B( 23-C , 24-S ) :   0.9983 B( 24-S , 25-C ) :   1.0485
B( 24-S , 26-O ) :   0.1339 B( 25-C , 26-O ) :   2.1693 B( 25-C , 27-C ) :   0.7698
B( 27-C , 28-O ) :   2.1555 B( 27-C , 29-S ) :   1.0572 B( 28-O , 29-S ) :   0.1411
B( 30-C , 31-C ) :   1.6427 B( 30-C , 76-H ) :   0.9603 B( 31-C , 32-C ) :   1.0883
B( 31-C , 77-H ) :   0.9867 B( 32-C , 33-C ) :   1.2708 B( 32-C , 37-C ) :   1.3318
B( 33-C , 34-C ) :   1.3862 B( 33-C , 78-H ) :   1.0072 B( 34-C , 35-C ) :   1.3793
B( 34-C , 40-C ) :   0.9123 B( 35-C , 36-C ) :   1.3178 B( 35-C , 38-C ) :   1.0089
B( 36-C , 37-C ) :   1.4067 B( 36-C , 79-H ) :   0.9905 B( 37-C , 80-H ) :   0.9872
B( 38-C , 39-C ) :   1.3690 B( 38-C , 48-C ) :   1.3176 B( 39-C , 40-C ) :   0.9271
B( 39-C , 45-C ) :   1.3821 B( 40-C , 41-C ) :   1.0154 B( 40-C , 43-C ) :   1.0328
B( 41-C , 42-C ) :   1.1148 B( 41-C , 81-H ) :   0.9395 B( 41-C , 82-H ) :   0.9364
B( 42-C , 83-H ) :   0.9608 B( 42-C , 84-H ) :   0.9590 B( 42-C , 85-H ) :   0.9633
B( 43-C , 44-C ) :   1.1034 B( 43-C , 86-H ) :   0.9384 B( 43-C , 87-H ) :   0.9399
B( 44-C , 88-H ) :   0.9649 B( 44-C , 89-H ) :   0.9648 B( 44-C , 90-H ) :   0.9624
B( 45-C , 46-C ) :   1.2699 B( 45-C , 91-H ) :   1.0131 B( 46-C , 47-C ) :   1.3289
B( 46-C , 49-C ) :   1.1217 B( 47-C , 48-C ) :   1.4146 B( 47-C , 92-H ) :   0.9856
B( 48-C , 93-H ) :   0.9893 B( 49-C , 50-C ) :   1.6094 B( 49-C , 94-H ) :   0.9596
B( 50-C , 51-C ) :   1.1966 B( 50-C , 95-H ) :   0.9668 B( 51-C , 52-C ) :   1.5798
B( 51-C , 96-H ) :   0.9616 B( 52-C , 53-C ) :   1.1460 B( 52-C , 56-S ) :   1.0320
B( 53-C , 54-C ) :   1.5971 B( 53-C , 97-H ) :   0.9979 B( 54-C , 55-C ) :   1.1778
B( 54-C , 98-H ) :   0.9933 B( 55-C , 56-S ) :   1.0448 B( 55-C , 57-C ) :   1.5232
B( 57-C , 58-C ) :   1.1805 B( 57-C , 61-S ) :   1.0286 B( 58-C , 59-C ) :   1.6057
B( 58-C , 99-H ) :   0.9930 B( 59-C , 60-C ) :   1.1319 B( 59-C ,100-H ) :   0.9990
B( 60-C , 61-S ) :   1.0472 B( 60-C , 62-C ) :   1.5977 B( 62-C , 63-C ) :   1.1281
B( 62-C ,101-H ) :   0.9648 B( 63-C , 64-O ) :   1.0970 B( 63-C , 67-C ) :   1.4564
B( 64-O , 65-C ) :   1.2062 B( 65-C , 66-C ) :   1.4828 B( 65-C ,102-H ) :   0.9987
B( 66-C , 67-C ) :   1.2315 B( 66-C , 68-N ) :   0.9212 B( 67-C ,103-H ) :   1.0003
B( 68-N , 69-O ) :   1.5398 B( 68-N , 70-O ) :   1.5399 B( 69-O , 70-O ) :   0.2704

-----------------------------------------------------------------------------
         ABSORPTION SPECTRUM VIA TRANSITION ELECTRIC DIPOLE MOMENTS
-----------------------------------------------------------------------------
State   Energy  Wavelength   fosc         T2         TX        TY        TZ
        (cm-1)    (nm)                  (au**2)     (au)      (au)      (au)
-----------------------------------------------------------------------------
   0   14837.5    674.0   0.953787565  21.16241  -2.21483  -1.86279   3.57588
   1   17744.7    563.5   1.391851150  25.82258   3.08287  -4.03464  -0.20046
   2   20283.8    493.0   0.348018438   5.64844   1.33641  -1.95611   0.18997
   3   23865.4    419.0   0.024995106   0.34480   0.37368   0.10608  -0.44034
   4   23883.6    418.7   0.076829394   1.05902  -0.12122  -0.84563   0.57379
   5   24772.6    403.7   0.125364059   1.66601   0.13400  -1.16496   0.53937
   6   26347.4    379.5   0.317730134   3.97006  -0.06298  -1.71330   1.01524
   7   26385.9    379.0   0.013451304   0.16783   0.32211  -0.22890  -0.10807
   8   26765.1    373.6   0.349573543   4.29978   1.03421  -1.78015   0.24749
   9   27066.1    369.5   0.523858583   6.37183   0.63490   1.79241  -1.66012
  10   28072.4    356.2   0.119599048   1.40257   0.80705   0.31634  -0.80695
  11   28163.3    355.1   0.004438977   0.05189   0.04755   0.02887  -0.22089
  12   28349.5    352.7   0.081031051   0.94098   0.60282   0.29473  -0.70052
  13   29571.9    338.2   0.088118729   0.98099   0.06582   0.80046  -0.57959
  14   29851.2    335.0   0.000158875   0.00175  -0.04034   0.00723   0.00851
  15   29934.2    334.1   0.221171761   2.43241  -0.76097   1.34140  -0.23230
  16   30385.2    329.1   0.013452107   0.14575   0.01784   0.31572  -0.21389
  17   31049.2    322.1   0.085977663   0.91161   0.56762  -0.76036   0.10614
  18   32360.3    309.0   0.002554729   0.02599  -0.13076   0.06303   0.07013
  19   32769.1    305.2   0.512146630   5.14524   1.70942   0.02376  -1.49083
  20   33086.8    302.2   0.152659856   1.51896  -0.49969  -0.69123   0.88965
  21   33122.0    301.9   0.449226087   4.46503   1.08863   1.01269  -1.50146
  22   33382.8    299.6   0.055512331   0.54745   0.32712  -0.63739   0.18488
  23   33466.7    298.8   0.023787132   0.23399  -0.02600  -0.42771   0.22446
  24   33793.2    295.9   0.145531451   1.41776  -0.87720  -0.11697   0.79662
  25   33895.9    295.0   0.055837090   0.54231   0.41858   0.28846  -0.53282
  26   34332.7    291.3   0.080303234   0.77002  -0.03222  -0.71832   0.50299
  27   34394.5    290.7   0.000420692   0.00403  -0.00580   0.03805  -0.05045
  28   34511.9    289.8   0.000005552   0.00005   0.00549  -0.00131   0.00460
  29   34758.3    287.7   0.011031903   0.10449   0.23221  -0.19516  -0.11171
  30   35534.0    281.4   0.013654080   0.12650   0.01876  -0.30031   0.18964
  31   35987.4    277.9   0.065190043   0.59636  -0.06838   0.65805  -0.39832
  32   36193.7    276.3   0.022394854   0.20370  -0.33962   0.26703   0.13057
  33   36205.0    276.2   0.001150366   0.01046  -0.08338   0.05452   0.02314
  34   37102.4    269.5   0.031247855   0.27726   0.19908  -0.45959   0.16250
  35   37478.1    266.8   0.108335959   0.95164  -0.03977  -0.79082   0.56979
  36   37567.1    266.2   0.005728958   0.05020  -0.06020   0.17607  -0.12482
  37   37882.8    264.0   0.055417515   0.48159  -0.57114   0.25636   0.29945
  38   37959.0    263.4   0.040735753   0.35329   0.45595  -0.33782  -0.17686
  39   38184.2    261.9   0.030897369   0.26639  -0.13395  -0.36294   0.34164
  40   38434.0    260.2   0.132672093   1.13642  -0.65297   0.84264   0.00399
  41   38829.7    257.5   0.042384633   0.35935   0.45699  -0.32764  -0.20777
  42   38990.1    256.5   0.007411064   0.06258  -0.21026   0.12990   0.03865
  43   39002.5    256.4   0.009078544   0.07663   0.14874   0.05145  -0.22772
  44   39348.0    254.1   0.030994573   0.25932   0.23583  -0.42362   0.15572
  45   39508.5    253.1   0.000184295   0.00154   0.01996   0.02080  -0.02655
  46   39760.2    251.5   0.043424753   0.35955  -0.30662  -0.27692   0.43457
  47   40277.4    248.3   0.052365944   0.42802   0.40251  -0.51575  -0.00114

FINAL SINGLE POINT ENERGY     -5154.179436571610

DIPOLE MOMENT
-------------
                                X             Y             Z
Electronic contribution:      2.83381     -77.74258      48.41338
Nuclear contribution   :     -0.98272      82.83710     -53.26966
                        -----------------------------------------
Total Dipole Moment    :      1.85108       5.09452      -4.85628
                        -----------------------------------------
Magnitude (a.u.)       :      7.27764
Magnitude (Debye)      :     18.49830

Rotational constants in cm-1:     0.001059     0.000282     0.000224
Rotational constants in MHz :    31.756469     8.449858     6.715359

                             ****ORCA TERMINATED NORMALLY****
TOTAL RUN TIME: 0 days 0 hours 9 minutes 2 seconds 763 msec
