                         Program Version 4.2.0 -  RELEASE  -
|  1> # ORCA input file
|  2> # SCF done       -186.143852604690          0.000482966015
|  3> ! CAM-B3LYP def2-SVP def2/J RIJCOSX Grid4 TightSCF
|  4> %maxcore 5000
|  5> %tddft
|  6>     Mode sTDDFT
|  7>     Ethresh 5.0
|  8>     maxcore 5000
|  9> end
| 10>
| 11> %pal
| 12>   nprocs 6
| 13>   end
| 14> * xyz 0 1
| 15>    C       -9.53856         7.40039        -1.87110
| 16>    C       -9.60150         8.23918        -2.95417
| 17>    C       -9.36069         9.62463        -2.90353
| 18>    N       -9.18915        10.76046        -2.93484
| 19>    C       -9.93753         7.84005        -4.26017
| 20>    N      -10.23486         7.59511        -5.34249
| 21>    C       -9.20880         7.80242        -0.50699
| 22>    C       -9.23148         6.65844         0.33220
| 23>    C       -8.92680         6.71420         1.67052
| 24>    C       -8.58309         7.95807         2.21029
| 25>    C       -8.58527         9.09637         1.37070
| 26>    C       -8.88697         9.03995         0.01586
| 27>    S       -8.15660        10.53434         2.24310
| 28>    C       -7.95460         9.59630         3.69861
| 29>    C       -8.21157         8.27622         3.54497
| 30>   Br       -7.43564        10.44991         5.28218
| 31>    C       -9.60839         5.48593        -0.47428
| 32>    O       -9.76908         4.33642        -0.08609
| 33>    C       -9.79218         5.97834        -1.84394
| 34>    C      -10.17733         5.14992        -2.86614
| 35>    N      -10.38492         3.84338        -2.64723
| 36>    C      -10.87533         2.91674        -3.52548
| 37>    S      -11.77694         1.58807        -2.85731
| 38>    C      -12.16439         1.05797        -4.46022
| 39>    N      -12.93911        -0.09973        -4.60231
| 40>    O      -13.21492        -0.46162        -5.73067
| 41>    O      -13.28114        -0.66118        -3.57574
| 42>    C      -11.62675         1.85332        -5.43823
| 43>    C      -10.85464         2.91021        -4.92311
| 44>    C      -10.06646         3.79548        -5.75630
| 45>    C       -8.81926         4.16484        -5.41151
| 46>    C       -8.00406         5.11697        -6.07817
| 47>    S       -8.62588         6.11370        -7.36073
| 48>    C       -7.25715         7.19139        -7.22299
| 49>    C       -6.29846         6.67077        -6.36450
| 50>    C       -6.73002         5.51284        -5.69671
| 51>    C       -5.95070         4.89246        -4.57156
| 52>    C       -6.00233         3.39164        -4.55302
| 53>    C       -6.19270         2.68299        -3.45514
| 54>    C       -4.47852         5.33386        -4.60853
| 55>    C       -4.36041         6.83321        -4.84725
| 56>    C       -4.88804         7.15614        -6.24105
| 57>    C       -7.36302         8.50617        -7.75305
| 58>    C       -7.10500         9.60375        -6.97497
| 59>    C       -7.18813        10.98063        -7.30294
| 60>    C       -6.94806        11.82251        -6.25597
| 61>    C       -6.66056        11.15779        -5.04516
| 62>    S       -6.73387         9.43341        -5.26233
| 63>    C       -6.33218        11.65983        -3.79485
| 64>    C       -6.23643        12.97568        -3.31864
| 65>    C       -5.89566        13.05260        -1.99569
| 66>    C       -5.71075        11.80594        -1.35295
| 67>    S       -5.96926        10.53088        -2.51258
| 68>    C       -5.35095        11.69520        -0.01718
| 69>    C       -5.15382        10.64679         0.87627
| 70>    S       -4.58193        11.14395         2.45018
| 71>    C       -4.55904         9.53298         3.09936
| 72>    C       -5.02719         8.62336         2.15227
| 73>    C       -5.34540         9.23180         0.88300
| 74>    C       -5.82654         8.42093        -0.12343
| 75>    C       -6.03296         7.05523         0.06151
| 76>    N       -6.52559         6.34173        -1.03033
| 77>    O       -6.81804         6.95226        -2.06018
| 78>    O       -6.68538         5.11620        -0.95768
| 79>    C       -5.78598         6.45107         1.33928
| 80>    N       -6.08992         5.15537         1.58161
| 81>    C       -5.28419         7.25658         2.34433
| 82>    C       -4.09395         9.36632         4.44472
| 83>    C       -3.58656         8.25991         4.99077
| 84>    H       -8.94720         5.82548         2.28092
| 85>    H       -8.86100         9.93410        -0.58366
| 86>    H       -8.14034         7.55578         4.33885
| 87>    H      -10.34412         5.52185        -3.86662
| 88>    H      -10.26016         3.56668        -1.66049
| 89>    H      -11.76000         1.65664        -6.48670
| 90>    H      -10.50048         4.11185        -6.69413
| 91>    H       -8.38388         3.75800        -4.50897
| 92>    H       -6.39160         5.27388        -3.64267
| 93>    H       -5.82213         2.90707        -5.50458
| 94>    H       -6.37079         3.15927        -2.50389
| 95>    H       -6.18176         1.60595        -3.46029
| 96>    H       -3.95734         4.79554        -5.40479
| 97>    H       -4.01216         5.05899        -3.66085
| 98>    H       -4.94752         7.37149        -4.10053
| 99>    H       -3.31897         7.14780        -4.76114
|100>    H       -4.28574         6.61946        -6.98381
|101>    H       -4.80142         8.21779        -6.46527
|102>    H       -7.81448         8.64712        -8.72526
|103>    H       -7.42237        11.30389        -8.30191
|104>    H       -6.97418        12.89562        -6.32183
|105>    H       -6.42510        13.82750        -3.94684
|106>    H       -5.78023        13.97828        -1.45946
|107>    H       -5.17630        12.66545         0.43895
|108>    H       -6.06751         8.81566        -1.09199
|109>    H       -6.37295         4.57108         0.80839
|110>    H       -5.82116         4.74399         2.45636
|111>    H       -5.12545         6.82183         3.31717
|112>    H       -4.13739        10.26862         5.04301
|113>    H       -3.44129         7.34954         4.43773
|114>    H       -3.26737         8.25326         6.01787
|115> *
|116>
|117>                          ****END OF INPUT****

CARTESIAN COORDINATES (ANGSTROEM)
---------------------------------
  C     -9.538560    7.400390   -1.871100
  C     -9.601500    8.239180   -2.954170
  C     -9.360690    9.624630   -2.903530
  N     -9.189150   10.760460   -2.934840
  C     -9.937530    7.840050   -4.260170
  N    -10.234860    7.595110   -5.342490
  C     -9.208800    7.802420   -0.506990
  C     -9.231480    6.658440    0.332200
  C     -8.926800    6.714200    1.670520
  C     -8.583090    7.958070    2.210290
  C     -8.585270    9.096370    1.370700
  C     -8.886970    9.039950    0.015860
  S     -8.156600   10.534340    2.243100
  C     -7.954600    9.596300    3.698610
  C     -8.211570    8.276220    3.544970
  Br    -7.435640   10.449910    5.282180
  C     -9.608390    5.485930   -0.474280
  O     -9.769080    4.336420   -0.086090
  C     -9.792180    5.978340   -1.843940
  C    -10.177330    5.149920   -2.866140
  N    -10.384920    3.843380   -2.647230
  C    -10.875330    2.916740   -3.525480
  S    -11.776940    1.588070   -2.857310
  C    -12.164390    1.057970   -4.460220
  N    -12.939110   -0.099730   -4.602310
  O    -13.214920   -0.461620   -5.730670
  O    -13.281140   -0.661180   -3.575740
  C    -11.626750    1.853320   -5.438230
  C    -10.854640    2.910210   -4.923110
  C    -10.066460    3.795480   -5.756300
  C     -8.819260    4.164840   -5.411510
  C     -8.004060    5.116970   -6.078170
  S     -8.625880    6.113700   -7.360730
  C     -7.257150    7.191390   -7.222990
  C     -6.298460    6.670770   -6.364500
  C     -6.730020    5.512840   -5.696710
  C     -5.950700    4.892460   -4.571560
  C     -6.002330    3.391640   -4.553020
  C     -6.192700    2.682990   -3.455140
  C     -4.478520    5.333860   -4.608530
  C     -4.360410    6.833210   -4.847250
  C     -4.888040    7.156140   -6.241050
  C     -7.363020    8.506170   -7.753050
  C     -7.105000    9.603750   -6.974970
  C     -7.188130   10.980630   -7.302940
  C     -6.948060   11.822510   -6.255970
  C     -6.660560   11.157790   -5.045160
  S     -6.733870    9.433410   -5.262330
  C     -6.332180   11.659830   -3.794850
  C     -6.236430   12.975680   -3.318640
  C     -5.895660   13.052600   -1.995690
  C     -5.710750   11.805940   -1.352950
  S     -5.969260   10.530880   -2.512580
  C     -5.350950   11.695200   -0.017180
  C     -5.153820   10.646790    0.876270
  S     -4.581930   11.143950    2.450180
  C     -4.559040    9.532980    3.099360
  C     -5.027190    8.623360    2.152270
  C     -5.345400    9.231800    0.883000
  C     -5.826540    8.420930   -0.123430
  C     -6.032960    7.055230    0.061510
  N     -6.525590    6.341730   -1.030330
  O     -6.818040    6.952260   -2.060180
  O     -6.685380    5.116200   -0.957680
  C     -5.785980    6.451070    1.339280
  N     -6.089920    5.155370    1.581610
  C     -5.284190    7.256580    2.344330
  C     -4.093950    9.366320    4.444720
  C     -3.586560    8.259910    4.990770
  H     -8.947200    5.825480    2.280920
  H     -8.861000    9.934100   -0.583660
  H     -8.140340    7.555780    4.338850
  H    -10.344120    5.521850   -3.866620
  H    -10.260160    3.566680   -1.660490
  H    -11.760000    1.656640   -6.486700
  H    -10.500480    4.111850   -6.694130
  H     -8.383880    3.758000   -4.508970
  H     -6.391600    5.273880   -3.642670
  H     -5.822130    2.907070   -5.504580
  H     -6.370790    3.159270   -2.503890
  H     -6.181760    1.605950   -3.460290
  H     -3.957340    4.795540   -5.404790
  H     -4.012160    5.058990   -3.660850
  H     -4.947520    7.371490   -4.100530
  H     -3.318970    7.147800   -4.761140
  H     -4.285740    6.619460   -6.983810
  H     -4.801420    8.217790   -6.465270
  H     -7.814480    8.647120   -8.725260
  H     -7.422370   11.303890   -8.301910
  H     -6.974180   12.895620   -6.321830
  H     -6.425100   13.827500   -3.946840
  H     -5.780230   13.978280   -1.459460
  H     -5.176300   12.665450    0.438950
  H     -6.067510    8.815660   -1.091990
  H     -6.372950    4.571080    0.808390
  H     -5.821160    4.743990    2.456360
  H     -5.125450    6.821830    3.317170
  H     -4.137390   10.268620    5.043010
  H     -3.441290    7.349540    4.437730
  H     -3.267370    8.253260    6.017870

 Total Charge           Charge          ....    0
 Multiplicity           Mult            ....    1
 Number of Electrons    NEL             ....  550
 Basis Dimension        Dim             .... 1163

ORBITAL ENERGIES
----------------

  NO   OCC          E(Eh)            E(eV)
   0   2.0000    -482.881631    -13139.8772
   1   2.0000     -88.979235     -2421.2481
   2   2.0000     -88.970731     -2421.0167
   3   2.0000     -88.960227     -2420.7308
   4   2.0000     -88.953360     -2420.5440
   5   2.0000     -88.947976     -2420.3975
   6   2.0000     -88.941533     -2420.2222
   7   2.0000     -62.559028     -1702.3177
   8   2.0000     -56.392948     -1534.5301
   9   2.0000     -56.390339     -1534.4591
  10   2.0000     -56.390226     -1534.4561
  11   2.0000     -19.245990      -523.7100
  12   2.0000     -19.242354      -523.6111
  13   2.0000     -19.231633      -523.3193
  14   2.0000     -19.231299      -523.3103
  15   2.0000     -19.219048      -522.9769
  16   2.0000     -14.647578      -398.5808
  17   2.0000     -14.643306      -398.4646
  18   2.0000     -14.480299      -394.0290
  19   2.0000     -14.421249      -392.4221
  20   2.0000     -14.406447      -392.0193
  21   2.0000     -14.404989      -391.9797
  22   2.0000     -10.366637      -282.0905
  23   2.0000     -10.360874      -281.9337
  24   2.0000     -10.352525      -281.7065
  25   2.0000     -10.352014      -281.6926
  26   2.0000     -10.338048      -281.3126
  27   2.0000     -10.334241      -281.2090
  28   2.0000     -10.333741      -281.1954
  29   2.0000     -10.325766      -280.9784
  30   2.0000     -10.322495      -280.8894
  31   2.0000     -10.321707      -280.8679
  32   2.0000     -10.319578      -280.8100
  33   2.0000     -10.318531      -280.7815
  34   2.0000     -10.316828      -280.7352
  35   2.0000     -10.309693      -280.5410
  36   2.0000     -10.309547      -280.5370
  37   2.0000     -10.309311      -280.5306
  38   2.0000     -10.307887      -280.4919
  39   2.0000     -10.302024      -280.3323
  40   2.0000     -10.301087      -280.3068
  41   2.0000     -10.300892      -280.3015
  42   2.0000     -10.299875      -280.2738
  43   2.0000     -10.298634      -280.2401
  44   2.0000     -10.296724      -280.1881
  45   2.0000     -10.296649      -280.1861
  46   2.0000     -10.295091      -280.1437
  47   2.0000     -10.294609      -280.1305
  48   2.0000     -10.292650      -280.0772
  49   2.0000     -10.291434      -280.0442
  50   2.0000     -10.290662      -280.0231
  51   2.0000     -10.290505      -280.0189
  52   2.0000     -10.290176      -280.0099
  53   2.0000     -10.289717      -279.9974
  54   2.0000     -10.289515      -279.9919
  55   2.0000     -10.288904      -279.9753
  56   2.0000     -10.287777      -279.9447
  57   2.0000     -10.286683      -279.9149
  58   2.0000     -10.283692      -279.8335
  59   2.0000     -10.283534      -279.8292
  60   2.0000     -10.278651      -279.6963
  61   2.0000     -10.277610      -279.6680
  62   2.0000     -10.276743      -279.6444
  63   2.0000     -10.271314      -279.4967
  64   2.0000     -10.269193      -279.4390
  65   2.0000     -10.262116      -279.2464
  66   2.0000     -10.261541      -279.2307
  67   2.0000     -10.260701      -279.2079
  68   2.0000     -10.259231      -279.1679
  69   2.0000     -10.258718      -279.1539
  70   2.0000     -10.253505      -279.0121
  71   2.0000     -10.250389      -278.9273
  72   2.0000     -10.245726      -278.8004
  73   2.0000      -8.788361      -239.1435
  74   2.0000      -8.074939      -219.7302
  75   2.0000      -8.065804      -219.4817
  76   2.0000      -8.055621      -219.2046
  77   2.0000      -8.048432      -219.0090
  78   2.0000      -8.042892      -218.8582
  79   2.0000      -8.036791      -218.6922
  80   2.0000      -6.624556      -180.2633
  81   2.0000      -6.610146      -179.8712
  82   2.0000      -6.609968      -179.8664
  83   2.0000      -6.044512      -164.4795
  84   2.0000      -6.040139      -164.3605
  85   2.0000      -6.036510      -164.2618
  86   2.0000      -6.035530      -164.2351
  87   2.0000      -6.031222      -164.1179
  88   2.0000      -6.027147      -164.0070
  89   2.0000      -6.024645      -163.9389
  90   2.0000      -6.020663      -163.8306
  91   2.0000      -6.018162      -163.7625
  92   2.0000      -6.018086      -163.7604
  93   2.0000      -6.014039      -163.6503
  94   2.0000      -6.012681      -163.6134
  95   2.0000      -6.009691      -163.5320
  96   2.0000      -6.008559      -163.5012
  97   2.0000      -6.006106      -163.4345
  98   2.0000      -6.003902      -163.3745
  99   2.0000      -6.002039      -163.3238
 100   2.0000      -5.998739      -163.2340
 101   2.0000      -2.740461       -74.5717
 102   2.0000      -2.736388       -74.4609
 103   2.0000      -2.736295       -74.4584
 104   2.0000      -2.724823       -74.1462
 105   2.0000      -2.724799       -74.1456
 106   2.0000      -1.314046       -35.7570
 107   2.0000      -1.312862       -35.7248
 108   2.0000      -1.134030       -30.8585
 109   2.0000      -1.131738       -30.7962
 110   2.0000      -1.128879       -30.7184
 111   2.0000      -1.086169       -29.5562
 112   2.0000      -1.025484       -27.9048
 113   2.0000      -1.015834       -27.6423
 114   2.0000      -1.005804       -27.3693
 115   2.0000      -1.001624       -27.2556
 116   2.0000      -0.999762       -27.2049
 117   2.0000      -0.991853       -26.9897
 118   2.0000      -0.986781       -26.8517
 119   2.0000      -0.982994       -26.7486
 120   2.0000      -0.981739       -26.7145
 121   2.0000      -0.973211       -26.4824
 122   2.0000      -0.946120       -25.7452
 123   2.0000      -0.934374       -25.4256
 124   2.0000      -0.915222       -24.9045
 125   2.0000      -0.913921       -24.8690
 126   2.0000      -0.904164       -24.6036
 127   2.0000      -0.902154       -24.5489
 128   2.0000      -0.897525       -24.4229
 129   2.0000      -0.887049       -24.1378
 130   2.0000      -0.884421       -24.0663
 131   2.0000      -0.879577       -23.9345
 132   2.0000      -0.875381       -23.8203
 133   2.0000      -0.868791       -23.6410
 134   2.0000      -0.859047       -23.3759
 135   2.0000      -0.849336       -23.1116
 136   2.0000      -0.845340       -23.0029
 137   2.0000      -0.834350       -22.7038
 138   2.0000      -0.833202       -22.6726
 139   2.0000      -0.825317       -22.4580
 140   2.0000      -0.823050       -22.3963
 141   2.0000      -0.819574       -22.3017
 142   2.0000      -0.809765       -22.0348
 143   2.0000      -0.803845       -21.8737
 144   2.0000      -0.786729       -21.4080
 145   2.0000      -0.781648       -21.2697
 146   2.0000      -0.773314       -21.0429
 147   2.0000      -0.762053       -20.7365
 148   2.0000      -0.753257       -20.4972
 149   2.0000      -0.745962       -20.2987
 150   2.0000      -0.732219       -19.9247
 151   2.0000      -0.714499       -19.4425
 152   2.0000      -0.711012       -19.3476
 153   2.0000      -0.707925       -19.2636
 154   2.0000      -0.705814       -19.2062
 155   2.0000      -0.695572       -18.9275
 156   2.0000      -0.689955       -18.7746
 157   2.0000      -0.682998       -18.5853
 158   2.0000      -0.682701       -18.5772
 159   2.0000      -0.667763       -18.1707
 160   2.0000      -0.662537       -18.0285
 161   2.0000      -0.659167       -17.9368
 162   2.0000      -0.650975       -17.7139
 163   2.0000      -0.649272       -17.6676
 164   2.0000      -0.643310       -17.5054
 165   2.0000      -0.639077       -17.3902
 166   2.0000      -0.636918       -17.3314
 167   2.0000      -0.633747       -17.2451
 168   2.0000      -0.630293       -17.1511
 169   2.0000      -0.625619       -17.0240
 170   2.0000      -0.624451       -16.9922
 171   2.0000      -0.623955       -16.9787
 172   2.0000      -0.622195       -16.9308
 173   2.0000      -0.615789       -16.7565
 174   2.0000      -0.614443       -16.7198
 175   2.0000      -0.612232       -16.6597
 176   2.0000      -0.600678       -16.3453
 177   2.0000      -0.598353       -16.2820
 178   2.0000      -0.596082       -16.2202
 179   2.0000      -0.592275       -16.1166
 180   2.0000      -0.589807       -16.0495
 181   2.0000      -0.583291       -15.8721
 182   2.0000      -0.579315       -15.7640
 183   2.0000      -0.573563       -15.6074
 184   2.0000      -0.572121       -15.5682
 185   2.0000      -0.559655       -15.2290
 186   2.0000      -0.557277       -15.1643
 187   2.0000      -0.548860       -14.9352
 188   2.0000      -0.547845       -14.9076
 189   2.0000      -0.540265       -14.7014
 190   2.0000      -0.538502       -14.6534
 191   2.0000      -0.535730       -14.5779
 192   2.0000      -0.530580       -14.4378
 193   2.0000      -0.529596       -14.4110
 194   2.0000      -0.527746       -14.3607
 195   2.0000      -0.527411       -14.3516
 196   2.0000      -0.523520       -14.2457
 197   2.0000      -0.520380       -14.1603
 198   2.0000      -0.517552       -14.0833
 199   2.0000      -0.515099       -14.0165
 200   2.0000      -0.513904       -13.9840
 201   2.0000      -0.512224       -13.9383
 202   2.0000      -0.507782       -13.8175
 203   2.0000      -0.507174       -13.8009
 204   2.0000      -0.506319       -13.7777
 205   2.0000      -0.504982       -13.7413
 206   2.0000      -0.502091       -13.6626
 207   2.0000      -0.499763       -13.5992
 208   2.0000      -0.494345       -13.4518
 209   2.0000      -0.493774       -13.4363
 210   2.0000      -0.490345       -13.3430
 211   2.0000      -0.490099       -13.3363
 212   2.0000      -0.486518       -13.2388
 213   2.0000      -0.481545       -13.1035
 214   2.0000      -0.475737       -12.9455
 215   2.0000      -0.473943       -12.8966
 216   2.0000      -0.472644       -12.8613
 217   2.0000      -0.470061       -12.7910
 218   2.0000      -0.467129       -12.7112
 219   2.0000      -0.463785       -12.6202
 220   2.0000      -0.458318       -12.4715
 221   2.0000      -0.456908       -12.4331
 222   2.0000      -0.454381       -12.3643
 223   2.0000      -0.453719       -12.3463
 224   2.0000      -0.450374       -12.2553
 225   2.0000      -0.448565       -12.2061
 226   2.0000      -0.443916       -12.0796
 227   2.0000      -0.443204       -12.0602
 228   2.0000      -0.437650       -11.9091
 229   2.0000      -0.435802       -11.8588
 230   2.0000      -0.433752       -11.8030
 231   2.0000      -0.433454       -11.7949
 232   2.0000      -0.431075       -11.7302
 233   2.0000      -0.430119       -11.7041
 234   2.0000      -0.424242       -11.5442
 235   2.0000      -0.421468       -11.4687
 236   2.0000      -0.419656       -11.4194
 237   2.0000      -0.415540       -11.3074
 238   2.0000      -0.413715       -11.2577
 239   2.0000      -0.410168       -11.1612
 240   2.0000      -0.405893       -11.0449
 241   2.0000      -0.403496       -10.9797
 242   2.0000      -0.401440       -10.9237
 243   2.0000      -0.399310       -10.8658
 244   2.0000      -0.396281       -10.7834
 245   2.0000      -0.395748       -10.7689
 246   2.0000      -0.390364       -10.6223
 247   2.0000      -0.384250       -10.4560
 248   2.0000      -0.382080       -10.3969
 249   2.0000      -0.380624       -10.3573
 250   2.0000      -0.378889       -10.3101
 251   2.0000      -0.375646       -10.2218
 252   2.0000      -0.375378       -10.2146
 253   2.0000      -0.372309       -10.1310
 254   2.0000      -0.371177       -10.1002
 255   2.0000      -0.369306       -10.0493
 256   2.0000      -0.365448        -9.9443
 257   2.0000      -0.363893        -9.9020
 258   2.0000      -0.359823        -9.7913
 259   2.0000      -0.343670        -9.3517
 260   2.0000      -0.342272        -9.3137
 261   2.0000      -0.338673        -9.2158
 262   2.0000      -0.334278        -9.0962
 263   2.0000      -0.329351        -8.9621
 264   2.0000      -0.323282        -8.7970
 265   2.0000      -0.318422        -8.6647
 266   2.0000      -0.315792        -8.5931
 267   2.0000      -0.308588        -8.3971
 268   2.0000      -0.296593        -8.0707
 269   2.0000      -0.292249        -7.9525
 270   2.0000      -0.287600        -7.8260
 271   2.0000      -0.278671        -7.5830
 272   2.0000      -0.264203        -7.1893
 273   2.0000      -0.242681        -6.6037
 274   2.0000      -0.201947        -5.4953
 275   0.0000      -0.096871        -2.6360
 276   0.0000      -0.076553        -2.0831
 277   0.0000      -0.057059        -1.5527
 278   0.0000      -0.054505        -1.4832
 279   0.0000      -0.037343        -1.0162

MULLIKEN ATOMIC CHARGES
-----------------------
   0 C :    0.390594
   1 C :   -0.368019
   2 C :   -0.188726
   3 N :    0.142985
   4 C :   -0.196197
   5 N :    0.147394
   6 C :   -0.020554
   7 C :   -0.034339
   8 C :   -0.043882
   9 C :    0.104508
  10 C :   -0.101278
  11 C :   -0.016896
  12 S :    0.181130
  13 C :   -0.130914
  14 C :    0.068525
  15 Br:    0.016251
  16 C :    0.175244
  17 O :   -0.215732
  18 C :   -0.129381
  19 C :    0.022311
  20 N :   -0.002147
  21 C :   -0.130994
  22 S :    0.189766
  23 C :   -0.005454
  24 N :    0.276209
  25 O :   -0.249649
  26 O :   -0.264936
  27 C :    0.001260
  28 C :    0.103380
  29 C :   -0.031012
  30 C :   -0.020057
  31 C :   -0.134000
  32 S :    0.151163
  33 C :   -0.172116
  34 C :   -0.090460
  35 C :    0.010777
  36 C :    0.027800
  37 C :   -0.051215
  38 C :   -0.015245
  39 C :    0.061011
  40 C :    0.041015
  41 C :    0.147534
  42 C :    0.037952
  43 C :   -0.046860
  44 C :    0.059275
  45 C :    0.028094
  46 C :   -0.019498
  47 S :    0.077934
  48 C :    0.000200
  49 C :    0.052307
  50 C :    0.012816
  51 C :   -0.006805
  52 S :    0.035708
  53 C :   -0.015810
  54 C :   -0.098068
  55 S :    0.136421
  56 C :   -0.174317
  57 C :    0.178658
  58 C :    0.170731
  59 C :   -0.112583
  60 C :    0.089066
  61 N :    0.285704
  62 O :   -0.244293
  63 O :   -0.284987
  64 C :    0.001490
  65 N :   -0.008276
  66 C :   -0.181202
  67 C :    0.030353
  68 C :   -0.037249
  69 H :   -0.023484
  70 H :   -0.014117
  71 H :   -0.011765
  72 H :    0.057614
  73 H :    0.164039
  74 H :    0.009965
  75 H :    0.004537
  76 H :    0.021391
  77 H :    0.014556
  78 H :   -0.007043
  79 H :    0.020255
  80 H :    0.014638
  81 H :   -0.011964
  82 H :   -0.005981
  83 H :    0.006393
  84 H :   -0.004810
  85 H :    0.011828
  86 H :    0.004909
  87 H :    0.001474
  88 H :   -0.007260
  89 H :   -0.011300
  90 H :   -0.011864
  91 H :   -0.012861
  92 H :   -0.016693
  93 H :   -0.004510
  94 H :    0.134024
  95 H :    0.109872
  96 H :   -0.072375
  97 H :   -0.011010
  98 H :    0.019211
  99 H :    0.019919
Sum of atomic charges:   -0.0000000

LOEWDIN ATOMIC CHARGES
----------------------
   0 C :    0.084226
   1 C :   -0.152265
   2 C :   -0.018905
   3 N :   -0.074085
   4 C :   -0.019155
   5 N :   -0.071321
   6 C :   -0.023597
   7 C :   -0.061596
   8 C :    0.027478
   9 C :   -0.035106
  10 C :   -0.142488
  11 C :   -0.010889
  12 S :    0.446413
  13 C :   -0.274045
  14 C :   -0.065441
  15 Br:    0.139868
  16 C :    0.089628
  17 O :   -0.176111
  18 C :   -0.143854
  19 C :    0.127108
  20 N :    0.064517
  21 C :   -0.115810
  22 S :    0.467573
  23 C :   -0.208095
  24 N :    0.273587
  25 O :   -0.215723
  26 O :   -0.230303
  27 C :    0.001570
  28 C :   -0.083759
  29 C :   -0.049715
  30 C :   -0.024149
  31 C :   -0.174859
  32 S :    0.459992
  33 C :   -0.181645
  34 C :   -0.061508
  35 C :   -0.033918
  36 C :   -0.033352
  37 C :   -0.010258
  38 C :   -0.065361
  39 C :   -0.015910
  40 C :   -0.030871
  41 C :   -0.032687
  42 C :   -0.042482
  43 C :   -0.146442
  44 C :   -0.016463
  45 C :   -0.035262
  46 C :   -0.153614
  47 S :    0.432360
  48 C :   -0.183939
  49 C :   -0.017531
  50 C :   -0.043612
  51 C :   -0.139503
  52 S :    0.431209
  53 C :   -0.105485
  54 C :   -0.140557
  55 S :    0.465312
  56 C :   -0.211921
  57 C :   -0.021648
  58 C :   -0.076434
  59 C :    0.038634
  60 C :   -0.087144
  61 N :    0.304616
  62 O :   -0.216548
  63 O :   -0.233388
  64 C :    0.042641
  65 N :    0.005697
  66 C :   -0.095867
  67 C :   -0.044051
  68 C :   -0.062341
  69 H :    0.036181
  70 H :    0.038540
  71 H :    0.035800
  72 H :    0.044757
  73 H :    0.082950
  74 H :    0.046603
  75 H :    0.026522
  76 H :    0.038463
  77 H :    0.032351
  78 H :    0.021695
  79 H :    0.019333
  80 H :    0.020441
  81 H :    0.017661
  82 H :    0.024136
  83 H :    0.015709
  84 H :    0.022178
  85 H :    0.032883
  86 H :    0.018095
  87 H :    0.036186
  88 H :    0.035730
  89 H :    0.033413
  90 H :    0.034528
  91 H :    0.032160
  92 H :    0.033458
  93 H :    0.006650
  94 H :    0.060115
  95 H :    0.074536
  96 H :    0.021149
  97 H :    0.023508
  98 H :    0.018885
  99 H :    0.023963

  Mayer bond orders larger than 0.100000
B(  0-C ,  1-C ) :   1.6172 B(  0-C ,  6-C ) :   0.9830 B(  0-C , 18-C ) :   1.1014
B(  1-C ,  2-C ) :   1.1704 B(  1-C ,  4-C ) :   1.1662 B(  2-C ,  3-N ) :   2.9193
B(  4-C ,  5-N ) :   2.9314 B(  6-C ,  7-C ) :   1.2780 B(  6-C , 11-C ) :   1.4289
B(  7-C ,  8-C ) :   1.4184 B(  7-C , 16-C ) :   0.9758 B(  8-C ,  9-C ) :   1.2316
B(  8-C , 69-H ) :   1.0182 B(  9-C , 10-C ) :   1.3165 B(  9-C , 14-C ) :   1.1606
B( 10-C , 11-C ) :   1.2934 B( 10-C , 12-S ) :   1.0930 B( 11-C , 70-H ) :   0.9862
B( 12-S , 13-C ) :   1.0850 B( 13-C , 14-C ) :   1.6147 B( 13-C , 15-Br) :   1.0156
B( 14-C , 71-H ) :   1.0010 B( 16-C , 17-O ) :   2.0538 B( 16-C , 18-C ) :   0.9865
B( 17-O , 73-H ) :   0.1399 B( 18-C , 19-C ) :   1.4706 B( 19-C , 20-N ) :   1.3384
B( 19-C , 72-H ) :   0.9243 B( 20-N , 21-C ) :   1.1319 B( 20-N , 73-H ) :   0.8344
B( 21-C , 22-S ) :   1.1436 B( 21-C , 28-C ) :   1.4238 B( 22-S , 23-C ) :   1.0968
B( 23-C , 24-N ) :   0.9663 B( 23-C , 27-C ) :   1.4725 B( 24-N , 25-O ) :   1.5391
B( 24-N , 26-O ) :   1.5128 B( 25-O , 26-O ) :   0.2595 B( 27-C , 28-C ) :   1.2355
B( 27-C , 74-H ) :   1.0095 B( 28-C , 29-C ) :   1.0333 B( 29-C , 30-C ) :   1.7266
B( 29-C , 75-H ) :   0.9641 B( 30-C , 31-C ) :   1.1776 B( 30-C , 76-H ) :   0.9435
B( 31-C , 32-S ) :   1.1361 B( 31-C , 35-C ) :   1.4720 B( 32-S , 33-C ) :   1.1229
B( 33-C , 34-C ) :   1.4721 B( 33-C , 42-C ) :   1.0941 B( 34-C , 35-C ) :   1.3209
B( 34-C , 41-C ) :   1.0504 B( 35-C , 36-C ) :   0.9694 B( 36-C , 37-C ) :   0.9957
B( 36-C , 39-C ) :   1.0628 B( 36-C , 77-H ) :   0.8751 B( 37-C , 38-C ) :   1.9902
B( 37-C , 78-H ) :   0.9701 B( 38-C , 79-H ) :   0.9429 B( 38-C , 80-H ) :   0.9514
B( 39-C , 40-C ) :   1.0708 B( 39-C , 81-H ) :   0.9351 B( 39-C , 82-H ) :   0.9306
B( 40-C , 41-C ) :   1.0814 B( 40-C , 83-H ) :   0.9372 B( 40-C , 84-H ) :   0.9317
B( 41-C , 85-H ) :   0.9138 B( 41-C , 86-H ) :   0.9060 B( 42-C , 43-C ) :   1.6311
B( 42-C , 87-H ) :   0.9570 B( 43-C , 44-C ) :   1.1432 B( 43-C , 47-S ) :   1.0348
B( 44-C , 45-C ) :   1.5862 B( 44-C , 88-H ) :   0.9951 B( 45-C , 46-C ) :   1.1984
B( 45-C , 89-H ) :   0.9953 B( 46-C , 47-S ) :   1.0749 B( 46-C , 48-C ) :   1.4491
B( 48-C , 49-C ) :   1.2277 B( 48-C , 52-S ) :   1.0379 B( 49-C , 50-C ) :   1.5440
B( 49-C , 90-H ) :   0.9916 B( 50-C , 51-C ) :   1.1824 B( 50-C , 91-H ) :   0.9994
B( 51-C , 52-S ) :   1.0654 B( 51-C , 53-C ) :   1.5089 B( 53-C , 54-C ) :   1.2694
B( 53-C , 92-H ) :   0.9281 B( 54-C , 55-S ) :   1.1861 B( 54-C , 58-C ) :   1.2021
B( 55-S , 56-C ) :   1.0825 B( 56-C , 57-C ) :   1.3890 B( 56-C , 67-C ) :   1.1098
B( 57-C , 58-C ) :   1.1710 B( 57-C , 66-C ) :   1.1828 B( 58-C , 59-C ) :   1.2433
B( 59-C , 60-C ) :   1.4021 B( 59-C , 93-H ) :   0.9710 B( 60-C , 61-N ) :   0.9823
B( 60-C , 64-C ) :   1.1585 B( 61-N , 62-O ) :   1.4648 B( 61-N , 63-O ) :   1.3973
B( 62-O , 63-O ) :   0.1933 B( 64-C , 65-N ) :   1.3625 B( 64-C , 66-C ) :   1.4054
B( 65-N , 94-H ) :   0.8993 B( 65-N , 95-H ) :   0.9268 B( 66-C , 96-H ) :   0.9970
B( 67-C , 68-C ) :   1.9212 B( 67-C , 97-H ) :   0.9437 B( 68-C , 98-H ) :   0.9573
B( 68-C , 99-H ) :   0.9460

-----------------------------------------------------------------------------
         ABSORPTION SPECTRUM VIA TRANSITION ELECTRIC DIPOLE MOMENTS
-----------------------------------------------------------------------------
State   Energy  Wavelength   fosc         T2         TX        TY        TZ
        (cm-1)    (nm)                  (au**2)     (au)      (au)      (au)
-----------------------------------------------------------------------------
   0    8050.2   1242.2   0.266131553  10.88337   0.78237  -0.25000   3.19512
   1   12036.9    830.8   0.051180111   1.39979  -0.88975  -0.42878  -0.65137
   2   16028.3    623.9   0.221725631   4.55413  -0.75299  -1.37293  -1.44990
   3   16230.6    616.1   0.146512098   2.97177   0.43908   1.65589   0.19236
   4   17296.4    578.2   0.137493779   2.61699   0.23810  -0.01545   1.60002
   5   19473.6    513.5   0.198192073   3.35054  -0.57169  -1.02391  -1.40546
   6   20472.6    488.5   0.079422144   1.27716   0.19765   0.75625  -0.81620
   7   22939.2    435.9   0.057385867   0.82357   0.26786   0.83577   0.23090
   8   23088.0    433.1   0.104742607   1.49353  -0.15265   0.52133  -1.09473
   9   23416.2    427.1   0.134271117   1.88774  -0.06082  -1.02469  -0.91326
  10   23963.5    417.3   0.006658704   0.09148  -0.26758   0.09661   0.10269
  11   24689.8    405.0   0.429747815   5.73022  -0.29247  -2.28791   0.64043
  12   25340.6    394.6   0.022698734   0.29489   0.38327  -0.37903   0.06583
  13   25594.4    390.7   0.026776368   0.34442   0.28645  -0.04642   0.51010
  14   26232.2    381.2   0.013752844   0.17260   0.26003   0.22904  -0.22918
  15   26403.3    378.7   0.020060931   0.25013   0.36425   0.22931   0.25469
  16   26793.8    373.2   0.532051512   6.53725  -1.04768  -2.27258  -0.52438
  17   27423.6    364.6   0.044675410   0.53631   0.27795   0.01599  -0.67735
  18   28211.8    354.5   0.064444072   0.75202   0.03726   0.51312  -0.69809
  19   28556.7    350.2   0.066726591   0.76925  -0.44189  -0.74026  -0.16123
  20   28867.8    346.4   0.460853234   5.25563   0.79635   1.14614   1.81874
  21   29213.9    342.3   0.028726833   0.32372   0.23683  -0.28337  -0.43283
  22   29717.1    336.5   0.025922517   0.28717   0.44421   0.16169  -0.25241
  23   30000.5    333.3   0.037398929   0.41040  -0.38390  -0.05056   0.51036
  24   30163.0    331.5   0.055843119   0.60950   0.60016   0.04111   0.49761
  25   30318.9    329.8   0.240410978   2.61045   0.29083   1.12582   1.12179
  26   30572.4    327.1   0.128411309   1.38277   0.18184   0.11342   1.15622
  27   30625.5    326.5   0.212261522   2.28172   0.94020   1.17044  -0.16685
  28   31045.6    322.1   0.019971334   0.21178  -0.35566   0.26526  -0.12215
  29   31383.9    318.6   0.047711484   0.50049  -0.19621  -0.34840   0.58361
  30   32110.5    311.4   0.011418779   0.11707  -0.13738  -0.21272  -0.23010
  31   32321.5    309.4   0.189611219   1.93129   0.78191   1.02701   0.51495
  32   32649.6    306.3   0.060394866   0.60897  -0.24201   0.00976  -0.74183
  33   32911.9    303.8   0.062914927   0.62933  -0.18522  -0.18649   0.74849
  34   32978.2    303.2   0.026976369   0.26930  -0.26150  -0.42706  -0.13615
  35   33161.3    301.6   0.019537881   0.19396  -0.20236  -0.16366  -0.35528
  36   33652.7    297.2   0.080207516   0.78464  -0.36001  -0.22608  -0.77712
  37   33860.4    295.3   0.074864893   0.72788   0.52978   0.02051   0.66843
  38   33969.8    294.4   0.165649425   1.60536  -0.21680  -0.78265   0.97253
  39   34331.3    291.3   0.173714247   1.66579  -0.06662  -0.51840   1.18009
  40   34621.7    288.8   0.182410393   1.73451  -0.33225   0.03733  -1.27386
  41   34781.5    287.5   0.079871822   0.75600  -0.64900   0.28484  -0.50365
  42   35049.5    285.3   0.036864159   0.34626   0.02299  -0.34594  -0.47545
  43   35221.8    283.9   0.004267365   0.03989  -0.08455   0.01264  -0.18050
  44   35441.7    282.2   0.048700722   0.45237   0.00961  -0.18128  -0.64762
  45   35556.3    281.2   0.022434753   0.20772   0.14394   0.13735   0.41005
  46   35634.4    280.6   0.069253738   0.63981   0.25336   0.23985   0.71979
  47   35790.7    279.4   0.092911286   0.85462   0.51445  -0.02004   0.76783
  48   35875.2    278.7   0.074061588   0.67963  -0.53573  -0.12264  -0.61448
  49   36016.4    277.7   0.047406110   0.43332  -0.04613  -0.46723   0.46140
  50   36125.4    276.8   0.010400664   0.09478  -0.12453  -0.06988   0.27275
  51   36244.8    275.9   0.012567667   0.11415  -0.20880   0.05959  -0.25885
  52   36308.7    275.4   0.006247201   0.05664  -0.11736  -0.04092   0.20297
  53   36490.1    274.0   0.014279548   0.12883   0.13414  -0.20167  -0.26489
  54   36796.2    271.8   0.033918463   0.30347  -0.35802  -0.26542   0.32378
  55   36885.8    271.1   0.012637313   0.11279   0.29443   0.15036   0.05910
  56   37013.7    270.2   0.019162574   0.17044  -0.07113  -0.40618  -0.01983
  57   37104.5    269.5   0.013351992   0.11847   0.09206  -0.33158   0.00700
  58   37479.8    266.8   0.022446106   0.19716   0.19321   0.28252   0.28286
  59   37719.3    265.1   0.013755797   0.12006  -0.17003  -0.22659  -0.19952
  60   37979.6    263.3   0.049157186   0.42610   0.22766  -0.38055   0.47901
  61   38407.8    260.4   0.096264604   0.82513  -0.24882  -0.78232  -0.38884
  62   38619.8    258.9   0.051997466   0.44325  -0.44436  -0.49574  -0.00577
  63   38689.8    258.5   0.116351184   0.99003   0.03595   0.58227   0.80604
  64   39163.4    255.3   0.042111749   0.35400  -0.42778  -0.40813   0.06659
  65   39522.3    253.0   0.027753508   0.23118   0.10829  -0.37725  -0.27773
  66   39795.5    251.3   0.087123521   0.72074   0.36114   0.76709   0.04349
  67   39906.9    250.6   0.012290296   0.10139   0.26430  -0.04619   0.17147
  68   40100.8    249.4   0.054095372   0.44410  -0.19781   0.47924  -0.41869
  69   40300.5    248.1   0.049376382   0.40335   0.13822   0.09672   0.61228

FINAL SINGLE POINT ENERGY     -7625.450618179184

DIPOLE MOMENT
-------------
                                X             Y             Z
Electronic contribution:    -31.40984      41.35701      83.20569
Nuclear contribution   :     33.63389     -38.89808     -82.17043
                        -----------------------------------------
Total Dipole Moment    :      2.22404       2.45893       1.03526
                        -----------------------------------------
Magnitude (a.u.)       :      3.47339
Magnitude (Debye)      :      8.82867

Rotational constants in cm-1:     0.001384     0.000711     0.000555
Rotational constants in MHz :    41.480834    21.301644    16.626143

                             ****ORCA TERMINATED NORMALLY****
TOTAL RUN TIME: 0 days 0 hours 14 minutes 12 seconds 586 msec
