                         Program Version 4.2.0 -  RELEASE  -
|  1> # ORCA input file
|  2> # SCF done       -195.100752378713          0.000794636637
|  3> ! CAM-B3LYP def2-SVP def2/J RIJCOSX Grid4 TightSCF
|  4> %maxcore 5000
|  5> %tddft
|  6>     Mode sTDDFT
|  7>     Ethresh 5.0
|  8>     maxcore 5000
|  9> end
| 10>
| 11> %pal
| 12>   nprocs 6
| 13>   end
| 14> * xyz 0 1
| 15>    C      -16.04952         6.81618        -2.62381
| 16>    C      -17.12366         6.31769        -1.93336
| 17>    C      -18.44008         6.80704        -2.05807
| 18>    N      -19.52929         7.16192        -2.12675
| 19>    C      -17.04542         5.25541        -1.00968
| 20>    N      -17.02410         4.39440        -0.25069
| 21>    C      -16.08844         7.92219        -3.57858
| 22>    C      -14.77166         8.16737        -4.04829
| 23>    C      -14.48166         9.13638        -4.97827
| 24>    C      -15.54813         9.86949        -5.50570
| 25>    C      -16.85885         9.62146        -5.03322
| 26>    C      -17.14628         8.66784        -4.06250
| 27>    S      -18.02835        10.60380        -5.85465
| 28>    C      -16.76481        11.29039        -6.83789
| 29>    C      -15.52293        10.83905        -6.54292
| 30>   Br      -17.20021        12.51168        -8.18422
| 31>    C      -13.86039         7.20362        -3.42691
| 32>    O      -12.64899         7.10489        -3.61302
| 33>    C      -14.67958         6.35342        -2.56074
| 34>    C      -14.15587         5.27444        -1.88537
| 35>    N      -12.86281         4.95699        -2.01239
| 36>    C      -12.20472         3.89845        -1.47047
| 37>    S      -12.94052         2.85045        -0.30280
| 38>    C      -11.48028         1.91290        -0.25866
| 39>    N      -11.45428         0.80330         0.60244
| 40>    O      -10.43678         0.14171         0.63958
| 41>    O      -12.46471         0.59401         1.24826
| 42>    C      -10.49673         2.37141        -1.09061
| 43>    C      -10.88939         3.52213        -1.80295
| 44>    C      -10.14206         4.25422        -2.77405
| 45>    C       -8.94256         3.98127        -3.33498
| 46>    C       -8.39616         4.82113        -4.36042
| 47>    C       -7.09722         4.60682        -4.87198
| 48>    C       -6.51322         5.47320        -5.86770
| 49>    N       -5.27409         5.22468        -6.32165
| 50>    C       -4.59494         4.22063        -5.82977
| 51>    C       -5.16646         3.37529        -4.82044
| 52>    N       -6.38365         3.57747        -4.38341
| 53>    C       -4.41336         2.29417        -4.29796
| 54>    N       -3.77680         1.43121        -3.89520
| 55>    C       -3.29006         3.96335        -6.31819
| 56>    N       -2.23171         3.72951        -6.68872
| 57>    C       -7.19546         6.58750        -6.40819
| 58>    C       -8.49537         6.79714        -5.91078
| 59>    C       -9.07955         5.92584        -4.91577
| 60>    N      -10.30310         6.33720        -4.58143
| 61>    S      -10.67920         7.66956        -5.36862
| 62>    N       -9.31787         7.80720        -6.21431
| 63>    C       -6.52103         7.50666        -7.28440
| 64>    S       -4.82905         7.81829        -6.97470
| 65>    C       -4.80422         9.05741        -8.14937
| 66>    C       -6.00202         9.20004        -8.78954
| 67>    C       -6.98369         8.29968        -8.31559
| 68>    C       -8.30510         8.19135        -9.00558
| 69>    C       -8.70564         9.54800        -9.59270
| 70>    C       -7.60031        10.00513       -10.56247
| 71>    O       -8.06676        11.17419       -11.21478
| 72>    C       -7.31705        11.56450       -12.33922
| 73>    C       -6.28724        10.25502        -9.81185
| 74>    N       -9.94170         9.49874       -10.34793
| 75>    C      -11.18493         9.27544        -9.82996
| 76>    C      -11.57195         8.57644        -8.70898
| 77>    C      -13.00436         8.52677        -8.67336
| 78>    C      -13.86496         7.88240        -7.83594
| 79>    C      -15.25497         8.03236        -8.07782
| 80>    C      -16.35322         7.54462        -7.40996
| 81>    C      -17.55062         8.05002        -8.03899
| 82>    C      -17.17079         8.83219        -9.10448
| 83>    C      -15.73540         8.85212        -9.17469
| 84>    C      -14.87184         9.46162       -10.04090
| 85>    C      -13.48610         9.28912        -9.81508
| 86>    C      -12.37748         9.71600       -10.51454
| 87>    C      -18.90518         7.80965        -7.60874
| 88>    C      -19.26155         7.11001        -6.53374
| 89>    H      -13.47060         9.30818        -5.31265
| 90>    H      -18.16226         8.51675        -3.73838
| 91>    H      -14.63057        11.15027        -7.05439
| 92>    H      -14.76409         4.63857        -1.25517
| 93>    H      -12.33794         5.59218        -2.63795
| 94>    H       -9.53650         1.89645        -1.17459
| 95>    H      -10.62568         5.14795        -3.13318
| 96>    H       -8.34167         3.13066        -3.05063
| 97>    H       -3.90252         9.61306        -8.31580
| 98>    H       -9.05477         7.84163        -8.30729
| 99>    H       -8.22946         7.46104        -9.81762
|100>    H       -8.78460        10.27904        -8.77274
|101>    H       -7.45097         9.21135       -11.31428
|102>    H       -7.87845        12.36647       -12.81520
|103>    H       -7.19968        10.73253       -13.04380
|104>    H       -6.32679        11.93829       -12.06182
|105>    H       -6.37229        11.22306        -9.30611
|106>    H       -5.45505        10.32287       -10.51583
|107>    H       -9.92690        10.16408       -11.11079
|108>    H      -10.94708         8.13743        -7.96220
|109>    H      -13.51834         7.27184        -7.01358
|110>    H      -16.33353         6.89124        -6.55636
|111>    H      -17.82521         9.35378        -9.77861
|112>    H      -15.22116        10.06065       -10.86989
|113>    H      -12.37607        10.28916       -11.42506
|114>    H      -19.66829         8.26548        -8.22716
|115>    H      -18.53939         6.64048        -5.88682
|116>    H      -20.29398         6.97985        -6.26173
|117> *
|118>
|119>                          ****END OF INPUT****

CARTESIAN COORDINATES (ANGSTROEM)
---------------------------------
  C    -16.049520    6.816180   -2.623810
  C    -17.123660    6.317690   -1.933360
  C    -18.440080    6.807040   -2.058070
  N    -19.529290    7.161920   -2.126750
  C    -17.045420    5.255410   -1.009680
  N    -17.024100    4.394400   -0.250690
  C    -16.088440    7.922190   -3.578580
  C    -14.771660    8.167370   -4.048290
  C    -14.481660    9.136380   -4.978270
  C    -15.548130    9.869490   -5.505700
  C    -16.858850    9.621460   -5.033220
  C    -17.146280    8.667840   -4.062500
  S    -18.028350   10.603800   -5.854650
  C    -16.764810   11.290390   -6.837890
  C    -15.522930   10.839050   -6.542920
  Br   -17.200210   12.511680   -8.184220
  C    -13.860390    7.203620   -3.426910
  O    -12.648990    7.104890   -3.613020
  C    -14.679580    6.353420   -2.560740
  C    -14.155870    5.274440   -1.885370
  N    -12.862810    4.956990   -2.012390
  C    -12.204720    3.898450   -1.470470
  S    -12.940520    2.850450   -0.302800
  C    -11.480280    1.912900   -0.258660
  N    -11.454280    0.803300    0.602440
  O    -10.436780    0.141710    0.639580
  O    -12.464710    0.594010    1.248260
  C    -10.496730    2.371410   -1.090610
  C    -10.889390    3.522130   -1.802950
  C    -10.142060    4.254220   -2.774050
  C     -8.942560    3.981270   -3.334980
  C     -8.396160    4.821130   -4.360420
  C     -7.097220    4.606820   -4.871980
  C     -6.513220    5.473200   -5.867700
  N     -5.274090    5.224680   -6.321650
  C     -4.594940    4.220630   -5.829770
  C     -5.166460    3.375290   -4.820440
  N     -6.383650    3.577470   -4.383410
  C     -4.413360    2.294170   -4.297960
  N     -3.776800    1.431210   -3.895200
  C     -3.290060    3.963350   -6.318190
  N     -2.231710    3.729510   -6.688720
  C     -7.195460    6.587500   -6.408190
  C     -8.495370    6.797140   -5.910780
  C     -9.079550    5.925840   -4.915770
  N    -10.303100    6.337200   -4.581430
  S    -10.679200    7.669560   -5.368620
  N     -9.317870    7.807200   -6.214310
  C     -6.521030    7.506660   -7.284400
  S     -4.829050    7.818290   -6.974700
  C     -4.804220    9.057410   -8.149370
  C     -6.002020    9.200040   -8.789540
  C     -6.983690    8.299680   -8.315590
  C     -8.305100    8.191350   -9.005580
  C     -8.705640    9.548000   -9.592700
  C     -7.600310   10.005130  -10.562470
  O     -8.066760   11.174190  -11.214780
  C     -7.317050   11.564500  -12.339220
  C     -6.287240   10.255020   -9.811850
  N     -9.941700    9.498740  -10.347930
  C    -11.184930    9.275440   -9.829960
  C    -11.571950    8.576440   -8.708980
  C    -13.004360    8.526770   -8.673360
  C    -13.864960    7.882400   -7.835940
  C    -15.254970    8.032360   -8.077820
  C    -16.353220    7.544620   -7.409960
  C    -17.550620    8.050020   -8.038990
  C    -17.170790    8.832190   -9.104480
  C    -15.735400    8.852120   -9.174690
  C    -14.871840    9.461620  -10.040900
  C    -13.486100    9.289120   -9.815080
  C    -12.377480    9.716000  -10.514540
  C    -18.905180    7.809650   -7.608740
  C    -19.261550    7.110010   -6.533740
  H    -13.470600    9.308180   -5.312650
  H    -18.162260    8.516750   -3.738380
  H    -14.630570   11.150270   -7.054390
  H    -14.764090    4.638570   -1.255170
  H    -12.337940    5.592180   -2.637950
  H     -9.536500    1.896450   -1.174590
  H    -10.625680    5.147950   -3.133180
  H     -8.341670    3.130660   -3.050630
  H     -3.902520    9.613060   -8.315800
  H     -9.054770    7.841630   -8.307290
  H     -8.229460    7.461040   -9.817620
  H     -8.784600   10.279040   -8.772740
  H     -7.450970    9.211350  -11.314280
  H     -7.878450   12.366470  -12.815200
  H     -7.199680   10.732530  -13.043800
  H     -6.326790   11.938290  -12.061820
  H     -6.372290   11.223060   -9.306110
  H     -5.455050   10.322870  -10.515830
  H     -9.926900   10.164080  -11.110790
  H    -10.947080    8.137430   -7.962200
  H    -13.518340    7.271840   -7.013580
  H    -16.333530    6.891240   -6.556360
  H    -17.825210    9.353780   -9.778610
  H    -15.221160   10.060650  -10.869890
  H    -12.376070   10.289160  -11.425060
  H    -19.668290    8.265480   -8.227160
  H    -18.539390    6.640480   -5.886820
  H    -20.293980    6.979850   -6.261730

 Total Charge           Charge          ....    0
 Multiplicity           Mult            ....    1
 Number of Electrons    NEL             ....  560
 Basis Dimension        Dim             .... 1210

ORBITAL ENERGIES
----------------

  NO   OCC          E(Eh)            E(eV)
   0   2.0000    -482.889311    -13140.0862
   1   2.0000     -89.054607     -2423.2991
   2   2.0000     -88.998805     -2421.7806
   3   2.0000     -88.978442     -2421.2265
   4   2.0000     -88.959219     -2420.7034
   5   2.0000     -62.566867     -1702.5310
   6   2.0000     -56.400785     -1534.7434
   7   2.0000     -56.398139     -1534.6714
   8   2.0000     -56.398074     -1534.6696
   9   2.0000     -19.246527      -523.7246
  10   2.0000     -19.245223      -523.6891
  11   2.0000     -19.244886      -523.6800
  12   2.0000     -19.234223      -523.3898
  13   2.0000     -14.656891      -398.8343
  14   2.0000     -14.507943      -394.7812
  15   2.0000     -14.466612      -393.6565
  16   2.0000     -14.465602      -393.6290
  17   2.0000     -14.457468      -393.4077
  18   2.0000     -14.455400      -393.3514
  19   2.0000     -14.431713      -392.7069
  20   2.0000     -14.431532      -392.7020
  21   2.0000     -14.426927      -392.5767
  22   2.0000     -14.422232      -392.4489
  23   2.0000     -14.417374      -392.3167
  24   2.0000     -10.391526      -282.7678
  25   2.0000     -10.385030      -282.5910
  26   2.0000     -10.384241      -282.5696
  27   2.0000     -10.382282      -282.5162
  28   2.0000     -10.380821      -282.4765
  29   2.0000     -10.361014      -281.9375
  30   2.0000     -10.355701      -281.7929
  31   2.0000     -10.355055      -281.7754
  32   2.0000     -10.352091      -281.6947
  33   2.0000     -10.351840      -281.6879
  34   2.0000     -10.350592      -281.6539
  35   2.0000     -10.348406      -281.5944
  36   2.0000     -10.347248      -281.5629
  37   2.0000     -10.333074      -281.1772
  38   2.0000     -10.330434      -281.1054
  39   2.0000     -10.329164      -281.0708
  40   2.0000     -10.327183      -281.0169
  41   2.0000     -10.325127      -280.9610
  42   2.0000     -10.324882      -280.9543
  43   2.0000     -10.324860      -280.9537
  44   2.0000     -10.324821      -280.9527
  45   2.0000     -10.320894      -280.8458
  46   2.0000     -10.319224      -280.8004
  47   2.0000     -10.317887      -280.7640
  48   2.0000     -10.314444      -280.6703
  49   2.0000     -10.313353      -280.6406
  50   2.0000     -10.312339      -280.6130
  51   2.0000     -10.311338      -280.5858
  52   2.0000     -10.310977      -280.5759
  53   2.0000     -10.310719      -280.5689
  54   2.0000     -10.308453      -280.5073
  55   2.0000     -10.306181      -280.4455
  56   2.0000     -10.304738      -280.4062
  57   2.0000     -10.297593      -280.2117
  58   2.0000     -10.296518      -280.1825
  59   2.0000     -10.295724      -280.1609
  60   2.0000     -10.295383      -280.1516
  61   2.0000     -10.294731      -280.1339
  62   2.0000     -10.287915      -279.9484
  63   2.0000     -10.286335      -279.9054
  64   2.0000     -10.284158      -279.8462
  65   2.0000     -10.282948      -279.8132
  66   2.0000     -10.281857      -279.7836
  67   2.0000     -10.278433      -279.6904
  68   2.0000     -10.271894      -279.5125
  69   2.0000     -10.271066      -279.4899
  70   2.0000     -10.270364      -279.4708
  71   2.0000     -10.268733      -279.4264
  72   2.0000     -10.267556      -279.3944
  73   2.0000     -10.267263      -279.3864
  74   2.0000     -10.267231      -279.3856
  75   2.0000     -10.264027      -279.2984
  76   2.0000     -10.259857      -279.1849
  77   2.0000     -10.244674      -278.7717
  78   2.0000      -8.796278      -239.3589
  79   2.0000      -8.143249      -221.5891
  80   2.0000      -8.094009      -220.2492
  81   2.0000      -8.073646      -219.6951
  82   2.0000      -8.054261      -219.1676
  83   2.0000      -6.632482      -180.4790
  84   2.0000      -6.618102      -180.0877
  85   2.0000      -6.617839      -180.0805
  86   2.0000      -6.114294      -166.3784
  87   2.0000      -6.106578      -166.1684
  88   2.0000      -6.106409      -166.1638
  89   2.0000      -6.063601      -164.9990
  90   2.0000      -6.059262      -164.8809
  91   2.0000      -6.055541      -164.7797
  92   2.0000      -6.043419      -164.4498
  93   2.0000      -6.039050      -164.3309
  94   2.0000      -6.034912      -164.2183
  95   2.0000      -6.023559      -163.9094
  96   2.0000      -6.019098      -163.7880
  97   2.0000      -6.016705      -163.7229
  98   2.0000      -2.748359       -74.7867
  99   2.0000      -2.744338       -74.6772
 100   2.0000      -2.744204       -74.6736
 101   2.0000      -2.732737       -74.3616
 102   2.0000      -2.732711       -74.3608
 103   2.0000      -1.327486       -36.1227
 104   2.0000      -1.160778       -31.5864
 105   2.0000      -1.147805       -31.2334
 106   2.0000      -1.146904       -31.2088
 107   2.0000      -1.135466       -30.8976
 108   2.0000      -1.124717       -30.6051
 109   2.0000      -1.114166       -30.3180
 110   2.0000      -1.052095       -28.6290
 111   2.0000      -1.031972       -28.0814
 112   2.0000      -1.027090       -27.9486
 113   2.0000      -1.020914       -27.7805
 114   2.0000      -1.018421       -27.7127
 115   2.0000      -1.016631       -27.6639
 116   2.0000      -1.007287       -27.4097
 117   2.0000      -1.003773       -27.3140
 118   2.0000      -1.002771       -27.2868
 119   2.0000      -0.998878       -27.1808
 120   2.0000      -0.994392       -27.0588
 121   2.0000      -0.981653       -26.7121
 122   2.0000      -0.977071       -26.5874
 123   2.0000      -0.952705       -25.9244
 124   2.0000      -0.950284       -25.8585
 125   2.0000      -0.931826       -25.3563
 126   2.0000      -0.919075       -25.0093
 127   2.0000      -0.915964       -24.9246
 128   2.0000      -0.912166       -24.8213
 129   2.0000      -0.908820       -24.7303
 130   2.0000      -0.896394       -24.3921
 131   2.0000      -0.893436       -24.3116
 132   2.0000      -0.886437       -24.1212
 133   2.0000      -0.883152       -24.0318
 134   2.0000      -0.864024       -23.5113
 135   2.0000      -0.860099       -23.4045
 136   2.0000      -0.858579       -23.3631
 137   2.0000      -0.849109       -23.1054
 138   2.0000      -0.847773       -23.0691
 139   2.0000      -0.837107       -22.7788
 140   2.0000      -0.835706       -22.7407
 141   2.0000      -0.828599       -22.5473
 142   2.0000      -0.809297       -22.0221
 143   2.0000      -0.805241       -21.9117
 144   2.0000      -0.795741       -21.6532
 145   2.0000      -0.787905       -21.4400
 146   2.0000      -0.778332       -21.1795
 147   2.0000      -0.773409       -21.0455
 148   2.0000      -0.767466       -20.8838
 149   2.0000      -0.762003       -20.7352
 150   2.0000      -0.748720       -20.3737
 151   2.0000      -0.741913       -20.1885
 152   2.0000      -0.740096       -20.1390
 153   2.0000      -0.729633       -19.8543
 154   2.0000      -0.724164       -19.7055
 155   2.0000      -0.713476       -19.4147
 156   2.0000      -0.711293       -19.3553
 157   2.0000      -0.700563       -19.0633
 158   2.0000      -0.694347       -18.8941
 159   2.0000      -0.693860       -18.8809
 160   2.0000      -0.689525       -18.7629
 161   2.0000      -0.678493       -18.4627
 162   2.0000      -0.674478       -18.3535
 163   2.0000      -0.668167       -18.1818
 164   2.0000      -0.667011       -18.1503
 165   2.0000      -0.661558       -18.0019
 166   2.0000      -0.654595       -17.8124
 167   2.0000      -0.645625       -17.5684
 168   2.0000      -0.641809       -17.4645
 169   2.0000      -0.640267       -17.4225
 170   2.0000      -0.638391       -17.3715
 171   2.0000      -0.635419       -17.2906
 172   2.0000      -0.634757       -17.2726
 173   2.0000      -0.632109       -17.2006
 174   2.0000      -0.626929       -17.0596
 175   2.0000      -0.622495       -16.9390
 176   2.0000      -0.619832       -16.8665
 177   2.0000      -0.611543       -16.6409
 178   2.0000      -0.605541       -16.4776
 179   2.0000      -0.600834       -16.3495
 180   2.0000      -0.597641       -16.2626
 181   2.0000      -0.589792       -16.0491
 182   2.0000      -0.588764       -16.0211
 183   2.0000      -0.586082       -15.9481
 184   2.0000      -0.582590       -15.8531
 185   2.0000      -0.577976       -15.7275
 186   2.0000      -0.575732       -15.6665
 187   2.0000      -0.570375       -15.5207
 188   2.0000      -0.568778       -15.4772
 189   2.0000      -0.563315       -15.3286
 190   2.0000      -0.561497       -15.2791
 191   2.0000      -0.557217       -15.1627
 192   2.0000      -0.556208       -15.1352
 193   2.0000      -0.552376       -15.0309
 194   2.0000      -0.550021       -14.9668
 195   2.0000      -0.546935       -14.8829
 196   2.0000      -0.545709       -14.8495
 197   2.0000      -0.541809       -14.7434
 198   2.0000      -0.539817       -14.6892
 199   2.0000      -0.535999       -14.5853
 200   2.0000      -0.532690       -14.4952
 201   2.0000      -0.530049       -14.4234
 202   2.0000      -0.523756       -14.2521
 203   2.0000      -0.522063       -14.2060
 204   2.0000      -0.520658       -14.1678
 205   2.0000      -0.513257       -13.9664
 206   2.0000      -0.511291       -13.9129
 207   2.0000      -0.509891       -13.8749
 208   2.0000      -0.507743       -13.8164
 209   2.0000      -0.504282       -13.7222
 210   2.0000      -0.499329       -13.5874
 211   2.0000      -0.496456       -13.5093
 212   2.0000      -0.494384       -13.4529
 213   2.0000      -0.491702       -13.3799
 214   2.0000      -0.490401       -13.3445
 215   2.0000      -0.487381       -13.2623
 216   2.0000      -0.486667       -13.2429
 217   2.0000      -0.483559       -13.1583
 218   2.0000      -0.482210       -13.1216
 219   2.0000      -0.480766       -13.0823
 220   2.0000      -0.478863       -13.0305
 221   2.0000      -0.476683       -12.9712
 222   2.0000      -0.471159       -12.8209
 223   2.0000      -0.467604       -12.7242
 224   2.0000      -0.465056       -12.6548
 225   2.0000      -0.463707       -12.6181
 226   2.0000      -0.462218       -12.5776
 227   2.0000      -0.459160       -12.4944
 228   2.0000      -0.457768       -12.4565
 229   2.0000      -0.457482       -12.4487
 230   2.0000      -0.455528       -12.3956
 231   2.0000      -0.455339       -12.3904
 232   2.0000      -0.453247       -12.3335
 233   2.0000      -0.451965       -12.2986
 234   2.0000      -0.449553       -12.2330
 235   2.0000      -0.445882       -12.1331
 236   2.0000      -0.444980       -12.1085
 237   2.0000      -0.442530       -12.0418
 238   2.0000      -0.440382       -11.9834
 239   2.0000      -0.436862       -11.8876
 240   2.0000      -0.436558       -11.8794
 241   2.0000      -0.435702       -11.8561
 242   2.0000      -0.435298       -11.8451
 243   2.0000      -0.427519       -11.6334
 244   2.0000      -0.423424       -11.5220
 245   2.0000      -0.422684       -11.5018
 246   2.0000      -0.421312       -11.4645
 247   2.0000      -0.419737       -11.4216
 248   2.0000      -0.418743       -11.3946
 249   2.0000      -0.417214       -11.3530
 250   2.0000      -0.409819       -11.1517
 251   2.0000      -0.407124       -11.0784
 252   2.0000      -0.403626       -10.9832
 253   2.0000      -0.403052       -10.9676
 254   2.0000      -0.399675       -10.8757
 255   2.0000      -0.397111       -10.8059
 256   2.0000      -0.391894       -10.6640
 257   2.0000      -0.384189       -10.4543
 258   2.0000      -0.383765       -10.4428
 259   2.0000      -0.380326       -10.3492
 260   2.0000      -0.378182       -10.2909
 261   2.0000      -0.375629       -10.2214
 262   2.0000      -0.374144       -10.1810
 263   2.0000      -0.367742       -10.0068
 264   2.0000      -0.363023        -9.8784
 265   2.0000      -0.362063        -9.8522
 266   2.0000      -0.354534        -9.6473
 267   2.0000      -0.352643        -9.5959
 268   2.0000      -0.351609        -9.5678
 269   2.0000      -0.348869        -9.4932
 270   2.0000      -0.346464        -9.4278
 271   2.0000      -0.322834        -8.7848
 272   2.0000      -0.321416        -8.7462
 273   2.0000      -0.308096        -8.3837
 274   2.0000      -0.300055        -8.1649
 275   2.0000      -0.293716        -7.9924
 276   2.0000      -0.290289        -7.8992
 277   2.0000      -0.268056        -7.2942
 278   2.0000      -0.258865        -7.0441
 279   2.0000      -0.228823        -6.2266
 280   0.0000      -0.125635        -3.4187
 281   0.0000      -0.095464        -2.5977
 282   0.0000      -0.089704        -2.4410
 283   0.0000      -0.078437        -2.1344
 284   0.0000      -0.055800        -1.5184

MULLIKEN ATOMIC CHARGES
-----------------------
   0 C :    0.322331
   1 C :   -0.342569
   2 C :   -0.188112
   3 N :    0.158598
   4 C :   -0.198035
   5 N :    0.148870
   6 C :    0.008028
   7 C :   -0.000648
   8 C :   -0.074252
   9 C :    0.121878
  10 C :   -0.091144
  11 C :   -0.032576
  12 S :    0.202074
  13 C :   -0.131542
  14 C :    0.078390
  15 Br:    0.020722
  16 C :    0.179513
  17 O :   -0.245799
  18 C :   -0.121717
  19 C :    0.029795
  20 N :   -0.002783
  21 C :   -0.115660
  22 S :    0.186603
  23 C :    0.002909
  24 N :    0.275617
  25 O :   -0.238363
  26 O :   -0.254324
  27 C :    0.011920
  28 C :    0.150257
  29 C :   -0.012696
  30 C :   -0.049574
  31 C :    0.072889
  32 C :   -0.053172
  33 C :   -0.069341
  34 N :    0.043186
  35 C :   -0.138369
  36 C :   -0.137146
  37 N :    0.053515
  38 C :   -0.209121
  39 N :    0.239932
  40 C :   -0.206250
  41 N :    0.242203
  42 C :    0.091976
  43 C :    0.014748
  44 C :    0.021283
  45 N :   -0.298514
  46 S :    0.561760
  47 N :   -0.283570
  48 C :   -0.251437
  49 S :    0.169849
  50 C :   -0.113131
  51 C :   -0.101630
  52 C :   -0.008725
  53 C :    0.281447
  54 C :    0.001330
  55 C :    0.089738
  56 O :   -0.392383
  57 C :    0.192453
  58 C :    0.203670
  59 N :   -0.086836
  60 C :    0.125637
  61 C :   -0.106299
  62 C :    0.091813
  63 C :   -0.054099
  64 C :    0.058176
  65 C :   -0.034061
  66 C :    0.056655
  67 C :   -0.037504
  68 C :    0.069123
  69 C :   -0.031796
  70 C :    0.061279
  71 C :   -0.046950
  72 C :    0.019823
  73 C :   -0.039911
  74 H :   -0.022069
  75 H :   -0.005001
  76 H :   -0.000589
  77 H :    0.046535
  78 H :    0.189986
  79 H :    0.019823
  80 H :    0.000358
  81 H :   -0.011396
  82 H :    0.013797
  83 H :    0.002248
  84 H :    0.010633
  85 H :    0.000502
  86 H :   -0.008536
  87 H :    0.032003
  88 H :    0.006237
  89 H :    0.013582
  90 H :    0.024225
  91 H :    0.007087
  92 H :    0.109066
  93 H :   -0.116804
  94 H :   -0.053198
  95 H :   -0.034723
  96 H :   -0.035600
  97 H :   -0.032446
  98 H :   -0.033053
  99 H :   -0.019754
 100 H :    0.008783
 101 H :    0.028356
Sum of atomic charges:   -0.0000000

LOEWDIN ATOMIC CHARGES
----------------------
   0 C :    0.078444
   1 C :   -0.147008
   2 C :   -0.020152
   3 N :   -0.049798
   4 C :   -0.021510
   5 N :   -0.050777
   6 C :   -0.024780
   7 C :   -0.059850
   8 C :    0.025786
   9 C :   -0.025603
  10 C :   -0.139667
  11 C :   -0.004616
  12 S :    0.459300
  13 C :   -0.265642
  14 C :   -0.060564
  15 Br:    0.140710
  16 C :    0.098473
  17 O :   -0.195111
  18 C :   -0.143803
  19 C :    0.113575
  20 N :    0.083034
  21 C :   -0.107388
  22 S :    0.479083
  23 C :   -0.196688
  24 N :    0.272583
  25 O :   -0.205203
  26 O :   -0.220383
  27 C :    0.008393
  28 C :   -0.086179
  29 C :   -0.008390
  30 C :   -0.017770
  31 C :   -0.018912
  32 C :   -0.009346
  33 C :   -0.016356
  34 N :   -0.006937
  35 C :   -0.029857
  36 C :   -0.027788
  37 N :    0.001287
  38 C :   -0.037271
  39 N :   -0.002784
  40 C :   -0.036244
  41 N :   -0.004323
  42 C :   -0.029391
  43 C :   -0.038679
  44 C :   -0.035296
  45 N :   -0.270889
  46 S :    0.718039
  47 N :   -0.274851
  48 C :   -0.178075
  49 S :    0.478081
  50 C :   -0.180778
  51 C :   -0.071790
  52 C :   -0.032822
  53 C :   -0.023243
  54 C :    0.036255
  55 C :    0.066912
  56 O :   -0.168319
  57 C :    0.070333
  58 C :   -0.032513
  59 N :   -0.025169
  60 C :    0.016724
  61 C :   -0.122741
  62 C :   -0.030533
  63 C :    0.008914
  64 C :   -0.053667
  65 C :    0.022093
  66 C :   -0.057088
  67 C :   -0.009384
  68 C :   -0.045209
  69 C :    0.044466
  70 C :   -0.046898
  71 C :    0.010355
  72 C :   -0.023340
  73 C :   -0.059509
  74 H :    0.034221
  75 H :    0.041670
  76 H :    0.040491
  77 H :    0.037671
  78 H :    0.092705
  79 H :    0.049986
  80 H :    0.021674
  81 H :    0.031076
  82 H :    0.023162
  83 H :    0.025680
  84 H :    0.035007
  85 H :    0.017020
  86 H :    0.009466
  87 H :    0.024968
  88 H :    0.009683
  89 H :    0.008639
  90 H :    0.039184
  91 H :    0.031261
  92 H :    0.064310
  93 H :   -0.004532
  94 H :    0.020209
  95 H :    0.019181
  96 H :    0.019966
  97 H :    0.031942
  98 H :    0.022300
  99 H :    0.029055
 100 H :    0.015028
 101 H :    0.027023

  Mayer bond orders larger than 0.100000
B(  0-C ,  1-C ) :   1.6325 B(  0-C ,  6-C ) :   1.0041 B(  0-C , 18-C ) :   1.0893
B(  1-C ,  2-C ) :   1.1468 B(  1-C ,  4-C ) :   1.1451 B(  2-C ,  3-N ) :   2.9689
B(  4-C ,  5-N ) :   2.9572 B(  6-C ,  7-C ) :   1.2698 B(  6-C , 11-C ) :   1.4123
B(  7-C ,  8-C ) :   1.4011 B(  7-C , 16-C ) :   0.9883 B(  8-C ,  9-C ) :   1.2602
B(  8-C , 74-H ) :   1.0085 B(  9-C , 10-C ) :   1.3002 B(  9-C , 14-C ) :   1.1736
B( 10-C , 11-C ) :   1.3161 B( 10-C , 12-S ) :   1.1081 B( 11-C , 75-H ) :   0.9829
B( 12-S , 13-C ) :   1.0911 B( 13-C , 14-C ) :   1.6053 B( 13-C , 15-Br) :   1.0207
B( 14-C , 76-H ) :   1.0002 B( 16-C , 17-O ) :   1.9665 B( 16-C , 18-C ) :   1.0189
B( 17-O , 78-H ) :   0.1290 B( 18-C , 19-C ) :   1.4568 B( 19-C , 20-N ) :   1.3369
B( 19-C , 77-H ) :   0.9302 B( 20-N , 21-C ) :   1.1950 B( 20-N , 78-H ) :   0.8338
B( 21-C , 22-S ) :   1.1426 B( 21-C , 28-C ) :   1.3533 B( 22-S , 23-C ) :   1.0828
B( 23-C , 24-N ) :   0.9574 B( 23-C , 27-C ) :   1.5113 B( 24-N , 25-O ) :   1.5441
B( 24-N , 26-O ) :   1.5167 B( 25-O , 26-O ) :   0.2654 B( 27-C , 28-C ) :   1.2081
B( 27-C , 79-H ) :   1.0051 B( 28-C , 29-C ) :   1.0850 B( 29-C , 30-C ) :   1.6386
B( 29-C , 80-H ) :   0.9385 B( 30-C , 31-C ) :   1.1869 B( 30-C , 81-H ) :   0.9740
B( 31-C , 32-C ) :   1.2388 B( 31-C , 42-C ) :   0.1293 B( 31-C , 44-C ) :   1.1772
B( 32-C , 33-C ) :   1.1046 B( 32-C , 37-N ) :   1.4421 B( 33-C , 34-N ) :   1.4242
B( 33-C , 42-C ) :   1.2846 B( 34-N , 35-C ) :   1.7378 B( 35-C , 36-C ) :   1.1972
B( 35-C , 40-C ) :   1.1561 B( 36-C , 37-N ) :   1.7522 B( 36-C , 38-C ) :   1.1488
B( 38-C , 39-N ) :   3.0500 B( 40-C , 41-N ) :   3.0471 B( 42-C , 43-C ) :   1.2524
B( 42-C , 48-C ) :   1.0988 B( 43-C , 44-C ) :   1.1017 B( 43-C , 47-N ) :   1.4837
B( 44-C , 45-N ) :   1.4708 B( 45-N , 46-S ) :   1.2856 B( 45-N , 47-N ) :   0.1453
B( 46-S , 47-N ) :   1.2765 B( 48-C , 49-S ) :   1.1380 B( 48-C , 52-C ) :   1.5105
B( 49-S , 50-C ) :   1.1873 B( 50-C , 51-C ) :   1.5423 B( 50-C , 82-H ) :   0.9740
B( 51-C , 52-C ) :   1.3024 B( 51-C , 58-C ) :   1.0140 B( 52-C , 53-C ) :   1.0617
B( 53-C , 54-C ) :   1.0355 B( 53-C , 83-H ) :   0.8877 B( 53-C , 84-H ) :   0.8777
B( 54-C , 55-C ) :   0.9931 B( 54-C , 59-N ) :   1.0202 B( 54-C , 85-H ) :   0.9257
B( 55-C , 56-O ) :   0.9992 B( 55-C , 58-C ) :   1.0597 B( 55-C , 86-H ) :   0.9171
B( 56-O , 57-C ) :   0.9781 B( 57-C , 87-H ) :   0.9826 B( 57-C , 88-H ) :   0.9638
B( 57-C , 89-H ) :   0.9693 B( 58-C , 90-H ) :   0.8979 B( 58-C , 91-H ) :   0.9113
B( 59-N , 60-C ) :   1.1878 B( 59-N , 92-H ) :   0.8973 B( 60-C , 61-C ) :   1.5328
B( 60-C , 71-C ) :   1.0899 B( 61-C , 62-C ) :   1.0539 B( 61-C , 93-H ) :   1.0117
B( 62-C , 63-C ) :   1.5302 B( 62-C , 70-C ) :   1.1099 B( 63-C , 64-C ) :   1.0832
B( 63-C , 94-H ) :   0.9915 B( 64-C , 65-C ) :   1.5099 B( 64-C , 68-C ) :   1.1201
B( 65-C , 66-C ) :   1.0857 B( 65-C , 95-H ) :   1.0121 B( 66-C , 67-C ) :   1.5568
B( 66-C , 72-C ) :   1.0866 B( 67-C , 68-C ) :   1.0425 B( 67-C , 96-H ) :   1.0263
B( 68-C , 69-C ) :   1.5131 B( 69-C , 70-C ) :   1.0871 B( 69-C , 97-H ) :   1.0069
B( 70-C , 71-C ) :   1.4956 B( 71-C , 98-H ) :   1.0089 B( 72-C , 73-C ) :   1.9171
B( 72-C , 99-H ) :   0.9675 B( 73-C ,100-H ) :   0.9484 B( 73-C ,101-H ) :   0.9505

-----------------------------------------------------------------------------
         ABSORPTION SPECTRUM VIA TRANSITION ELECTRIC DIPOLE MOMENTS
-----------------------------------------------------------------------------
State   Energy  Wavelength   fosc         T2         TX        TY        TZ
        (cm-1)    (nm)                  (au**2)     (au)      (au)      (au)
-----------------------------------------------------------------------------
   0    8111.7   1232.8   0.000346848   0.01408   0.11548  -0.00616   0.02651
   1    8770.2   1140.2   0.001091818   0.04098  -0.03847   0.10356  -0.16965
   2   11964.5    835.8   0.276364552   7.60436  -1.91093  -1.06736   1.67733
   3   15187.2    658.5   0.001108324   0.02403  -0.00237  -0.00001  -0.15498
   4   17441.4    573.3   0.009269962   0.17497  -0.00429  -0.25390   0.33240
   5   17809.6    561.5   0.001948223   0.03601  -0.06288  -0.14899   0.09930
   6   20384.5    490.6   0.109263524   1.76462   0.78861  -1.05801   0.15274
   7   20762.6    481.6   0.218680183   3.46739   1.48563  -1.06000   0.36972
   8   21138.1    473.1   0.207434274   3.23065  -1.19017   1.22843  -0.55238
   9   22111.2    452.3   0.222495098   3.31270   1.79757  -0.19740  -0.20611
  10   22995.9    434.9   0.028294083   0.40506  -0.40860  -0.03987   0.48633
  11   23471.2    426.1   0.000078467   0.00110   0.00113  -0.02483   0.02197
  12   23941.7    417.7   0.027163713   0.37352  -0.25290  -0.30118   0.46781
  13   24812.1    403.0   0.032008430   0.42469  -0.35580   0.50046  -0.21828
  14   25328.3    394.8   0.025976309   0.33763   0.00643   0.27990  -0.50917
  15   25546.4    391.4   0.010930426   0.14086  -0.23801  -0.22610   0.18191
  16   26045.2    383.9   0.123986253   1.56719   0.85107   0.53233  -0.74800
  17   26108.0    383.0   0.015936727   0.20096   0.37523  -0.19376   0.15039
  18   26326.2    379.9   0.024705516   0.30895  -0.21737  -0.25158   0.44542
  19   26555.6    376.6   0.001038087   0.01287  -0.08984   0.06324  -0.02826
  20   26799.3    373.1   0.005686662   0.06986   0.00932  -0.14871   0.21830
  21   26966.0    370.8   0.010831025   0.13223  -0.17450   0.08736  -0.30683
  22   27159.4    368.2   0.151086998   1.83139  -0.03336   1.02390  -0.88426
  23   27201.9    367.6   0.028255461   0.34196  -0.33564  -0.15811   0.45201
  24   27575.7    362.6   0.006991901   0.08347   0.01555  -0.24753   0.14818
  25   27944.8    357.8   0.090267042   1.06342   0.69223  -0.65340   0.39662
  26   28253.1    353.9   0.218550517   2.54661   0.40404  -1.20585   0.96400
  27   29049.5    344.2   0.266637137   3.02175   0.19299  -1.30754   1.12909
  28   29264.8    341.7   0.024953717   0.28071   0.40155   0.18893  -0.28945
  29   29437.3    339.7   0.025605405   0.28636   0.36379   0.15710  -0.35963
  30   29878.7    334.7   0.227676478   2.50861   1.21191   0.42839  -0.92540
  31   30010.4    333.2   0.001472878   0.01616  -0.03127   0.08589  -0.08833
  32   30403.5    328.9   0.278310526   3.01357  -0.38851  -1.11657   1.27118
  33   30610.5    326.7   0.029854435   0.32108  -0.44424  -0.09881   0.33759
  34   31178.8    320.7   0.023188858   0.24485  -0.24167   0.42502  -0.07615
  35   31468.0    317.8   0.010278228   0.10753   0.04210  -0.27084   0.18000
  36   32192.7    310.6   0.076819294   0.78558   0.82685  -0.18078  -0.26309
  37   32737.7    305.5   1.294936314  13.02196  -2.98244   2.02620  -0.14673
  38   32914.9    303.8   0.080580976   0.80596  -0.35167   0.62305  -0.54231
  39   33006.4    303.0   0.174620306   1.74169  -0.06415  -1.15208   0.64053
  40   33702.1    296.7   0.169990590   1.66052  -0.24022   1.02747  -0.73967
  41   34410.3    290.6   0.092334067   0.88338   0.42080  -0.54359   0.64096
  42   34647.9    288.6   0.724620318   6.88509  -1.94690  -1.07925   1.38920
  43   34693.3    288.2   0.088807035   0.84271   0.74799   0.25080  -0.46938
  44   34958.0    286.1   0.890256458   8.38386  -2.25429  -1.02056   1.50350
  45   35027.9    285.5   0.004664157   0.04384   0.18431  -0.07491   0.06524
  46   35279.2    283.5   0.002632666   0.02457  -0.06898  -0.09975   0.09929
  47   35549.0    281.3   0.194997490   1.80583   1.16039   0.42793  -0.52555
  48   35581.4    281.0   0.044551872   0.41221  -0.45380  -0.26908   0.36588
  49   35941.2    278.2   0.013280037   0.12164   0.32353  -0.12892  -0.01863
  50   35988.1    277.9   0.394089851   3.60505   1.63733   0.41261  -0.86830
  51   36372.9    274.9   0.008691069   0.07866   0.15027  -0.18118   0.15250
  52   36561.8    273.5   0.165675703   1.49179  -1.13567   0.36222  -0.26616
  53   36730.4    272.3   0.038490261   0.34499  -0.40012   0.28010  -0.32624
  54   37008.7    270.2   0.004725653   0.04204   0.19992  -0.03307   0.03121
  55   37051.2    269.9   0.009832860   0.08737  -0.26463  -0.10055   0.08504
  56   37095.1    269.6   0.003768062   0.03344   0.08460  -0.14039   0.08107
  57   37253.0    268.4   0.072837703   0.64368  -0.36398   0.59735  -0.39291
  58   37297.9    268.1   0.013082963   0.11548  -0.19912  -0.12569   0.24501
  59   37435.4    267.1   0.001311194   0.01153   0.01917  -0.03046   0.10117
  60   37759.8    264.8   0.000718890   0.00627  -0.06635  -0.04245   0.00800
  61   37998.9    263.2   0.009440657   0.08179  -0.27996   0.05346   0.02360
  62   38151.4    262.1   0.014462654   0.12480   0.24162   0.16129  -0.20101
  63   38363.2    260.7   0.003053964   0.02621   0.06646   0.13757  -0.05354
  64   38463.3    260.0   0.005016624   0.04294  -0.03763  -0.19668   0.05329
  65   38554.8    259.4   0.043564556   0.37199   0.52627   0.17966  -0.25050
  66   38766.0    258.0   0.094336504   0.80113  -0.55558  -0.39667   0.57889
  67   39065.7    256.0   0.011767262   0.09916  -0.20465  -0.19458   0.13936
  68   39118.7    255.6   0.000601205   0.00506  -0.02448   0.06572   0.01186
  69   39463.6    253.4   0.003271557   0.02729  -0.10728  -0.05453  -0.11318
  70   39793.3    251.3   0.026450721   0.21883  -0.39794  -0.11810   0.21570
  71   39873.3    250.8   0.043937879   0.36277  -0.43938  -0.14978   0.38377
  72   40072.3    249.5   0.014086494   0.11573  -0.30578  -0.06561   0.13387
  73   40161.1    249.0   0.001691165   0.01386   0.08933   0.05093  -0.05735

FINAL SINGLE POINT ENERGY     -7140.003925261442

DIPOLE MOMENT
-------------
                                X             Y             Z
Electronic contribution:    -54.42534      23.10935      27.71860
Nuclear contribution   :     54.52135     -18.52096     -31.27454
                        -----------------------------------------
Total Dipole Moment    :      0.09600       4.58840      -3.55595
                        -----------------------------------------
Magnitude (a.u.)       :      5.80581
Magnitude (Debye)      :     14.75719

Rotational constants in cm-1:     0.000850     0.000625     0.000378
Rotational constants in MHz :    25.485300    18.739963    11.332107

                             ****ORCA TERMINATED NORMALLY****
TOTAL RUN TIME: 0 days 0 hours 12 minutes 20 seconds 559 msec
