                         Program Version 4.2.0 -  RELEASE  -
|  1> # ORCA input file
|  2> # SCF done       -176.323109233492          0.000624962506
|  3> ! CAM-B3LYP def2-SVP def2/J RIJCOSX Grid4 TightSCF
|  4> %maxcore 5000
|  5> %tddft
|  6>     Mode sTDDFT
|  7>     Ethresh 5.0
|  8>     maxcore 5000
|  9> end
| 10>
| 11> %pal
| 12>   nprocs 6
| 13>   end
| 14> * xyz 0 1
| 15>    C        3.78530        -7.61790        14.06066
| 16>    C        4.14111        -7.86762        12.79210
| 17>    C        4.49245        -9.12933        12.20881
| 18>    C        4.80910        -9.06590        10.89508
| 19>    C        4.73477        -7.76023        10.33845
| 20>    S        4.24268        -6.60604        11.55299
| 21>    C        5.00522        -7.39125         9.03497
| 22>    C        5.41146        -8.22271         7.96598
| 23>    C        5.61142        -7.56361         6.78956
| 24>    C        5.37812        -6.17320         6.85622
| 25>    S        4.88225        -5.73784         8.48831
| 26>    C        5.47588        -5.14544         5.94030
| 27>    C        5.84900        -5.07827         4.58939
| 28>    C        5.88051        -3.76592         4.00148
| 29>    C        6.28242        -3.52733         2.64051
| 30>    N        6.27195        -2.28029         2.14898
| 31>    C        5.92089        -1.28375         2.92157
| 32>    C        5.54724        -1.51015         4.28130
| 33>    N        5.53011        -2.73185         4.77178
| 34>    C        5.18288        -0.42608         5.11371
| 35>    N        4.89872         0.48065         5.75528
| 36>    C        5.91881         0.02154         2.36867
| 37>    N        5.92241         1.08044         1.93063
| 38>    C        6.68913        -4.58297         1.79376
| 39>    C        6.62632        -5.87681         2.34351
| 40>    C        6.21562        -6.13246         3.70722
| 41>    N        6.24053        -7.43483         3.97300
| 42>    S        6.72430        -8.25180         2.67116
| 43>    N        6.93280        -6.99561         1.69112
| 44>    C        7.15017        -4.34158         0.47106
| 45>    S        7.61653        -5.67426        -0.61405
| 46>    C        7.99915        -4.49810        -1.79209
| 47>    C        7.76761        -3.21611        -1.32535
| 48>    N        7.29532        -3.17935        -0.06259
| 49>    C        7.99735        -1.99055        -2.04137
| 50>    C        7.69495        -0.80348        -1.48408
| 51>    C        7.89057         0.51063        -2.04486
| 52>    C        8.56781         0.72800        -3.25532
| 53>    C        8.74323         2.01031        -3.71137
| 54>    C        8.24263         3.10657        -2.98611
| 55>    C        7.56466         2.90484        -1.79194
| 56>    C        7.40025         1.61477        -1.33104
| 57>    C        8.58745         4.32070        -3.69168
| 58>    C        9.30665         3.97924        -4.85086
| 59>    C        9.45589         2.47891        -4.95957
| 60>    C       10.93811         2.06157        -4.94651
| 61>    C       11.68456         2.57391        -3.72062
| 62>    C        8.77784         1.93678        -6.23115
| 63>    C        7.29953         2.29792        -6.31072
| 64>    C        9.77948         4.94963        -5.69794
| 65>    C        9.54469         6.30274        -5.40532
| 66>    C        8.81116         6.62312        -4.25298
| 67>    C        8.33391         5.65263        -3.39683
| 68>    C       10.03721         7.38274        -6.22650
| 69>    C       10.82312         7.27897        -7.31542
| 70>    C       11.31605         8.38765        -8.07877
| 71>    C       11.09858         9.74557        -7.88451
| 72>    C       11.81187        10.47274        -8.88223
| 73>    C       11.93264        11.82063        -9.11907
| 74>    C       12.73708        12.22378       -10.19997
| 75>    C       13.06181        13.48373       -10.68693
| 76>    C       13.92771        13.33898       -11.81360
| 77>    C       14.13416        11.98571       -12.02064
| 78>    C       13.40923        11.25025       -11.03343
| 79>    C       13.28747         9.90323       -10.79884
| 80>    C       12.48589         9.49942        -9.71533
| 81>    C       12.17298         8.24340        -9.21442
| 82>    C       14.50087        14.39803       -12.60875
| 83>    C       14.31586        15.70104       -12.41454
| 84>    H        3.73576        -8.41235        14.78398
| 85>    H        3.54067        -6.62623        14.39390
| 86>    H        4.49247       -10.02726        12.80014
| 87>    H        5.09667        -9.91368        10.29964
| 88>    H        5.54618        -9.28235         8.08896
| 89>    H        5.91790        -8.02615         5.87021
| 90>    H        5.23078        -4.16769         6.34137
| 91>    H        8.37124        -4.78775        -2.75435
| 92>    H        8.41956        -2.08589        -3.03105
| 93>    H        7.25423        -0.83159        -0.49571
| 94>    H        8.95936        -0.10930        -3.81306
| 95>    H        7.17901         3.74020        -1.22728
| 96>    H        6.88384         1.44343        -0.39752
| 97>    H       11.41866         2.44434        -5.84977
| 98>    H       10.99490         0.97115        -4.97530
| 99>    H       11.66501         3.66102        -3.68614
|100>    H       12.72214         2.24852        -3.74993
|101>    H       11.22950         2.19402        -2.80860
|102>    H        8.88685         0.85006        -6.24958
|103>    H        9.29679         2.33906        -7.10418
|104>    H        6.75853         1.88704        -5.46125
|105>    H        6.86403         1.89759        -7.22362
|106>    H        7.16836         3.37776        -6.31076
|107>    H       10.33106         4.67499        -6.58407
|108>    H        8.62500         7.66472        -4.03092
|109>    H        7.77754         5.92538        -2.51251
|110>    H        9.74455         8.37176        -5.89835
|111>    H       11.14061         6.30625        -7.66655
|112>    H       10.49898        10.19614        -7.11590
|113>    H       11.43352        12.55373        -8.50075
|114>    H       12.71868        14.41827       -10.28221
|115>    H       14.74030        11.54957       -12.79403
|116>    H       13.78785         9.17016       -11.41632
|117>    H       12.51590         7.30159        -9.60606
|118>    H       15.13088        14.06398       -13.42431
|119>    H       13.69948        16.08196       -11.61839
|120>    H       14.77787        16.43632       -13.05028
|121> *
|122>
|123>                          ****END OF INPUT****

CARTESIAN COORDINATES (ANGSTROEM)
---------------------------------
  C      3.785300   -7.617900   14.060660
  C      4.141110   -7.867620   12.792100
  C      4.492450   -9.129330   12.208810
  C      4.809100   -9.065900   10.895080
  C      4.734770   -7.760230   10.338450
  S      4.242680   -6.606040   11.552990
  C      5.005220   -7.391250    9.034970
  C      5.411460   -8.222710    7.965980
  C      5.611420   -7.563610    6.789560
  C      5.378120   -6.173200    6.856220
  S      4.882250   -5.737840    8.488310
  C      5.475880   -5.145440    5.940300
  C      5.849000   -5.078270    4.589390
  C      5.880510   -3.765920    4.001480
  C      6.282420   -3.527330    2.640510
  N      6.271950   -2.280290    2.148980
  C      5.920890   -1.283750    2.921570
  C      5.547240   -1.510150    4.281300
  N      5.530110   -2.731850    4.771780
  C      5.182880   -0.426080    5.113710
  N      4.898720    0.480650    5.755280
  C      5.918810    0.021540    2.368670
  N      5.922410    1.080440    1.930630
  C      6.689130   -4.582970    1.793760
  C      6.626320   -5.876810    2.343510
  C      6.215620   -6.132460    3.707220
  N      6.240530   -7.434830    3.973000
  S      6.724300   -8.251800    2.671160
  N      6.932800   -6.995610    1.691120
  C      7.150170   -4.341580    0.471060
  S      7.616530   -5.674260   -0.614050
  C      7.999150   -4.498100   -1.792090
  C      7.767610   -3.216110   -1.325350
  N      7.295320   -3.179350   -0.062590
  C      7.997350   -1.990550   -2.041370
  C      7.694950   -0.803480   -1.484080
  C      7.890570    0.510630   -2.044860
  C      8.567810    0.728000   -3.255320
  C      8.743230    2.010310   -3.711370
  C      8.242630    3.106570   -2.986110
  C      7.564660    2.904840   -1.791940
  C      7.400250    1.614770   -1.331040
  C      8.587450    4.320700   -3.691680
  C      9.306650    3.979240   -4.850860
  C      9.455890    2.478910   -4.959570
  C     10.938110    2.061570   -4.946510
  C     11.684560    2.573910   -3.720620
  C      8.777840    1.936780   -6.231150
  C      7.299530    2.297920   -6.310720
  C      9.779480    4.949630   -5.697940
  C      9.544690    6.302740   -5.405320
  C      8.811160    6.623120   -4.252980
  C      8.333910    5.652630   -3.396830
  C     10.037210    7.382740   -6.226500
  C     10.823120    7.278970   -7.315420
  C     11.316050    8.387650   -8.078770
  C     11.098580    9.745570   -7.884510
  C     11.811870   10.472740   -8.882230
  C     11.932640   11.820630   -9.119070
  C     12.737080   12.223780  -10.199970
  C     13.061810   13.483730  -10.686930
  C     13.927710   13.338980  -11.813600
  C     14.134160   11.985710  -12.020640
  C     13.409230   11.250250  -11.033430
  C     13.287470    9.903230  -10.798840
  C     12.485890    9.499420   -9.715330
  C     12.172980    8.243400   -9.214420
  C     14.500870   14.398030  -12.608750
  C     14.315860   15.701040  -12.414540
  H      3.735760   -8.412350   14.783980
  H      3.540670   -6.626230   14.393900
  H      4.492470  -10.027260   12.800140
  H      5.096670   -9.913680   10.299640
  H      5.546180   -9.282350    8.088960
  H      5.917900   -8.026150    5.870210
  H      5.230780   -4.167690    6.341370
  H      8.371240   -4.787750   -2.754350
  H      8.419560   -2.085890   -3.031050
  H      7.254230   -0.831590   -0.495710
  H      8.959360   -0.109300   -3.813060
  H      7.179010    3.740200   -1.227280
  H      6.883840    1.443430   -0.397520
  H     11.418660    2.444340   -5.849770
  H     10.994900    0.971150   -4.975300
  H     11.665010    3.661020   -3.686140
  H     12.722140    2.248520   -3.749930
  H     11.229500    2.194020   -2.808600
  H      8.886850    0.850060   -6.249580
  H      9.296790    2.339060   -7.104180
  H      6.758530    1.887040   -5.461250
  H      6.864030    1.897590   -7.223620
  H      7.168360    3.377760   -6.310760
  H     10.331060    4.674990   -6.584070
  H      8.625000    7.664720   -4.030920
  H      7.777540    5.925380   -2.512510
  H      9.744550    8.371760   -5.898350
  H     11.140610    6.306250   -7.666550
  H     10.498980   10.196140   -7.115900
  H     11.433520   12.553730   -8.500750
  H     12.718680   14.418270  -10.282210
  H     14.740300   11.549570  -12.794030
  H     13.787850    9.170160  -11.416320
  H     12.515900    7.301590   -9.606060
  H     15.130880   14.063980  -13.424310
  H     13.699480   16.081960  -11.618390
  H     14.777870   16.436320  -13.050280

 Total Charge           Charge          ....    0
 Multiplicity           Mult            ....    1
 Number of Electrons    NEL             ....  498
 Basis Dimension        Dim             .... 1167

ORBITAL ENERGIES
----------------

  NO   OCC          E(Eh)            E(eV)
   0   2.0000     -89.040865     -2422.9251
   1   2.0000     -88.961691     -2420.7707
   2   2.0000     -88.959385     -2420.7079
   3   2.0000     -88.944470     -2420.3021
   4   2.0000     -14.455936      -393.3660
   5   2.0000     -14.451355      -393.2414
   6   2.0000     -14.447462      -393.1354
   7   2.0000     -14.438512      -392.8919
   8   2.0000     -14.421906      -392.4400
   9   2.0000     -14.417476      -392.3195
  10   2.0000     -14.382535      -391.3687
  11   2.0000     -10.367888      -282.1246
  12   2.0000     -10.365637      -282.0633
  13   2.0000     -10.342944      -281.4458
  14   2.0000     -10.339008      -281.3387
  15   2.0000     -10.337776      -281.3052
  16   2.0000     -10.337443      -281.2961
  17   2.0000     -10.337421      -281.2955
  18   2.0000     -10.328916      -281.0641
  19   2.0000     -10.327391      -281.0226
  20   2.0000     -10.324334      -280.9394
  21   2.0000     -10.323217      -280.9090
  22   2.0000     -10.319106      -280.7971
  23   2.0000     -10.315966      -280.7117
  24   2.0000     -10.311801      -280.5984
  25   2.0000     -10.309194      -280.5274
  26   2.0000     -10.308117      -280.4981
  27   2.0000     -10.303739      -280.3790
  28   2.0000     -10.297136      -280.1993
  29   2.0000     -10.295543      -280.1560
  30   2.0000     -10.289895      -280.0023
  31   2.0000     -10.289593      -279.9941
  32   2.0000     -10.288916      -279.9756
  33   2.0000     -10.286679      -279.9148
  34   2.0000     -10.284378      -279.8521
  35   2.0000     -10.278044      -279.6798
  36   2.0000     -10.274138      -279.5735
  37   2.0000     -10.272955      -279.5413
  38   2.0000     -10.263549      -279.2854
  39   2.0000     -10.260981      -279.2155
  40   2.0000     -10.260600      -279.2051
  41   2.0000     -10.260358      -279.1985
  42   2.0000     -10.260069      -279.1907
  43   2.0000     -10.256617      -279.0967
  44   2.0000     -10.256508      -279.0938
  45   2.0000     -10.256361      -279.0898
  46   2.0000     -10.253992      -279.0253
  47   2.0000     -10.253774      -279.0194
  48   2.0000     -10.253677      -279.0167
  49   2.0000     -10.253545      -279.0132
  50   2.0000     -10.252913      -278.9959
  51   2.0000     -10.252491      -278.9845
  52   2.0000     -10.252088      -278.9735
  53   2.0000     -10.251667      -278.9620
  54   2.0000     -10.251594      -278.9601
  55   2.0000     -10.251256      -278.9509
  56   2.0000     -10.250204      -278.9222
  57   2.0000     -10.250006      -278.9168
  58   2.0000     -10.249545      -278.9043
  59   2.0000     -10.248668      -278.8804
  60   2.0000     -10.248427      -278.8739
  61   2.0000     -10.248399      -278.8731
  62   2.0000     -10.248299      -278.8704
  63   2.0000     -10.247780      -278.8563
  64   2.0000     -10.247589      -278.8511
  65   2.0000     -10.247396      -278.8458
  66   2.0000     -10.243140      -278.7300
  67   2.0000     -10.231563      -278.4150
  68   2.0000     -10.231305      -278.4080
  69   2.0000      -8.132139      -221.2867
  70   2.0000      -8.058418      -219.2807
  71   2.0000      -8.055784      -219.2090
  72   2.0000      -8.039581      -218.7681
  73   2.0000      -6.103333      -166.0801
  74   2.0000      -6.095596      -165.8696
  75   2.0000      -6.094645      -165.8437
  76   2.0000      -6.028150      -164.0343
  77   2.0000      -6.025385      -163.9591
  78   2.0000      -6.024198      -163.9268
  79   2.0000      -6.021377      -163.8500
  80   2.0000      -6.019113      -163.7884
  81   2.0000      -6.016887      -163.7278
  82   2.0000      -6.008772      -163.5070
  83   2.0000      -6.004439      -163.3891
  84   2.0000      -6.002037      -163.3237
  85   2.0000      -1.138910       -30.9913
  86   2.0000      -1.107436       -30.1349
  87   2.0000      -1.048947       -28.5433
  88   2.0000      -1.031263       -28.0621
  89   2.0000      -1.011594       -27.5269
  90   2.0000      -1.003494       -27.3065
  91   2.0000      -0.996088       -27.1049
  92   2.0000      -0.992496       -27.0072
  93   2.0000      -0.986731       -26.8503
  94   2.0000      -0.975611       -26.5477
  95   2.0000      -0.968274       -26.3481
  96   2.0000      -0.967182       -26.3184
  97   2.0000      -0.949686       -25.8423
  98   2.0000      -0.925762       -25.1913
  99   2.0000      -0.909528       -24.7495
 100   2.0000      -0.902406       -24.5557
 101   2.0000      -0.899603       -24.4794
 102   2.0000      -0.890978       -24.2447
 103   2.0000      -0.887799       -24.1582
 104   2.0000      -0.876149       -23.8412
 105   2.0000      -0.871074       -23.7031
 106   2.0000      -0.865771       -23.5588
 107   2.0000      -0.862956       -23.4822
 108   2.0000      -0.854536       -23.2531
 109   2.0000      -0.852221       -23.1901
 110   2.0000      -0.843953       -22.9651
 111   2.0000      -0.834959       -22.7204
 112   2.0000      -0.829718       -22.5778
 113   2.0000      -0.825318       -22.4580
 114   2.0000      -0.822191       -22.3730
 115   2.0000      -0.813361       -22.1327
 116   2.0000      -0.811000       -22.0684
 117   2.0000      -0.804505       -21.8917
 118   2.0000      -0.798449       -21.7269
 119   2.0000      -0.787341       -21.4246
 120   2.0000      -0.785601       -21.3773
 121   2.0000      -0.768555       -20.9134
 122   2.0000      -0.753187       -20.4952
 123   2.0000      -0.744706       -20.2645
 124   2.0000      -0.743569       -20.2335
 125   2.0000      -0.736260       -20.0346
 126   2.0000      -0.728697       -19.8289
 127   2.0000      -0.721462       -19.6320
 128   2.0000      -0.707485       -19.2516
 129   2.0000      -0.701794       -19.0968
 130   2.0000      -0.699961       -19.0469
 131   2.0000      -0.695376       -18.9222
 132   2.0000      -0.684654       -18.6304
 133   2.0000      -0.675447       -18.3798
 134   2.0000      -0.664022       -18.0690
 135   2.0000      -0.662992       -18.0409
 136   2.0000      -0.659374       -17.9425
 137   2.0000      -0.658600       -17.9214
 138   2.0000      -0.653482       -17.7821
 139   2.0000      -0.650450       -17.6997
 140   2.0000      -0.643597       -17.5132
 141   2.0000      -0.639614       -17.4048
 142   2.0000      -0.636305       -17.3147
 143   2.0000      -0.635189       -17.2844
 144   2.0000      -0.625187       -17.0122
 145   2.0000      -0.621612       -16.9149
 146   2.0000      -0.616248       -16.7690
 147   2.0000      -0.612092       -16.6559
 148   2.0000      -0.610054       -16.6004
 149   2.0000      -0.606211       -16.4958
 150   2.0000      -0.600783       -16.3481
 151   2.0000      -0.589614       -16.0442
 152   2.0000      -0.588565       -16.0157
 153   2.0000      -0.572939       -15.5905
 154   2.0000      -0.572328       -15.5738
 155   2.0000      -0.570452       -15.5228
 156   2.0000      -0.568636       -15.4734
 157   2.0000      -0.564795       -15.3689
 158   2.0000      -0.562619       -15.3097
 159   2.0000      -0.551638       -15.0108
 160   2.0000      -0.550077       -14.9683
 161   2.0000      -0.546974       -14.8839
 162   2.0000      -0.542026       -14.7493
 163   2.0000      -0.535815       -14.5803
 164   2.0000      -0.531821       -14.4716
 165   2.0000      -0.528419       -14.3790
 166   2.0000      -0.526878       -14.3371
 167   2.0000      -0.523865       -14.2551
 168   2.0000      -0.519056       -14.1242
 169   2.0000      -0.516108       -14.0440
 170   2.0000      -0.513025       -13.9601
 171   2.0000      -0.511772       -13.9260
 172   2.0000      -0.507621       -13.8131
 173   2.0000      -0.505099       -13.7444
 174   2.0000      -0.502244       -13.6667
 175   2.0000      -0.499715       -13.5979
 176   2.0000      -0.498145       -13.5552
 177   2.0000      -0.496383       -13.5073
 178   2.0000      -0.494849       -13.4655
 179   2.0000      -0.488506       -13.2929
 180   2.0000      -0.485035       -13.1985
 181   2.0000      -0.483280       -13.1507
 182   2.0000      -0.483231       -13.1494
 183   2.0000      -0.480680       -13.0800
 184   2.0000      -0.480607       -13.0780
 185   2.0000      -0.473254       -12.8779
 186   2.0000      -0.469931       -12.7875
 187   2.0000      -0.469090       -12.7646
 188   2.0000      -0.466308       -12.6889
 189   2.0000      -0.465153       -12.6575
 190   2.0000      -0.463852       -12.6221
 191   2.0000      -0.461494       -12.5579
 192   2.0000      -0.459202       -12.4955
 193   2.0000      -0.455578       -12.3969
 194   2.0000      -0.451668       -12.2905
 195   2.0000      -0.449703       -12.2370
 196   2.0000      -0.447597       -12.1797
 197   2.0000      -0.445409       -12.1202
 198   2.0000      -0.443960       -12.0808
 199   2.0000      -0.443779       -12.0758
 200   2.0000      -0.443164       -12.0591
 201   2.0000      -0.440643       -11.9905
 202   2.0000      -0.439088       -11.9482
 203   2.0000      -0.438131       -11.9222
 204   2.0000      -0.436806       -11.8861
 205   2.0000      -0.433214       -11.7883
 206   2.0000      -0.429547       -11.6886
 207   2.0000      -0.427312       -11.6278
 208   2.0000      -0.427130       -11.6228
 209   2.0000      -0.424993       -11.5646
 210   2.0000      -0.418183       -11.3793
 211   2.0000      -0.414699       -11.2845
 212   2.0000      -0.414453       -11.2778
 213   2.0000      -0.410850       -11.1798
 214   2.0000      -0.409908       -11.1542
 215   2.0000      -0.409071       -11.1314
 216   2.0000      -0.407281       -11.0827
 217   2.0000      -0.405866       -11.0442
 218   2.0000      -0.399447       -10.8695
 219   2.0000      -0.398503       -10.8438
 220   2.0000      -0.398313       -10.8387
 221   2.0000      -0.394980       -10.7479
 222   2.0000      -0.394060       -10.7229
 223   2.0000      -0.392917       -10.6918
 224   2.0000      -0.391638       -10.6570
 225   2.0000      -0.379445       -10.3252
 226   2.0000      -0.372114       -10.1257
 227   2.0000      -0.369848       -10.0641
 228   2.0000      -0.368175       -10.0186
 229   2.0000      -0.364228        -9.9111
 230   2.0000      -0.359179        -9.7738
 231   2.0000      -0.357498        -9.7280
 232   2.0000      -0.355358        -9.6698
 233   2.0000      -0.354993        -9.6599
 234   2.0000      -0.353020        -9.6062
 235   2.0000      -0.345443        -9.4000
 236   2.0000      -0.340071        -9.2538
 237   2.0000      -0.334562        -9.1039
 238   2.0000      -0.329083        -8.9548
 239   2.0000      -0.306691        -8.3455
 240   2.0000      -0.303648        -8.2627
 241   2.0000      -0.300527        -8.1778
 242   2.0000      -0.294454        -8.0125
 243   2.0000      -0.288746        -7.8572
 244   2.0000      -0.269337        -7.3290
 245   2.0000      -0.255985        -6.9657
 246   2.0000      -0.241496        -6.5714
 247   2.0000      -0.222551        -6.0559
 248   2.0000      -0.213143        -5.7999
 249   0.0000      -0.125343        -3.4108
 250   0.0000      -0.086099        -2.3429
 251   0.0000      -0.066360        -1.8058
 252   0.0000      -0.040363        -1.0983
 253   0.0000      -0.028003        -0.7620

MULLIKEN ATOMIC CHARGES
-----------------------
   0 C :   -0.010461
   1 C :   -0.074281
   2 C :    0.065709
   3 C :    0.029739
   4 C :   -0.050528
   5 S :    0.112036
   6 C :   -0.045609
   7 C :    0.015509
   8 C :    0.045619
   9 C :   -0.050911
  10 S :    0.115033
  11 C :   -0.054093
  12 C :    0.104938
  13 C :   -0.048665
  14 C :   -0.104045
  15 N :    0.114556
  16 C :   -0.162366
  17 C :   -0.133588
  18 N :    0.045274
  19 C :   -0.220717
  20 N :    0.227163
  21 C :   -0.159995
  22 N :    0.220448
  23 C :    0.202295
  24 C :    0.004806
  25 C :    0.034800
  26 N :   -0.299442
  27 S :    0.535580
  28 N :   -0.307909
  29 C :   -0.292493
  30 S :    0.130162
  31 C :   -0.098063
  32 C :    0.071723
  33 N :   -0.000584
  34 C :    0.003681
  35 C :   -0.005727
  36 C :    0.136152
  37 C :   -0.098490
  38 C :    0.017540
  39 C :    0.106423
  40 C :   -0.051267
  41 C :   -0.015781
  42 C :    0.101374
  43 C :    0.013680
  44 C :   -0.139146
  45 C :    0.068858
  46 C :    0.025415
  47 C :    0.070575
  48 C :    0.026615
  49 C :   -0.091110
  50 C :    0.132045
  51 C :   -0.025946
  52 C :   -0.045698
  53 C :   -0.012719
  54 C :    0.027408
  55 C :    0.081138
  56 C :   -0.038696
  57 C :    0.051304
  58 C :    0.000079
  59 C :    0.042569
  60 C :   -0.023081
  61 C :    0.059769
  62 C :   -0.031107
  63 C :    0.052911
  64 C :   -0.001296
  65 C :    0.055220
  66 C :   -0.033037
  67 C :    0.011704
  68 C :   -0.028388
  69 H :    0.032211
  70 H :    0.034810
  71 H :   -0.000909
  72 H :   -0.003537
  73 H :   -0.011203
  74 H :   -0.012146
  75 H :    0.007123
  76 H :    0.007011
  77 H :   -0.036583
  78 H :   -0.000926
  79 H :   -0.050999
  80 H :   -0.036547
  81 H :   -0.032596
  82 H :   -0.008624
  83 H :   -0.006066
  84 H :    0.022950
  85 H :    0.003460
  86 H :    0.024541
  87 H :   -0.006371
  88 H :   -0.007897
  89 H :    0.023769
  90 H :    0.002596
  91 H :    0.022528
  92 H :   -0.050064
  93 H :   -0.034856
  94 H :   -0.038078
  95 H :   -0.036459
  96 H :   -0.035582
  97 H :   -0.031006
  98 H :   -0.028050
  99 H :   -0.027870
 100 H :   -0.031229
 101 H :   -0.029511
 102 H :   -0.028193
 103 H :   -0.022534
 104 H :    0.005587
 105 H :    0.016639
Sum of atomic charges:   -0.0000000

LOEWDIN ATOMIC CHARGES
----------------------
   0 C :   -0.045670
   1 C :   -0.142887
   2 C :   -0.013547
   3 C :   -0.027423
   4 C :   -0.152843
   5 S :    0.379561
   6 C :   -0.191031
   7 C :   -0.015769
   8 C :   -0.041111
   9 C :   -0.110916
  10 S :    0.402647
  11 C :   -0.057352
  12 C :   -0.014143
  13 C :   -0.007439
  14 C :    0.004503
  15 N :    0.021710
  16 C :   -0.026694
  17 C :   -0.042032
  18 N :   -0.000580
  19 C :   -0.038514
  20 N :   -0.017740
  21 C :   -0.020157
  22 N :   -0.014617
  23 C :   -0.077970
  24 C :   -0.040057
  25 C :   -0.040053
  26 N :   -0.263335
  27 S :    0.656012
  28 N :   -0.300757
  29 C :   -0.126820
  30 S :    0.431390
  31 C :   -0.210631
  32 C :   -0.040186
  33 N :   -0.071998
  34 C :   -0.045855
  35 C :    0.003297
  36 C :   -0.027182
  37 C :   -0.019896
  38 C :    0.000242
  39 C :   -0.019193
  40 C :   -0.019113
  41 C :   -0.011688
  42 C :   -0.018389
  43 C :    0.003899
  44 C :   -0.035576
  45 C :   -0.012650
  46 C :   -0.058130
  47 C :   -0.012587
  48 C :   -0.057764
  49 C :   -0.020995
  50 C :   -0.024250
  51 C :   -0.022281
  52 C :   -0.020359
  53 C :   -0.018698
  54 C :   -0.027375
  55 C :   -0.060489
  56 C :    0.011658
  57 C :   -0.058806
  58 C :    0.071675
  59 C :   -0.066718
  60 C :    0.044035
  61 C :   -0.065425
  62 C :    0.013151
  63 C :   -0.065937
  64 C :    0.071347
  65 C :   -0.071529
  66 C :    0.038860
  67 C :   -0.020183
  68 C :   -0.060982
  69 H :    0.034080
  70 H :    0.032159
  71 H :    0.037929
  72 H :    0.035648
  73 H :    0.032780
  74 H :    0.023304
  75 H :    0.034761
  76 H :    0.021300
  77 H :    0.021412
  78 H :    0.034081
  79 H :    0.019816
  80 H :    0.026991
  81 H :    0.027894
  82 H :    0.017215
  83 H :    0.018240
  84 H :    0.025925
  85 H :    0.021641
  86 H :    0.026871
  87 H :    0.018126
  88 H :    0.017581
  89 H :    0.026523
  90 H :    0.021429
  91 H :    0.025975
  92 H :    0.020208
  93 H :    0.023346
  94 H :    0.026210
  95 H :    0.023184
  96 H :    0.022144
  97 H :    0.020962
  98 H :    0.033415
  99 H :    0.023358
 100 H :    0.022299
 101 H :    0.033097
 102 H :    0.023014
 103 H :    0.027988
 104 H :    0.016739
 105 H :    0.022694

  Mayer bond orders larger than 0.100000
B(  0-C ,  1-C ) :   1.8551 B(  0-C , 69-H ) :   0.9519 B(  0-C , 70-H ) :   0.9420
B(  1-C ,  2-C ) :   1.0840 B(  1-C ,  5-S ) :   1.0063 B(  2-C ,  3-C ) :   1.6480
B(  2-C , 71-H ) :   0.9935 B(  3-C ,  4-C ) :   1.1660 B(  3-C , 72-H ) :   0.9922
B(  4-C ,  5-S ) :   1.0767 B(  4-C ,  6-C ) :   1.4868 B(  6-C ,  7-C ) :   1.2028
B(  6-C , 10-S ) :   1.0494 B(  7-C ,  8-C ) :   1.5473 B(  7-C , 73-H ) :   0.9943
B(  8-C ,  9-C ) :   1.2049 B(  8-C , 74-H ) :   0.9658 B(  9-C , 10-S ) :   1.0908
B(  9-C , 11-C ) :   1.4049 B( 11-C , 12-C ) :   1.3710 B( 11-C , 75-H ) :   0.9114
B( 12-C , 13-C ) :   1.1851 B( 12-C , 23-C ) :   0.1171 B( 12-C , 25-C ) :   1.1351
B( 13-C , 14-C ) :   1.1110 B( 13-C , 18-N ) :   1.4825 B( 14-C , 15-N ) :   1.4907
B( 14-C , 23-C ) :   1.2390 B( 15-N , 16-C ) :   1.7615 B( 16-C , 17-C ) :   1.2113
B( 16-C , 21-C ) :   1.1642 B( 17-C , 18-N ) :   1.7012 B( 17-C , 19-C ) :   1.1622
B( 19-C , 20-N ) :   3.0398 B( 21-C , 22-N ) :   2.9636 B( 23-C , 24-C ) :   1.2172
B( 23-C , 29-C ) :   1.0612 B( 24-C , 25-C ) :   1.1144 B( 24-C , 28-N ) :   1.5029
B( 25-C , 26-N ) :   1.5068 B( 26-N , 27-S ) :   1.2624 B( 26-N , 28-N ) :   0.1450
B( 26-N , 74-H ) :   0.1031 B( 27-S , 28-N ) :   1.2540 B( 29-C , 30-S ) :   1.1162
B( 29-C , 33-N ) :   1.7716 B( 30-S , 31-C ) :   1.1472 B( 30-S , 33-N ) :   0.1057
B( 31-C , 32-C ) :   1.4569 B( 31-C , 76-H ) :   0.9603 B( 32-C , 33-N ) :   1.3680
B( 32-C , 34-C ) :   1.0827 B( 34-C , 35-C ) :   1.7265 B( 34-C , 77-H ) :   0.9645
B( 35-C , 36-C ) :   1.0410 B( 35-C , 78-H ) :   0.9800 B( 36-C , 37-C ) :   1.2941
B( 36-C , 41-C ) :   1.3379 B( 37-C , 38-C ) :   1.4055 B( 37-C , 79-H ) :   1.0019
B( 38-C , 39-C ) :   1.3562 B( 38-C , 44-C ) :   0.9162 B( 39-C , 40-C ) :   1.3349
B( 39-C , 42-C ) :   0.9927 B( 40-C , 41-C ) :   1.3750 B( 40-C , 80-H ) :   0.9957
B( 41-C , 81-H ) :   0.9885 B( 42-C , 43-C ) :   1.3541 B( 42-C , 52-C ) :   1.3465
B( 43-C , 44-C ) :   0.9175 B( 43-C , 49-C ) :   1.4121 B( 44-C , 45-C ) :   1.0395
B( 44-C , 47-C ) :   1.0356 B( 45-C , 46-C ) :   1.1020 B( 45-C , 82-H ) :   0.9383
B( 45-C , 83-H ) :   0.9383 B( 46-C , 84-H ) :   0.9639 B( 46-C , 85-H ) :   0.9637
B( 46-C , 86-H ) :   0.9646 B( 47-C , 48-C ) :   1.1025 B( 47-C , 87-H ) :   0.9387
B( 47-C , 88-H ) :   0.9391 B( 48-C , 89-H ) :   0.9640 B( 48-C , 90-H ) :   0.9636
B( 48-C , 91-H ) :   0.9643 B( 49-C , 50-C ) :   1.2962 B( 49-C , 92-H ) :   0.9994
B( 50-C , 51-C ) :   1.3364 B( 50-C , 53-C ) :   1.0634 B( 51-C , 52-C ) :   1.3712
B( 51-C , 93-H ) :   0.9927 B( 52-C , 94-H ) :   0.9906 B( 53-C , 54-C ) :   1.6999
B( 53-C , 95-H ) :   0.9845 B( 54-C , 55-C ) :   1.0744 B( 54-C , 96-H ) :   0.9705
B( 55-C , 56-C ) :   1.4842 B( 55-C , 66-C ) :   1.1531 B( 56-C , 57-C ) :   1.1104
B( 56-C , 97-H ) :   1.0105 B( 57-C , 58-C ) :   1.4356 B( 57-C , 65-C ) :   1.1392
B( 58-C , 59-C ) :   1.1383 B( 58-C , 98-H ) :   1.0039 B( 59-C , 60-C ) :   1.4154
B( 59-C , 63-C ) :   1.1423 B( 60-C , 61-C ) :   1.1630 B( 60-C , 99-H ) :   1.0081
B( 61-C , 62-C ) :   1.4891 B( 61-C , 67-C ) :   1.0847 B( 62-C , 63-C ) :   1.0968
B( 62-C ,100-H ) :   1.0158 B( 63-C , 64-C ) :   1.4416 B( 64-C , 65-C ) :   1.1417
B( 64-C ,101-H ) :   1.0048 B( 65-C , 66-C ) :   1.3934 B( 66-C ,102-H ) :   1.0149
B( 67-C , 68-C ) :   1.9337 B( 67-C ,103-H ) :   0.9660 B( 68-C ,104-H ) :   0.9523
B( 68-C ,105-H ) :   0.9494

-----------------------------------------------------------------------------
         ABSORPTION SPECTRUM VIA TRANSITION ELECTRIC DIPOLE MOMENTS
-----------------------------------------------------------------------------
State   Energy  Wavelength   fosc         T2         TX        TY        TZ
        (cm-1)    (nm)                  (au**2)     (au)      (au)      (au)
-----------------------------------------------------------------------------
   0    7052.9   1417.9   0.543054517  25.34850   1.17260   1.86585  -4.52682
   1    7788.6   1283.9   0.001626672   0.06876  -0.07509  -0.24910   0.03266
   2   11167.4    895.5   0.056184019   1.65629   0.16898   0.29605  -1.24100
   3   15739.2    635.4   0.027315880   0.57136  -0.09211  -0.41687   0.62377
   4   18957.0    527.5   0.000543078   0.00943  -0.07914  -0.05619  -0.00329
   5   19543.6    511.7   0.490372522   8.26033   0.53340   1.38269  -2.46252
   6   20199.2    495.1   0.083600824   1.36255   0.15773   1.10190  -0.35142
   7   20569.3    486.2   0.209075612   3.34626  -0.28646  -0.70328   1.66421
   8   22508.3    444.3   0.426726448   6.24139  -0.95270  -1.82550   1.41468
   9   23203.8    431.0   0.205873206   2.92090   0.58887  -0.18848  -1.59330
  10   23577.2    424.1   0.002167276   0.03026  -0.08255  -0.00373   0.15308
  11   23846.2    419.4   0.016740366   0.23111  -0.07324  -0.37878   0.28684
  12   24337.5    410.9   0.088997449   1.20386  -0.19011  -0.55691   0.92605
  13   24540.1    407.5   0.014892131   0.19978  -0.25938  -0.19628   0.30656
  14   24880.0    401.9   0.012371195   0.16370   0.12215   0.24283  -0.29968
  15   26158.8    382.3   2.462062411  30.98540  -1.83494  -4.30632   3.01230
  16   26484.0    377.6   0.001092528   0.01358   0.04072  -0.02828  -0.10547
  17   27693.7    361.1   0.002689492   0.03197   0.01127   0.15623   0.08623
  18   27916.9    358.2   0.033852496   0.39921  -0.13348  -0.06608   0.61402
  19   28262.7    353.8   0.433688671   5.05172  -0.41630  -2.08079   0.74077
  20   29133.9    343.2   0.007371513   0.08330   0.19776  -0.20928  -0.01975
  21   29339.7    340.8   0.003469793   0.03893  -0.04614   0.09838   0.16470
  22   29497.9    339.0   0.045426724   0.50699   0.04171  -0.63021  -0.32876
  23   29986.8    333.5   0.220322173   2.41882  -0.17336   1.43651   0.57026
  24   30486.3    328.0   0.001234730   0.01333   0.00993   0.11457  -0.01038
  25   30670.9    326.0   0.006440533   0.06913  -0.13671   0.12165   0.18879
  26   31044.0    322.1   0.098010885   1.03937  -0.11666   1.01231   0.03147
  27   31324.9    319.2   0.025141222   0.26422   0.13267  -0.49645  -0.01282
  28   31786.6    314.6   0.195309866   2.02282   0.08156  -1.41691  -0.09240
  29   32024.6    312.3   0.217490442   2.23580  -0.71953   1.02229   0.82036
  30   32644.7    306.3   0.001155449   0.01165  -0.02875   0.09094   0.05056
  31   33102.1    302.1   0.021334817   0.21218   0.01298  -0.45831   0.04436
  32   33193.5    301.3   0.002548351   0.02527  -0.08274   0.12384   0.05560
  33   33222.2    301.0   0.031377801   0.31093  -0.03181   0.55668  -0.00503
  34   33435.9    299.1   0.083505810   0.82220  -0.20208   0.86708   0.17187
  35   33665.6    297.0   0.010353509   0.10125  -0.05196  -0.30692   0.06594
  36   33789.2    296.0   0.052096005   0.50758  -0.02693  -0.61627   0.35646
  37   34549.6    289.4   0.067221960   0.64054   0.56006   0.17057  -0.54569
  38   34833.9    287.1   0.005604478   0.05297  -0.08362   0.21252  -0.02843
  39   34877.0    286.7   0.010459715   0.09873  -0.10345  -0.26418   0.13506
  40   34959.1    286.0   0.004935131   0.04647  -0.00042   0.20907  -0.05259
  41   35058.3    285.2   0.092745470   0.87092  -0.25021  -0.70422   0.55892
  42   35697.4    280.1   0.050467135   0.46542  -0.15274  -0.56062   0.35750
  43   35933.6    278.3   0.032163948   0.29468   0.18527  -0.03711  -0.50889
  44   36428.1    274.5   0.006464394   0.05842  -0.03985  -0.21461   0.10381
  45   36805.0    271.7   0.062138442   0.55581  -0.18288   0.07244   0.71911
  46   36882.4    271.1   0.011506916   0.10271  -0.05054   0.23232   0.21490
  47   37354.4    267.7   0.050829331   0.44797   0.20841   0.39450  -0.49890
  48   37885.8    264.0   0.054176357   0.47077   0.18736   0.31192  -0.58170
  49   38111.7    262.4   0.021909185   0.18925   0.15331   0.27152  -0.30336
  50   38254.7    261.4   0.045245668   0.38937   0.20402  -0.56851  -0.15668
  51   38439.8    260.1   0.141291638   1.21007  -0.23146   1.01992   0.34097
  52   38823.9    257.6   0.003441525   0.02918  -0.03225  -0.16757  -0.00795
  53   39277.3    254.6   0.293017724   2.45600  -0.21830  -1.49201   0.42689
  54   39352.7    254.1   0.022155177   0.18534  -0.02139  -0.32145   0.28557
  55   39957.3    250.3   0.322285355   2.65534   0.09245   1.61764  -0.17327
  56   40037.0    249.8   0.019778413   0.16263   0.02422  -0.40215   0.01783
  57   40077.9    249.5   0.013353011   0.10969   0.00490   0.32919  -0.03596

FINAL SINGLE POINT ENERGY     -4204.452723001533

DIPOLE MOMENT
-------------
                                X             Y             Z
Electronic contribution:    -45.02476     -97.74563     100.26434
Nuclear contribution   :     44.95346      92.59017     -97.61538
                        -----------------------------------------
Total Dipole Moment    :     -0.07129      -5.15546       2.64896
                        -----------------------------------------
Magnitude (a.u.)       :      5.79662
Magnitude (Debye)      :     14.73385

Rotational constants in cm-1:     0.003017     0.000175     0.000167
Rotational constants in MHz :    90.443483     5.235236     5.014145

                             ****ORCA TERMINATED NORMALLY****
TOTAL RUN TIME: 0 days 0 hours 14 minutes 33 seconds 847 msec
