                         Program Version 4.2.0 -  RELEASE  -
|  1> # ORCA input file
|  2> # SCF done       -138.310541675932          0.000431882684
|  3> ! CAM-B3LYP def2-SVP def2/J RIJCOSX Grid4 TightSCF
|  4> %maxcore 5000
|  5> %tddft
|  6>     Mode sTDDFT
|  7>     Ethresh 5.0
|  8>     maxcore 5000
|  9> end
| 10>
| 11> %pal
| 12>   nprocs 6
| 13>   end
| 14> * xyz 0 1
| 15>    C       12.51940        -6.66270        10.04850
| 16>    C       12.49507        -6.29799         8.76001
| 17>    C       13.52194        -5.61413         8.02417
| 18>    C       13.21615        -5.38048         6.73086
| 19>    C       11.93093        -5.85662         6.33479
| 20>    S       11.12203        -6.61668         7.68626
| 21>    C       11.35665        -5.77104         5.09101
| 22>    C       11.91342        -5.19822         3.91988
| 23>    C       11.10175        -5.29292         2.83757
| 24>    C        9.86239        -5.94669         3.08975
| 25>    S        9.74751        -6.41955         4.76272
| 26>    C        8.90225        -6.20469         2.14649
| 27>    C        7.68599        -6.88269         2.37530
| 28>    S        7.23983        -7.37200         3.92690
| 29>    C        6.84415        -7.18655         1.27817
| 30>    C        5.69373        -7.89936         1.40771
| 31>    S        5.03584        -8.46900         2.92280
| 32>    C        3.73972        -9.21620         2.01740
| 33>    C        3.87285        -9.03236         0.67978
| 34>    O        4.95865        -8.25710         0.34883
| 35>    C        3.14957        -9.56438        -0.41872
| 36>    C        2.16557       -10.50941        -0.36120
| 37>    C        1.61886       -11.20850        -1.47244
| 38>    C        0.80874       -12.24773        -1.13833
| 39>    C        0.63237       -12.41234         0.25509
| 40>    S        1.48047       -11.14629         1.12308
| 41>    C        0.04334       -13.45699         0.93113
| 42>    C       -0.39223       -14.69486         0.39740
| 43>    C       -0.61165       -15.64127         1.34370
| 44>    C       -0.38267       -15.20766         2.68271
| 45>    S       -0.00469       -13.49811         2.67933
| 46>    C       -0.45685       -16.04112         3.76306
| 47>    C       -0.37879       -15.79434         5.15745
| 48>    S       -1.21711       -16.90412         6.10540
| 49>    C        0.23618       -14.71314         5.85256
| 50>    C        1.29194       -13.92014         5.55072
| 51>    S        1.83094       -12.69075         6.69991
| 52>    C        3.02641       -12.18238         5.56588
| 53>    C        2.99406       -12.93538         4.43365
| 54>    O        2.05368       -13.93044         4.44716
| 55>    C        3.77367       -12.70489         3.27483
| 56>    C        3.73608       -13.43192         2.12095
| 57>    C        4.34319       -13.05340         0.89003
| 58>    C        4.07703       -13.89211        -0.14043
| 59>    C        3.28328       -15.01282         0.22004
| 60>    S        2.88570       -14.95055         1.92809
| 61>    C        2.85302       -16.03028        -0.59316
| 62>    C        3.07354       -16.16729        -1.99405
| 63>    C        2.53083       -17.27731        -2.53791
| 64>    C        1.83702       -18.11777        -1.60301
| 65>    S        1.92412       -17.38729         0.00997
| 66>    C        1.21101       -19.27534        -1.85122
| 67>    H       13.37603        -6.45126        10.66411
| 68>    H       11.69380        -7.17665        10.50553
| 69>    H       14.44291        -5.33009         8.50195
| 70>    H       13.86532        -4.88114         6.03362
| 71>    H       12.88762        -4.74228         3.90703
| 72>    H       11.34418        -4.92330         1.85638
| 73>    H        9.10364        -5.87964         1.13371
| 74>    H        7.14121        -6.88192         0.28591
| 75>    H        2.97609        -9.75848         2.53031
| 76>    H        3.48954        -9.24441        -1.39332
| 77>    H        1.88631       -10.94361        -2.48012
| 78>    H        0.34468       -12.90857        -1.84852
| 79>    H       -0.47257       -14.86057        -0.66209
| 80>    H       -0.89866       -16.65628         1.13538
| 81>    H       -0.76709       -17.05293         3.52592
| 82>    H       -0.13805       -14.58036         6.85964
| 83>    H        3.67764       -11.36109         5.77752
| 84>    H        4.40376       -11.82901         3.30762
| 85>    H        4.92141       -12.14962         0.81453
| 86>    H        4.42715       -13.74479        -1.14630
| 87>    H        3.62702       -15.42851        -2.54616
| 88>    H        2.59189       -17.54778        -3.57718
| 89>    H        1.18727       -19.68435        -2.84585
| 90>    H        0.72156       -19.83205        -1.07349
| 91> *
| 92>
| 93>                          ****END OF INPUT****

CARTESIAN COORDINATES (ANGSTROEM)
---------------------------------
  C     12.519400   -6.662700   10.048500
  C     12.495070   -6.297990    8.760010
  C     13.521940   -5.614130    8.024170
  C     13.216150   -5.380480    6.730860
  C     11.930930   -5.856620    6.334790
  S     11.122030   -6.616680    7.686260
  C     11.356650   -5.771040    5.091010
  C     11.913420   -5.198220    3.919880
  C     11.101750   -5.292920    2.837570
  C      9.862390   -5.946690    3.089750
  S      9.747510   -6.419550    4.762720
  C      8.902250   -6.204690    2.146490
  C      7.685990   -6.882690    2.375300
  S      7.239830   -7.372000    3.926900
  C      6.844150   -7.186550    1.278170
  C      5.693730   -7.899360    1.407710
  S      5.035840   -8.469000    2.922800
  C      3.739720   -9.216200    2.017400
  C      3.872850   -9.032360    0.679780
  O      4.958650   -8.257100    0.348830
  C      3.149570   -9.564380   -0.418720
  C      2.165570  -10.509410   -0.361200
  C      1.618860  -11.208500   -1.472440
  C      0.808740  -12.247730   -1.138330
  C      0.632370  -12.412340    0.255090
  S      1.480470  -11.146290    1.123080
  C      0.043340  -13.456990    0.931130
  C     -0.392230  -14.694860    0.397400
  C     -0.611650  -15.641270    1.343700
  C     -0.382670  -15.207660    2.682710
  S     -0.004690  -13.498110    2.679330
  C     -0.456850  -16.041120    3.763060
  C     -0.378790  -15.794340    5.157450
  S     -1.217110  -16.904120    6.105400
  C      0.236180  -14.713140    5.852560
  C      1.291940  -13.920140    5.550720
  S      1.830940  -12.690750    6.699910
  C      3.026410  -12.182380    5.565880
  C      2.994060  -12.935380    4.433650
  O      2.053680  -13.930440    4.447160
  C      3.773670  -12.704890    3.274830
  C      3.736080  -13.431920    2.120950
  C      4.343190  -13.053400    0.890030
  C      4.077030  -13.892110   -0.140430
  C      3.283280  -15.012820    0.220040
  S      2.885700  -14.950550    1.928090
  C      2.853020  -16.030280   -0.593160
  C      3.073540  -16.167290   -1.994050
  C      2.530830  -17.277310   -2.537910
  C      1.837020  -18.117770   -1.603010
  S      1.924120  -17.387290    0.009970
  C      1.211010  -19.275340   -1.851220
  H     13.376030   -6.451260   10.664110
  H     11.693800   -7.176650   10.505530
  H     14.442910   -5.330090    8.501950
  H     13.865320   -4.881140    6.033620
  H     12.887620   -4.742280    3.907030
  H     11.344180   -4.923300    1.856380
  H      9.103640   -5.879640    1.133710
  H      7.141210   -6.881920    0.285910
  H      2.976090   -9.758480    2.530310
  H      3.489540   -9.244410   -1.393320
  H      1.886310  -10.943610   -2.480120
  H      0.344680  -12.908570   -1.848520
  H     -0.472570  -14.860570   -0.662090
  H     -0.898660  -16.656280    1.135380
  H     -0.767090  -17.052930    3.525920
  H     -0.138050  -14.580360    6.859640
  H      3.677640  -11.361090    5.777520
  H      4.403760  -11.829010    3.307620
  H      4.921410  -12.149620    0.814530
  H      4.427150  -13.744790   -1.146300
  H      3.627020  -15.428510   -2.546160
  H      2.591890  -17.547780   -3.577180
  H      1.187270  -19.684350   -2.845850
  H      0.721560  -19.832050   -1.073490

 Total Charge           Charge          ....    0
 Multiplicity           Mult            ....    1
 Number of Electrons    NEL             ....  440
 Basis Dimension        Dim             ....  888

ORBITAL ENERGIES
----------------

  NO   OCC          E(Eh)            E(eV)
   0   2.0000     -88.961758     -2420.7725
   1   2.0000     -88.961125     -2420.7553
   2   2.0000     -88.950123     -2420.4559
   3   2.0000     -88.943185     -2420.2671
   4   2.0000     -88.942688     -2420.2536
   5   2.0000     -88.941659     -2420.2256
   6   2.0000     -88.938916     -2420.1509
   7   2.0000     -88.936073     -2420.0736
   8   2.0000     -88.860714     -2418.0230
   9   2.0000     -88.854876     -2417.8641
  10   2.0000     -19.300803      -525.2015
  11   2.0000     -19.292588      -524.9780
  12   2.0000     -10.375888      -282.3423
  13   2.0000     -10.366305      -282.0815
  14   2.0000     -10.353438      -281.7314
  15   2.0000     -10.345582      -281.5176
  16   2.0000     -10.316193      -280.7179
  17   2.0000     -10.314400      -280.6691
  18   2.0000     -10.313636      -280.6483
  19   2.0000     -10.312593      -280.6199
  20   2.0000     -10.311766      -280.5974
  21   2.0000     -10.311684      -280.5952
  22   2.0000     -10.309573      -280.5377
  23   2.0000     -10.309276      -280.5297
  24   2.0000     -10.309154      -280.5263
  25   2.0000     -10.308472      -280.5078
  26   2.0000     -10.307873      -280.4915
  27   2.0000     -10.304673      -280.4044
  28   2.0000     -10.303948      -280.3847
  29   2.0000     -10.302542      -280.3464
  30   2.0000     -10.293271      -280.0942
  31   2.0000     -10.293037      -280.0878
  32   2.0000     -10.292598      -280.0758
  33   2.0000     -10.290691      -280.0239
  34   2.0000     -10.289168      -279.9825
  35   2.0000     -10.288969      -279.9771
  36   2.0000     -10.288704      -279.9699
  37   2.0000     -10.288291      -279.9586
  38   2.0000     -10.285963      -279.8953
  39   2.0000     -10.285719      -279.8886
  40   2.0000     -10.284633      -279.8591
  41   2.0000     -10.284389      -279.8524
  42   2.0000     -10.284161      -279.8462
  43   2.0000     -10.284060      -279.8435
  44   2.0000     -10.283829      -279.8372
  45   2.0000     -10.277264      -279.6586
  46   2.0000     -10.274522      -279.5840
  47   2.0000     -10.274254      -279.5767
  48   2.0000     -10.272991      -279.5423
  49   2.0000     -10.265277      -279.3324
  50   2.0000     -10.263515      -279.2844
  51   2.0000     -10.258642      -279.1518
  52   2.0000      -8.058546      -219.2842
  53   2.0000      -8.053337      -219.1424
  54   2.0000      -8.045422      -218.9271
  55   2.0000      -8.038975      -218.7516
  56   2.0000      -8.037982      -218.7246
  57   2.0000      -8.037874      -218.7217
  58   2.0000      -8.035601      -218.6598
  59   2.0000      -8.029959      -218.5063
  60   2.0000      -7.958142      -216.5521
  61   2.0000      -7.951023      -216.3583
  62   2.0000      -6.028370      -164.0403
  63   2.0000      -6.024169      -163.9260
  64   2.0000      -6.023229      -163.9004
  65   2.0000      -6.019262      -163.7925
  66   2.0000      -6.018497      -163.7716
  67   2.0000      -6.015231      -163.6828
  68   2.0000      -6.015008      -163.6767
  69   2.0000      -6.011113      -163.5707
  70   2.0000      -6.008803      -163.5079
  71   2.0000      -6.007829      -163.4813
  72   2.0000      -6.007780      -163.4800
  73   2.0000      -6.006379      -163.4419
  74   2.0000      -6.005403      -163.4153
  75   2.0000      -6.004654      -163.3949
  76   2.0000      -6.003927      -163.3752
  77   2.0000      -6.003618      -163.3667
  78   2.0000      -6.001434      -163.3073
  79   2.0000      -5.999908      -163.2658
  80   2.0000      -5.999795      -163.2627
  81   2.0000      -5.998634      -163.2311
  82   2.0000      -5.998485      -163.2271
  83   2.0000      -5.996182      -163.1644
  84   2.0000      -5.995361      -163.1421
  85   2.0000      -5.991124      -163.0268
  86   2.0000      -5.926955      -161.2806
  87   2.0000      -5.923807      -161.1950
  88   2.0000      -5.920403      -161.1024
  89   2.0000      -5.919887      -161.0883
  90   2.0000      -5.918883      -161.0610
  91   2.0000      -5.910474      -160.8322
  92   2.0000      -1.220655       -33.2157
  93   2.0000      -1.211607       -32.9695
  94   2.0000      -0.999248       -27.1909
  95   2.0000      -0.993109       -27.0239
  96   2.0000      -0.989087       -26.9144
  97   2.0000      -0.975662       -26.5491
  98   2.0000      -0.971761       -26.4429
  99   2.0000      -0.967279       -26.3210
 100   2.0000      -0.936042       -25.4710
 101   2.0000      -0.935723       -25.4623
 102   2.0000      -0.928627       -25.2692
 103   2.0000      -0.919162       -25.0117
 104   2.0000      -0.904588       -24.6151
 105   2.0000      -0.898228       -24.4420
 106   2.0000      -0.880203       -23.9515
 107   2.0000      -0.875326       -23.8188
 108   2.0000      -0.866000       -23.5651
 109   2.0000      -0.849770       -23.1234
 110   2.0000      -0.846879       -23.0447
 111   2.0000      -0.845838       -23.0164
 112   2.0000      -0.843839       -22.9620
 113   2.0000      -0.836648       -22.7663
 114   2.0000      -0.826971       -22.5030
 115   2.0000      -0.820354       -22.3230
 116   2.0000      -0.818892       -22.2832
 117   2.0000      -0.813737       -22.1429
 118   2.0000      -0.798786       -21.7361
 119   2.0000      -0.786015       -21.3886
 120   2.0000      -0.772549       -21.0221
 121   2.0000      -0.765808       -20.8387
 122   2.0000      -0.759307       -20.6618
 123   2.0000      -0.734055       -19.9746
 124   2.0000      -0.729629       -19.8542
 125   2.0000      -0.721092       -19.6219
 126   2.0000      -0.715644       -19.4737
 127   2.0000      -0.709232       -19.2992
 128   2.0000      -0.688403       -18.7324
 129   2.0000      -0.682281       -18.5658
 130   2.0000      -0.679352       -18.4861
 131   2.0000      -0.666907       -18.1475
 132   2.0000      -0.660303       -17.9677
 133   2.0000      -0.647867       -17.6294
 134   2.0000      -0.642861       -17.4931
 135   2.0000      -0.640228       -17.4215
 136   2.0000      -0.632307       -17.2060
 137   2.0000      -0.628076       -17.0908
 138   2.0000      -0.624299       -16.9880
 139   2.0000      -0.616990       -16.7892
 140   2.0000      -0.615796       -16.7567
 141   2.0000      -0.608826       -16.5670
 142   2.0000      -0.607390       -16.5279
 143   2.0000      -0.601941       -16.3796
 144   2.0000      -0.600581       -16.3426
 145   2.0000      -0.597933       -16.2706
 146   2.0000      -0.582864       -15.8605
 147   2.0000      -0.574380       -15.6297
 148   2.0000      -0.570228       -15.5167
 149   2.0000      -0.567966       -15.4551
 150   2.0000      -0.560917       -15.2633
 151   2.0000      -0.559271       -15.2185
 152   2.0000      -0.553997       -15.0750
 153   2.0000      -0.540831       -14.7168
 154   2.0000      -0.537926       -14.6377
 155   2.0000      -0.535878       -14.5820
 156   2.0000      -0.526064       -14.3149
 157   2.0000      -0.521590       -14.1932
 158   2.0000      -0.517281       -14.0759
 159   2.0000      -0.515060       -14.0155
 160   2.0000      -0.512781       -13.9535
 161   2.0000      -0.511594       -13.9212
 162   2.0000      -0.510822       -13.9002
 163   2.0000      -0.502123       -13.6635
 164   2.0000      -0.495863       -13.4931
 165   2.0000      -0.494270       -13.4498
 166   2.0000      -0.493268       -13.4225
 167   2.0000      -0.491596       -13.3770
 168   2.0000      -0.490848       -13.3567
 169   2.0000      -0.486875       -13.2486
 170   2.0000      -0.485096       -13.2001
 171   2.0000      -0.483524       -13.1574
 172   2.0000      -0.481723       -13.1083
 173   2.0000      -0.474441       -12.9102
 174   2.0000      -0.472545       -12.8586
 175   2.0000      -0.470682       -12.8079
 176   2.0000      -0.463388       -12.6094
 177   2.0000      -0.462087       -12.5740
 178   2.0000      -0.461114       -12.5475
 179   2.0000      -0.457298       -12.4437
 180   2.0000      -0.454672       -12.3722
 181   2.0000      -0.449490       -12.2313
 182   2.0000      -0.439137       -11.9495
 183   2.0000      -0.434827       -11.8322
 184   2.0000      -0.431874       -11.7519
 185   2.0000      -0.429926       -11.6989
 186   2.0000      -0.429731       -11.6936
 187   2.0000      -0.427952       -11.6452
 188   2.0000      -0.425359       -11.5746
 189   2.0000      -0.422384       -11.4936
 190   2.0000      -0.419934       -11.4270
 191   2.0000      -0.418440       -11.3863
 192   2.0000      -0.408060       -11.1039
 193   2.0000      -0.405600       -11.0369
 194   2.0000      -0.401178       -10.9166
 195   2.0000      -0.398730       -10.8500
 196   2.0000      -0.397052       -10.8043
 197   2.0000      -0.393749       -10.7145
 198   2.0000      -0.392502       -10.6805
 199   2.0000      -0.386835       -10.5263
 200   2.0000      -0.384524       -10.4634
 201   2.0000      -0.373715       -10.1693
 202   2.0000      -0.362358        -9.8603
 203   2.0000      -0.345954        -9.4139
 204   2.0000      -0.340967        -9.2782
 205   2.0000      -0.336151        -9.1471
 206   2.0000      -0.334315        -9.0972
 207   2.0000      -0.332390        -9.0448
 208   2.0000      -0.321724        -8.7546
 209   2.0000      -0.315128        -8.5751
 210   2.0000      -0.308764        -8.4019
 211   2.0000      -0.297563        -8.0971
 212   2.0000      -0.288082        -7.8391
 213   2.0000      -0.263841        -7.1795
 214   2.0000      -0.258061        -7.0222
 215   2.0000      -0.250977        -6.8294
 216   2.0000      -0.248285        -6.7562
 217   2.0000      -0.227834        -6.1997
 218   2.0000      -0.217860        -5.9283
 219   2.0000      -0.214042        -5.8244
 220   0.0000      -0.083592        -2.2747
 221   0.0000      -0.071985        -1.9588
 222   0.0000      -0.067241        -1.8297
 223   0.0000      -0.027206        -0.7403
 224   0.0000      -0.007428        -0.2021

MULLIKEN ATOMIC CHARGES
-----------------------
   0 C :   -0.023248
   1 C :   -0.069183
   2 C :    0.059984
   3 C :    0.030116
   4 C :   -0.065705
   5 S :    0.099245
   6 C :   -0.050806
   7 C :    0.038018
   8 C :    0.028685
   9 C :    0.010248
  10 S :    0.128270
  11 C :   -0.034416
  12 C :   -0.026776
  13 S :   -0.235035
  14 C :   -0.053820
  15 C :    0.128587
  16 S :    0.137321
  17 C :   -0.167495
  18 C :    0.199169
  19 O :   -0.202765
  20 C :   -0.021402
  21 C :   -0.023945
  22 C :    0.034442
  23 C :    0.042104
  24 C :   -0.050103
  25 S :    0.061174
  26 C :   -0.046468
  27 C :    0.036795
  28 C :    0.060315
  29 C :   -0.019111
  30 S :    0.101198
  31 C :    0.041878
  32 C :   -0.096088
  33 S :   -0.204335
  34 C :    0.018087
  35 C :    0.074632
  36 S :    0.108206
  37 C :   -0.113305
  38 C :    0.214804
  39 O :   -0.213865
  40 C :   -0.055364
  41 C :   -0.006867
  42 C :    0.050375
  43 C :    0.035873
  44 C :   -0.054282
  45 S :    0.109500
  46 C :   -0.073027
  47 C :    0.028089
  48 C :    0.050195
  49 C :   -0.065956
  50 S :    0.083326
  51 C :   -0.031886
  52 H :    0.023207
  53 H :    0.026707
  54 H :   -0.008873
  55 H :   -0.009131
  56 H :   -0.018614
  57 H :   -0.016042
  58 H :   -0.027372
  59 H :   -0.015858
  60 H :    0.048662
  61 H :   -0.006139
  62 H :   -0.013949
  63 H :   -0.010023
  64 H :   -0.010908
  65 H :   -0.006534
  66 H :   -0.000351
  67 H :    0.008140
  68 H :    0.040736
  69 H :   -0.004541
  70 H :   -0.007581
  71 H :   -0.017788
  72 H :   -0.012383
  73 H :   -0.011226
  74 H :    0.021169
  75 H :    0.023309
Sum of atomic charges:   -0.0000000

LOEWDIN ATOMIC CHARGES
----------------------
   0 C :   -0.064779
   1 C :   -0.141540
   2 C :   -0.021773
   3 C :   -0.027290
   4 C :   -0.157628
   5 S :    0.366415
   6 C :   -0.199802
   7 C :   -0.023042
   8 C :   -0.040486
   9 C :   -0.116990
  10 S :    0.405356
  11 C :   -0.102720
  12 C :   -0.137670
  13 S :   -0.049388
  14 C :   -0.150259
  15 C :   -0.050306
  16 S :    0.421960
  17 C :   -0.246153
  18 C :    0.013611
  19 O :   -0.017502
  20 C :   -0.089102
  21 C :   -0.130890
  22 C :   -0.037485
  23 C :   -0.026843
  24 C :   -0.183365
  25 S :    0.400743
  26 C :   -0.166688
  27 C :   -0.033759
  28 C :   -0.020286
  29 C :   -0.139075
  30 S :    0.399100
  31 C :   -0.066761
  32 C :   -0.130659
  33 S :   -0.033323
  34 C :   -0.153558
  35 C :   -0.059004
  36 S :    0.402201
  37 C :   -0.207564
  38 C :    0.020721
  39 O :   -0.026118
  40 C :   -0.088402
  41 C :   -0.136107
  42 C :   -0.030217
  43 C :   -0.025438
  44 C :   -0.181826
  45 S :    0.401804
  46 C :   -0.178106
  47 C :   -0.028478
  48 C :   -0.032887
  49 C :   -0.141951
  50 S :    0.368445
  51 C :   -0.076404
  52 H :    0.030047
  53 H :    0.028541
  54 H :    0.034572
  55 H :    0.033156
  56 H :    0.028494
  57 H :    0.031399
  58 H :    0.028044
  59 H :    0.032672
  60 H :    0.012821
  61 H :    0.039812
  62 H :    0.032533
  63 H :    0.033498
  64 H :    0.032199
  65 H :    0.031375
  66 H :    0.037580
  67 H :    0.039489
  68 H :    0.035971
  69 H :    0.041247
  70 H :    0.035346
  71 H :    0.030575
  72 H :    0.032132
  73 H :    0.033622
  74 H :    0.029262
  75 H :    0.026882

  Mayer bond orders larger than 0.100000
B(  0-C ,  1-C ) :   1.8667 B(  0-C , 52-H ) :   0.9513 B(  0-C , 53-H ) :   0.9415
B(  1-C ,  2-C ) :   1.0752 B(  1-C ,  5-S ) :   1.0053 B(  2-C ,  3-C ) :   1.6685
B(  2-C , 54-H ) :   0.9927 B(  3-C ,  4-C ) :   1.1429 B(  3-C , 55-H ) :   0.9916
B(  4-C ,  5-S ) :   1.0600 B(  4-C ,  6-C ) :   1.5680 B(  6-C ,  7-C ) :   1.1635
B(  6-C , 10-S ) :   0.9780 B(  7-C ,  8-C ) :   1.6073 B(  7-C , 56-H ) :   0.9920
B(  8-C ,  9-C ) :   1.1296 B(  8-C , 57-H ) :   0.9997 B(  9-C , 10-S ) :   1.0967
B(  9-C , 11-C ) :   1.5240 B( 10-S , 13-S ) :   0.1282 B( 11-C , 12-C ) :   1.1996
B( 11-C , 58-H ) :   0.9743 B( 12-C , 13-S ) :   1.4350 B( 12-C , 14-C ) :   1.2058
B( 13-S , 16-S ) :   0.2143 B( 14-C , 15-C ) :   1.5239 B( 14-C , 59-H ) :   0.9761
B( 15-C , 16-S ) :   1.1143 B( 15-C , 19-O ) :   1.1471 B( 16-S , 17-C ) :   0.9561
B( 17-C , 18-C ) :   1.6426 B( 17-C , 60-H ) :   0.9409 B( 18-C , 19-O ) :   1.0384
B( 18-C , 20-C ) :   1.1371 B( 20-C , 21-C ) :   1.5863 B( 20-C , 61-H ) :   0.9646
B( 21-C , 22-C ) :   1.1268 B( 21-C , 25-S ) :   1.0567 B( 22-C , 23-C ) :   1.6043
B( 22-C , 62-H ) :   0.9998 B( 23-C , 24-C ) :   1.1756 B( 23-C , 63-H ) :   0.9932
B( 24-C , 25-S ) :   1.0368 B( 24-C , 26-C ) :   1.5183 B( 26-C , 27-C ) :   1.1611
B( 26-C , 30-S ) :   1.0639 B( 27-C , 28-C ) :   1.6146 B( 27-C , 64-H ) :   0.9924
B( 28-C , 29-C ) :   1.1180 B( 28-C , 65-H ) :   0.9964 B( 29-C , 30-S ) :   1.0318
B( 29-C , 31-C ) :   1.5951 B( 31-C , 32-C ) :   1.1597 B( 31-C , 66-H ) :   0.9409
B( 32-C , 33-S ) :   1.4894 B( 32-C , 34-C ) :   1.1741 B( 34-C , 35-C ) :   1.6230
B( 34-C , 67-H ) :   0.9086 B( 35-C , 36-S ) :   1.0746 B( 35-C , 39-O ) :   1.1154
B( 36-S , 37-C ) :   1.0467 B( 37-C , 38-C ) :   1.6091 B( 37-C , 68-H ) :   0.9679
B( 38-C , 39-O ) :   1.0386 B( 38-C , 40-C ) :   1.1594 B( 40-C , 41-C ) :   1.5941
B( 40-C , 69-H ) :   0.9601 B( 41-C , 42-C ) :   1.1163 B( 41-C , 45-S ) :   1.0475
B( 42-C , 43-C ) :   1.6219 B( 42-C , 70-H ) :   1.0000 B( 43-C , 44-C ) :   1.1563
B( 43-C , 71-H ) :   0.9931 B( 44-C , 45-S ) :   1.0288 B( 44-C , 46-C ) :   1.5633
B( 46-C , 47-C ) :   1.1465 B( 46-C , 50-S ) :   1.0470 B( 47-C , 48-C ) :   1.6610
B( 47-C , 72-H ) :   0.9924 B( 48-C , 49-C ) :   1.0751 B( 48-C , 73-H ) :   0.9937
B( 49-C , 50-S ) :   1.0082 B( 49-C , 51-C ) :   1.8646 B( 51-C , 74-H ) :   0.9507
B( 51-C , 75-H ) :   0.9425

-----------------------------------------------------------------------------
         ABSORPTION SPECTRUM VIA TRANSITION ELECTRIC DIPOLE MOMENTS
-----------------------------------------------------------------------------
State   Energy  Wavelength   fosc         T2         TX        TY        TZ
        (cm-1)    (nm)                  (au**2)     (au)      (au)      (au)
-----------------------------------------------------------------------------
   0   12395.4    806.7   0.013393851   0.35573   0.25270  -0.52373  -0.13258
   1   14886.8    671.7   0.859157727  18.99971  -3.08621  -3.07738  -0.06897
   2   15734.5    635.5   0.020967452   0.43870  -0.54742  -0.36965   0.04889
   3   16181.6    618.0   0.292799705   5.95697   1.85426   1.30279   0.90634
   4   16947.9    590.0   0.017662731   0.34310   0.31240   0.45936  -0.18573
   5   18706.0    534.6   0.307427696   5.41050  -1.49129   1.73532  -0.41859
   6   18845.4    530.6   1.386449813  24.21997   1.30283   0.78109   4.68108
   7   20676.4    483.6   0.147205513   2.34382  -0.19575  -0.90790   1.21705
   8   21776.5    459.2   0.177668118   2.68594  -0.53531  -0.73428  -1.36390
   9   21981.2    454.9   0.015175014   0.22728   0.33190   0.18699  -0.28663
  10   22497.9    444.5   0.010567193   0.15463  -0.36039   0.09952  -0.12184
  11   23578.8    424.1   0.029838107   0.41661   0.14503   0.56079   0.28476
  12   23709.5    421.8   0.003760664   0.05222  -0.15552  -0.04058  -0.16244
  13   24789.6    403.4   0.097309036   1.29229   0.63263   0.86678   0.37520
  14   25188.8    397.0   0.056073014   0.73286   0.38711   0.42805  -0.63228
  15   25751.0    388.3   0.053398201   0.68267  -0.48748  -0.33033  -0.57958
  16   25967.9    385.1   0.268787745   3.40760   0.92653   1.55398   0.36645
  17   26913.0    371.6   0.037348080   0.45686   0.18596   0.06615   0.64645
  18   27297.1    366.3   0.063445337   0.76517  -0.45681  -0.74389   0.05586
  19   27323.4    366.0   0.002099446   0.02530  -0.07262  -0.13982  -0.02172
  20   27863.0    358.9   0.057619707   0.68080   0.42704   0.49802   0.50041
  21   28980.2    345.1   0.025006463   0.28407   0.28284   0.44550   0.07486
  22   29434.3    339.7   0.065048673   0.72755  -0.56809  -0.59932  -0.21361
  23   29687.0    336.8   0.034569785   0.38336  -0.23969  -0.01630  -0.57065
  24   30517.2    327.7   0.105728601   1.14057   0.72060   0.75646   0.22153
  25   30706.9    325.7   0.013800278   0.14795  -0.15717  -0.21050   0.28097
  26   31215.4    320.4   0.087406950   0.92183   0.58225   0.72936   0.22551
  27   31432.9    318.1   0.012923453   0.13535  -0.28590  -0.22934   0.03190
  28   31527.9    317.2   0.172852461   1.80491   0.91196   0.78698   0.59490
  29   32093.1    311.6   0.013238067   0.13580  -0.26849  -0.19545  -0.15971
  30   32134.0    311.2   0.049056679   0.50258  -0.42703  -0.44015   0.35566
  31   32322.3    309.4   0.170733776   1.73897  -0.28916  -0.35853   1.23565
  32   32656.5    306.2   0.015436708   0.15562  -0.25617  -0.29864  -0.02848
  33   32979.3    303.2   0.023271287   0.23230  -0.24064  -0.34747  -0.23164
  34   33498.6    298.5   0.125500814   1.23338  -0.83530  -0.51938   0.51564
  35   33727.1    296.5   0.093026821   0.90804   0.49199   0.80958  -0.10277
  36   34212.5    292.3   0.115312094   1.10960   0.81845   0.59495   0.29285
  37   34431.6    290.4   0.069642539   0.66588  -0.52209  -0.62377   0.06494
  38   34797.2    287.4   0.034901327   0.33020  -0.13264  -0.41148   0.37853
  39   35007.0    285.7   0.027904751   0.26242   0.29113  -0.05189   0.41830
  40   35129.0    284.7   0.102262172   0.95835   0.21701   0.41479  -0.85977
  41   35591.9    281.0   0.006532032   0.06042  -0.16229  -0.18340   0.02115
  42   35657.7    280.4   0.002477672   0.02288  -0.02670  -0.10187   0.10856
  43   35839.2    279.0   0.005164431   0.04744  -0.04521   0.06228  -0.20376
  44   35955.0    278.1   0.008238770   0.07544  -0.20004  -0.02050  -0.18708
  45   36144.7    276.7   0.118186150   1.07646  -0.52659  -0.00554  -0.89394
  46   37534.0    266.4   0.006681273   0.05860  -0.10278  -0.18652  -0.11510
  47   37699.9    265.3   0.102425964   0.89443   0.12608  -0.17473  -0.92087
  48   38016.5    263.0   0.007605126   0.06586   0.16171   0.03191   0.19670
  49   38058.0    262.8   0.069061240   0.59740   0.44040   0.47803   0.41825
  50   38136.1    262.2   0.015093702   0.13030   0.12802   0.27513   0.19548
  51   38198.2    261.8   0.072501704   0.62486  -0.34228  -0.21705  -0.67867
  52   38500.1    259.7   0.176620180   1.51027   0.20449  -0.26267   1.18299
  53   38931.8    256.9   0.014988350   0.12674   0.05722   0.24066   0.25603
  54   38995.2    256.4   0.006282981   0.05304   0.03371  -0.14495  -0.17577
  55   39106.4    255.7   0.006671865   0.05617   0.03434   0.15564   0.17539
  56   39462.3    253.4   0.065729188   0.54834  -0.07881   0.44634   0.58559
  57   39666.8    252.1   0.023639771   0.19620   0.38088   0.22459  -0.02624
  58   39970.3    250.2   0.049035434   0.40388   0.22048   0.16672  -0.57225
  59   40145.6    249.1   0.146942695   1.20500  -0.48476  -0.23153  -0.95729
  60   40288.5    248.2   0.058984023   0.48198   0.17144  -0.23675   0.62971

FINAL SINGLE POINT ENERGY     -5667.465603219453

DIPOLE MOMENT
-------------
                                X             Y             Z
Electronic contribution:    -16.12864       1.00028      16.38594
Nuclear contribution   :     18.48394       0.13668     -19.23354
                        -----------------------------------------
Total Dipole Moment    :      2.35530       1.13696      -2.84759
                        -----------------------------------------
Magnitude (a.u.)       :      3.86638
Magnitude (Debye)      :      9.82756

Rotational constants in cm-1:     0.002247     0.000532     0.000483
Rotational constants in MHz :    67.375407    15.945758    14.474099

                             ****ORCA TERMINATED NORMALLY****
TOTAL RUN TIME: 0 days 0 hours 6 minutes 53 seconds 100 msec
