                         Program Version 4.2.0 -  RELEASE  -
|  1> # ORCA input file
|  2> # SCF done       -157.847912635813          0.000820800075
|  3> ! CAM-B3LYP def2-SVP def2/J RIJCOSX Grid4 TightSCF
|  4> %maxcore 5000
|  5> %tddft
|  6>     Mode sTDDFT
|  7>     Ethresh 5.0
|  8>     maxcore 5000
|  9> end
| 10>
| 11> %pal
| 12>   nprocs 6
| 13>   end
| 14> * xyz 0 1
| 15>    C        1.45110         2.96271        -0.19636
| 16>    C        2.50059         2.18755         0.10857
| 17>    C        3.80493         2.60478         0.53709
| 18>    C        4.66646         1.59245         0.77904
| 19>    C        4.12771         0.29414         0.56339
| 20>    S        2.45519         0.41885         0.03083
| 21>    C        4.75846        -0.91097         0.73212
| 22>    C        6.09420        -1.14363         1.15418
| 23>    C        6.43014        -2.45386         1.22979
| 24>    C        5.39196        -3.36317         0.87345
| 25>    S        3.95037        -2.44011         0.43102
| 26>    C        5.48346        -4.71815         0.96221
| 27>    C        4.52421        -5.72143         0.63841
| 28>    C        4.41213        -6.95491         1.28639
| 29>    C        5.23452        -7.42888         2.43248
| 30>    C        3.34380        -7.72871         0.72882
| 31>    C        2.80999        -6.96781        -0.29733
| 32>    C        3.53167        -5.70207        -0.39544
| 33>    C        3.23169        -4.87304        -1.44003
| 34>    C        2.17333        -5.24192        -2.30156
| 35>    C        1.51064        -6.41453        -2.10176
| 36>    O        1.81527        -7.28105        -1.14403
| 37>    C        2.94130        -9.02778         1.19109
| 38>    C        2.03657        -9.82173         0.59265
| 39>    C        1.63855       -11.11579         1.08208
| 40>    C        1.22714       -12.20072         0.32119
| 41>    C        1.11517       -12.24275        -1.16262
| 42>    C        0.94595       -13.33773         1.16086
| 43>    C        1.17123       -12.92304         2.45779
| 44>    C        1.60019       -11.52372         2.45265
| 45>    C        1.78305       -10.90061         3.65436
| 46>    C        1.61321       -11.66307         4.83381
| 47>    C        1.25452       -12.97418         4.74964
| 48>    O        1.02121       -13.60802         3.60761
| 49>    C        0.54235       -14.63233         0.68927
| 50>    C        0.25801       -15.68137         1.48098
| 51>    C       -0.11104       -16.99774         1.03023
| 52>    C       -0.88006       -17.91804         1.73022
| 53>    C       -1.49302       -17.67777         3.06309
| 54>    C       -1.02301       -19.14012         0.96863
| 55>    C       -0.31125       -18.93930        -0.20549
| 56>    C        0.28251       -17.60951        -0.20414
| 57>    C        1.09116       -17.26849        -1.25308
| 58>    C        1.24966       -18.20456        -2.30189
| 59>    C        0.62439       -19.41341        -2.23889
| 60>    O       -0.13417       -19.80084        -1.22053
| 61>    C       -1.71195       -20.35342         1.24695
| 62>    C       -2.49428       -20.66182         2.31511
| 63>    C       -3.12928       -21.90840         2.47171
| 64>    C       -3.94130       -22.22490         3.52688
| 65>    C       -4.62075       -23.44761         3.75822
| 66>    C       -5.36944       -23.47278         4.89175
| 67>    C       -5.33454       -22.26608         5.63527
| 68>    S       -4.30138       -21.09777         4.83505
| 69>    C       -5.98818       -21.97634         6.80757
| 70>    C       -6.85101       -22.82305         7.55413
| 71>    C       -7.36431       -22.25788         8.67017
| 72>    C       -6.94415       -20.90562         8.89909
| 73>    S       -5.85019       -20.41177         7.59763
| 74>    C       -7.29235       -20.09625         9.90924
| 75>    H        1.52569         4.03412        -0.13578
| 76>    H        0.51193         2.54696        -0.51204
| 77>    H        4.03676         3.64973         0.64552
| 78>    H        5.68190         1.72720         1.10872
| 79>    H        6.75910        -0.33270         1.39259
| 80>    H        7.39753        -2.81555         1.53378
| 81>    H        6.40813        -5.08138         1.39678
| 82>    H        6.05694        -6.75112         2.64079
| 83>    H        5.63854        -8.41952         2.22412
| 84>    H        4.61970        -7.50067         3.33077
| 85>    H        3.77048        -3.95905        -1.62417
| 86>    H        1.88599        -4.59877        -3.11528
| 87>    H        0.68910        -6.75097        -2.71725
| 88>    H        3.44533        -9.38148         2.07829
| 89>    H        1.58840        -9.50040        -0.33696
| 90>    H        1.29195       -11.26253        -1.59535
| 91>    H        0.12460       -12.58652        -1.46048
| 92>    H        1.84919       -12.93510        -1.57710
| 93>    H        2.03583        -9.85471         3.72682
| 94>    H        1.76320       -11.21464         5.80103
| 95>    H        1.11539       -13.61110         5.61097
| 96>    H        0.44946       -14.73045        -0.38210
| 97>    H        0.28962       -15.54146         2.55168
| 98>    H       -1.21125       -16.70195         3.44808
| 99>    H       -1.17611       -18.44052         3.77379
|100>    H       -2.58016       -17.71136         2.99133
|101>    H        1.61361       -16.32666        -1.29691
|102>    H        1.86452       -17.97000        -3.15405
|103>    H        0.70135       -20.16739        -3.00825
|104>    H       -1.58649       -21.11351         0.48301
|105>    H       -2.67158       -19.94235         3.09813
|106>    H       -2.97527       -22.66716         1.71461
|107>    H       -4.53117       -24.27090         3.07066
|108>    H       -5.94851       -24.31904         5.21615
|109>    H       -7.06133       -23.82846         7.23346
|110>    H       -8.03504       -22.74641         9.35489
|111>    H       -7.96509       -20.43524        10.67711
|112>    H       -6.92104       -19.09074         9.98184
|113> *
|114>
|115>                          ****END OF INPUT****

CARTESIAN COORDINATES (ANGSTROEM)
---------------------------------
  C      1.451100    2.962710   -0.196360
  C      2.500590    2.187550    0.108570
  C      3.804930    2.604780    0.537090
  C      4.666460    1.592450    0.779040
  C      4.127710    0.294140    0.563390
  S      2.455190    0.418850    0.030830
  C      4.758460   -0.910970    0.732120
  C      6.094200   -1.143630    1.154180
  C      6.430140   -2.453860    1.229790
  C      5.391960   -3.363170    0.873450
  S      3.950370   -2.440110    0.431020
  C      5.483460   -4.718150    0.962210
  C      4.524210   -5.721430    0.638410
  C      4.412130   -6.954910    1.286390
  C      5.234520   -7.428880    2.432480
  C      3.343800   -7.728710    0.728820
  C      2.809990   -6.967810   -0.297330
  C      3.531670   -5.702070   -0.395440
  C      3.231690   -4.873040   -1.440030
  C      2.173330   -5.241920   -2.301560
  C      1.510640   -6.414530   -2.101760
  O      1.815270   -7.281050   -1.144030
  C      2.941300   -9.027780    1.191090
  C      2.036570   -9.821730    0.592650
  C      1.638550  -11.115790    1.082080
  C      1.227140  -12.200720    0.321190
  C      1.115170  -12.242750   -1.162620
  C      0.945950  -13.337730    1.160860
  C      1.171230  -12.923040    2.457790
  C      1.600190  -11.523720    2.452650
  C      1.783050  -10.900610    3.654360
  C      1.613210  -11.663070    4.833810
  C      1.254520  -12.974180    4.749640
  O      1.021210  -13.608020    3.607610
  C      0.542350  -14.632330    0.689270
  C      0.258010  -15.681370    1.480980
  C     -0.111040  -16.997740    1.030230
  C     -0.880060  -17.918040    1.730220
  C     -1.493020  -17.677770    3.063090
  C     -1.023010  -19.140120    0.968630
  C     -0.311250  -18.939300   -0.205490
  C      0.282510  -17.609510   -0.204140
  C      1.091160  -17.268490   -1.253080
  C      1.249660  -18.204560   -2.301890
  C      0.624390  -19.413410   -2.238890
  O     -0.134170  -19.800840   -1.220530
  C     -1.711950  -20.353420    1.246950
  C     -2.494280  -20.661820    2.315110
  C     -3.129280  -21.908400    2.471710
  C     -3.941300  -22.224900    3.526880
  C     -4.620750  -23.447610    3.758220
  C     -5.369440  -23.472780    4.891750
  C     -5.334540  -22.266080    5.635270
  S     -4.301380  -21.097770    4.835050
  C     -5.988180  -21.976340    6.807570
  C     -6.851010  -22.823050    7.554130
  C     -7.364310  -22.257880    8.670170
  C     -6.944150  -20.905620    8.899090
  S     -5.850190  -20.411770    7.597630
  C     -7.292350  -20.096250    9.909240
  H      1.525690    4.034120   -0.135780
  H      0.511930    2.546960   -0.512040
  H      4.036760    3.649730    0.645520
  H      5.681900    1.727200    1.108720
  H      6.759100   -0.332700    1.392590
  H      7.397530   -2.815550    1.533780
  H      6.408130   -5.081380    1.396780
  H      6.056940   -6.751120    2.640790
  H      5.638540   -8.419520    2.224120
  H      4.619700   -7.500670    3.330770
  H      3.770480   -3.959050   -1.624170
  H      1.885990   -4.598770   -3.115280
  H      0.689100   -6.750970   -2.717250
  H      3.445330   -9.381480    2.078290
  H      1.588400   -9.500400   -0.336960
  H      1.291950  -11.262530   -1.595350
  H      0.124600  -12.586520   -1.460480
  H      1.849190  -12.935100   -1.577100
  H      2.035830   -9.854710    3.726820
  H      1.763200  -11.214640    5.801030
  H      1.115390  -13.611100    5.610970
  H      0.449460  -14.730450   -0.382100
  H      0.289620  -15.541460    2.551680
  H     -1.211250  -16.701950    3.448080
  H     -1.176110  -18.440520    3.773790
  H     -2.580160  -17.711360    2.991330
  H      1.613610  -16.326660   -1.296910
  H      1.864520  -17.970000   -3.154050
  H      0.701350  -20.167390   -3.008250
  H     -1.586490  -21.113510    0.483010
  H     -2.671580  -19.942350    3.098130
  H     -2.975270  -22.667160    1.714610
  H     -4.531170  -24.270900    3.070660
  H     -5.948510  -24.319040    5.216150
  H     -7.061330  -23.828460    7.233460
  H     -8.035040  -22.746410    9.354890
  H     -7.965090  -20.435240   10.677110
  H     -6.921040  -19.090740    9.981840

 Total Charge           Charge          ....    0
 Multiplicity           Mult            ....    1
 Number of Electrons    NEL             ....  444
 Basis Dimension        Dim             .... 1046

ORBITAL ENERGIES
----------------

  NO   OCC          E(Eh)            E(eV)
   0   2.0000     -88.926794     -2419.8211
   1   2.0000     -88.923221     -2419.7238
   2   2.0000     -88.920754     -2419.6567
   3   2.0000     -88.919265     -2419.6162
   4   2.0000     -19.310800      -525.4736
   5   2.0000     -19.309465      -525.4372
   6   2.0000     -19.302723      -525.2538
   7   2.0000     -10.353921      -281.7445
   8   2.0000     -10.351806      -281.6870
   9   2.0000     -10.347334      -281.5653
  10   2.0000     -10.327392      -281.0226
  11   2.0000     -10.325395      -280.9683
  12   2.0000     -10.316970      -280.7390
  13   2.0000     -10.297751      -280.2161
  14   2.0000     -10.293742      -280.1070
  15   2.0000     -10.293422      -280.0983
  16   2.0000     -10.291628      -280.0494
  17   2.0000     -10.291073      -280.0343
  18   2.0000     -10.290423      -280.0166
  19   2.0000     -10.288966      -279.9770
  20   2.0000     -10.288563      -279.9660
  21   2.0000     -10.287611      -279.9401
  22   2.0000     -10.285860      -279.8925
  23   2.0000     -10.285114      -279.8722
  24   2.0000     -10.283123      -279.8180
  25   2.0000     -10.282112      -279.7905
  26   2.0000     -10.278627      -279.6957
  27   2.0000     -10.276011      -279.6245
  28   2.0000     -10.275529      -279.6114
  29   2.0000     -10.274033      -279.5707
  30   2.0000     -10.272524      -279.5296
  31   2.0000     -10.270627      -279.4780
  32   2.0000     -10.270085      -279.4632
  33   2.0000     -10.269557      -279.4488
  34   2.0000     -10.268875      -279.4303
  35   2.0000     -10.268775      -279.4276
  36   2.0000     -10.268538      -279.4211
  37   2.0000     -10.267985      -279.4061
  38   2.0000     -10.266609      -279.3686
  39   2.0000     -10.265353      -279.3345
  40   2.0000     -10.264624      -279.3146
  41   2.0000     -10.262752      -279.2637
  42   2.0000     -10.261495      -279.2295
  43   2.0000     -10.260310      -279.1972
  44   2.0000     -10.259978      -279.1882
  45   2.0000     -10.255346      -279.0621
  46   2.0000     -10.251510      -278.9578
  47   2.0000     -10.251022      -278.9445
  48   2.0000     -10.250962      -278.9429
  49   2.0000     -10.250461      -278.9292
  50   2.0000     -10.250452      -278.9290
  51   2.0000     -10.250183      -278.9217
  52   2.0000     -10.248925      -278.8874
  53   2.0000     -10.248621      -278.8792
  54   2.0000     -10.248466      -278.8749
  55   2.0000     -10.248110      -278.8652
  56   2.0000     -10.245855      -278.8039
  57   2.0000     -10.244963      -278.7796
  58   2.0000     -10.243199      -278.7316
  59   2.0000     -10.240452      -278.6569
  60   2.0000      -8.022728      -218.3095
  61   2.0000      -8.019256      -218.2151
  62   2.0000      -8.017387      -218.1642
  63   2.0000      -8.015934      -218.1247
  64   2.0000      -5.992565      -163.0660
  65   2.0000      -5.989029      -162.9698
  66   2.0000      -5.988569      -162.9572
  67   2.0000      -5.987274      -162.9220
  68   2.0000      -5.985788      -162.8816
  69   2.0000      -5.985148      -162.8642
  70   2.0000      -5.983430      -162.8174
  71   2.0000      -5.983370      -162.8158
  72   2.0000      -5.981913      -162.7761
  73   2.0000      -5.980033      -162.7250
  74   2.0000      -5.977832      -162.6651
  75   2.0000      -5.976398      -162.6261
  76   2.0000      -1.219119       -33.1739
  77   2.0000      -1.217469       -33.1290
  78   2.0000      -1.210411       -32.9370
  79   2.0000      -0.974831       -26.5265
  80   2.0000      -0.972668       -26.4676
  81   2.0000      -0.965138       -26.2627
  82   2.0000      -0.964017       -26.2322
  83   2.0000      -0.958161       -26.0729
  84   2.0000      -0.949847       -25.8467
  85   2.0000      -0.949679       -25.8421
  86   2.0000      -0.916571       -24.9412
  87   2.0000      -0.914131       -24.8748
  88   2.0000      -0.909773       -24.7562
  89   2.0000      -0.885975       -24.1086
  90   2.0000      -0.875727       -23.8297
  91   2.0000      -0.868094       -23.6221
  92   2.0000      -0.859728       -23.3944
  93   2.0000      -0.856282       -23.3006
  94   2.0000      -0.855841       -23.2886
  95   2.0000      -0.849052       -23.1039
  96   2.0000      -0.844427       -22.9780
  97   2.0000      -0.834576       -22.7100
  98   2.0000      -0.827649       -22.5215
  99   2.0000      -0.826060       -22.4782
 100   2.0000      -0.823122       -22.3983
 101   2.0000      -0.804798       -21.8997
 102   2.0000      -0.800926       -21.7943
 103   2.0000      -0.796766       -21.6811
 104   2.0000      -0.793799       -21.6004
 105   2.0000      -0.790648       -21.5146
 106   2.0000      -0.788669       -21.4608
 107   2.0000      -0.784629       -21.3508
 108   2.0000      -0.769510       -20.9394
 109   2.0000      -0.759971       -20.6799
 110   2.0000      -0.754462       -20.5299
 111   2.0000      -0.732532       -19.9332
 112   2.0000      -0.726926       -19.7807
 113   2.0000      -0.719630       -19.5821
 114   2.0000      -0.715998       -19.4833
 115   2.0000      -0.693865       -18.8810
 116   2.0000      -0.692885       -18.8544
 117   2.0000      -0.688000       -18.7214
 118   2.0000      -0.680931       -18.5291
 119   2.0000      -0.669435       -18.2163
 120   2.0000      -0.661943       -18.0124
 121   2.0000      -0.653376       -17.7793
 122   2.0000      -0.644413       -17.5354
 123   2.0000      -0.640904       -17.4399
 124   2.0000      -0.636685       -17.3251
 125   2.0000      -0.631367       -17.1804
 126   2.0000      -0.620521       -16.8852
 127   2.0000      -0.618565       -16.8320
 128   2.0000      -0.617389       -16.8000
 129   2.0000      -0.603625       -16.4255
 130   2.0000      -0.602721       -16.4009
 131   2.0000      -0.598762       -16.2931
 132   2.0000      -0.595076       -16.1929
 133   2.0000      -0.594618       -16.1804
 134   2.0000      -0.590456       -16.0671
 135   2.0000      -0.588563       -16.0156
 136   2.0000      -0.582609       -15.8536
 137   2.0000      -0.580272       -15.7900
 138   2.0000      -0.572638       -15.5823
 139   2.0000      -0.569025       -15.4840
 140   2.0000      -0.563259       -15.3271
 141   2.0000      -0.562818       -15.3151
 142   2.0000      -0.561086       -15.2679
 143   2.0000      -0.555492       -15.1157
 144   2.0000      -0.553015       -15.0483
 145   2.0000      -0.551443       -15.0055
 146   2.0000      -0.543010       -14.7761
 147   2.0000      -0.534617       -14.5477
 148   2.0000      -0.534358       -14.5406
 149   2.0000      -0.530917       -14.4470
 150   2.0000      -0.527968       -14.3667
 151   2.0000      -0.524311       -14.2672
 152   2.0000      -0.513904       -13.9840
 153   2.0000      -0.510045       -13.8790
 154   2.0000      -0.507851       -13.8193
 155   2.0000      -0.507151       -13.8003
 156   2.0000      -0.504323       -13.7233
 157   2.0000      -0.498489       -13.5646
 158   2.0000      -0.494463       -13.4550
 159   2.0000      -0.492708       -13.4073
 160   2.0000      -0.492306       -13.3963
 161   2.0000      -0.491879       -13.3847
 162   2.0000      -0.490279       -13.3412
 163   2.0000      -0.486685       -13.2434
 164   2.0000      -0.486080       -13.2269
 165   2.0000      -0.482246       -13.1226
 166   2.0000      -0.477939       -13.0054
 167   2.0000      -0.477127       -12.9833
 168   2.0000      -0.476009       -12.9529
 169   2.0000      -0.475500       -12.9390
 170   2.0000      -0.470420       -12.8008
 171   2.0000      -0.467514       -12.7217
 172   2.0000      -0.465724       -12.6730
 173   2.0000      -0.464639       -12.6435
 174   2.0000      -0.457989       -12.4625
 175   2.0000      -0.454645       -12.3715
 176   2.0000      -0.450846       -12.2681
 177   2.0000      -0.446567       -12.1517
 178   2.0000      -0.444262       -12.0890
 179   2.0000      -0.442385       -12.0379
 180   2.0000      -0.440994       -12.0001
 181   2.0000      -0.436983       -11.8909
 182   2.0000      -0.436363       -11.8740
 183   2.0000      -0.435623       -11.8539
 184   2.0000      -0.433298       -11.7906
 185   2.0000      -0.431538       -11.7427
 186   2.0000      -0.428402       -11.6574
 187   2.0000      -0.426894       -11.6164
 188   2.0000      -0.424704       -11.5568
 189   2.0000      -0.414667       -11.2837
 190   2.0000      -0.411519       -11.1980
 191   2.0000      -0.409542       -11.1442
 192   2.0000      -0.406720       -11.0674
 193   2.0000      -0.406456       -11.0602
 194   2.0000      -0.406067       -11.0496
 195   2.0000      -0.401679       -10.9302
 196   2.0000      -0.398525       -10.8444
 197   2.0000      -0.397138       -10.8067
 198   2.0000      -0.395478       -10.7615
 199   2.0000      -0.389278       -10.5928
 200   2.0000      -0.386053       -10.5050
 201   2.0000      -0.380380       -10.3507
 202   2.0000      -0.379167       -10.3177
 203   2.0000      -0.376107       -10.2344
 204   2.0000      -0.374086       -10.1794
 205   2.0000      -0.359334        -9.7780
 206   2.0000      -0.350167        -9.5285
 207   2.0000      -0.338322        -9.2062
 208   2.0000      -0.322125        -8.7655
 209   2.0000      -0.320781        -8.7289
 210   2.0000      -0.319507        -8.6942
 211   2.0000      -0.311493        -8.4761
 212   2.0000      -0.302761        -8.2386
 213   2.0000      -0.296115        -8.0577
 214   2.0000      -0.283417        -7.7122
 215   2.0000      -0.282131        -7.6772
 216   2.0000      -0.267685        -7.2841
 217   2.0000      -0.258202        -7.0260
 218   2.0000      -0.235953        -6.4206
 219   2.0000      -0.212375        -5.7790
 220   2.0000      -0.195149        -5.3103
 221   2.0000      -0.188482        -5.1289
 222   0.0000      -0.049932        -1.3587
 223   0.0000      -0.043062        -1.1718
 224   0.0000      -0.033417        -0.9093
 225   0.0000      -0.031812        -0.8656
 226   0.0000      -0.027096        -0.7373

MULLIKEN ATOMIC CHARGES
-----------------------
   0 C :   -0.042295
   1 C :   -0.057161
   2 C :    0.039238
   3 C :    0.034669
   4 C :   -0.078756
   5 S :    0.058181
   6 C :   -0.052530
   7 C :    0.025484
   8 C :    0.032807
   9 C :   -0.033385
  10 S :    0.057590
  11 C :   -0.094212
  12 C :    0.058919
  13 C :   -0.152526
  14 C :    0.122122
  15 C :    0.023788
  16 C :    0.058455
  17 C :    0.036539
  18 C :    0.022064
  19 C :   -0.047428
  20 C :    0.178890
  21 O :   -0.157178
  22 C :   -0.045149
  23 C :   -0.050297
  24 C :    0.062284
  25 C :   -0.157893
  26 C :    0.123144
  27 C :    0.017146
  28 C :    0.058808
  29 C :    0.046698
  30 C :    0.003740
  31 C :   -0.046820
  32 C :    0.179398
  33 O :   -0.165531
  34 C :   -0.040892
  35 C :   -0.063961
  36 C :    0.075270
  37 C :   -0.166734
  38 C :    0.133431
  39 C :    0.002109
  40 C :    0.083278
  41 C :    0.042303
  42 C :    0.015948
  43 C :   -0.044385
  44 C :    0.171527
  45 O :   -0.155304
  46 C :   -0.010792
  47 C :   -0.024222
  48 C :   -0.005298
  49 C :   -0.029040
  50 C :    0.040061
  51 C :    0.019261
  52 C :   -0.037930
  53 S :    0.047033
  54 C :   -0.074184
  55 C :    0.031660
  56 C :    0.040023
  57 C :   -0.058724
  58 S :    0.064325
  59 C :   -0.040068
  60 H :    0.012849
  61 H :    0.013362
  62 H :   -0.018739
  63 H :   -0.018046
  64 H :   -0.022220
  65 H :   -0.019476
  66 H :   -0.017647
  67 H :    0.001248
  68 H :    0.029852
  69 H :    0.027689
  70 H :    0.004207
  71 H :    0.009949
  72 H :    0.025362
  73 H :   -0.048240
  74 H :   -0.018789
  75 H :   -0.000533
  76 H :    0.025553
  77 H :    0.019607
  78 H :   -0.009046
  79 H :    0.003923
  80 H :    0.023758
  81 H :   -0.051845
  82 H :   -0.013744
  83 H :   -0.005508
  84 H :    0.033297
  85 H :    0.039338
  86 H :   -0.008611
  87 H :    0.006650
  88 H :    0.027782
  89 H :   -0.029088
  90 H :   -0.019920
  91 H :   -0.024481
  92 H :   -0.019496
  93 H :   -0.022130
  94 H :   -0.017635
  95 H :   -0.018822
  96 H :    0.012354
  97 H :    0.013739
Sum of atomic charges:    0.0000000

LOEWDIN ATOMIC CHARGES
----------------------
   0 C :   -0.096257
   1 C :   -0.137239
   2 C :   -0.044730
   3 C :   -0.025797
   4 C :   -0.193532
   5 S :    0.332526
   6 C :   -0.175424
   7 C :   -0.049851
   8 C :   -0.028119
   9 C :   -0.168767
  10 S :    0.363992
  11 C :   -0.039964
  12 C :   -0.101199
  13 C :    0.017177
  14 C :   -0.049566
  15 C :   -0.097985
  16 C :    0.052747
  17 C :   -0.029369
  18 C :    0.031554
  19 C :   -0.083836
  20 C :    0.083453
  21 O :    0.049780
  22 C :   -0.049193
  23 C :   -0.025822
  24 C :   -0.088532
  25 C :    0.003698
  26 C :   -0.050341
  27 C :   -0.098657
  28 C :    0.044577
  29 C :   -0.017220
  30 C :    0.025570
  31 C :   -0.090779
  32 C :    0.081644
  33 O :    0.043482
  34 C :   -0.043826
  35 C :   -0.032002
  36 C :   -0.081445
  37 C :    0.009839
  38 C :   -0.049459
  39 C :   -0.102296
  40 C :    0.054714
  41 C :   -0.020406
  42 C :    0.030773
  43 C :   -0.087495
  44 C :    0.082430
  45 O :    0.045236
  46 C :   -0.005231
  47 C :   -0.062123
  48 C :   -0.045559
  49 C :   -0.159388
  50 C :   -0.032082
  51 C :   -0.044531
  52 C :   -0.174648
  53 S :    0.351903
  54 C :   -0.190454
  55 C :   -0.026306
  56 C :   -0.044275
  57 C :   -0.137610
  58 S :    0.338020
  59 C :   -0.094747
  60 H :    0.025169
  61 H :    0.022480
  62 H :    0.030059
  63 H :    0.029945
  64 H :    0.028170
  65 H :    0.030109
  66 H :    0.030657
  67 H :    0.029388
  68 H :    0.037725
  69 H :    0.039719
  70 H :    0.025387
  71 H :    0.040636
  72 H :    0.031981
  73 H :    0.018262
  74 H :    0.019157
  75 H :    0.029870
  76 H :    0.034883
  77 H :    0.035444
  78 H :    0.033889
  79 H :    0.037772
  80 H :    0.031290
  81 H :    0.016957
  82 H :    0.020286
  83 H :    0.030104
  84 H :    0.037584
  85 H :    0.040813
  86 H :    0.034746
  87 H :    0.038951
  88 H :    0.032137
  89 H :    0.026454
  90 H :    0.017147
  91 H :    0.029274
  92 H :    0.030712
  93 H :    0.028011
  94 H :    0.030074
  95 H :    0.029960
  96 H :    0.025085
  97 H :    0.022665

  Mayer bond orders larger than 0.100000
B(  0-C ,  1-C ) :   1.8636 B(  0-C , 60-H ) :   0.9502 B(  0-C , 61-H ) :   0.9410
B(  1-C ,  2-C ) :   1.0816 B(  1-C ,  5-S ) :   1.0091 B(  2-C ,  3-C ) :   1.6595
B(  2-C , 62-H ) :   0.9930 B(  3-C ,  4-C ) :   1.1547 B(  3-C , 63-H ) :   0.9903
B(  4-C ,  5-S ) :   1.0253 B(  4-C ,  6-C ) :   1.5765 B(  6-C ,  7-C ) :   1.1544
B(  6-C , 10-S ) :   1.0361 B(  7-C ,  8-C ) :   1.6248 B(  7-C , 64-H ) :   0.9916
B(  8-C ,  9-C ) :   1.1154 B(  8-C , 65-H ) :   0.9956 B(  9-C , 10-S ) :   0.9965
B(  9-C , 11-C ) :   1.6671 B( 11-C , 12-C ) :   1.0761 B( 11-C , 66-H ) :   0.9572
B( 12-C , 13-C ) :   1.4585 B( 12-C , 17-C ) :   1.1131 B( 13-C , 14-C ) :   1.1229
B( 13-C , 15-C ) :   1.2020 B( 14-C , 67-H ) :   0.9398 B( 14-C , 68-H ) :   0.9350
B( 14-C , 69-H ) :   0.9356 B( 15-C , 16-C ) :   1.4427 B( 15-C , 22-C ) :   1.0883
B( 16-C , 17-C ) :   1.0857 B( 16-C , 21-O ) :   1.1143 B( 17-C , 18-C ) :   1.5166
B( 18-C , 19-C ) :   1.2136 B( 18-C , 70-H ) :   0.9693 B( 19-C , 20-C ) :   1.5868
B( 19-C , 71-H ) :   0.9689 B( 20-C , 21-O ) :   1.1738 B( 20-C , 72-H ) :   0.9812
B( 22-C , 23-C ) :   1.7139 B( 22-C , 73-H ) :   0.9601 B( 23-C , 24-C ) :   1.0563
B( 23-C , 74-H ) :   0.9666 B( 24-C , 25-C ) :   1.5078 B( 24-C , 29-C ) :   1.1161
B( 25-C , 26-C ) :   1.1192 B( 25-C , 27-C ) :   1.1582 B( 26-C , 75-H ) :   0.9419
B( 26-C , 76-H ) :   0.9360 B( 26-C , 77-H ) :   0.9367 B( 27-C , 28-C ) :   1.4762
B( 27-C , 34-C ) :   1.0939 B( 28-C , 29-C ) :   1.0707 B( 28-C , 33-O ) :   1.0943
B( 29-C , 30-C ) :   1.5359 B( 30-C , 31-C ) :   1.1913 B( 30-C , 78-H ) :   0.9798
B( 31-C , 32-C ) :   1.5948 B( 31-C , 79-H ) :   0.9686 B( 32-C , 33-O ) :   1.1753
B( 32-C , 80-H ) :   0.9811 B( 34-C , 35-C ) :   1.7072 B( 34-C , 81-H ) :   0.9614
B( 35-C , 36-C ) :   1.0595 B( 35-C , 82-H ) :   0.9659 B( 36-C , 37-C ) :   1.5185
B( 36-C , 41-C ) :   1.1076 B( 37-C , 38-C ) :   1.1363 B( 37-C , 39-C ) :   1.1361
B( 38-C , 83-H ) :   0.9311 B( 38-C , 84-H ) :   0.9316 B( 38-C , 85-H ) :   0.9295
B( 39-C , 40-C ) :   1.4419 B( 39-C , 46-C ) :   1.1169 B( 40-C , 41-C ) :   1.0758
B( 40-C , 45-O ) :   1.1283 B( 41-C , 42-C ) :   1.5245 B( 42-C , 43-C ) :   1.1974
B( 42-C , 86-H ) :   0.9812 B( 43-C , 44-C ) :   1.5922 B( 43-C , 87-H ) :   0.9673
B( 44-C , 45-O ) :   1.1774 B( 44-C , 88-H ) :   0.9816 B( 46-C , 47-C ) :   1.6073
B( 46-C , 89-H ) :   0.9726 B( 47-C , 48-C ) :   1.1465 B( 47-C , 90-H ) :   0.9689
B( 48-C , 49-C ) :   1.5739 B( 48-C , 91-H ) :   0.9840 B( 49-C , 50-C ) :   1.1358
B( 49-C , 53-S ) :   1.0143 B( 50-C , 51-C ) :   1.6044 B( 50-C , 92-H ) :   0.9976
B( 51-C , 52-C ) :   1.1711 B( 51-C , 93-H ) :   0.9925 B( 52-C , 53-S ) :   1.0408
B( 52-C , 54-C ) :   1.5572 B( 54-C , 55-C ) :   1.1594 B( 54-C , 58-S ) :   1.0306
B( 55-C , 56-C ) :   1.6546 B( 55-C , 94-H ) :   0.9911 B( 56-C , 57-C ) :   1.0827
B( 56-C , 95-H ) :   0.9931 B( 57-C , 58-S ) :   1.0103 B( 57-C , 59-C ) :   1.8608
B( 59-C , 96-H ) :   0.9500 B( 59-C , 97-H ) :   0.9409

-----------------------------------------------------------------------------
         ABSORPTION SPECTRUM VIA TRANSITION ELECTRIC DIPOLE MOMENTS
-----------------------------------------------------------------------------
State   Energy  Wavelength   fosc         T2         TX        TY        TZ
        (cm-1)    (nm)                  (au**2)     (au)      (au)      (au)
-----------------------------------------------------------------------------
   0   15589.5    641.5   0.070252975   1.48357   0.13698   1.19695   0.17920
   1   15761.3    634.5   0.202150484   4.22240  -1.10531  -0.11894   1.72816
   2   17174.0    582.3   0.028424165   0.54487   0.49584  -0.45677  -0.30063
   3   18266.4    547.5   1.573161611  28.35286  -3.01238  -2.44857   3.64458
   4   19927.7    501.8   1.094637301  18.08374   0.62633  -4.16852  -0.56118
   5   21556.0    463.9   0.120470458   1.83987   0.70877  -0.15874  -1.14557
   6   22487.9    444.7   0.104043826   1.52315  -0.44952   1.03299  -0.50399
   7   23883.6    418.7   0.033311579   0.45917   0.05599   0.62914   0.24539
   8   25257.7    395.9   0.159859870   2.08363   0.13270  -1.15243  -0.85903
   9   25612.3    390.4   0.014789660   0.19010  -0.35588   0.22581  -0.11161
  10   25708.1    389.0   0.058678350   0.75142  -0.11879   0.64732   0.56416
  11   26262.9    380.8   0.009946913   0.12469   0.23480  -0.22000  -0.14546
  12   26523.8    377.0   0.092940603   1.15357   0.99140  -0.34008   0.23461
  13   28062.3    356.4   0.019899672   0.23345   0.14961  -0.42074  -0.18453
  14   28357.0    352.6   0.069174966   0.80309  -0.24196   0.82819  -0.24216
  15   28635.6    349.2   0.024278932   0.27912   0.10038  -0.51319  -0.07538
  16   29630.1    337.5   0.109962109   1.22176  -0.54139  -0.84577   0.46188
  17   29967.8    333.7   0.032425364   0.35621  -0.21245   0.55309  -0.07185
  18   30364.3    329.3   0.441561042   4.78743  -0.50190  -1.96954  -0.81022
  19   31000.0    322.6   0.703126375   7.46701   0.48343   2.68948   0.00360
  20   31416.7    318.3   0.013519770   0.14167  -0.27500   0.20145   0.15958
  21   31699.0    315.5   0.239799330   2.49045   0.38069  -0.11095   1.52749
  22   32309.2    309.5   0.091975925   0.93718   0.36554   0.02184  -0.89615
  23   32397.8    308.7   0.121793241   1.23761   0.51106   0.89369  -0.42161
  24   32949.2    303.5   0.097961794   0.97878   0.76923  -0.40899   0.46883
  25   33504.1    298.5   0.006243811   0.06135   0.17333   0.17041  -0.04766
  26   33558.5    298.0   0.190387683   1.86772  -1.08557  -0.73597   0.38418
  27   34275.9    291.7   0.091628017   0.88006   0.45444   0.81491   0.09735
  28   34301.3    291.5   0.004426032   0.04248   0.08227  -0.15780  -0.10397
  29   34894.4    286.6   0.096051169   0.90620  -0.70613   0.22553  -0.59726
  30   35025.8    285.5   0.007887973   0.07414  -0.14048  -0.07223   0.22179
  31   35163.3    284.4   0.021280017   0.19923  -0.00355   0.21379  -0.39181
  32   35481.5    281.8   0.010337573   0.09592  -0.05852   0.19981   0.22927
  33   36293.7    275.5   0.010435267   0.09466  -0.05432  -0.27055  -0.13605
  34   36468.7    274.2   0.008929596   0.08061  -0.08171  -0.26458  -0.06270
  35   36618.7    273.1   0.004453500   0.04004   0.19441   0.04291   0.02006
  36   37554.2    266.3   0.274785978   2.40886  -0.20171   1.53500   0.10927
  37   37736.4    265.0   0.464957434   4.05628  -0.16611   0.14707  -2.00176
  38   38156.0    262.1   0.115908615   1.00007   0.31147   0.94564   0.09389
  39   38482.0    259.9   0.147869934   1.26502  -0.83028  -0.65771  -0.37825
  40   38826.1    257.6   0.111092063   0.94196   0.44228   0.29406  -0.81233
  41   38951.9    256.7   0.042579939   0.35988  -0.34852  -0.22070   0.43555
  42   39438.4    253.6   0.071373040   0.59579  -0.70707  -0.30592   0.04745
  43   39580.1    252.7   0.003460843   0.02879   0.10470   0.04434  -0.12593
  44   39742.1    251.6   0.119115793   0.98672  -0.35422   0.13084  -0.91876
  45   40030.8    249.8   0.007423623   0.06105  -0.23133   0.01852  -0.08484
  46   40165.1    249.0   0.009653121   0.07912   0.14652   0.15537  -0.18307
  47   40239.2    248.5   0.054787840   0.44824  -0.21615   0.36658   0.51685

FINAL SINGLE POINT ENERGY     -3857.326608392827

DIPOLE MOMENT
-------------
                                X             Y             Z
Electronic contribution:     -4.27631       3.05375      -1.57858
Nuclear contribution   :      5.62161      -3.36455       0.25619
                        -----------------------------------------
Total Dipole Moment    :      1.34530      -0.31080      -1.32239
                        -----------------------------------------
Magnitude (a.u.)       :      1.91184
Magnitude (Debye)      :      4.85952

Rotational constants in cm-1:     0.002217     0.000244     0.000228
Rotational constants in MHz :    66.457003     7.301620     6.835630

                             ****ORCA TERMINATED NORMALLY****
TOTAL RUN TIME: 0 days 0 hours 7 minutes 14 seconds 927 msec
