                         Program Version 4.2.0 -  RELEASE  -
|  1> # ORCA input file
|  2> # SCF done       -161.078337228204          0.000579105186
|  3> ! CAM-B3LYP def2-SVP def2/J RIJCOSX Grid4 TightSCF
|  4> %maxcore 5000
|  5> %tddft
|  6>     Mode sTDDFT
|  7>     Ethresh 5.0
|  8>     maxcore 5000
|  9> end
| 10>
| 11> %pal
| 12>   nprocs 6
| 13>   end
| 14> * xyz 0 1
| 15>    C       11.79618        -7.36025         7.30450
| 16>    C       11.62065        -6.64880         6.18355
| 17>    C       12.43918        -5.57951         5.68490
| 18>    C       12.01835        -5.05025         4.51658
| 19>    C       10.83825        -5.64943         3.98939
| 20>    S       10.27883        -6.92340         5.06101
| 21>    C       10.19462        -5.33414         2.82178
| 22>    C       10.55588        -4.34930         1.86390
| 23>    C        9.73241        -4.29544         0.79110
| 24>    C        8.65286        -5.23119         0.81082
| 25>    S        8.73996        -6.16727         2.30210
| 26>    C        7.75819        -5.38360        -0.20335
| 27>    C        6.65319        -6.28676        -0.33326
| 28>    C        6.11950        -7.01682         0.74248
| 29>    C        5.06489        -7.86710         0.52749
| 30>    C        4.52041        -8.03315        -0.75824
| 31>    C        5.02691        -7.30799        -1.82903
| 32>    C        6.07190        -6.43889        -1.60553
| 33>    C        3.44202        -8.99188        -0.68146
| 34>    C        3.29764        -9.39960         0.65698
| 35>    C        4.32867        -8.72360         1.53135
| 36>    C        3.67035        -7.86254         2.62470
| 37>    C        2.71761        -6.81627         2.05903
| 38>    C        5.27110        -9.75150         2.18531
| 39>    C        5.95204       -10.65994         1.16889
| 40>    C        2.31510       -10.29074         1.01102
| 41>    C        1.47241       -10.82759         0.02412
| 42>    C        1.64216       -10.42380        -1.30723
| 43>    C        2.60903        -9.50721        -1.66477
| 44>    C        0.44105       -11.75984         0.41202
| 45>    C       -0.17223       -12.63672        -0.40877
| 46>    C       -1.21976       -13.49736         0.01286
| 47>    S       -1.82114       -14.75118        -1.11382
| 48>    C       -2.95355       -15.19085         0.09311
| 49>    C       -2.80176       -14.38257         1.22184
| 50>    N       -1.83915       -13.46586         1.15704
| 51>    C       -3.81514       -14.73332         2.26661
| 52>    C       -4.56775       -15.83383         1.57820
| 53>    C       -4.02465       -16.08699         0.32337
| 54>    S       -4.84107       -17.34881        -0.50029
| 55>    C       -5.93157       -17.55003         0.85748
| 56>    C       -5.65591       -16.65803         1.86931
| 57>    C       -6.93478       -18.58944         0.84316
| 58>    C       -7.59914       -19.01671        -0.27644
| 59>    C       -7.46931       -18.55101        -1.68261
| 60>    S       -8.74137       -20.26423         0.09535
| 61>    C       -8.32259       -20.23094         1.77387
| 62>    C       -8.99465       -21.15241         2.72988
| 63>    C       -7.34939       -19.30547         2.02700
| 64>    C       -6.82255       -19.06441         3.36098
| 65>    S       -7.95119       -18.68568         4.63889
| 66>    C       -6.71263       -18.40371         5.75300
| 67>    C       -5.46916       -18.58864         5.19428
| 68>    N       -4.29948       -18.37697         5.94753
| 69>    O       -4.42448       -18.14957         7.13634
| 70>    O       -3.21661       -18.42074         5.37345
| 71>    C       -5.51536       -18.99268         3.81069
| 72>    N       -4.37876       -19.26644         3.11903
| 73>    C       -4.25368       -19.92299         1.91670
| 74>    C       -3.08818       -20.05525         1.29482
| 75>    H       12.62803        -7.16028         7.95664
| 76>    H       11.12123        -8.14707         7.58707
| 77>    H       13.30993        -5.25808         6.22872
| 78>    H       12.51263        -4.24463         4.00260
| 79>    H       11.41770        -3.72018         1.99827
| 80>    H        9.85523        -3.61672        -0.03517
| 81>    H        7.93095        -4.74536        -1.06288
| 82>    H        6.52173        -6.88989         1.73462
| 83>    H        4.60697        -7.41809        -2.81796
| 84>    H        6.47297        -5.86569        -2.42973
| 85>    H        4.45674        -7.36619         3.19705
| 86>    H        3.12450        -8.51912         3.30553
| 87>    H        3.24584        -6.13563         1.39493
| 88>    H        2.27623        -6.23628         2.86639
| 89>    H        1.91580        -7.29049         1.49705
| 90>    H        4.69427       -10.35958         2.88547
| 91>    H        6.03145        -9.21290         2.75467
| 92>    H        5.21525       -11.22949         0.60628
| 93>    H        6.61322       -11.35827         1.67671
| 94>    H        6.54303       -10.07484         0.46777
| 95>    H        2.18866       -10.60057         2.03861
| 96>    H        0.98095       -10.81593        -2.06480
| 97>    H        2.71306        -9.19475        -2.69336
| 98>    H        0.15291       -11.76096         1.45465
| 99>    H        0.12178       -12.73673        -1.44385
|100>    H       -4.44999       -13.88126         2.51540
|101>    H       -3.34083       -15.07616         3.18846
|102>    H       -6.24280       -16.58657         2.76666
|103>    H       -6.58875       -18.98992        -2.15399
|104>    H       -7.36518       -17.46778        -1.72253
|105>    H       -8.34564       -18.84531        -2.25562
|106>    H       -9.32322       -22.05263         2.21555
|107>    H       -9.87131       -20.67632         3.17162
|108>    H       -8.31663       -21.43084         3.53483
|109>    H       -6.91622       -18.10879         6.76311
|110>    H       -3.51664       -19.00117         3.59088
|111>    H       -5.16373       -20.34745         1.52180
|112>    H       -2.18353       -19.63195         1.69634
|113>    H       -3.01142       -20.58773         0.36664
|114> *
|115>
|116>                          ****END OF INPUT****

CARTESIAN COORDINATES (ANGSTROEM)
---------------------------------
  C     11.796180   -7.360250    7.304500
  C     11.620650   -6.648800    6.183550
  C     12.439180   -5.579510    5.684900
  C     12.018350   -5.050250    4.516580
  C     10.838250   -5.649430    3.989390
  S     10.278830   -6.923400    5.061010
  C     10.194620   -5.334140    2.821780
  C     10.555880   -4.349300    1.863900
  C      9.732410   -4.295440    0.791100
  C      8.652860   -5.231190    0.810820
  S      8.739960   -6.167270    2.302100
  C      7.758190   -5.383600   -0.203350
  C      6.653190   -6.286760   -0.333260
  C      6.119500   -7.016820    0.742480
  C      5.064890   -7.867100    0.527490
  C      4.520410   -8.033150   -0.758240
  C      5.026910   -7.307990   -1.829030
  C      6.071900   -6.438890   -1.605530
  C      3.442020   -8.991880   -0.681460
  C      3.297640   -9.399600    0.656980
  C      4.328670   -8.723600    1.531350
  C      3.670350   -7.862540    2.624700
  C      2.717610   -6.816270    2.059030
  C      5.271100   -9.751500    2.185310
  C      5.952040  -10.659940    1.168890
  C      2.315100  -10.290740    1.011020
  C      1.472410  -10.827590    0.024120
  C      1.642160  -10.423800   -1.307230
  C      2.609030   -9.507210   -1.664770
  C      0.441050  -11.759840    0.412020
  C     -0.172230  -12.636720   -0.408770
  C     -1.219760  -13.497360    0.012860
  S     -1.821140  -14.751180   -1.113820
  C     -2.953550  -15.190850    0.093110
  C     -2.801760  -14.382570    1.221840
  N     -1.839150  -13.465860    1.157040
  C     -3.815140  -14.733320    2.266610
  C     -4.567750  -15.833830    1.578200
  C     -4.024650  -16.086990    0.323370
  S     -4.841070  -17.348810   -0.500290
  C     -5.931570  -17.550030    0.857480
  C     -5.655910  -16.658030    1.869310
  C     -6.934780  -18.589440    0.843160
  C     -7.599140  -19.016710   -0.276440
  C     -7.469310  -18.551010   -1.682610
  S     -8.741370  -20.264230    0.095350
  C     -8.322590  -20.230940    1.773870
  C     -8.994650  -21.152410    2.729880
  C     -7.349390  -19.305470    2.027000
  C     -6.822550  -19.064410    3.360980
  S     -7.951190  -18.685680    4.638890
  C     -6.712630  -18.403710    5.753000
  C     -5.469160  -18.588640    5.194280
  N     -4.299480  -18.376970    5.947530
  O     -4.424480  -18.149570    7.136340
  O     -3.216610  -18.420740    5.373450
  C     -5.515360  -18.992680    3.810690
  N     -4.378760  -19.266440    3.119030
  C     -4.253680  -19.922990    1.916700
  C     -3.088180  -20.055250    1.294820
  H     12.628030   -7.160280    7.956640
  H     11.121230   -8.147070    7.587070
  H     13.309930   -5.258080    6.228720
  H     12.512630   -4.244630    4.002600
  H     11.417700   -3.720180    1.998270
  H      9.855230   -3.616720   -0.035170
  H      7.930950   -4.745360   -1.062880
  H      6.521730   -6.889890    1.734620
  H      4.606970   -7.418090   -2.817960
  H      6.472970   -5.865690   -2.429730
  H      4.456740   -7.366190    3.197050
  H      3.124500   -8.519120    3.305530
  H      3.245840   -6.135630    1.394930
  H      2.276230   -6.236280    2.866390
  H      1.915800   -7.290490    1.497050
  H      4.694270  -10.359580    2.885470
  H      6.031450   -9.212900    2.754670
  H      5.215250  -11.229490    0.606280
  H      6.613220  -11.358270    1.676710
  H      6.543030  -10.074840    0.467770
  H      2.188660  -10.600570    2.038610
  H      0.980950  -10.815930   -2.064800
  H      2.713060   -9.194750   -2.693360
  H      0.152910  -11.760960    1.454650
  H      0.121780  -12.736730   -1.443850
  H     -4.449990  -13.881260    2.515400
  H     -3.340830  -15.076160    3.188460
  H     -6.242800  -16.586570    2.766660
  H     -6.588750  -18.989920   -2.153990
  H     -7.365180  -17.467780   -1.722530
  H     -8.345640  -18.845310   -2.255620
  H     -9.323220  -22.052630    2.215550
  H     -9.871310  -20.676320    3.171620
  H     -8.316630  -21.430840    3.534830
  H     -6.916220  -18.108790    6.763110
  H     -3.516640  -19.001170    3.590880
  H     -5.163730  -20.347450    1.521800
  H     -2.183530  -19.631950    1.696340
  H     -3.011420  -20.587730    0.366640

 Total Charge           Charge          ....    0
 Multiplicity           Mult            ....    1
 Number of Electrons    NEL             ....  466
 Basis Dimension        Dim             .... 1059

ORBITAL ENERGIES
----------------

  NO   OCC          E(Eh)            E(eV)
   0   2.0000     -88.976403     -2421.1710
   1   2.0000     -88.953355     -2420.5438
   2   2.0000     -88.950578     -2420.4683
   3   2.0000     -88.947569     -2420.3864
   4   2.0000     -88.936577     -2420.0873
   5   2.0000     -88.930929     -2419.9336
   6   2.0000     -19.243502      -523.6423
   7   2.0000     -19.239887      -523.5439
   8   2.0000     -14.650270      -398.6541
   9   2.0000     -14.430449      -392.6725
  10   2.0000     -14.396913      -391.7599
  11   2.0000     -10.335217      -281.2356
  12   2.0000     -10.327169      -281.0166
  13   2.0000     -10.321419      -280.8601
  14   2.0000     -10.321303      -280.8569
  15   2.0000     -10.302051      -280.3331
  16   2.0000     -10.300833      -280.2999
  17   2.0000     -10.299946      -280.2758
  18   2.0000     -10.299943      -280.2757
  19   2.0000     -10.298407      -280.2339
  20   2.0000     -10.296682      -280.1870
  21   2.0000     -10.294364      -280.1239
  22   2.0000     -10.294084      -280.1163
  23   2.0000     -10.292415      -280.0709
  24   2.0000     -10.291562      -280.0476
  25   2.0000     -10.291122      -280.0357
  26   2.0000     -10.290750      -280.0255
  27   2.0000     -10.283408      -279.8258
  28   2.0000     -10.281467      -279.7729
  29   2.0000     -10.279375      -279.7160
  30   2.0000     -10.278105      -279.6815
  31   2.0000     -10.278069      -279.6805
  32   2.0000     -10.277412      -279.6626
  33   2.0000     -10.276082      -279.6264
  34   2.0000     -10.275459      -279.6095
  35   2.0000     -10.271707      -279.5074
  36   2.0000     -10.271211      -279.4939
  37   2.0000     -10.270151      -279.4650
  38   2.0000     -10.269223      -279.4398
  39   2.0000     -10.268738      -279.4266
  40   2.0000     -10.267787      -279.4007
  41   2.0000     -10.267525      -279.3936
  42   2.0000     -10.265669      -279.3430
  43   2.0000     -10.264538      -279.3123
  44   2.0000     -10.263527      -279.2848
  45   2.0000     -10.263121      -279.2737
  46   2.0000     -10.262843      -279.2662
  47   2.0000     -10.262184      -279.2482
  48   2.0000     -10.262039      -279.2443
  49   2.0000     -10.261690      -279.2348
  50   2.0000     -10.261530      -279.2304
  51   2.0000     -10.261171      -279.2207
  52   2.0000     -10.259692      -279.1804
  53   2.0000     -10.259071      -279.1635
  54   2.0000     -10.258836      -279.1571
  55   2.0000     -10.253265      -279.0055
  56   2.0000     -10.252625      -278.9881
  57   2.0000     -10.238240      -278.5967
  58   2.0000     -10.237020      -278.5635
  59   2.0000     -10.236092      -278.5382
  60   2.0000      -8.071488      -219.6364
  61   2.0000      -8.048675      -219.0156
  62   2.0000      -8.045155      -218.9198
  63   2.0000      -8.044044      -218.8896
  64   2.0000      -8.032254      -218.5687
  65   2.0000      -8.027585      -218.4417
  66   2.0000      -6.040586      -164.3727
  67   2.0000      -6.036352      -164.2575
  68   2.0000      -6.034165      -164.1980
  69   2.0000      -6.017803      -163.7527
  70   2.0000      -6.014621      -163.6662
  71   2.0000      -6.013978      -163.6487
  72   2.0000      -6.013111      -163.6251
  73   2.0000      -6.010856      -163.5637
  74   2.0000      -6.010388      -163.5510
  75   2.0000      -6.009192      -163.5184
  76   2.0000      -6.007194      -163.4641
  77   2.0000      -6.006250      -163.4384
  78   2.0000      -6.002095      -163.3253
  79   2.0000      -5.998066      -163.2157
  80   2.0000      -5.997462      -163.1992
  81   2.0000      -5.993520      -163.0920
  82   2.0000      -5.993035      -163.0788
  83   2.0000      -5.988051      -162.9432
  84   2.0000      -1.319451       -35.9041
  85   2.0000      -1.137713       -30.9588
  86   2.0000      -1.052992       -28.6534
  87   2.0000      -1.048611       -28.5342
  88   2.0000      -0.994388       -27.0587
  89   2.0000      -0.987714       -26.8771
  90   2.0000      -0.984374       -26.7862
  91   2.0000      -0.978439       -26.6247
  92   2.0000      -0.975039       -26.5322
  93   2.0000      -0.961357       -26.1598
  94   2.0000      -0.937266       -25.5043
  95   2.0000      -0.916351       -24.9352
  96   2.0000      -0.909940       -24.7607
  97   2.0000      -0.908616       -24.7247
  98   2.0000      -0.885973       -24.1086
  99   2.0000      -0.882243       -24.0071
 100   2.0000      -0.876132       -23.8408
 101   2.0000      -0.871564       -23.7165
 102   2.0000      -0.861450       -23.4412
 103   2.0000      -0.857759       -23.3408
 104   2.0000      -0.843810       -22.9612
 105   2.0000      -0.839061       -22.8320
 106   2.0000      -0.836822       -22.7711
 107   2.0000      -0.827112       -22.5069
 108   2.0000      -0.824119       -22.4254
 109   2.0000      -0.823241       -22.4015
 110   2.0000      -0.819359       -22.2959
 111   2.0000      -0.813320       -22.1316
 112   2.0000      -0.807262       -21.9667
 113   2.0000      -0.802834       -21.8462
 114   2.0000      -0.795379       -21.6434
 115   2.0000      -0.776237       -21.1225
 116   2.0000      -0.770732       -20.9727
 117   2.0000      -0.761215       -20.7137
 118   2.0000      -0.751897       -20.4601
 119   2.0000      -0.751102       -20.4385
 120   2.0000      -0.737975       -20.0813
 121   2.0000      -0.722532       -19.6611
 122   2.0000      -0.708921       -19.2907
 123   2.0000      -0.704002       -19.1569
 124   2.0000      -0.699232       -19.0271
 125   2.0000      -0.679854       -18.4998
 126   2.0000      -0.674877       -18.3643
 127   2.0000      -0.665724       -18.1153
 128   2.0000      -0.664211       -18.0741
 129   2.0000      -0.663019       -18.0417
 130   2.0000      -0.659338       -17.9415
 131   2.0000      -0.657396       -17.8887
 132   2.0000      -0.649441       -17.6722
 133   2.0000      -0.635486       -17.2925
 134   2.0000      -0.631382       -17.1808
 135   2.0000      -0.630129       -17.1467
 136   2.0000      -0.628888       -17.1129
 137   2.0000      -0.623399       -16.9636
 138   2.0000      -0.620945       -16.8968
 139   2.0000      -0.609326       -16.5806
 140   2.0000      -0.603552       -16.4235
 141   2.0000      -0.599126       -16.3030
 142   2.0000      -0.598025       -16.2731
 143   2.0000      -0.591518       -16.0960
 144   2.0000      -0.588408       -16.0114
 145   2.0000      -0.585723       -15.9383
 146   2.0000      -0.580776       -15.8037
 147   2.0000      -0.569418       -15.4947
 148   2.0000      -0.569079       -15.4854
 149   2.0000      -0.556619       -15.1464
 150   2.0000      -0.552478       -15.0337
 151   2.0000      -0.543671       -14.7940
 152   2.0000      -0.541035       -14.7223
 153   2.0000      -0.538998       -14.6669
 154   2.0000      -0.534160       -14.5352
 155   2.0000      -0.533087       -14.5060
 156   2.0000      -0.529077       -14.3969
 157   2.0000      -0.527249       -14.3472
 158   2.0000      -0.524604       -14.2752
 159   2.0000      -0.518388       -14.1061
 160   2.0000      -0.513608       -13.9760
 161   2.0000      -0.512678       -13.9507
 162   2.0000      -0.510348       -13.8873
 163   2.0000      -0.509474       -13.8635
 164   2.0000      -0.507398       -13.8070
 165   2.0000      -0.505668       -13.7599
 166   2.0000      -0.504500       -13.7281
 167   2.0000      -0.497813       -13.5462
 168   2.0000      -0.497681       -13.5426
 169   2.0000      -0.493312       -13.4237
 170   2.0000      -0.490873       -13.3573
 171   2.0000      -0.487551       -13.2669
 172   2.0000      -0.486762       -13.2455
 173   2.0000      -0.484530       -13.1847
 174   2.0000      -0.480113       -13.0645
 175   2.0000      -0.477988       -13.0067
 176   2.0000      -0.475291       -12.9333
 177   2.0000      -0.472821       -12.8661
 178   2.0000      -0.467993       -12.7347
 179   2.0000      -0.465555       -12.6684
 180   2.0000      -0.465307       -12.6616
 181   2.0000      -0.461863       -12.5679
 182   2.0000      -0.460454       -12.5296
 183   2.0000      -0.459317       -12.4987
 184   2.0000      -0.453375       -12.3370
 185   2.0000      -0.450833       -12.2678
 186   2.0000      -0.450268       -12.2524
 187   2.0000      -0.448731       -12.2106
 188   2.0000      -0.444072       -12.0838
 189   2.0000      -0.443718       -12.0742
 190   2.0000      -0.438585       -11.9345
 191   2.0000      -0.437842       -11.9143
 192   2.0000      -0.433021       -11.7831
 193   2.0000      -0.431805       -11.7500
 194   2.0000      -0.430182       -11.7058
 195   2.0000      -0.427425       -11.6308
 196   2.0000      -0.421320       -11.4647
 197   2.0000      -0.419611       -11.4182
 198   2.0000      -0.418060       -11.3760
 199   2.0000      -0.414859       -11.2889
 200   2.0000      -0.414662       -11.2835
 201   2.0000      -0.412507       -11.2249
 202   2.0000      -0.408805       -11.1242
 203   2.0000      -0.406878       -11.0717
 204   2.0000      -0.403831       -10.9888
 205   2.0000      -0.397180       -10.8078
 206   2.0000      -0.396581       -10.7915
 207   2.0000      -0.387044       -10.5320
 208   2.0000      -0.386508       -10.5174
 209   2.0000      -0.382160       -10.3991
 210   2.0000      -0.381441       -10.3795
 211   2.0000      -0.380602       -10.3567
 212   2.0000      -0.377371       -10.2688
 213   2.0000      -0.371867       -10.1190
 214   2.0000      -0.369277       -10.0485
 215   2.0000      -0.362451        -9.8628
 216   2.0000      -0.345880        -9.4119
 217   2.0000      -0.342355        -9.3159
 218   2.0000      -0.340341        -9.2611
 219   2.0000      -0.337229        -9.1765
 220   2.0000      -0.331429        -9.0186
 221   2.0000      -0.330995        -9.0068
 222   2.0000      -0.320998        -8.7348
 223   2.0000      -0.312415        -8.5012
 224   2.0000      -0.309972        -8.4348
 225   2.0000      -0.306709        -8.3460
 226   2.0000      -0.305110        -8.3025
 227   2.0000      -0.293792        -7.9945
 228   2.0000      -0.286472        -7.7953
 229   2.0000      -0.264448        -7.1960
 230   2.0000      -0.247464        -6.7338
 231   2.0000      -0.226853        -6.1730
 232   2.0000      -0.210420        -5.7258
 233   0.0000      -0.058858        -1.6016
 234   0.0000      -0.049860        -1.3568
 235   0.0000      -0.036351        -0.9891
 236   0.0000      -0.001241        -0.0338
 237   0.0000       0.006445         0.1754

MULLIKEN ATOMIC CHARGES
-----------------------
   0 C :   -0.035149
   1 C :   -0.062436
   2 C :    0.052482
   3 C :    0.027973
   4 C :   -0.068015
   5 S :    0.074590
   6 C :   -0.038975
   7 C :    0.029444
   8 C :    0.033046
   9 C :   -0.006818
  10 S :    0.049811
  11 C :   -0.044501
  12 C :    0.110619
  13 C :   -0.093413
  14 C :    0.001917
  15 C :    0.105231
  16 C :   -0.045260
  17 C :   -0.017591
  18 C :    0.107756
  19 C :    0.016348
  20 C :   -0.140744
  21 C :    0.066626
  22 C :    0.026575
  23 C :    0.066539
  24 C :    0.023904
  25 C :   -0.100195
  26 C :    0.111830
  27 C :   -0.010953
  28 C :   -0.044176
  29 C :    0.000060
  30 C :    0.056737
  31 C :   -0.109966
  32 S :    0.110704
  33 C :   -0.057087
  34 C :   -0.235592
  35 N :   -0.011511
  36 C :    0.398947
  37 C :   -0.188873
  38 C :   -0.085986
  39 S :    0.130892
  40 C :   -0.202732
  41 C :    0.045813
  42 C :    0.175947
  43 C :   -0.339256
  44 C :    0.128652
  45 S :    0.110490
  46 C :   -0.317057
  47 C :    0.133029
  48 C :    0.106246
  49 C :   -0.423551
  50 S :    0.185920
  51 C :   -0.096369
  52 C :    0.081925
  53 N :    0.281798
  54 O :   -0.244298
  55 O :   -0.271911
  56 C :    0.176711
  57 N :   -0.027101
  58 C :    0.070138
  59 C :   -0.063042
  60 H :    0.018074
  61 H :    0.020692
  62 H :   -0.014046
  63 H :   -0.012495
  64 H :   -0.016971
  65 H :   -0.014006
  66 H :   -0.023977
  67 H :   -0.024940
  68 H :   -0.038710
  69 H :   -0.032433
  70 H :    0.001910
  71 H :   -0.003059
  72 H :    0.020991
  73 H :    0.006977
  74 H :    0.020131
  75 H :   -0.002772
  76 H :    0.002394
  77 H :    0.021084
  78 H :    0.008332
  79 H :    0.021944
  80 H :   -0.040219
  81 H :   -0.029581
  82 H :   -0.039485
  83 H :    0.001904
  84 H :   -0.017563
  85 H :    0.029463
  86 H :    0.032102
  87 H :   -0.026274
  88 H :    0.041461
  89 H :    0.041502
  90 H :    0.013486
  91 H :    0.019322
  92 H :    0.036528
  93 H :    0.036061
  94 H :    0.039209
  95 H :    0.130865
  96 H :    0.032845
  97 H :    0.008653
  98 H :    0.014460
Sum of atomic charges:   -0.0000000

LOEWDIN ATOMIC CHARGES
----------------------
   0 C :   -0.081419
   1 C :   -0.138867
   2 C :   -0.033378
   3 C :   -0.026496
   4 C :   -0.179202
   5 S :    0.344941
   6 C :   -0.180414
   7 C :   -0.037773
   8 C :   -0.029805
   9 C :   -0.144982
  10 S :    0.369266
  11 C :   -0.051328
  12 C :   -0.027868
  13 C :   -0.029181
  14 C :    0.006007
  15 C :   -0.018370
  16 C :   -0.021428
  17 C :   -0.017159
  18 C :   -0.016714
  19 C :    0.003660
  20 C :   -0.035412
  21 C :   -0.011815
  22 C :   -0.057838
  23 C :   -0.011416
  24 C :   -0.057853
  25 C :   -0.018215
  26 C :   -0.027382
  27 C :   -0.015257
  28 C :   -0.019390
  29 C :    0.012884
  30 C :   -0.065437
  31 C :   -0.121469
  32 S :    0.396752
  33 C :   -0.218926
  34 C :   -0.040250
  35 N :   -0.090871
  36 C :   -0.012725
  37 C :   -0.056413
  38 C :   -0.201165
  39 S :    0.451507
  40 C :   -0.169512
  41 C :   -0.050329
  42 C :   -0.085811
  43 C :   -0.181041
  44 C :   -0.071466
  45 S :    0.424337
  46 C :   -0.180242
  47 C :   -0.067301
  48 C :   -0.098918
  49 C :   -0.233848
  50 S :    0.498873
  51 C :   -0.154782
  52 C :   -0.099969
  53 N :    0.294572
  54 O :   -0.206558
  55 O :   -0.220281
  56 C :    0.009179
  57 N :    0.027341
  58 C :    0.029651
  59 C :   -0.118551
  60 H :    0.027707
  61 H :    0.025700
  62 H :    0.032435
  63 H :    0.031752
  64 H :    0.030312
  65 H :    0.032323
  66 H :    0.032111
  67 H :    0.009464
  68 H :    0.025785
  69 H :    0.024639
  70 H :    0.021382
  71 H :    0.019522
  72 H :    0.025354
  73 H :    0.023213
  74 H :    0.024943
  75 H :    0.019484
  76 H :    0.021723
  77 H :    0.024905
  78 H :    0.023803
  79 H :    0.025696
  80 H :    0.024878
  81 H :    0.024740
  82 H :    0.025639
  83 H :    0.034318
  84 H :    0.024894
  85 H :    0.052982
  86 H :    0.054970
  87 H :    0.028768
  88 H :    0.034317
  89 H :    0.035599
  90 H :    0.031024
  91 H :    0.033407
  92 H :    0.035561
  93 H :    0.036406
  94 H :    0.037725
  95 H :    0.072432
  96 H :    0.032099
  97 H :    0.019760
  98 H :    0.024087

  Mayer bond orders larger than 0.100000
B(  0-C ,  1-C ) :   1.8660 B(  0-C , 60-H ) :   0.9508 B(  0-C , 61-H ) :   0.9419
B(  1-C ,  2-C ) :   1.0781 B(  1-C ,  5-S ) :   1.0084 B(  2-C ,  3-C ) :   1.6667
B(  2-C , 62-H ) :   0.9927 B(  3-C ,  4-C ) :   1.1467 B(  3-C , 63-H ) :   0.9915
B(  4-C ,  5-S ) :   1.0366 B(  4-C ,  6-C ) :   1.5785 B(  6-C ,  7-C ) :   1.1533
B(  6-C , 10-S ) :   1.0288 B(  7-C ,  8-C ) :   1.6301 B(  7-C , 64-H ) :   0.9918
B(  8-C ,  9-C ) :   1.1145 B(  8-C , 65-H ) :   0.9982 B(  9-C , 10-S ) :   1.0193
B(  9-C , 11-C ) :   1.6301 B( 11-C , 12-C ) :   1.0873 B( 11-C , 66-H ) :   0.9680
B( 12-C , 13-C ) :   1.2858 B( 12-C , 17-C ) :   1.3191 B( 13-C , 14-C ) :   1.4327
B( 13-C , 67-H ) :   0.9779 B( 14-C , 15-C ) :   1.3614 B( 14-C , 20-C ) :   0.9177
B( 15-C , 16-C ) :   1.3296 B( 15-C , 18-C ) :   1.0011 B( 16-C , 17-C ) :   1.3904
B( 16-C , 68-H ) :   0.9910 B( 17-C , 69-H ) :   0.9921 B( 18-C , 19-C ) :   1.3670
B( 18-C , 28-C ) :   1.3307 B( 19-C , 20-C ) :   0.9136 B( 19-C , 25-C ) :   1.3829
B( 20-C , 21-C ) :   1.0386 B( 20-C , 23-C ) :   1.0364 B( 21-C , 22-C ) :   1.1006
B( 21-C , 70-H ) :   0.9398 B( 21-C , 71-H ) :   0.9386 B( 22-C , 72-H ) :   0.9645
B( 22-C , 73-H ) :   0.9642 B( 22-C , 74-H ) :   0.9642 B( 23-C , 24-C ) :   1.1004
B( 23-C , 75-H ) :   0.9394 B( 23-C , 76-H ) :   0.9398 B( 24-C , 77-H ) :   0.9642
B( 24-C , 78-H ) :   0.9640 B( 24-C , 79-H ) :   0.9649 B( 25-C , 26-C ) :   1.2884
B( 25-C , 80-H ) :   1.0143 B( 26-C , 27-C ) :   1.3509 B( 26-C , 29-C ) :   1.0458
B( 27-C , 28-C ) :   1.3933 B( 27-C , 81-H ) :   0.9825 B( 28-C , 82-H ) :   0.9906
B( 29-C , 30-C ) :   1.7290 B( 29-C , 83-H ) :   0.9816 B( 30-C , 31-C ) :   1.0982
B( 30-C , 84-H ) :   0.9425 B( 31-C , 32-S ) :   1.0653 B( 31-C , 35-N ) :   1.6722
B( 32-S , 33-C ) :   1.0818 B( 33-C , 34-C ) :   1.4980 B( 33-C , 38-C ) :   1.1636
B( 34-C , 35-N ) :   1.4290 B( 34-C , 36-C ) :   1.0431 B( 36-C , 37-C ) :   0.9811
B( 36-C , 85-H ) :   0.8623 B( 36-C , 86-H ) :   0.8545 B( 37-C , 38-C ) :   1.5507
B( 37-C , 41-C ) :   1.2775 B( 38-C , 39-S ) :   1.0848 B( 39-S , 40-C ) :   1.1147
B( 40-C , 41-C ) :   1.5273 B( 40-C , 42-C ) :   1.0307 B( 41-C , 87-H ) :   0.9927
B( 42-C , 43-C ) :   1.5431 B( 42-C , 48-C ) :   1.2392 B( 43-C , 44-C ) :   1.1000
B( 43-C , 45-S ) :   1.1299 B( 44-C , 88-H ) :   0.9449 B( 44-C , 89-H ) :   0.9427
B( 44-C , 90-H ) :   0.9360 B( 45-S , 46-C ) :   1.1341 B( 46-C , 47-C ) :   1.0947
B( 46-C , 48-C ) :   1.5737 B( 47-C , 91-H ) :   0.9406 B( 47-C , 92-H ) :   0.9461
B( 47-C , 93-H ) :   0.9437 B( 48-C , 49-C ) :   0.9752 B( 49-C , 50-S ) :   1.1323
B( 49-C , 51-C ) :   0.1110 B( 49-C , 56-C ) :   1.4658 B( 50-S , 51-C ) :   1.2341
B( 51-C , 52-C ) :   1.4907 B( 51-C , 94-H ) :   0.9566 B( 52-C , 53-N ) :   0.9546
B( 52-C , 56-C ) :   1.1673 B( 53-N , 54-O ) :   1.5510 B( 53-N , 55-O ) :   1.4652
B( 54-O , 55-O ) :   0.2501 B( 56-C , 57-N ) :   1.2838 B( 57-N , 58-C ) :   1.0898
B( 57-N , 95-H ) :   0.8645 B( 58-C , 59-C ) :   1.9287 B( 58-C , 96-H ) :   0.9578
B( 59-C , 97-H ) :   0.9554 B( 59-C , 98-H ) :   0.9527

-----------------------------------------------------------------------------
         ABSORPTION SPECTRUM VIA TRANSITION ELECTRIC DIPOLE MOMENTS
-----------------------------------------------------------------------------
State   Energy  Wavelength   fosc         T2         TX        TY        TZ
        (cm-1)    (nm)                  (au**2)     (au)      (au)      (au)
-----------------------------------------------------------------------------
   0   19438.5    514.4   1.958999210  33.17769  -4.58007  -1.82784  -2.97652
   1   21853.3    457.6   0.099757510   1.50281  -0.10453  -0.11351  -1.21614
   2   23024.5    434.3   0.003460065   0.04947  -0.11521  -0.15847  -0.10530
   3   24767.6    403.8   1.501387780  19.95653   2.36825   3.38738  -1.69517
   4   26730.3    374.1   0.016813080   0.20707   0.05575   0.31078  -0.32768
   5   29395.5    340.2   0.023258813   0.26048  -0.04016   0.17558  -0.47754
   6   29590.7    337.9   0.000735935   0.00819   0.08445   0.01974   0.02580
   7   29909.4    334.3   0.114670306   1.26217  -0.80464  -0.10503  -0.77698
   8   31119.9    321.3   0.073785590   0.78057  -0.49321  -0.69056   0.24585
   9   33325.5    300.1   0.047277226   0.46704   0.62145   0.10984   0.26225
  10   33560.0    298.0   0.209785352   2.05792   0.84983   1.10689  -0.33241
  11   33615.1    297.5   0.038876926   0.38074  -0.16429  -0.47389   0.35942
  12   34383.6    290.8   0.002867081   0.02745   0.11855  -0.02754  -0.11242
  13   34574.4    289.2   0.045370696   0.43201   0.46364   0.39070   0.25377
  14   34693.7    288.2   0.048013633   0.45561  -0.31393  -0.44106   0.40314
  15   35407.0    282.4   0.111433397   1.03610   1.01586  -0.06376  -0.00800
  16   35675.4    280.3   0.022874148   0.21108   0.45530  -0.06084   0.00926
  17   35735.9    279.8   0.002413182   0.02223  -0.02506   0.05802   0.13504
  18   35744.6    279.8   0.017909409   0.16495  -0.39393   0.08366  -0.05264
  19   36145.0    276.7   0.049913857   0.45462  -0.62239  -0.24201  -0.09318
  20   36738.1    272.2   0.032606945   0.29219   0.37033   0.19469  -0.34226
  21   37113.1    269.4   0.015733293   0.13956  -0.27252  -0.15653  -0.20197
  22   38301.7    261.1   0.090364424   0.77670  -0.51862  -0.70229   0.12050
  23   38645.2    258.8   0.010024468   0.08540   0.06114  -0.03281   0.28387
  24   38993.9    256.5   0.008738036   0.07377  -0.25149   0.05551   0.08628
  25   39539.6    252.9   0.045828393   0.38157   0.61178  -0.08423   0.01441
  26   39991.1    250.1   0.011273350   0.09280  -0.24869  -0.08731  -0.15275
  27   40103.3    249.4   0.007101050   0.05829  -0.21757  -0.01399  -0.10374
  28   40327.6    248.0   0.012384450   0.10110  -0.20179   0.00605  -0.24565

FINAL SINGLE POINT ENERGY     -4590.862603496146

DIPOLE MOMENT
-------------
                                X             Y             Z
Electronic contribution:    -40.17183     -33.94427       3.28502
Nuclear contribution   :     39.65496      34.30303      -4.07846
                        -----------------------------------------
Total Dipole Moment    :     -0.51688       0.35875      -0.79344
                        -----------------------------------------
Magnitude (a.u.)       :      1.01262
Magnitude (Debye)      :      2.57388

Rotational constants in cm-1:     0.002615     0.000254     0.000237
Rotational constants in MHz :    78.409702     7.617687     7.114104

                             ****ORCA TERMINATED NORMALLY****
TOTAL RUN TIME: 0 days 0 hours 7 minutes 54 seconds 598 msec
