                         Program Version 4.2.0 -  RELEASE  -
|  1> # ORCA input file
|  2> # SCF done       -179.577421710880          0.000454142806
|  3> ! CAM-B3LYP def2-SVP def2/J RIJCOSX Grid4 TightSCF
|  4> %maxcore 5000
|  5> %tddft
|  6>     Mode sTDDFT
|  7>     Ethresh 5.0
|  8>     maxcore 5000
|  9> end
| 10>
| 11> %pal
| 12>   nprocs 6
| 13>   end
| 14> * xyz 0 1
| 15>    C       -6.28435        -1.67122        -3.05552
| 16>    C       -6.98407        -0.98897        -4.03665
| 17>    C       -6.27858        -0.11974        -4.87103
| 18>    C       -6.97450         0.59751        -5.87580
| 19>    N       -7.54622         1.17237        -6.68399
| 20>    C       -4.88895         0.05904        -4.73116
| 21>    C       -4.20084         0.94228        -5.59732
| 22>    N       -3.62653         1.65008        -6.29062
| 23>    C       -4.18837        -0.62994        -3.73843
| 24>    C       -4.89540        -1.47827        -2.91428
| 25>    C       -4.39962        -2.28774        -1.77497
| 26>    O       -3.25437        -2.43537        -1.41922
| 27>    C       -5.61510        -2.88252        -1.16706
| 28>    C       -6.73469        -2.62848        -2.04831
| 29>    C       -7.94433        -3.26989        -2.03036
| 30>    C       -8.99043        -3.02659        -2.94422
| 31>    N       -9.87330        -2.87499        -3.66149
| 32>    C       -8.23848        -4.34244        -1.16662
| 33>    N       -8.50961        -5.27212        -0.54856
| 34>    C       -5.60737        -3.43554         0.07117
| 35>    C       -4.41159        -3.44607         0.90783
| 36>    S       -4.38138        -2.03063         1.77181
| 37>    C       -3.48573        -4.48693         0.97385
| 38>    C       -3.70946        -5.69062         0.35737
| 39>    S       -2.59387        -7.02737         0.32940
| 40>    C       -3.78693        -7.97925        -0.49962
| 41>    C       -4.92516        -7.27226        -0.71372
| 42>    O       -4.85724        -5.98560        -0.25220
| 43>    C       -6.17980        -7.65045        -1.27813
| 44>    C       -6.46792        -8.86181        -1.80709
| 45>    C       -7.74207        -9.23139        -2.30723
| 46>    N       -7.95996       -10.49692        -2.81806
| 47>    C       -9.25773       -10.58995        -3.20288
| 48>    C      -10.21052       -11.44046        -3.74881
| 49>    C      -11.39955       -10.70055        -3.81427
| 50>    N      -11.17773        -9.43116        -3.32040
| 51>    C       -9.87910        -9.34028        -2.93433
| 52>    C       -8.93075        -8.49236        -2.37201
| 53>    C      -12.63802       -11.17471        -4.30507
| 54>    C      -13.79303       -10.48006        -4.45228
| 55>    C      -14.99075       -11.07176        -4.96140
| 56>    S      -15.08540       -12.71345        -5.30539
| 57>    C      -16.12595       -10.26114        -5.19077
| 58>    C      -17.28380       -10.75917        -5.70518
| 59>    S      -17.54125       -12.44597        -6.10667
| 60>    C      -19.13843       -12.00708        -6.64824
| 61>    C      -19.38589       -10.68044        -6.51111
| 62>    O      -18.34461        -9.98808        -5.95869
| 63>    C      -20.55948        -9.97473        -6.89438
| 64>    C      -20.70886        -8.63035        -6.77520
| 65>    C      -21.87445        -7.96934        -7.21758
| 66>    C      -22.09971        -6.62638        -7.31421
| 67>    C      -23.49288        -6.13401        -7.45893
| 68>    O      -24.47540        -6.78763        -7.71876
| 69>    C      -23.42397        -4.68365        -7.16331
| 70>    C      -24.45814        -3.77749        -7.06719
| 71>    C      -24.14752        -2.45607        -6.74115
| 72>    C      -22.80978        -2.08066        -6.51307
| 73>    C      -21.76882        -3.00506        -6.62290
| 74>    C      -22.08050        -4.31197        -6.95660
| 75>    C      -21.22677        -5.48120        -7.18645
| 76>    C      -19.88341        -5.42796        -7.45095
| 77>    C      -19.12523        -6.49764        -7.97493
| 78>    N      -18.46574        -7.30437        -8.45572
| 79>    C      -19.10674        -4.25454        -7.33898
| 80>    N      -18.42577        -3.33650        -7.23950
| 81>    C      -22.51507        -0.73937        -6.16320
| 82>    N      -22.27054         0.34143        -5.87600
| 83>    C      -25.18031        -1.49374        -6.63396
| 84>    N      -26.03019        -0.73067        -6.55234
| 85>    H       -8.04927        -1.09960        -4.16678
| 86>    H       -3.12424        -0.49683        -3.61577
| 87>    H       -6.53002        -3.75549         0.53983
| 88>    H       -2.57309        -4.34251         1.52696
| 89>    H       -3.57992        -8.99485        -0.75788
| 90>    H       -6.94205        -6.88891        -1.21993
| 91>    H       -5.69606        -9.61919        -1.85703
| 92>    H       -7.26286       -11.21895        -2.87705
| 93>    H      -10.09709       -12.45621        -4.06910
| 94>    H      -11.87465        -8.71090        -3.24900
| 95>    H       -9.06087        -7.48408        -2.03534
| 96>    H      -12.64731       -12.21575        -4.60060
| 97>    H      -13.85166        -9.42879        -4.20233
| 98>    H      -16.07844        -9.20300        -4.98264
| 99>    H      -19.80426       -12.73864        -7.05667
|100>    H      -21.33719       -10.57330        -7.34642
|101>    H      -19.91159        -8.05883        -6.32438
|102>    H      -22.72982        -8.59202        -7.46032
|103>    H      -25.47923        -4.08224        -7.23938
|104>    H      -20.75661        -2.68211        -6.43741
|105> *
|106>
|107>                          ****END OF INPUT****

CARTESIAN COORDINATES (ANGSTROEM)
---------------------------------
  C     -6.284350   -1.671220   -3.055520
  C     -6.984070   -0.988970   -4.036650
  C     -6.278580   -0.119740   -4.871030
  C     -6.974500    0.597510   -5.875800
  N     -7.546220    1.172370   -6.683990
  C     -4.888950    0.059040   -4.731160
  C     -4.200840    0.942280   -5.597320
  N     -3.626530    1.650080   -6.290620
  C     -4.188370   -0.629940   -3.738430
  C     -4.895400   -1.478270   -2.914280
  C     -4.399620   -2.287740   -1.774970
  O     -3.254370   -2.435370   -1.419220
  C     -5.615100   -2.882520   -1.167060
  C     -6.734690   -2.628480   -2.048310
  C     -7.944330   -3.269890   -2.030360
  C     -8.990430   -3.026590   -2.944220
  N     -9.873300   -2.874990   -3.661490
  C     -8.238480   -4.342440   -1.166620
  N     -8.509610   -5.272120   -0.548560
  C     -5.607370   -3.435540    0.071170
  C     -4.411590   -3.446070    0.907830
  S     -4.381380   -2.030630    1.771810
  C     -3.485730   -4.486930    0.973850
  C     -3.709460   -5.690620    0.357370
  S     -2.593870   -7.027370    0.329400
  C     -3.786930   -7.979250   -0.499620
  C     -4.925160   -7.272260   -0.713720
  O     -4.857240   -5.985600   -0.252200
  C     -6.179800   -7.650450   -1.278130
  C     -6.467920   -8.861810   -1.807090
  C     -7.742070   -9.231390   -2.307230
  N     -7.959960  -10.496920   -2.818060
  C     -9.257730  -10.589950   -3.202880
  C    -10.210520  -11.440460   -3.748810
  C    -11.399550  -10.700550   -3.814270
  N    -11.177730   -9.431160   -3.320400
  C     -9.879100   -9.340280   -2.934330
  C     -8.930750   -8.492360   -2.372010
  C    -12.638020  -11.174710   -4.305070
  C    -13.793030  -10.480060   -4.452280
  C    -14.990750  -11.071760   -4.961400
  S    -15.085400  -12.713450   -5.305390
  C    -16.125950  -10.261140   -5.190770
  C    -17.283800  -10.759170   -5.705180
  S    -17.541250  -12.445970   -6.106670
  C    -19.138430  -12.007080   -6.648240
  C    -19.385890  -10.680440   -6.511110
  O    -18.344610   -9.988080   -5.958690
  C    -20.559480   -9.974730   -6.894380
  C    -20.708860   -8.630350   -6.775200
  C    -21.874450   -7.969340   -7.217580
  C    -22.099710   -6.626380   -7.314210
  C    -23.492880   -6.134010   -7.458930
  O    -24.475400   -6.787630   -7.718760
  C    -23.423970   -4.683650   -7.163310
  C    -24.458140   -3.777490   -7.067190
  C    -24.147520   -2.456070   -6.741150
  C    -22.809780   -2.080660   -6.513070
  C    -21.768820   -3.005060   -6.622900
  C    -22.080500   -4.311970   -6.956600
  C    -21.226770   -5.481200   -7.186450
  C    -19.883410   -5.427960   -7.450950
  C    -19.125230   -6.497640   -7.974930
  N    -18.465740   -7.304370   -8.455720
  C    -19.106740   -4.254540   -7.338980
  N    -18.425770   -3.336500   -7.239500
  C    -22.515070   -0.739370   -6.163200
  N    -22.270540    0.341430   -5.876000
  C    -25.180310   -1.493740   -6.633960
  N    -26.030190   -0.730670   -6.552340
  H     -8.049270   -1.099600   -4.166780
  H     -3.124240   -0.496830   -3.615770
  H     -6.530020   -3.755490    0.539830
  H     -2.573090   -4.342510    1.526960
  H     -3.579920   -8.994850   -0.757880
  H     -6.942050   -6.888910   -1.219930
  H     -5.696060   -9.619190   -1.857030
  H     -7.262860  -11.218950   -2.877050
  H    -10.097090  -12.456210   -4.069100
  H    -11.874650   -8.710900   -3.249000
  H     -9.060870   -7.484080   -2.035340
  H    -12.647310  -12.215750   -4.600600
  H    -13.851660   -9.428790   -4.202330
  H    -16.078440   -9.203000   -4.982640
  H    -19.804260  -12.738640   -7.056670
  H    -21.337190  -10.573300   -7.346420
  H    -19.911590   -8.058830   -6.324380
  H    -22.729820   -8.592020   -7.460320
  H    -25.479230   -4.082240   -7.239380
  H    -20.756610   -2.682110   -6.437410

 Total Charge           Charge          ....    0
 Multiplicity           Mult            ....    1
 Number of Electrons    NEL             ....  498
 Basis Dimension        Dim             .... 1096

ORBITAL ENERGIES
----------------

  NO   OCC          E(Eh)            E(eV)
   0   2.0000     -88.994747     -2421.6702
   1   2.0000     -88.984162     -2421.3822
   2   2.0000     -88.894439     -2418.9406
   3   2.0000     -88.873168     -2418.3618
   4   2.0000     -19.330627      -526.0131
   5   2.0000     -19.316686      -525.6337
   6   2.0000     -19.237095      -523.4680
   7   2.0000     -19.235499      -523.4245
   8   2.0000     -14.471453      -393.7883
   9   2.0000     -14.465553      -393.6277
  10   2.0000     -14.441679      -392.9781
  11   2.0000     -14.434148      -392.7731
  12   2.0000     -14.433413      -392.7531
  13   2.0000     -14.431317      -392.6961
  14   2.0000     -14.428915      -392.6307
  15   2.0000     -14.428600      -392.6222
  16   2.0000     -14.427734      -392.5986
  17   2.0000     -14.427526      -392.5930
  18   2.0000     -10.409273      -283.2507
  19   2.0000     -10.387705      -282.6638
  20   2.0000     -10.387367      -282.6546
  21   2.0000     -10.385498      -282.6038
  22   2.0000     -10.378009      -282.4000
  23   2.0000     -10.368247      -282.1343
  24   2.0000     -10.367144      -282.1043
  25   2.0000     -10.365070      -282.0479
  26   2.0000     -10.363945      -282.0173
  27   2.0000     -10.362503      -281.9781
  28   2.0000     -10.360748      -281.9303
  29   2.0000     -10.360705      -281.9291
  30   2.0000     -10.360309      -281.9183
  31   2.0000     -10.359714      -281.9021
  32   2.0000     -10.345495      -281.5152
  33   2.0000     -10.344752      -281.4950
  34   2.0000     -10.343153      -281.4515
  35   2.0000     -10.341348      -281.4024
  36   2.0000     -10.340689      -281.3844
  37   2.0000     -10.336005      -281.2570
  38   2.0000     -10.335538      -281.2443
  39   2.0000     -10.334742      -281.2226
  40   2.0000     -10.334472      -281.2153
  41   2.0000     -10.334443      -281.2145
  42   2.0000     -10.334295      -281.2105
  43   2.0000     -10.333734      -281.1952
  44   2.0000     -10.332437      -281.1599
  45   2.0000     -10.330053      -281.0950
  46   2.0000     -10.327002      -281.0120
  47   2.0000     -10.325764      -280.9783
  48   2.0000     -10.325672      -280.9758
  49   2.0000     -10.325336      -280.9667
  50   2.0000     -10.325160      -280.9619
  51   2.0000     -10.323949      -280.9289
  52   2.0000     -10.323836      -280.9259
  53   2.0000     -10.321028      -280.8494
  54   2.0000     -10.319646      -280.8119
  55   2.0000     -10.317623      -280.7568
  56   2.0000     -10.314307      -280.6666
  57   2.0000     -10.313874      -280.6548
  58   2.0000     -10.310192      -280.5546
  59   2.0000     -10.309588      -280.5382
  60   2.0000     -10.309260      -280.5292
  61   2.0000     -10.305814      -280.4355
  62   2.0000     -10.304457      -280.3985
  63   2.0000     -10.294580      -280.1298
  64   2.0000     -10.290357      -280.0148
  65   2.0000     -10.290219      -280.0111
  66   2.0000     -10.277683      -279.6700
  67   2.0000     -10.277107      -279.6543
  68   2.0000     -10.276970      -279.6506
  69   2.0000     -10.274787      -279.5912
  70   2.0000      -8.091303      -220.1756
  71   2.0000      -8.075916      -219.7568
  72   2.0000      -7.990712      -217.4383
  73   2.0000      -7.970863      -216.8982
  74   2.0000      -6.061068      -164.9300
  75   2.0000      -6.056695      -164.8111
  76   2.0000      -6.052358      -164.6930
  77   2.0000      -6.045841      -164.5157
  78   2.0000      -6.040853      -164.3800
  79   2.0000      -6.037740      -164.2952
  80   2.0000      -5.960049      -162.1812
  81   2.0000      -5.957351      -162.1077
  82   2.0000      -5.951239      -161.9414
  83   2.0000      -5.939827      -161.6309
  84   2.0000      -5.936668      -161.5450
  85   2.0000      -5.932275      -161.4254
  86   2.0000      -1.252923       -34.0938
  87   2.0000      -1.236965       -33.6595
  88   2.0000      -1.152345       -31.3569
  89   2.0000      -1.150818       -31.3154
  90   2.0000      -1.100722       -29.9522
  91   2.0000      -1.064080       -28.9551
  92   2.0000      -1.045088       -28.4383
  93   2.0000      -1.043754       -28.4020
  94   2.0000      -1.032899       -28.1066
  95   2.0000      -1.028896       -27.9977
  96   2.0000      -1.016596       -27.6630
  97   2.0000      -1.012298       -27.5460
  98   2.0000      -1.011880       -27.5347
  99   2.0000      -1.010148       -27.4875
 100   2.0000      -1.007416       -27.4132
 101   2.0000      -1.007390       -27.4125
 102   2.0000      -0.983170       -26.7534
 103   2.0000      -0.980656       -26.6850
 104   2.0000      -0.966441       -26.2982
 105   2.0000      -0.961374       -26.1603
 106   2.0000      -0.961026       -26.1509
 107   2.0000      -0.952394       -25.9160
 108   2.0000      -0.937669       -25.5153
 109   2.0000      -0.932005       -25.3612
 110   2.0000      -0.928673       -25.2705
 111   2.0000      -0.927332       -25.2340
 112   2.0000      -0.912196       -24.8221
 113   2.0000      -0.906299       -24.6617
 114   2.0000      -0.904830       -24.6217
 115   2.0000      -0.902367       -24.5546
 116   2.0000      -0.889049       -24.1923
 117   2.0000      -0.880011       -23.9463
 118   2.0000      -0.873154       -23.7597
 119   2.0000      -0.868957       -23.6455
 120   2.0000      -0.850539       -23.1443
 121   2.0000      -0.830312       -22.5939
 122   2.0000      -0.821087       -22.3429
 123   2.0000      -0.811610       -22.0850
 124   2.0000      -0.809830       -22.0366
 125   2.0000      -0.806307       -21.9407
 126   2.0000      -0.794453       -21.6182
 127   2.0000      -0.780763       -21.2456
 128   2.0000      -0.767122       -20.8744
 129   2.0000      -0.755683       -20.5632
 130   2.0000      -0.754852       -20.5406
 131   2.0000      -0.749440       -20.3933
 132   2.0000      -0.739478       -20.1222
 133   2.0000      -0.734092       -19.9757
 134   2.0000      -0.730005       -19.8644
 135   2.0000      -0.713682       -19.4203
 136   2.0000      -0.712171       -19.3792
 137   2.0000      -0.705986       -19.2108
 138   2.0000      -0.702776       -19.1235
 139   2.0000      -0.699134       -19.0244
 140   2.0000      -0.696043       -18.9403
 141   2.0000      -0.689907       -18.7733
 142   2.0000      -0.685983       -18.6665
 143   2.0000      -0.676563       -18.4102
 144   2.0000      -0.662916       -18.0389
 145   2.0000      -0.660405       -17.9705
 146   2.0000      -0.659493       -17.9457
 147   2.0000      -0.657777       -17.8990
 148   2.0000      -0.652195       -17.7471
 149   2.0000      -0.649791       -17.6817
 150   2.0000      -0.632780       -17.2188
 151   2.0000      -0.631934       -17.1958
 152   2.0000      -0.623882       -16.9767
 153   2.0000      -0.616859       -16.7856
 154   2.0000      -0.614052       -16.7092
 155   2.0000      -0.602514       -16.3952
 156   2.0000      -0.600446       -16.3390
 157   2.0000      -0.596723       -16.2377
 158   2.0000      -0.591323       -16.0907
 159   2.0000      -0.584793       -15.9130
 160   2.0000      -0.584074       -15.8935
 161   2.0000      -0.579355       -15.7651
 162   2.0000      -0.574453       -15.6317
 163   2.0000      -0.570499       -15.5241
 164   2.0000      -0.569241       -15.4898
 165   2.0000      -0.568794       -15.4777
 166   2.0000      -0.563871       -15.3437
 167   2.0000      -0.562368       -15.3028
 168   2.0000      -0.561250       -15.2724
 169   2.0000      -0.558414       -15.1952
 170   2.0000      -0.550916       -14.9912
 171   2.0000      -0.545522       -14.8444
 172   2.0000      -0.544183       -14.8080
 173   2.0000      -0.539845       -14.6899
 174   2.0000      -0.537199       -14.6179
 175   2.0000      -0.535520       -14.5722
 176   2.0000      -0.534632       -14.5481
 177   2.0000      -0.531561       -14.4645
 178   2.0000      -0.529659       -14.4128
 179   2.0000      -0.525591       -14.3021
 180   2.0000      -0.524849       -14.2819
 181   2.0000      -0.522022       -14.2049
 182   2.0000      -0.516754       -14.0616
 183   2.0000      -0.515153       -14.0180
 184   2.0000      -0.513372       -13.9696
 185   2.0000      -0.512756       -13.9528
 186   2.0000      -0.508222       -13.8294
 187   2.0000      -0.499378       -13.5888
 188   2.0000      -0.494973       -13.4689
 189   2.0000      -0.492754       -13.4085
 190   2.0000      -0.491091       -13.3633
 191   2.0000      -0.487074       -13.2539
 192   2.0000      -0.482588       -13.1319
 193   2.0000      -0.478715       -13.0265
 194   2.0000      -0.477295       -12.9879
 195   2.0000      -0.473209       -12.8767
 196   2.0000      -0.467514       -12.7217
 197   2.0000      -0.466281       -12.6881
 198   2.0000      -0.464030       -12.6269
 199   2.0000      -0.463070       -12.6008
 200   2.0000      -0.462274       -12.5791
 201   2.0000      -0.460835       -12.5400
 202   2.0000      -0.458641       -12.4802
 203   2.0000      -0.457451       -12.4479
 204   2.0000      -0.454661       -12.3720
 205   2.0000      -0.454074       -12.3560
 206   2.0000      -0.453430       -12.3385
 207   2.0000      -0.452220       -12.3055
 208   2.0000      -0.452203       -12.3051
 209   2.0000      -0.451798       -12.2940
 210   2.0000      -0.451437       -12.2842
 211   2.0000      -0.450512       -12.2591
 212   2.0000      -0.449890       -12.2421
 213   2.0000      -0.448602       -12.2071
 214   2.0000      -0.446920       -12.1613
 215   2.0000      -0.445243       -12.1157
 216   2.0000      -0.442470       -12.0402
 217   2.0000      -0.441072       -12.0022
 218   2.0000      -0.440311       -11.9815
 219   2.0000      -0.436638       -11.8815
 220   2.0000      -0.434111       -11.8128
 221   2.0000      -0.431714       -11.7475
 222   2.0000      -0.430160       -11.7053
 223   2.0000      -0.428073       -11.6485
 224   2.0000      -0.428007       -11.6467
 225   2.0000      -0.423712       -11.5298
 226   2.0000      -0.417725       -11.3669
 227   2.0000      -0.417351       -11.3567
 228   2.0000      -0.407029       -11.0758
 229   2.0000      -0.405811       -11.0427
 230   2.0000      -0.403714       -10.9856
 231   2.0000      -0.386326       -10.5125
 232   2.0000      -0.372893       -10.1469
 233   2.0000      -0.371706       -10.1146
 234   2.0000      -0.368697       -10.0327
 235   2.0000      -0.360763        -9.8169
 236   2.0000      -0.360549        -9.8110
 237   2.0000      -0.356383        -9.6977
 238   2.0000      -0.346338        -9.4243
 239   2.0000      -0.338688        -9.2162
 240   2.0000      -0.334936        -9.1141
 241   2.0000      -0.321038        -8.7359
 242   2.0000      -0.303711        -8.2644
 243   2.0000      -0.298901        -8.1335
 244   2.0000      -0.279870        -7.6156
 245   2.0000      -0.276051        -7.5117
 246   2.0000      -0.272918        -7.4265
 247   2.0000      -0.268367        -7.3026
 248   2.0000      -0.234755        -6.3880
 249   0.0000      -0.114794        -3.1237
 250   0.0000      -0.107339        -2.9209
 251   0.0000      -0.095653        -2.6028
 252   0.0000      -0.083457        -2.2710
 253   0.0000      -0.073673        -2.0048

MULLIKEN ATOMIC CHARGES
-----------------------
   0 C :    0.036645
   1 C :   -0.036215
   2 C :   -0.061267
   3 C :   -0.175587
   4 N :    0.203822
   5 C :   -0.065271
   6 C :   -0.173983
   7 N :    0.197043
   8 C :   -0.029577
   9 C :   -0.000058
  10 C :    0.150346
  11 O :   -0.116655
  12 C :   -0.077962
  13 C :    0.313378
  14 C :   -0.325181
  15 C :   -0.194215
  16 N :    0.172442
  17 C :   -0.141209
  18 N :    0.114491
  19 C :    0.006481
  20 C :   -0.091336
  21 S :   -0.142256
  22 C :    0.075542
  23 C :    0.086213
  24 S :    0.147203
  25 C :   -0.152814
  26 C :    0.243217
  27 O :   -0.199277
  28 C :   -0.017948
  29 C :    0.036869
  30 C :    0.088380
  31 N :   -0.034051
  32 C :    0.122347
  33 C :   -0.162841
  34 C :    0.083261
  35 N :   -0.031243
  36 C :    0.122064
  37 C :   -0.154592
  38 C :    0.088368
  39 C :   -0.040175
  40 C :   -0.021100
  41 S :   -0.222129
  42 C :   -0.050261
  43 C :    0.136186
  44 S :    0.169898
  45 C :   -0.084688
  46 C :    0.214644
  47 O :   -0.189104
  48 C :   -0.003104
  49 C :    0.021699
  50 C :    0.026182
  51 C :   -0.108020
  52 C :    0.146567
  53 O :   -0.127281
  54 C :   -0.000023
  55 C :   -0.033312
  56 C :   -0.066406
  57 C :   -0.061610
  58 C :   -0.039055
  59 C :    0.039152
  60 C :    0.281470
  61 C :   -0.317803
  62 C :   -0.214674
  63 N :    0.184604
  64 C :   -0.180915
  65 N :    0.168630
  66 C :   -0.174631
  67 N :    0.204162
  68 C :   -0.175227
  69 N :    0.198108
  70 H :    0.024525
  71 H :    0.018567
  72 H :    0.063703
  73 H :    0.002199
  74 H :    0.040947
  75 H :   -0.005129
  76 H :   -0.032491
  77 H :    0.121463
  78 H :   -0.027335
  79 H :    0.129602
  80 H :   -0.029864
  81 H :    0.002447
  82 H :   -0.039564
  83 H :   -0.005651
  84 H :    0.035721
  85 H :    0.015329
  86 H :    0.034791
  87 H :    0.023352
  88 H :    0.017572
  89 H :    0.023458
Sum of atomic charges:   -0.0000000

LOEWDIN ATOMIC CHARGES
----------------------
   0 C :    0.001313
   1 C :    0.035274
   2 C :   -0.024158
   3 C :   -0.032010
   4 N :   -0.010166
   5 C :   -0.026729
   6 C :   -0.031744
   7 N :   -0.012835
   8 C :    0.048887
   9 C :   -0.025533
  10 C :    0.083495
  11 O :   -0.115924
  12 C :   -0.111233
  13 C :    0.079619
  14 C :   -0.135010
  15 C :   -0.025695
  16 N :   -0.037696
  17 C :   -0.002845
  18 N :   -0.055340
  19 C :    0.077986
  20 C :   -0.121392
  21 S :    0.027309
  22 C :   -0.139255
  23 C :   -0.036515
  24 S :    0.431660
  25 C :   -0.215714
  26 C :    0.038697
  27 O :    0.003020
  28 C :   -0.059309
  29 C :    0.000246
  30 C :   -0.006311
  31 N :    0.071427
  32 C :   -0.022044
  33 C :   -0.071758
  34 C :   -0.004453
  35 N :    0.072315
  36 C :   -0.007356
  37 C :   -0.075296
  38 C :    0.023974
  39 C :   -0.085061
  40 C :   -0.120519
  41 S :   -0.039751
  42 C :   -0.142987
  43 C :   -0.040734
  44 S :    0.448810
  45 C :   -0.182475
  46 C :    0.006724
  47 O :   -0.003713
  48 C :    0.026391
  49 C :   -0.029916
  50 C :    0.076552
  51 C :   -0.099321
  52 C :    0.082190
  53 O :   -0.129356
  54 C :   -0.031367
  55 C :    0.049135
  56 C :   -0.029373
  57 C :   -0.022740
  58 C :    0.031608
  59 C :    0.005392
  60 C :    0.062602
  61 C :   -0.121269
  62 C :   -0.025204
  63 N :   -0.032053
  64 C :   -0.023189
  65 N :   -0.032190
  66 C :   -0.031686
  67 N :   -0.010013
  68 C :   -0.032127
  69 N :   -0.013645
  70 H :    0.053008
  71 H :    0.054904
  72 H :    0.054795
  73 H :    0.044235
  74 H :    0.032962
  75 H :    0.037715
  76 H :    0.026254
  77 H :    0.089163
  78 H :    0.028908
  79 H :    0.091527
  80 H :    0.028366
  81 H :    0.032532
  82 H :    0.017110
  83 H :    0.036513
  84 H :    0.034646
  85 H :    0.046376
  86 H :    0.037113
  87 H :    0.047202
  88 H :    0.054541
  89 H :    0.052513

  Mayer bond orders larger than 0.100000
B(  0-C ,  1-C ) :   1.3620 B(  0-C ,  9-C ) :   1.3301 B(  0-C , 13-C ) :   0.9731
B(  1-C ,  2-C ) :   1.3924 B(  1-C , 70-H ) :   0.9879 B(  2-C ,  3-C ) :   1.0854
B(  2-C ,  5-C ) :   1.4024 B(  3-C ,  4-N ) :   3.0453 B(  5-C ,  6-C ) :   1.0873
B(  5-C ,  8-C ) :   1.3639 B(  6-C ,  7-N ) :   3.0440 B(  8-C ,  9-C ) :   1.3750
B(  8-C , 71-H ) :   1.0129 B(  9-C , 10-C ) :   0.9065 B( 10-C , 11-O ) :   2.2633
B( 10-C , 12-C ) :   0.9437 B( 12-C , 13-C ) :   1.0452 B( 12-C , 19-C ) :   1.6935
B( 13-C , 14-C ) :   1.6570 B( 14-C , 15-C ) :   1.1303 B( 14-C , 17-C ) :   1.1719
B( 15-C , 16-N ) :   2.9816 B( 17-C , 18-N ) :   2.8448 B( 19-C , 20-C ) :   0.9871
B( 19-C , 21-S ) :   0.1436 B( 19-C , 72-H ) :   0.9325 B( 20-C , 21-S ) :   1.5320
B( 20-C , 22-C ) :   1.2893 B( 22-C , 23-C ) :   1.4860 B( 22-C , 73-H ) :   0.9524
B( 23-C , 24-S ) :   1.1217 B( 23-C , 27-O ) :   1.1468 B( 24-S , 25-C ) :   1.0307
B( 25-C , 26-C ) :   1.6677 B( 25-C , 74-H ) :   0.9567 B( 26-C , 27-O ) :   1.0386
B( 26-C , 28-C ) :   1.1154 B( 28-C , 29-C ) :   1.6751 B( 28-C , 75-H ) :   0.9567
B( 29-C , 30-C ) :   1.1342 B( 29-C , 76-H ) :   0.9578 B( 30-C , 31-N ) :   1.1637
B( 30-C , 37-C ) :   1.3968 B( 31-N , 32-C ) :   1.1695 B( 31-N , 77-H ) :   0.9370
B( 32-C , 33-C ) :   1.2467 B( 32-C , 36-C ) :   1.2963 B( 33-C , 34-C ) :   1.3466
B( 33-C , 78-H ) :   1.0439 B( 34-C , 35-N ) :   1.1906 B( 34-C , 38-C ) :   1.1692
B( 35-N , 36-C ) :   1.1751 B( 35-N , 79-H ) :   0.9323 B( 36-C , 37-C ) :   1.2665
B( 37-C , 80-H ) :   1.0279 B( 38-C , 39-C ) :   1.5896 B( 38-C , 81-H ) :   0.9438
B( 39-C , 40-C ) :   1.1558 B( 39-C , 82-H ) :   0.9829 B( 40-C , 41-S ) :   1.4812
B( 40-C , 42-C ) :   1.2157 B( 41-S , 44-S ) :   0.2652 B( 42-C , 43-C ) :   1.5241
B( 42-C , 83-H ) :   0.9767 B( 43-C , 44-S ) :   1.1030 B( 43-C , 47-O ) :   1.1419
B( 44-S , 45-C ) :   0.9961 B( 45-C , 46-C ) :   1.5991 B( 45-C , 84-H ) :   0.9632
B( 46-C , 47-O ) :   1.0661 B( 46-C , 48-C ) :   1.1379 B( 48-C , 49-C ) :   1.6179
B( 48-C , 85-H ) :   0.9763 B( 49-C , 50-C ) :   1.1396 B( 49-C , 86-H ) :   0.9611
B( 50-C , 51-C ) :   1.5922 B( 50-C , 87-H ) :   0.9551 B( 51-C , 52-C ) :   0.9509
B( 51-C , 60-C ) :   1.0461 B( 52-C , 53-O ) :   2.2766 B( 52-C , 54-C ) :   0.9027
B( 54-C , 55-C ) :   1.3696 B( 54-C , 59-C ) :   1.3333 B( 55-C , 56-C ) :   1.3651
B( 55-C , 88-H ) :   1.0152 B( 56-C , 57-C ) :   1.4031 B( 56-C , 68-C ) :   1.0875
B( 57-C , 58-C ) :   1.3873 B( 57-C , 66-C ) :   1.0877 B( 58-C , 59-C ) :   1.3622
B( 58-C , 89-H ) :   0.9886 B( 59-C , 60-C ) :   0.9765 B( 60-C , 61-C ) :   1.6594
B( 61-C , 62-C ) :   1.1602 B( 61-C , 64-C ) :   1.1305 B( 62-C , 63-N ) :   3.0104
B( 64-C , 65-N ) :   2.9772 B( 66-C , 67-N ) :   3.0446 B( 68-C , 69-N ) :   3.0459

-----------------------------------------------------------------------------
         ABSORPTION SPECTRUM VIA TRANSITION ELECTRIC DIPOLE MOMENTS
-----------------------------------------------------------------------------
State   Energy  Wavelength   fosc         T2         TX        TY        TZ
        (cm-1)    (nm)                  (au**2)     (au)      (au)      (au)
-----------------------------------------------------------------------------
   0   14358.2    696.5   0.001515508   0.03475   0.14184   0.10151   0.06577
   1   15622.9    640.1   0.667247380  14.06049   3.40948  -0.91313   1.26574
   2   18167.6    550.4   0.001934815   0.03506   0.11991  -0.13838   0.03916
   3   18884.9    529.5   0.123641454   2.15539  -0.46614  -1.37705   0.20453
   4   19392.5    515.7   0.001634027   0.02774   0.09150   0.00760  -0.13896
   5   19624.0    509.6   0.472777107   7.93128  -2.27509   1.33272  -0.98949
   6   20363.8    491.1   1.084259910  17.52874  -3.39156  -2.04037  -1.36490
   7   20505.3    487.7   0.086411511   1.38734   0.98126   0.34120   0.55502
   8   21025.7    475.6   0.103117271   1.61457  -1.13137  -0.48907  -0.30882
   9   21478.8    465.6   0.087992236   1.34869  -0.81694   0.47784  -0.67303
  10   22132.6    451.8   0.231275786   3.44012  -0.92115  -1.49746  -0.59094
  11   22861.7    437.4   0.218682658   3.14907  -1.42860   0.28383  -1.01371
  12   24590.6    406.7   0.001745287   0.02337   0.09151  -0.10820  -0.05731
  13   24956.2    400.7   0.074392346   0.98135  -0.61142  -0.77794   0.04831
  14   25452.0    392.9   0.095735250   1.23830   0.39348  -0.83389  -0.62299
  15   26210.9    381.5   0.292101112   3.66882  -0.44408   1.85649  -0.15835
  16   27088.1    369.2   0.000887163   0.01078   0.01103  -0.10317   0.00406
  17   27303.0    366.3   0.000019014   0.00023   0.00952   0.00935  -0.00715
  18   28175.2    354.9   0.073325015   0.85676  -0.44814  -0.79770  -0.14004
  19   28362.2    352.6   0.022453431   0.26063   0.17458   0.06885  -0.47477
  20   28604.0    349.6   0.008946938   0.10297   0.22068   0.23295  -0.00283
  21   28776.5    347.5   0.003938553   0.04506  -0.13810  -0.13427   0.08920
  22   28934.3    345.6   0.019878083   0.22617   0.22513  -0.36318   0.20879
  23   29106.2    343.6   0.000196597   0.00222   0.04405   0.00192   0.01673
  24   29217.3    342.3   0.037768318   0.42556  -0.47026  -0.37487  -0.25277
  25   29932.2    334.1   0.003559722   0.03915  -0.17647  -0.07539   0.04824
  26   30145.3    331.7   0.007822043   0.08542   0.22724   0.18324  -0.01449
  27   30242.3    330.7   0.043549228   0.47407   0.30196   0.61084   0.09881
  28   30344.7    329.5   0.003341206   0.03625  -0.12498  -0.14115   0.02657
  29   30823.4    324.4   0.016125184   0.17223  -0.33910   0.14253   0.19215
  30   31160.9    320.9   0.239060978   2.52566  -1.22293   1.00973   0.10269
  31   31839.2    314.1   0.032116197   0.33208  -0.41380  -0.38880   0.09836
  32   32031.1    312.2   0.146188475   1.50251  -0.89162   0.82483   0.16485
  33   32520.9    307.5   0.045039321   0.45594   0.35489   0.56662   0.09452
  34   32934.5    303.6   0.215688930   2.15602   1.26001   0.66386  -0.35733
  35   33140.7    301.7   0.018696403   0.18573   0.39248  -0.13491  -0.11612
  36   33208.8    301.1   0.007099381   0.07038  -0.21400  -0.02686   0.15447
  37   33248.7    300.8   0.131667476   1.30370   0.51141   1.01722  -0.08614
  38   33279.3    300.5   0.232771326   2.30266  -0.83124  -1.25511   0.19080
  39   33452.3    298.9   0.317669289   3.12626  -1.24240   1.11610   0.58055
  40   33619.1    297.4   0.098240151   0.96201  -0.26513   0.75518   0.56694
  41   34362.3    291.0   0.071235167   0.68248   0.00160  -0.82603  -0.01245
  42   34663.3    288.5   0.000558613   0.00531  -0.00392  -0.06815  -0.02540
  43   34856.4    286.9   0.010535588   0.09951   0.20643  -0.23672  -0.02931
  44   35188.3    284.2   0.001933007   0.01808   0.11239  -0.07385  -0.00096
  45   35230.3    283.8   0.601836829   5.62391  -1.83597   1.45695   0.36115
  46   35709.2    280.0   0.001210410   0.01116  -0.05120   0.08064  -0.04510
  47   35969.2    278.0   0.029935011   0.27398   0.42387  -0.29538   0.08405
  48   35981.2    277.9   0.001810540   0.01657  -0.11617   0.04086  -0.03741
  49   36756.4    272.1   0.034965253   0.31317   0.38390   0.29996  -0.27535
  50   36762.4    272.0   0.034434770   0.30837  -0.51206  -0.18103  -0.11574
  51   36879.7    271.2   0.168261189   1.50201   0.54398   0.72126  -0.82817
  52   37067.6    269.8   0.043788365   0.38890  -0.61681  -0.09120  -0.01133
  53   37301.2    268.1   0.000460032   0.00406   0.01815  -0.04237  -0.04400
  54   37359.4    267.7   0.023493076   0.20702  -0.13467  -0.16542   0.40190
  55   37760.1    264.8   0.018097051   0.15778  -0.31487  -0.04483  -0.23796
  56   37902.5    263.8   0.032475587   0.28208   0.48549   0.06276   0.20600
  57   38132.9    262.2   0.114354404   0.98725   0.38805  -0.91371   0.04257
  58   38556.4    259.4   0.003187249   0.02721  -0.10207  -0.07938   0.10244
  59   38799.3    257.7   0.184543121   1.56585  -0.54703  -1.04494   0.41798
  60   39001.5    256.4   0.020536108   0.17335  -0.39443  -0.11664   0.06452
  61   39130.8    255.6   0.041646844   0.35038  -0.54854   0.21469   0.05828
  62   39284.3    254.6   0.017531908   0.14692  -0.28508   0.25217  -0.04537
  63   39565.6    252.7   0.024261413   0.20187  -0.21580  -0.34429  -0.19175
  64   39682.7    252.0   0.015907354   0.13197   0.09908   0.33794  -0.08914
  65   39870.5    250.8   0.078193355   0.64564   0.38939   0.46899   0.52352
  66   39961.0    250.2   0.004272087   0.03519  -0.05059  -0.17465   0.04620

FINAL SINGLE POINT ENERGY     -4430.408828811359

DIPOLE MOMENT
-------------
                                X             Y             Z
Electronic contribution:     -1.36964      27.83643      -2.72833
Nuclear contribution   :      3.02439     -34.30459       4.46425
                        -----------------------------------------
Total Dipole Moment    :      1.65474      -6.46817       1.73592
                        -----------------------------------------
Magnitude (a.u.)       :      6.89846
Magnitude (Debye)      :     17.53449

Rotational constants in cm-1:     0.000959     0.000271     0.000224
Rotational constants in MHz :    28.745411     8.136809     6.701100

                             ****ORCA TERMINATED NORMALLY****
TOTAL RUN TIME: 0 days 0 hours 8 minutes 29 seconds 718 msec
