                         Program Version 4.2.0 -  RELEASE  -
|  1> # ORCA input file
|  2> # SCF done       -165.301719563178          0.000928626271
|  3> ! CAM-B3LYP def2-SVP def2/J RIJCOSX Grid4 TightSCF
|  4> %maxcore 5000
|  5> %tddft
|  6>     Mode sTDDFT
|  7>     Ethresh 5.0
|  8>     maxcore 5000
|  9> end
| 10>
| 11> %pal
| 12>   nprocs 6
| 13>   end
| 14> * xyz 0 1
| 15>    C       -6.25673         4.07376         2.24229
| 16>    C       -6.06262         4.63461         3.49653
| 17>    C       -5.55342         3.88387         4.54529
| 18>    C       -5.21395         2.55047         4.36755
| 19>    C       -5.40359         1.98089         3.12023
| 20>    C       -5.93219         2.74032         2.05311
| 21>    C       -6.05018         1.88165         0.87990
| 22>    C       -6.44212         2.29231        -0.36833
| 23>    C       -6.75782         3.62740        -0.69810
| 24>    N       -7.03093         4.68816        -1.04238
| 25>    C       -6.56079         1.47882        -1.51425
| 26>    N       -6.68110         0.89277        -2.49511
| 27>    C       -5.69414         0.53530         1.30488
| 28>    C       -5.12702         0.63776         2.63158
| 29>    C       -4.27308        -0.26096         3.22526
| 30>    C       -3.78425        -1.42524         2.60164
| 31>    N       -3.31931        -2.36652         2.13649
| 32>    C       -3.70633        -0.08581         4.50347
| 33>    N       -3.24283        -0.02216         5.55218
| 34>    C       -5.92145        -0.59046         0.54570
| 35>    C       -6.03924        -1.93423         0.92826
| 36>    S       -5.84871        -3.13004        -0.35029
| 37>    C       -6.18277        -4.46201         0.72556
| 38>    C       -6.45042        -3.97650         1.99355
| 39>    C       -6.37889        -2.58635         2.10853
| 40>    C       -6.85246        -2.15106         3.45601
| 41>    C       -6.79504        -3.44797         4.28363
| 42>    C       -6.86984        -4.61233         3.27795
| 43>    C       -6.17487        -5.79369         0.24623
| 44>    N       -5.97725        -6.07513        -1.08935
| 45>    C       -6.04403        -7.41917        -1.26258
| 46>    C       -5.98682        -8.43525        -2.20913
| 47>    C       -6.17868        -9.63197        -1.50529
| 48>    N       -6.34296        -9.35029        -0.16246
| 49>    C       -6.27911        -8.00545         0.00962
| 50>    C       -6.36741        -6.98869         0.95330
| 51>    C       -6.22510       -10.96922        -1.97018
| 52>    C       -6.23920       -11.33517        -3.27740
| 53>    C       -6.31143       -12.67112        -3.73887
| 54>    S       -6.66848       -12.95433        -5.43019
| 55>    C       -6.63828       -14.70112        -5.22787
| 56>    C       -6.31593       -14.99464        -3.91320
| 57>    C       -6.16006       -13.88129        -3.08596
| 58>    C       -5.84866       -14.30808        -1.68728
| 59>    C       -5.47305       -15.79503        -1.85654
| 60>    C       -6.15779       -16.26509        -3.15415
| 61>    C       -6.80750       -15.63355        -6.26532
| 62>    C       -7.41279       -15.44962        -7.48224
| 63>    C       -7.15360       -16.24303        -8.67256
| 64>    C       -6.50946       -17.45184        -8.74426
| 65>    C       -6.00805       -18.17300        -7.64211
| 66>    N       -5.57604       -18.81023        -6.78890
| 67>    C       -6.29129       -18.16294        -9.94234
| 68>    N       -6.08307       -18.79693       -10.87681
| 69>    C       -7.69259       -15.49314        -9.80167
| 70>    C       -8.37451       -14.35578        -9.31260
| 71>    C       -8.96455       -13.45476       -10.18200
| 72>    C       -8.87201       -13.69427       -11.54510
| 73>    C       -8.21329       -14.81558       -12.02820
| 74>    C       -7.61887       -15.72531       -11.16578
| 75>    C       -8.34078       -14.39567        -7.85941
| 76>    C       -9.23960       -13.78439        -7.02359
| 77>    C      -10.17813       -12.82247        -7.44480
| 78>    N      -10.94940       -12.02052        -7.72785
| 79>    C       -9.39599       -14.13231        -5.66617
| 80>    N       -9.59202       -14.43765        -4.57662
| 81>    H       -6.65698         4.67320         1.44162
| 82>    H       -6.31671         5.67147         3.65530
| 83>    H       -5.41898         4.33947         5.51443
| 84>    H       -4.82371         1.97601         5.19207
| 85>    H       -6.08175        -0.42761        -0.51275
| 86>    H       -7.87747        -1.77703         3.36743
| 87>    H       -6.25719        -1.36211         3.91256
| 88>    H       -7.59073        -3.49295         5.02495
| 89>    H       -5.84027        -3.48835         4.80936
| 90>    H       -7.88689        -5.00335         3.18758
| 91>    H       -6.21379        -5.43228         3.56792
| 92>    H       -5.81628        -5.37723        -1.79591
| 93>    H       -5.82098        -8.34623        -3.26292
| 94>    H       -6.51643       -10.04081         0.54744
| 95>    H       -6.54435        -7.07656         2.00432
| 96>    H       -6.29311       -11.73411        -1.20981
| 97>    H       -6.24091       -10.57030        -4.04056
| 98>    H       -6.73945       -14.20154        -1.06186
| 99>    H       -5.03927       -13.73111        -1.23870
|100>    H       -5.77106       -16.39164        -0.99672
|101>    H       -4.39162       -15.88132        -1.97022
|102>    H       -7.14437       -16.68954        -2.95042
|103>    H       -5.57598       -17.01454        -3.69082
|104>    H       -6.33140       -16.58744        -6.07710
|105>    H       -9.47430       -12.57857        -9.81481
|106>    H       -9.31943       -12.99724       -12.23713
|107>    H       -8.15770       -14.98485       -13.09275
|108>    H       -7.10978       -16.58893       -11.56088
|109> *
|110>
|111>                          ****END OF INPUT****

CARTESIAN COORDINATES (ANGSTROEM)
---------------------------------
  C     -6.256730    4.073760    2.242290
  C     -6.062620    4.634610    3.496530
  C     -5.553420    3.883870    4.545290
  C     -5.213950    2.550470    4.367550
  C     -5.403590    1.980890    3.120230
  C     -5.932190    2.740320    2.053110
  C     -6.050180    1.881650    0.879900
  C     -6.442120    2.292310   -0.368330
  C     -6.757820    3.627400   -0.698100
  N     -7.030930    4.688160   -1.042380
  C     -6.560790    1.478820   -1.514250
  N     -6.681100    0.892770   -2.495110
  C     -5.694140    0.535300    1.304880
  C     -5.127020    0.637760    2.631580
  C     -4.273080   -0.260960    3.225260
  C     -3.784250   -1.425240    2.601640
  N     -3.319310   -2.366520    2.136490
  C     -3.706330   -0.085810    4.503470
  N     -3.242830   -0.022160    5.552180
  C     -5.921450   -0.590460    0.545700
  C     -6.039240   -1.934230    0.928260
  S     -5.848710   -3.130040   -0.350290
  C     -6.182770   -4.462010    0.725560
  C     -6.450420   -3.976500    1.993550
  C     -6.378890   -2.586350    2.108530
  C     -6.852460   -2.151060    3.456010
  C     -6.795040   -3.447970    4.283630
  C     -6.869840   -4.612330    3.277950
  C     -6.174870   -5.793690    0.246230
  N     -5.977250   -6.075130   -1.089350
  C     -6.044030   -7.419170   -1.262580
  C     -5.986820   -8.435250   -2.209130
  C     -6.178680   -9.631970   -1.505290
  N     -6.342960   -9.350290   -0.162460
  C     -6.279110   -8.005450    0.009620
  C     -6.367410   -6.988690    0.953300
  C     -6.225100  -10.969220   -1.970180
  C     -6.239200  -11.335170   -3.277400
  C     -6.311430  -12.671120   -3.738870
  S     -6.668480  -12.954330   -5.430190
  C     -6.638280  -14.701120   -5.227870
  C     -6.315930  -14.994640   -3.913200
  C     -6.160060  -13.881290   -3.085960
  C     -5.848660  -14.308080   -1.687280
  C     -5.473050  -15.795030   -1.856540
  C     -6.157790  -16.265090   -3.154150
  C     -6.807500  -15.633550   -6.265320
  C     -7.412790  -15.449620   -7.482240
  C     -7.153600  -16.243030   -8.672560
  C     -6.509460  -17.451840   -8.744260
  C     -6.008050  -18.173000   -7.642110
  N     -5.576040  -18.810230   -6.788900
  C     -6.291290  -18.162940   -9.942340
  N     -6.083070  -18.796930  -10.876810
  C     -7.692590  -15.493140   -9.801670
  C     -8.374510  -14.355780   -9.312600
  C     -8.964550  -13.454760  -10.182000
  C     -8.872010  -13.694270  -11.545100
  C     -8.213290  -14.815580  -12.028200
  C     -7.618870  -15.725310  -11.165780
  C     -8.340780  -14.395670   -7.859410
  C     -9.239600  -13.784390   -7.023590
  C    -10.178130  -12.822470   -7.444800
  N    -10.949400  -12.020520   -7.727850
  C     -9.395990  -14.132310   -5.666170
  N     -9.592020  -14.437650   -4.576620
  H     -6.656980    4.673200    1.441620
  H     -6.316710    5.671470    3.655300
  H     -5.418980    4.339470    5.514430
  H     -4.823710    1.976010    5.192070
  H     -6.081750   -0.427610   -0.512750
  H     -7.877470   -1.777030    3.367430
  H     -6.257190   -1.362110    3.912560
  H     -7.590730   -3.492950    5.024950
  H     -5.840270   -3.488350    4.809360
  H     -7.886890   -5.003350    3.187580
  H     -6.213790   -5.432280    3.567920
  H     -5.816280   -5.377230   -1.795910
  H     -5.820980   -8.346230   -3.262920
  H     -6.516430  -10.040810    0.547440
  H     -6.544350   -7.076560    2.004320
  H     -6.293110  -11.734110   -1.209810
  H     -6.240910  -10.570300   -4.040560
  H     -6.739450  -14.201540   -1.061860
  H     -5.039270  -13.731110   -1.238700
  H     -5.771060  -16.391640   -0.996720
  H     -4.391620  -15.881320   -1.970220
  H     -7.144370  -16.689540   -2.950420
  H     -5.575980  -17.014540   -3.690820
  H     -6.331400  -16.587440   -6.077100
  H     -9.474300  -12.578570   -9.814810
  H     -9.319430  -12.997240  -12.237130
  H     -8.157700  -14.984850  -13.092750
  H     -7.109780  -16.588930  -11.560880

 Total Charge           Charge          ....    0
 Multiplicity           Mult            ....    1
 Number of Electrons    NEL             ....  454
 Basis Dimension        Dim             .... 1072

ORBITAL ENERGIES
----------------

  NO   OCC          E(Eh)            E(eV)
   0   2.0000     -88.971401     -2421.0349
   1   2.0000     -88.966500     -2420.9016
   2   2.0000     -14.476459      -393.9245
   3   2.0000     -14.476191      -393.9172
   4   2.0000     -14.420541      -392.4029
   5   2.0000     -14.419728      -392.3808
   6   2.0000     -14.419501      -392.3746
   7   2.0000     -14.418903      -392.3583
   8   2.0000     -14.416740      -392.2994
   9   2.0000     -14.416134      -392.2829
  10   2.0000     -14.414589      -392.2409
  11   2.0000     -14.414503      -392.2386
  12   2.0000     -10.346748      -281.5493
  13   2.0000     -10.345858      -281.5251
  14   2.0000     -10.344826      -281.4970
  15   2.0000     -10.344613      -281.4912
  16   2.0000     -10.343879      -281.4713
  17   2.0000     -10.343313      -281.4559
  18   2.0000     -10.342874      -281.4439
  19   2.0000     -10.340905      -281.3903
  20   2.0000     -10.332506      -281.1618
  21   2.0000     -10.331358      -281.1306
  22   2.0000     -10.327363      -281.0218
  23   2.0000     -10.326805      -281.0067
  24   2.0000     -10.325580      -280.9733
  25   2.0000     -10.324349      -280.9398
  26   2.0000     -10.323224      -280.9092
  27   2.0000     -10.322527      -280.8902
  28   2.0000     -10.322519      -280.8900
  29   2.0000     -10.321588      -280.8647
  30   2.0000     -10.320514      -280.8355
  31   2.0000     -10.319312      -280.8028
  32   2.0000     -10.319217      -280.8002
  33   2.0000     -10.317822      -280.7622
  34   2.0000     -10.317300      -280.7480
  35   2.0000     -10.314535      -280.6728
  36   2.0000     -10.313799      -280.6527
  37   2.0000     -10.312403      -280.6147
  38   2.0000     -10.312058      -280.6054
  39   2.0000     -10.309566      -280.5376
  40   2.0000     -10.309336      -280.5313
  41   2.0000     -10.308941      -280.5205
  42   2.0000     -10.308153      -280.4991
  43   2.0000     -10.307814      -280.4899
  44   2.0000     -10.306500      -280.4541
  45   2.0000     -10.304443      -280.3982
  46   2.0000     -10.299313      -280.2586
  47   2.0000     -10.298435      -280.2347
  48   2.0000     -10.298034      -280.2237
  49   2.0000     -10.297910      -280.2204
  50   2.0000     -10.297386      -280.2061
  51   2.0000     -10.296862      -280.1919
  52   2.0000     -10.296680      -280.1869
  53   2.0000     -10.296250      -280.1752
  54   2.0000     -10.296036      -280.1694
  55   2.0000     -10.294873      -280.1377
  56   2.0000     -10.289649      -279.9956
  57   2.0000     -10.288058      -279.9523
  58   2.0000     -10.287482      -279.9366
  59   2.0000     -10.287354      -279.9331
  60   2.0000     -10.286492      -279.9097
  61   2.0000     -10.285927      -279.8943
  62   2.0000     -10.283252      -279.8215
  63   2.0000     -10.282438      -279.7993
  64   2.0000     -10.280538      -279.7477
  65   2.0000     -10.279513      -279.7198
  66   2.0000      -8.066950      -219.5129
  67   2.0000      -8.061350      -219.3605
  68   2.0000      -6.036405      -164.2589
  69   2.0000      -6.032348      -164.1485
  70   2.0000      -6.030870      -164.1083
  71   2.0000      -6.028620      -164.0471
  72   2.0000      -6.026726      -163.9955
  73   2.0000      -6.023041      -163.8953
  74   2.0000      -1.109794       -30.1990
  75   2.0000      -1.073919       -29.2228
  76   2.0000      -1.033677       -28.1278
  77   2.0000      -1.032107       -28.0851
  78   2.0000      -1.016899       -27.6712
  79   2.0000      -1.014345       -27.6017
  80   2.0000      -1.009603       -27.4727
  81   2.0000      -1.007470       -27.4147
  82   2.0000      -1.005588       -27.3634
  83   2.0000      -1.002982       -27.2925
  84   2.0000      -0.996723       -27.1222
  85   2.0000      -0.996442       -27.1146
  86   2.0000      -0.995112       -27.0784
  87   2.0000      -0.993257       -27.0279
  88   2.0000      -0.956637       -26.0314
  89   2.0000      -0.955440       -25.9989
  90   2.0000      -0.937409       -25.5082
  91   2.0000      -0.935550       -25.4576
  92   2.0000      -0.934204       -25.4210
  93   2.0000      -0.933037       -25.3892
  94   2.0000      -0.922674       -25.1072
  95   2.0000      -0.910475       -24.7753
  96   2.0000      -0.897796       -24.4303
  97   2.0000      -0.891745       -24.2656
  98   2.0000      -0.889108       -24.1939
  99   2.0000      -0.882435       -24.0123
 100   2.0000      -0.879139       -23.9226
 101   2.0000      -0.863640       -23.5008
 102   2.0000      -0.862075       -23.4583
 103   2.0000      -0.855162       -23.2702
 104   2.0000      -0.841916       -22.9097
 105   2.0000      -0.818511       -22.2728
 106   2.0000      -0.814704       -22.1692
 107   2.0000      -0.811982       -22.0952
 108   2.0000      -0.805794       -21.9268
 109   2.0000      -0.801887       -21.8205
 110   2.0000      -0.789067       -21.4716
 111   2.0000      -0.786575       -21.4038
 112   2.0000      -0.784697       -21.3527
 113   2.0000      -0.752173       -20.4677
 114   2.0000      -0.736082       -20.0298
 115   2.0000      -0.714842       -19.4519
 116   2.0000      -0.713430       -19.4134
 117   2.0000      -0.712461       -19.3870
 118   2.0000      -0.710880       -19.3440
 119   2.0000      -0.709883       -19.3169
 120   2.0000      -0.707617       -19.2552
 121   2.0000      -0.703422       -19.1411
 122   2.0000      -0.692196       -18.8356
 123   2.0000      -0.688744       -18.7417
 124   2.0000      -0.685104       -18.6426
 125   2.0000      -0.673610       -18.3299
 126   2.0000      -0.668202       -18.1827
 127   2.0000      -0.663911       -18.0659
 128   2.0000      -0.663043       -18.0423
 129   2.0000      -0.661911       -18.0115
 130   2.0000      -0.659268       -17.9396
 131   2.0000      -0.652580       -17.7576
 132   2.0000      -0.641110       -17.4455
 133   2.0000      -0.631836       -17.1931
 134   2.0000      -0.621567       -16.9137
 135   2.0000      -0.617591       -16.8055
 136   2.0000      -0.604216       -16.4416
 137   2.0000      -0.594994       -16.1906
 138   2.0000      -0.591355       -16.0916
 139   2.0000      -0.583207       -15.8699
 140   2.0000      -0.581577       -15.8255
 141   2.0000      -0.581268       -15.8171
 142   2.0000      -0.581131       -15.8134
 143   2.0000      -0.573212       -15.5979
 144   2.0000      -0.571139       -15.5415
 145   2.0000      -0.569750       -15.5037
 146   2.0000      -0.556114       -15.1326
 147   2.0000      -0.554230       -15.0814
 148   2.0000      -0.542486       -14.7618
 149   2.0000      -0.541404       -14.7323
 150   2.0000      -0.540138       -14.6979
 151   2.0000      -0.538365       -14.6497
 152   2.0000      -0.536544       -14.6001
 153   2.0000      -0.536055       -14.5868
 154   2.0000      -0.534701       -14.5500
 155   2.0000      -0.533535       -14.5182
 156   2.0000      -0.525230       -14.2922
 157   2.0000      -0.519719       -14.1423
 158   2.0000      -0.515363       -14.0238
 159   2.0000      -0.511889       -13.9292
 160   2.0000      -0.509392       -13.8613
 161   2.0000      -0.506870       -13.7926
 162   2.0000      -0.506376       -13.7792
 163   2.0000      -0.502607       -13.6766
 164   2.0000      -0.499057       -13.5800
 165   2.0000      -0.496796       -13.5185
 166   2.0000      -0.494618       -13.4592
 167   2.0000      -0.493759       -13.4359
 168   2.0000      -0.485909       -13.2222
 169   2.0000      -0.482586       -13.1318
 170   2.0000      -0.481481       -13.1018
 171   2.0000      -0.478790       -13.0285
 172   2.0000      -0.477354       -12.9895
 173   2.0000      -0.475804       -12.9473
 174   2.0000      -0.466169       -12.6851
 175   2.0000      -0.465984       -12.6801
 176   2.0000      -0.463309       -12.6073
 177   2.0000      -0.461961       -12.5706
 178   2.0000      -0.461020       -12.5450
 179   2.0000      -0.459384       -12.5005
 180   2.0000      -0.455451       -12.3934
 181   2.0000      -0.454375       -12.3642
 182   2.0000      -0.452951       -12.3254
 183   2.0000      -0.452327       -12.3085
 184   2.0000      -0.451255       -12.2793
 185   2.0000      -0.450389       -12.2557
 186   2.0000      -0.448842       -12.2136
 187   2.0000      -0.446237       -12.1427
 188   2.0000      -0.445035       -12.1100
 189   2.0000      -0.444266       -12.0891
 190   2.0000      -0.442958       -12.0535
 191   2.0000      -0.440767       -11.9939
 192   2.0000      -0.439172       -11.9505
 193   2.0000      -0.437599       -11.9077
 194   2.0000      -0.435410       -11.8481
 195   2.0000      -0.431095       -11.7307
 196   2.0000      -0.430392       -11.7116
 197   2.0000      -0.429582       -11.6895
 198   2.0000      -0.428694       -11.6653
 199   2.0000      -0.428622       -11.6634
 200   2.0000      -0.426534       -11.6066
 201   2.0000      -0.425130       -11.5684
 202   2.0000      -0.423255       -11.5174
 203   2.0000      -0.422799       -11.5049
 204   2.0000      -0.417604       -11.3636
 205   2.0000      -0.413020       -11.2388
 206   2.0000      -0.412517       -11.2251
 207   2.0000      -0.412448       -11.2233
 208   2.0000      -0.408725       -11.1220
 209   2.0000      -0.408609       -11.1188
 210   2.0000      -0.406624       -11.0648
 211   2.0000      -0.398670       -10.8484
 212   2.0000      -0.384878       -10.4731
 213   2.0000      -0.381821       -10.3899
 214   2.0000      -0.380192       -10.3455
 215   2.0000      -0.369367       -10.0510
 216   2.0000      -0.349400        -9.5076
 217   2.0000      -0.333169        -9.0660
 218   2.0000      -0.330448        -8.9920
 219   2.0000      -0.325482        -8.8568
 220   2.0000      -0.321610        -8.7514
 221   2.0000      -0.319703        -8.6996
 222   2.0000      -0.311254        -8.4696
 223   2.0000      -0.307578        -8.3696
 224   2.0000      -0.295607        -8.0439
 225   2.0000      -0.274351        -7.4655
 226   2.0000      -0.233432        -6.3520
 227   0.0000      -0.106683        -2.9030
 228   0.0000      -0.091296        -2.4843
 229   0.0000      -0.086478        -2.3532
 230   0.0000      -0.083502        -2.2722
 231   0.0000      -0.040533        -1.1030

MULLIKEN ATOMIC CHARGES
-----------------------
   0 C :   -0.036877
   1 C :    0.046498
   2 C :    0.048348
   3 C :   -0.040740
   4 C :    0.004408
   5 C :    0.011327
   6 C :    0.308596
   7 C :   -0.357911
   8 C :   -0.191148
   9 N :    0.159096
  10 C :   -0.179374
  11 N :    0.149960
  12 C :   -0.076046
  13 C :    0.245228
  14 C :   -0.379615
  15 C :   -0.209338
  16 N :    0.190543
  17 C :   -0.184457
  18 N :    0.162034
  19 C :    0.068596
  20 C :   -0.183494
  21 S :    0.123799
  22 C :   -0.060496
  23 C :   -0.123043
  24 C :   -0.036768
  25 C :    0.119943
  26 C :    0.009042
  27 C :    0.131132
  28 C :    0.069787
  29 N :   -0.044878
  30 C :    0.120235
  31 C :   -0.160793
  32 C :    0.098318
  33 N :   -0.030675
  34 C :    0.113518
  35 C :   -0.163318
  36 C :    0.018704
  37 C :    0.027632
  38 C :   -0.106685
  39 S :    0.138160
  40 C :   -0.183071
  41 C :   -0.011219
  42 C :   -0.084526
  43 C :    0.119093
  44 C :    0.003011
  45 C :    0.125834
  46 C :    0.017922
  47 C :   -0.077419
  48 C :    0.305709
  49 C :   -0.352518
  50 C :   -0.179923
  51 N :    0.144046
  52 C :   -0.186114
  53 N :    0.151639
  54 C :    0.012171
  55 C :    0.004115
  56 C :   -0.032801
  57 C :    0.048379
  58 C :    0.043454
  59 C :   -0.034234
  60 C :    0.215948
  61 C :   -0.323681
  62 C :   -0.182260
  63 N :    0.155064
  64 C :   -0.188349
  65 N :    0.166829
  66 H :    0.004727
  67 H :    0.002194
  68 H :    0.001799
  69 H :    0.002347
  70 H :    0.013054
  71 H :    0.032472
  72 H :    0.034287
  73 H :    0.010110
  74 H :    0.027462
  75 H :    0.020270
  76 H :    0.027728
  77 H :    0.134106
  78 H :   -0.023486
  79 H :    0.125803
  80 H :   -0.035322
  81 H :   -0.031095
  82 H :   -0.015100
  83 H :    0.029476
  84 H :    0.016831
  85 H :    0.009575
  86 H :    0.024754
  87 H :    0.042428
  88 H :    0.038125
  89 H :    0.015471
  90 H :    0.004641
  91 H :    0.003187
  92 H :    0.003315
  93 H :    0.004498
Sum of atomic charges:   -0.0000000

LOEWDIN ATOMIC CHARGES
----------------------
   0 C :    0.004339
   1 C :   -0.000916
   2 C :    0.001961
   3 C :   -0.001998
   4 C :   -0.011347
   5 C :   -0.014294
   6 C :    0.079124
   7 C :   -0.139388
   8 C :   -0.019154
   9 N :   -0.051318
  10 C :   -0.022018
  11 N :   -0.050678
  12 C :   -0.076420
  13 C :    0.065535
  14 C :   -0.144578
  15 C :   -0.019106
  16 N :   -0.043886
  17 C :   -0.023246
  18 N :   -0.053219
  19 C :    0.036916
  20 C :   -0.183438
  21 S :    0.432098
  22 C :   -0.136653
  23 C :   -0.056930
  24 C :   -0.008517
  25 C :   -0.023626
  26 C :   -0.015666
  27 C :   -0.024407
  28 C :   -0.013933
  29 N :    0.070529
  30 C :   -0.007361
  31 C :   -0.082451
  32 C :    0.002125
  33 N :    0.073463
  34 C :   -0.017693
  35 C :   -0.076976
  36 C :   -0.010725
  37 C :   -0.046053
  38 C :   -0.128134
  39 S :    0.443979
  40 C :   -0.194114
  41 C :    0.004269
  42 C :   -0.063932
  43 C :   -0.027756
  44 C :   -0.016447
  45 C :   -0.021462
  46 C :    0.047688
  47 C :   -0.076104
  48 C :    0.080549
  49 C :   -0.141972
  50 C :   -0.018297
  51 N :   -0.055759
  52 C :   -0.019388
  53 N :   -0.052741
  54 C :   -0.014009
  55 C :   -0.009194
  56 C :   -0.000448
  57 C :    0.002922
  58 C :   -0.001266
  59 C :    0.004411
  60 C :    0.060749
  61 C :   -0.140010
  62 C :   -0.019972
  63 N :   -0.050896
  64 C :   -0.029465
  65 N :   -0.054096
  66 H :    0.041114
  67 H :    0.036844
  68 H :    0.036609
  69 H :    0.039755
  70 H :    0.044050
  71 H :    0.043008
  72 H :    0.032420
  73 H :    0.026271
  74 H :    0.031794
  75 H :    0.033367
  76 H :    0.032441
  77 H :    0.085835
  78 H :    0.027750
  79 H :    0.091310
  80 H :    0.027010
  81 H :    0.031141
  82 H :    0.030557
  83 H :    0.033718
  84 H :    0.029206
  85 H :    0.026117
  86 H :    0.029336
  87 H :    0.046272
  88 H :    0.039904
  89 H :    0.049512
  90 H :    0.040351
  91 H :    0.036940
  92 H :    0.036996
  93 H :    0.041169

  Mayer bond orders larger than 0.100000
B(  0-C ,  1-C ) :   1.3648 B(  0-C ,  5-C ) :   1.3876 B(  0-C , 66-H ) :   0.9824
B(  1-C ,  2-C ) :   1.3844 B(  1-C , 67-H ) :   0.9855 B(  2-C ,  3-C ) :   1.3597
B(  2-C , 68-H ) :   0.9859 B(  3-C ,  4-C ) :   1.3863 B(  3-C , 69-H ) :   0.9868
B(  4-C ,  5-C ) :   1.3151 B(  4-C , 13-C ) :   1.0021 B(  5-C ,  6-C ) :   0.9869
B(  6-C ,  7-C ) :   1.6140 B(  6-C , 12-C ) :   1.0839 B(  7-C ,  8-C ) :   1.1528
B(  7-C , 10-C ) :   1.1406 B(  8-C ,  9-N ) :   2.9738 B( 10-C , 11-N ) :   2.9569
B( 12-C , 13-C ) :   1.0698 B( 12-C , 19-C ) :   1.5220 B( 13-C , 14-C ) :   1.6009
B( 14-C , 15-C ) :   1.1753 B( 14-C , 17-C ) :   1.1375 B( 15-C , 16-N ) :   3.0088
B( 17-C , 18-N ) :   2.9889 B( 19-C , 20-C ) :   1.2586 B( 19-C , 70-H ) :   0.9031
B( 20-C , 21-S ) :   1.0845 B( 20-C , 24-C ) :   1.3776 B( 21-S , 22-C ) :   1.1172
B( 22-C , 23-C ) :   1.4866 B( 22-C , 28-C ) :   1.1214 B( 23-C , 24-C ) :   1.4041
B( 23-C , 27-C ) :   1.0549 B( 24-C , 25-C ) :   1.0546 B( 25-C , 26-C ) :   1.0943
B( 25-C , 71-H ) :   0.9060 B( 25-C , 72-H ) :   0.9031 B( 26-C , 27-C ) :   1.0936
B( 26-C , 73-H ) :   0.9403 B( 26-C , 74-H ) :   0.9433 B( 27-C , 75-H ) :   0.9075
B( 27-C , 76-H ) :   0.9076 B( 28-C , 29-N ) :   1.1964 B( 28-C , 35-C ) :   1.3962
B( 29-N , 30-C ) :   1.1723 B( 29-N , 77-H ) :   0.9272 B( 30-C , 31-C ) :   1.2745
B( 30-C , 34-C ) :   1.2965 B( 31-C , 32-C ) :   1.3881 B( 31-C , 78-H ) :   1.0315
B( 32-C , 33-N ) :   1.1709 B( 32-C , 36-C ) :   1.1302 B( 33-N , 34-C ) :   1.1713
B( 33-N , 79-H ) :   0.9342 B( 34-C , 35-C ) :   1.2648 B( 35-C , 80-H ) :   1.0290
B( 36-C , 37-C ) :   1.6502 B( 36-C , 81-H ) :   0.9581 B( 37-C , 38-C ) :   1.1547
B( 37-C , 82-H ) :   0.9573 B( 38-C , 39-S ) :   1.1230 B( 38-C , 42-C ) :   1.4368
B( 39-S , 40-C ) :   1.0753 B( 40-C , 41-C ) :   1.3876 B( 40-C , 46-C ) :   1.2370
B( 41-C , 42-C ) :   1.3919 B( 41-C , 45-C ) :   1.0539 B( 42-C , 43-C ) :   1.0502
B( 43-C , 44-C ) :   1.0850 B( 43-C , 83-H ) :   0.9029 B( 43-C , 84-H ) :   0.9172
B( 44-C , 45-C ) :   1.0874 B( 44-C , 85-H ) :   0.9412 B( 44-C , 86-H ) :   0.9484
B( 45-C , 87-H ) :   0.9050 B( 45-C , 88-H ) :   0.9144 B( 46-C , 47-C ) :   1.5346
B( 46-C , 89-H ) :   0.9302 B( 47-C , 48-C ) :   1.0789 B( 47-C , 60-C ) :   1.0359
B( 48-C , 49-C ) :   1.6212 B( 48-C , 54-C ) :   0.9954 B( 49-C , 50-C ) :   1.1404
B( 49-C , 52-C ) :   1.1493 B( 50-C , 51-N ) :   2.9695 B( 52-C , 53-N ) :   2.9727
B( 54-C , 55-C ) :   1.3129 B( 54-C , 59-C ) :   1.3859 B( 55-C , 56-C ) :   1.3878
B( 55-C , 60-C ) :   1.0119 B( 56-C , 57-C ) :   1.3610 B( 56-C , 90-H ) :   0.9865
B( 57-C , 58-C ) :   1.3797 B( 57-C , 91-H ) :   0.9867 B( 58-C , 59-C ) :   1.3680
B( 58-C , 92-H ) :   0.9865 B( 59-C , 93-H ) :   0.9835 B( 60-C , 61-C ) :   1.6380
B( 61-C , 62-C ) :   1.1436 B( 61-C , 64-C ) :   1.1534 B( 62-C , 63-N ) :   2.9926
B( 64-C , 65-N ) :   3.0132

-----------------------------------------------------------------------------
         ABSORPTION SPECTRUM VIA TRANSITION ELECTRIC DIPOLE MOMENTS
-----------------------------------------------------------------------------
State   Energy  Wavelength   fosc         T2         TX        TY        TZ
        (cm-1)    (nm)                  (au**2)     (au)      (au)      (au)
-----------------------------------------------------------------------------
   0   13253.6    754.5   2.107513634  52.34940  -0.96861  -6.23284  -3.54442
   1   17506.8    571.2   0.122877652   2.31069   0.26796  -1.09680   1.01780
   2   18965.5    527.3   0.163994653   2.84669   0.65290  -1.24863   0.92808
   3   19917.8    502.1   0.130616606   2.15891  -0.54163   0.97761   0.95385
   4   22971.6    435.3   0.041395185   0.59325  -0.39929   0.56135  -0.34452
   5   25573.1    391.0   0.063101386   0.81233  -0.58664   0.39224   0.56066
   6   27426.8    364.6   0.185675285   2.22872  -0.81651   1.20827   0.31956
   7   27877.3    358.7   0.022764263   0.26883   0.46451  -0.13738   0.18491
   8   28307.9    353.3   0.208940122   2.42991   0.40727  -1.11860   1.00636
   9   28424.3    351.8   0.232465744   2.69244   0.36137   0.39476   1.55113
  10   28742.5    347.9   0.183711185   2.10420  -0.31432   1.20352   0.74628
  11   28842.9    346.7   0.056412801   0.64389   0.27945  -0.68157   0.31823
  12   29447.0    339.6   0.163580268   1.82880   0.09986   1.11029   0.76555
  13   30305.0    330.0   0.077106434   0.83763  -0.18284  -0.10308   0.89083
  14   31220.6    320.3   0.230894001   2.43471   0.72977  -1.11026   0.81821
  15   31466.0    317.8   0.101994335   1.06711   0.34180  -0.38892  -0.89388
  16   31935.3    313.1   0.090994066   0.93803   0.35144  -0.80270   0.41254
  17   32743.7    305.4   0.016850663   0.16942  -0.09380   0.14047   0.37535
  18   33152.3    301.6   0.263176816   2.61342   0.84866  -1.13191  -0.78228
  19   33688.8    296.8   0.154166271   1.50654  -0.68186   0.73625  -0.70678
  20   34091.5    293.3   0.182944657   1.76664  -0.71325   0.99471   0.51815
  21   34216.9    292.3   0.040526187   0.38992   0.39249   0.03021   0.48472
  22   34388.7    290.8   0.209844392   2.00890  -0.77184   0.33123  -1.14168
  23   34485.6    290.0   0.083704705   0.79907   0.49198  -0.52368  -0.53178
  24   34701.5    288.2   0.370067317   3.51081   0.53364  -1.27268   1.26742
  25   34933.5    286.3   0.287786491   2.71209   0.02897  -0.77157  -1.45462
  26   35959.2    278.1   0.005342098   0.04891   0.00027   0.01289  -0.22077
  27   37174.9    269.0   0.005393617   0.04776   0.00454   0.19697  -0.09459
  28   37450.3    267.0   0.002372117   0.02085   0.06946  -0.06540   0.10840
  29   37483.4    266.8   0.028128603   0.24705  -0.01684   0.28855  -0.40436
  30   38193.3    261.8   0.007218175   0.06222   0.11524   0.04045  -0.21749
  31   38725.7    258.2   0.123059138   1.04614   0.21325  -0.96641   0.25830
  32   38925.1    256.9   0.018306599   0.15483  -0.05754   0.15542   0.35688
  33   39278.0    254.6   0.002747766   0.02303   0.00910   0.12840   0.08039
  34   39636.4    252.3   0.051470722   0.42750   0.05889   0.43893   0.48101
  35   40297.4    248.2   0.024010086   0.19615  -0.26130   0.20593  -0.29235

FINAL SINGLE POINT ENERGY     -3414.693279409400

DIPOLE MOMENT
-------------
                                X             Y             Z
Electronic contribution:      0.43218      10.56505     -27.96231
Nuclear contribution   :     -0.69981     -10.26227      30.57305
                        -----------------------------------------
Total Dipole Moment    :     -0.26763       0.30278       2.61074
                        -----------------------------------------
Magnitude (a.u.)       :      2.64183
Magnitude (Debye)      :      6.71499

Rotational constants in cm-1:     0.002728     0.000265     0.000248
Rotational constants in MHz :    81.781758     7.939398     7.440177

                             ****ORCA TERMINATED NORMALLY****
TOTAL RUN TIME: 0 days 0 hours 10 minutes 1 seconds 537 msec
