                         Program Version 4.2.0 -  RELEASE  -
|  1> # ORCA input file
|  2> # SCF done       -221.989805140150          0.000829690379
|  3> ! CAM-B3LYP def2-SVP def2/J RIJCOSX Grid4 TightSCF
|  4> %maxcore 5000
|  5> %tddft
|  6>     Mode sTDDFT
|  7>     Ethresh 5.0
|  8>     maxcore 5000
|  9> end
| 10>
| 11> %pal
| 12>   nprocs 6
| 13>   end
| 14> * xyz 0 1
| 15>    C        1.10372        -4.24486        -3.29303
| 16>    C        2.23055        -3.69969        -3.83474
| 17>    C        2.85622        -4.17872        -5.00895
| 18>    N        3.41522        -4.52633        -5.94782
| 19>    C        2.93963        -2.59839        -3.30210
| 20>    N        3.56199        -1.70494        -2.94155
| 21>    C        0.35418        -5.38002        -3.81581
| 22>    C       -0.69820        -5.69435        -2.93385
| 23>    C       -1.57700        -6.72954        -3.18856
| 24>    C       -1.40866        -7.46812        -4.35219
| 25>    C       -0.36540        -7.16033        -5.23852
| 26>    C        0.51864        -6.12019        -4.97712
| 27>   Cl       -0.17125        -8.07817        -6.67251
| 28>   Cl       -2.47996        -8.75751        -4.70744
| 29>    C       -0.68296        -4.77208        -1.78902
| 30>    O       -1.39153        -4.79194        -0.80902
| 31>    C        0.42448        -3.80796        -2.07573
| 32>    C        0.67950        -2.72492        -1.32322
| 33>    C       -0.09974        -2.35371        -0.14929
| 34>    C        0.51967        -2.22322         1.08942
| 35>    C        1.94244        -2.45425         1.43085
| 36>    O        2.82909        -2.81409         0.69764
| 37>    N        2.04603        -2.18260         2.79419
| 38>    C        0.80919        -1.83450         3.36448
| 39>    O        0.64128        -1.56586         4.52196
| 40>    C       -0.17123        -1.87415         2.25165
| 41>    C       -1.53235        -1.64116         2.24438
| 42>    C       -2.16364        -1.75464         1.00721
| 43>    C       -1.47821        -2.08424        -0.15941
| 44>    C       -2.32199        -2.10843        -1.37275
| 45>    O       -1.98133        -2.28606        -2.50539
| 46>    S       -4.02071        -1.78719        -0.90710
| 47>    C       -3.61654        -1.54760         0.82880
| 48>    O       -4.41991        -1.26944         1.66342
| 49>    C        3.19350        -2.22632         3.57913
| 50>    C        4.42741        -2.50166         3.13052
| 51>    C        5.58848        -2.53394         3.95975
| 52>    N        6.82143        -2.80788         3.41102
| 53>    C        7.75245        -2.77931         4.40151
| 54>    C        9.10205        -2.92754         4.68333
| 55>    C        9.23563        -2.72564         6.06842
| 56>    N        7.99445        -2.45390         6.61133
| 57>    C        7.07654        -2.47771         5.61621
| 58>    C        5.72137        -2.32386         5.33489
| 59>    C       10.43368        -2.79685         6.81159
| 60>    C       10.50267        -2.62677         8.15929
| 61>    C       11.65067        -2.61139         9.00130
| 62>    C       11.54807        -1.93195        10.24011
| 63>    C       10.38243        -1.24855        10.82718
| 64>    O        9.26559        -1.09901        10.40113
| 65>    N       10.81480        -0.73073        12.06836
| 66>    C       12.16603        -1.01186        12.30670
| 67>    O       12.79813        -0.69037        13.27511
| 68>    C       12.61784        -1.77582        11.11808
| 69>    C       13.87501        -2.27776        10.83988
| 70>    C       13.98658        -3.00142         9.65867
| 71>    C       12.92724        -3.20276         8.77209
| 72>    C       13.25589        -4.15933         7.70266
| 73>    O       12.54545        -4.66790         6.88714
| 74>    S       15.00889        -4.59847         7.79869
| 75>    C       15.26553        -3.64314         9.28154
| 76>    O       16.30997        -3.55811         9.85320
| 77>    C        9.93314        -0.06035        12.88856
| 78>    C       10.25983         0.55818        14.03862
| 79>    C        9.34328         1.26818        14.86590
| 80>    C        8.01077         1.04936        15.05210
| 81>    C        7.14542         1.87181        15.88601
| 82>    C        7.38201         3.16128        16.27633
| 83>    C        6.49402         3.92252        17.06720
| 84>    N        5.81633         4.58806        17.71074
| 85>    C        8.51477         3.92266        15.91259
| 86>    N        9.39001         4.61355        15.64021
| 87>    C        5.92963         1.11109        16.15049
| 88>    C        5.99116        -0.09959        15.43969
| 89>    C        7.25895        -0.17887        14.68265
| 90>    O        7.60204        -1.08958        13.96283
| 91>    C        4.96761        -1.02460        15.48808
| 92>    C        3.85436        -0.73550        16.26665
| 93>    C        3.78737         0.46571        16.98378
| 94>    C        4.82010         1.39498        16.93086
| 95>   Cl        2.40958         0.80578        17.94915
| 96>   Cl        2.55679        -1.85591        16.34833
| 97>    H       -2.37648        -6.95261        -2.49970
| 98>    H        1.30582        -5.91102        -5.68293
| 99>    H        1.52628        -2.08558        -1.53552
|100>    H       -2.08516        -1.38753         3.13476
|101>    H        2.98527        -1.99954         4.61476
|102>    H        4.58084        -2.71483         2.08283
|103>    H        6.98204        -2.99424         2.43576
|104>    H        9.90507        -3.16333         4.01468
|105>    H        7.82200        -2.24574         7.57992
|106>    H        4.92915        -2.09376         6.01684
|107>    H       11.31942        -2.98202         6.22614
|108>    H        9.59104        -2.37923         8.68331
|109>    H       14.71658        -2.14390        11.49946
|110>    H        8.93218        -0.04291        12.48027
|111>    H       11.29497         0.59079        14.34734
|112>    H        9.80095         2.05258        15.45779
|113>    H        5.03305        -1.94629        14.93179
|114>    H        4.73667         2.30673        17.49926
|115> *
|116>
|117>                          ****END OF INPUT****

CARTESIAN COORDINATES (ANGSTROEM)
---------------------------------
  C      1.103720   -4.244860   -3.293030
  C      2.230550   -3.699690   -3.834740
  C      2.856220   -4.178720   -5.008950
  N      3.415220   -4.526330   -5.947820
  C      2.939630   -2.598390   -3.302100
  N      3.561990   -1.704940   -2.941550
  C      0.354180   -5.380020   -3.815810
  C     -0.698200   -5.694350   -2.933850
  C     -1.577000   -6.729540   -3.188560
  C     -1.408660   -7.468120   -4.352190
  C     -0.365400   -7.160330   -5.238520
  C      0.518640   -6.120190   -4.977120
  Cl    -0.171250   -8.078170   -6.672510
  Cl    -2.479960   -8.757510   -4.707440
  C     -0.682960   -4.772080   -1.789020
  O     -1.391530   -4.791940   -0.809020
  C      0.424480   -3.807960   -2.075730
  C      0.679500   -2.724920   -1.323220
  C     -0.099740   -2.353710   -0.149290
  C      0.519670   -2.223220    1.089420
  C      1.942440   -2.454250    1.430850
  O      2.829090   -2.814090    0.697640
  N      2.046030   -2.182600    2.794190
  C      0.809190   -1.834500    3.364480
  O      0.641280   -1.565860    4.521960
  C     -0.171230   -1.874150    2.251650
  C     -1.532350   -1.641160    2.244380
  C     -2.163640   -1.754640    1.007210
  C     -1.478210   -2.084240   -0.159410
  C     -2.321990   -2.108430   -1.372750
  O     -1.981330   -2.286060   -2.505390
  S     -4.020710   -1.787190   -0.907100
  C     -3.616540   -1.547600    0.828800
  O     -4.419910   -1.269440    1.663420
  C      3.193500   -2.226320    3.579130
  C      4.427410   -2.501660    3.130520
  C      5.588480   -2.533940    3.959750
  N      6.821430   -2.807880    3.411020
  C      7.752450   -2.779310    4.401510
  C      9.102050   -2.927540    4.683330
  C      9.235630   -2.725640    6.068420
  N      7.994450   -2.453900    6.611330
  C      7.076540   -2.477710    5.616210
  C      5.721370   -2.323860    5.334890
  C     10.433680   -2.796850    6.811590
  C     10.502670   -2.626770    8.159290
  C     11.650670   -2.611390    9.001300
  C     11.548070   -1.931950   10.240110
  C     10.382430   -1.248550   10.827180
  O      9.265590   -1.099010   10.401130
  N     10.814800   -0.730730   12.068360
  C     12.166030   -1.011860   12.306700
  O     12.798130   -0.690370   13.275110
  C     12.617840   -1.775820   11.118080
  C     13.875010   -2.277760   10.839880
  C     13.986580   -3.001420    9.658670
  C     12.927240   -3.202760    8.772090
  C     13.255890   -4.159330    7.702660
  O     12.545450   -4.667900    6.887140
  S     15.008890   -4.598470    7.798690
  C     15.265530   -3.643140    9.281540
  O     16.309970   -3.558110    9.853200
  C      9.933140   -0.060350   12.888560
  C     10.259830    0.558180   14.038620
  C      9.343280    1.268180   14.865900
  C      8.010770    1.049360   15.052100
  C      7.145420    1.871810   15.886010
  C      7.382010    3.161280   16.276330
  C      6.494020    3.922520   17.067200
  N      5.816330    4.588060   17.710740
  C      8.514770    3.922660   15.912590
  N      9.390010    4.613550   15.640210
  C      5.929630    1.111090   16.150490
  C      5.991160   -0.099590   15.439690
  C      7.258950   -0.178870   14.682650
  O      7.602040   -1.089580   13.962830
  C      4.967610   -1.024600   15.488080
  C      3.854360   -0.735500   16.266650
  C      3.787370    0.465710   16.983780
  C      4.820100    1.394980   16.930860
  Cl     2.409580    0.805780   17.949150
  Cl     2.556790   -1.855910   16.348330
  H     -2.376480   -6.952610   -2.499700
  H      1.305820   -5.911020   -5.682930
  H      1.526280   -2.085580   -1.535520
  H     -2.085160   -1.387530    3.134760
  H      2.985270   -1.999540    4.614760
  H      4.580840   -2.714830    2.082830
  H      6.982040   -2.994240    2.435760
  H      9.905070   -3.163330    4.014680
  H      7.822000   -2.245740    7.579920
  H      4.929150   -2.093760    6.016840
  H     11.319420   -2.982020    6.226140
  H      9.591040   -2.379230    8.683310
  H     14.716580   -2.143900   11.499460
  H      8.932180   -0.042910   12.480270
  H     11.294970    0.590790   14.347340
  H      9.800950    2.052580   15.457790
  H      5.033050   -1.946290   14.931790
  H      4.736670    2.306730   17.499260

 Total Charge           Charge          ....    0
 Multiplicity           Mult            ....    1
 Number of Electrons    NEL             ....  602
 Basis Dimension        Dim             .... 1262

ORBITAL ENERGIES
----------------

  NO   OCC          E(Eh)            E(eV)
   0   2.0000    -101.614732     -2765.0774
   1   2.0000    -101.613642     -2765.0478
   2   2.0000    -101.603086     -2764.7605
   3   2.0000    -101.601237     -2764.7102
   4   2.0000     -88.965230     -2420.8670
   5   2.0000     -88.950409     -2420.4637
   6   2.0000     -19.257711      -524.0290
   7   2.0000     -19.257550      -524.0246
   8   2.0000     -19.250797      -523.8408
   9   2.0000     -19.249273      -523.7994
  10   2.0000     -19.245706      -523.7023
  11   2.0000     -19.245512      -523.6970
  12   2.0000     -19.244659      -523.6738
  13   2.0000     -19.242812      -523.6235
  14   2.0000     -19.242552      -523.6165
  15   2.0000     -19.225803      -523.1607
  16   2.0000     -14.500140      -394.5689
  17   2.0000     -14.496760      -394.4769
  18   2.0000     -14.466872      -393.6636
  19   2.0000     -14.462604      -393.5475
  20   2.0000     -14.436908      -392.8482
  21   2.0000     -14.436146      -392.8275
  22   2.0000     -14.419205      -392.3665
  23   2.0000     -14.418884      -392.3578
  24   2.0000     -10.429832      -283.8102
  25   2.0000     -10.427991      -283.7601
  26   2.0000     -10.423667      -283.6424
  27   2.0000     -10.423037      -283.6253
  28   2.0000     -10.421551      -283.5848
  29   2.0000     -10.418684      -283.5068
  30   2.0000     -10.407088      -283.1913
  31   2.0000     -10.403613      -283.0967
  32   2.0000     -10.396160      -282.8939
  33   2.0000     -10.377763      -282.3933
  34   2.0000     -10.373509      -282.2775
  35   2.0000     -10.372796      -282.2581
  36   2.0000     -10.369762      -282.1756
  37   2.0000     -10.364548      -282.0337
  38   2.0000     -10.359190      -281.8879
  39   2.0000     -10.358708      -281.8748
  40   2.0000     -10.353929      -281.7447
  41   2.0000     -10.348765      -281.6042
  42   2.0000     -10.346355      -281.5386
  43   2.0000     -10.345824      -281.5242
  44   2.0000     -10.344786      -281.4959
  45   2.0000     -10.341224      -281.3990
  46   2.0000     -10.340745      -281.3860
  47   2.0000     -10.339309      -281.3469
  48   2.0000     -10.339043      -281.3397
  49   2.0000     -10.338662      -281.3293
  50   2.0000     -10.337868      -281.3077
  51   2.0000     -10.337228      -281.2903
  52   2.0000     -10.337200      -281.2895
  53   2.0000     -10.335398      -281.2405
  54   2.0000     -10.330022      -281.0942
  55   2.0000     -10.327222      -281.0180
  56   2.0000     -10.327160      -281.0163
  57   2.0000     -10.326966      -281.0110
  58   2.0000     -10.325978      -280.9842
  59   2.0000     -10.325752      -280.9780
  60   2.0000     -10.324389      -280.9409
  61   2.0000     -10.322856      -280.8992
  62   2.0000     -10.321427      -280.8603
  63   2.0000     -10.321254      -280.8556
  64   2.0000     -10.320675      -280.8398
  65   2.0000     -10.320511      -280.8354
  66   2.0000     -10.319150      -280.7984
  67   2.0000     -10.318371      -280.7772
  68   2.0000     -10.316484      -280.7258
  69   2.0000     -10.312294      -280.6118
  70   2.0000     -10.311578      -280.5923
  71   2.0000     -10.309049      -280.5235
  72   2.0000     -10.304705      -280.4053
  73   2.0000     -10.304479      -280.3991
  74   2.0000     -10.301878      -280.3283
  75   2.0000     -10.299404      -280.2610
  76   2.0000     -10.297618      -280.2124
  77   2.0000     -10.292851      -280.0827
  78   2.0000     -10.287644      -279.9410
  79   2.0000     -10.278192      -279.6838
  80   2.0000     -10.277227      -279.6576
  81   2.0000     -10.269738      -279.4538
  82   2.0000      -9.569754      -260.4063
  83   2.0000      -9.568732      -260.3784
  84   2.0000      -9.558113      -260.0895
  85   2.0000      -9.556284      -260.0397
  86   2.0000      -8.064397      -219.4434
  87   2.0000      -8.049717      -219.0439
  88   2.0000      -7.340169      -199.7362
  89   2.0000      -7.339151      -199.7085
  90   2.0000      -7.330026      -199.4601
  91   2.0000      -7.329226      -199.4384
  92   2.0000      -7.328990      -199.4319
  93   2.0000      -7.328463      -199.4176
  94   2.0000      -7.328190      -199.4102
  95   2.0000      -7.326699      -199.3696
  96   2.0000      -7.318401      -199.1438
  97   2.0000      -7.317656      -199.1235
  98   2.0000      -7.316522      -199.0927
  99   2.0000      -7.315796      -199.0729
 100   2.0000      -6.033246      -164.1730
 101   2.0000      -6.029958      -164.0835
 102   2.0000      -6.025493      -163.9620
 103   2.0000      -6.018544      -163.7729
 104   2.0000      -6.015357      -163.6862
 105   2.0000      -6.010757      -163.5610
 106   2.0000      -1.195983       -32.5444
 107   2.0000      -1.191678       -32.4272
 108   2.0000      -1.183302       -32.1993
 109   2.0000      -1.179158       -32.0865
 110   2.0000      -1.172649       -31.9094
 111   2.0000      -1.168334       -31.7920
 112   2.0000      -1.168022       -31.7835
 113   2.0000      -1.163965       -31.6731
 114   2.0000      -1.161278       -31.6000
 115   2.0000      -1.141823       -31.0706
 116   2.0000      -1.097809       -29.8729
 117   2.0000      -1.089117       -29.6364
 118   2.0000      -1.084928       -29.5224
 119   2.0000      -1.061235       -28.8777
 120   2.0000      -1.048748       -28.5379
 121   2.0000      -1.035197       -28.1691
 122   2.0000      -1.033994       -28.1364
 123   2.0000      -1.029936       -28.0260
 124   2.0000      -1.018610       -27.7178
 125   2.0000      -1.014403       -27.6033
 126   2.0000      -1.011941       -27.5363
 127   2.0000      -1.010277       -27.4910
 128   2.0000      -0.997487       -27.1430
 129   2.0000      -0.993865       -27.0444
 130   2.0000      -0.977442       -26.5976
 131   2.0000      -0.970186       -26.4001
 132   2.0000      -0.964526       -26.2461
 133   2.0000      -0.959472       -26.1086
 134   2.0000      -0.956492       -26.0275
 135   2.0000      -0.940141       -25.5825
 136   2.0000      -0.939298       -25.5596
 137   2.0000      -0.926444       -25.2098
 138   2.0000      -0.916680       -24.9441
 139   2.0000      -0.916115       -24.9288
 140   2.0000      -0.909968       -24.7615
 141   2.0000      -0.897190       -24.4138
 142   2.0000      -0.891533       -24.2598
 143   2.0000      -0.882264       -24.0076
 144   2.0000      -0.878630       -23.9087
 145   2.0000      -0.878189       -23.8967
 146   2.0000      -0.869490       -23.6600
 147   2.0000      -0.866755       -23.5856
 148   2.0000      -0.863682       -23.5020
 149   2.0000      -0.853386       -23.2218
 150   2.0000      -0.838247       -22.8098
 151   2.0000      -0.818908       -22.2836
 152   2.0000      -0.809819       -22.0363
 153   2.0000      -0.804514       -21.8919
 154   2.0000      -0.799380       -21.7522
 155   2.0000      -0.794657       -21.6237
 156   2.0000      -0.786553       -21.4032
 157   2.0000      -0.780362       -21.2347
 158   2.0000      -0.770633       -20.9700
 159   2.0000      -0.765602       -20.8331
 160   2.0000      -0.761952       -20.7338
 161   2.0000      -0.756375       -20.5820
 162   2.0000      -0.741879       -20.1876
 163   2.0000      -0.731683       -19.9101
 164   2.0000      -0.722323       -19.6554
 165   2.0000      -0.714887       -19.4531
 166   2.0000      -0.708531       -19.2801
 167   2.0000      -0.706057       -19.2128
 168   2.0000      -0.702297       -19.1105
 169   2.0000      -0.700167       -19.0525
 170   2.0000      -0.698693       -19.0124
 171   2.0000      -0.696853       -18.9623
 172   2.0000      -0.690708       -18.7951
 173   2.0000      -0.688195       -18.7267
 174   2.0000      -0.682039       -18.5592
 175   2.0000      -0.670771       -18.2526
 176   2.0000      -0.663703       -18.0603
 177   2.0000      -0.656509       -17.8645
 178   2.0000      -0.653648       -17.7867
 179   2.0000      -0.647442       -17.6178
 180   2.0000      -0.642657       -17.4876
 181   2.0000      -0.639396       -17.3988
 182   2.0000      -0.631527       -17.1847
 183   2.0000      -0.628419       -17.1002
 184   2.0000      -0.622269       -16.9328
 185   2.0000      -0.620915       -16.8959
 186   2.0000      -0.619935       -16.8693
 187   2.0000      -0.613321       -16.6893
 188   2.0000      -0.609490       -16.5851
 189   2.0000      -0.605454       -16.4752
 190   2.0000      -0.603821       -16.4308
 191   2.0000      -0.598364       -16.2823
 192   2.0000      -0.596730       -16.2379
 193   2.0000      -0.590434       -16.0665
 194   2.0000      -0.589380       -16.0378
 195   2.0000      -0.582706       -15.8562
 196   2.0000      -0.581811       -15.8319
 197   2.0000      -0.577947       -15.7267
 198   2.0000      -0.576320       -15.6825
 199   2.0000      -0.572131       -15.5685
 200   2.0000      -0.571119       -15.5409
 201   2.0000      -0.569315       -15.4918
 202   2.0000      -0.566571       -15.4172
 203   2.0000      -0.564730       -15.3671
 204   2.0000      -0.560750       -15.2588
 205   2.0000      -0.558271       -15.1913
 206   2.0000      -0.557232       -15.1630
 207   2.0000      -0.555975       -15.1288
 208   2.0000      -0.553548       -15.0628
 209   2.0000      -0.552384       -15.0311
 210   2.0000      -0.551647       -15.0111
 211   2.0000      -0.551091       -14.9960
 212   2.0000      -0.549346       -14.9485
 213   2.0000      -0.547748       -14.9050
 214   2.0000      -0.543279       -14.7834
 215   2.0000      -0.542623       -14.7655
 216   2.0000      -0.541702       -14.7405
 217   2.0000      -0.538927       -14.6650
 218   2.0000      -0.537446       -14.6246
 219   2.0000      -0.537296       -14.6206
 220   2.0000      -0.534887       -14.5550
 221   2.0000      -0.532507       -14.4902
 222   2.0000      -0.529063       -14.3965
 223   2.0000      -0.528039       -14.3687
 224   2.0000      -0.525333       -14.2950
 225   2.0000      -0.524179       -14.2636
 226   2.0000      -0.523377       -14.2418
 227   2.0000      -0.517582       -14.0841
 228   2.0000      -0.515601       -14.0302
 229   2.0000      -0.512072       -13.9342
 230   2.0000      -0.511929       -13.9303
 231   2.0000      -0.511255       -13.9120
 232   2.0000      -0.508199       -13.8288
 233   2.0000      -0.507741       -13.8163
 234   2.0000      -0.505468       -13.7545
 235   2.0000      -0.502524       -13.6744
 236   2.0000      -0.501343       -13.6422
 237   2.0000      -0.496995       -13.5239
 238   2.0000      -0.491977       -13.3874
 239   2.0000      -0.488271       -13.2865
 240   2.0000      -0.487098       -13.2546
 241   2.0000      -0.486704       -13.2439
 242   2.0000      -0.484234       -13.1767
 243   2.0000      -0.483275       -13.1506
 244   2.0000      -0.480921       -13.0865
 245   2.0000      -0.479520       -13.0484
 246   2.0000      -0.474981       -12.9249
 247   2.0000      -0.471246       -12.8233
 248   2.0000      -0.469893       -12.7864
 249   2.0000      -0.467546       -12.7226
 250   2.0000      -0.462575       -12.5873
 251   2.0000      -0.458179       -12.4677
 252   2.0000      -0.455382       -12.3916
 253   2.0000      -0.451585       -12.2882
 254   2.0000      -0.447349       -12.1730
 255   2.0000      -0.447277       -12.1710
 256   2.0000      -0.446684       -12.1549
 257   2.0000      -0.446551       -12.1513
 258   2.0000      -0.444073       -12.0838
 259   2.0000      -0.442350       -12.0370
 260   2.0000      -0.440442       -11.9850
 261   2.0000      -0.439202       -11.9513
 262   2.0000      -0.431229       -11.7343
 263   2.0000      -0.431128       -11.7316
 264   2.0000      -0.430975       -11.7274
 265   2.0000      -0.429350       -11.6832
 266   2.0000      -0.425663       -11.5829
 267   2.0000      -0.422884       -11.5073
 268   2.0000      -0.415670       -11.3110
 269   2.0000      -0.411457       -11.1963
 270   2.0000      -0.409685       -11.1481
 271   2.0000      -0.406071       -11.0497
 272   2.0000      -0.398336       -10.8393
 273   2.0000      -0.397083       -10.8052
 274   2.0000      -0.393215       -10.6999
 275   2.0000      -0.389274       -10.5927
 276   2.0000      -0.389176       -10.5900
 277   2.0000      -0.384088       -10.4516
 278   2.0000      -0.383380       -10.4323
 279   2.0000      -0.381403       -10.3785
 280   2.0000      -0.376989       -10.2584
 281   2.0000      -0.376625       -10.2485
 282   2.0000      -0.372279       -10.1302
 283   2.0000      -0.369552       -10.0560
 284   2.0000      -0.369036       -10.0420
 285   2.0000      -0.366322        -9.9681
 286   2.0000      -0.362522        -9.8647
 287   2.0000      -0.358796        -9.7633
 288   2.0000      -0.355223        -9.6661
 289   2.0000      -0.352833        -9.6011
 290   2.0000      -0.349604        -9.5132
 291   2.0000      -0.346792        -9.4367
 292   2.0000      -0.345310        -9.3964
 293   2.0000      -0.342700        -9.3254
 294   2.0000      -0.338911        -9.2222
 295   2.0000      -0.326055        -8.8724
 296   2.0000      -0.315577        -8.5873
 297   2.0000      -0.309631        -8.4255
 298   2.0000      -0.296973        -8.0810
 299   2.0000      -0.294321        -8.0089
 300   2.0000      -0.235248        -6.4014
 301   0.0000      -0.110665        -3.0113
 302   0.0000      -0.106956        -2.9104
 303   0.0000      -0.096638        -2.6297
 304   0.0000      -0.092330        -2.5124
 305   0.0000      -0.087344        -2.3768

MULLIKEN ATOMIC CHARGES
-----------------------
   0 C :    0.309894
   1 C :   -0.328546
   2 C :   -0.192666
   3 N :    0.174993
   4 C :   -0.183738
   5 N :    0.171269
   6 C :    0.038942
   7 C :   -0.017638
   8 C :   -0.018531
   9 C :    0.059166
  10 C :    0.050783
  11 C :   -0.013793
  12 Cl:   -0.022614
  13 Cl:   -0.030823
  14 C :    0.151764
  15 O :   -0.142922
  16 C :   -0.020014
  17 C :   -0.063572
  18 C :    0.005734
  19 C :   -0.009564
  20 C :    0.212277
  21 O :   -0.153856
  22 N :   -0.231195
  23 C :    0.196465
  24 O :   -0.125118
  25 C :    0.018929
  26 C :   -0.058349
  27 C :    0.041106
  28 C :    0.086172
  29 C :    0.045343
  30 O :   -0.137668
  31 S :    0.024317
  32 C :    0.049143
  33 O :   -0.111007
  34 C :    0.063840
  35 C :    0.008377
  36 C :    0.098342
  37 N :   -0.028907
  38 C :    0.114894
  39 C :   -0.151564
  40 C :    0.045850
  41 N :   -0.028638
  42 C :    0.114263
  43 C :   -0.168420
  44 C :    0.107621
  45 C :   -0.107799
  46 C :    0.108759
  47 C :   -0.048886
  48 C :    0.207401
  49 O :   -0.155813
  50 N :   -0.241458
  51 C :    0.219911
  52 O :   -0.127812
  53 C :    0.011786
  54 C :   -0.090264
  55 C :    0.048700
  56 C :    0.017139
  57 C :    0.026468
  58 O :   -0.131759
  59 S :    0.009384
  60 C :    0.052333
  61 O :   -0.122430
  62 C :    0.152186
  63 C :   -0.030733
  64 C :    0.006465
  65 C :   -0.093213
  66 C :    0.285420
  67 C :   -0.329567
  68 C :   -0.185100
  69 N :    0.157930
  70 C :   -0.209846
  71 N :    0.166112
  72 C :    0.033337
  73 C :   -0.018437
  74 C :    0.149133
  75 O :   -0.147678
  76 C :   -0.027486
  77 C :    0.059187
  78 C :    0.049567
  79 C :   -0.013969
  80 Cl:   -0.034775
  81 Cl:   -0.041893
  82 H :    0.003130
  83 H :    0.005265
  84 H :    0.053303
  85 H :    0.022242
  86 H :    0.030978
  87 H :    0.008759
  88 H :    0.126525
  89 H :   -0.025206
  90 H :    0.136607
  91 H :   -0.031666
  92 H :   -0.006839
  93 H :   -0.018820
  94 H :    0.016920
  95 H :    0.050498
  96 H :    0.037856
  97 H :    0.037016
  98 H :   -0.002068
  99 H :    0.002860
Sum of atomic charges:   -0.0000000

LOEWDIN ATOMIC CHARGES
----------------------
   0 C :    0.074135
   1 C :   -0.112985
   2 C :   -0.019719
   3 N :   -0.032074
   4 C :   -0.017758
   5 N :   -0.030938
   6 C :   -0.008332
   7 C :   -0.043764
   8 C :    0.007021
   9 C :   -0.131922
  10 C :   -0.125558
  11 C :   -0.010224
  12 Cl:    0.173216
  13 Cl:    0.169396
  14 C :    0.090376
  15 O :   -0.133651
  16 C :   -0.054241
  17 C :    0.073479
  18 C :    0.025558
  19 C :   -0.024737
  20 C :    0.100760
  21 O :   -0.132762
  22 N :   -0.009243
  23 C :    0.099827
  24 O :   -0.123741
  25 C :   -0.031847
  26 C :    0.050005
  27 C :   -0.049828
  28 C :   -0.036721
  29 C :   -0.042908
  30 O :   -0.120423
  31 S :    0.314215
  32 C :   -0.042015
  33 O :   -0.102749
  34 C :    0.024878
  35 C :   -0.048364
  36 C :    0.011726
  37 N :    0.074303
  38 C :   -0.030164
  39 C :   -0.060555
  40 C :   -0.015190
  41 N :    0.074420
  42 C :   -0.000558
  43 C :   -0.100875
  44 C :    0.036630
  45 C :   -0.090389
  46 C :    0.044845
  47 C :   -0.053577
  48 C :    0.112569
  49 O :   -0.135609
  50 N :   -0.011090
  51 C :    0.106033
  52 O :   -0.117570
  53 C :   -0.027060
  54 C :    0.019347
  55 C :   -0.042574
  56 C :   -0.073847
  57 C :   -0.039379
  58 O :   -0.115210
  59 S :    0.297465
  60 C :   -0.051400
  61 O :   -0.113466
  62 C :    0.105564
  63 C :   -0.078004
  64 C :    0.081254
  65 C :   -0.104015
  66 C :    0.074174
  67 C :   -0.133000
  68 C :   -0.019944
  69 N :   -0.045592
  70 C :   -0.025887
  71 N :   -0.043563
  72 C :   -0.013855
  73 C :   -0.043389
  74 C :    0.083872
  75 O :   -0.136069
  76 C :    0.000319
  77 C :   -0.134555
  78 C :   -0.130446
  79 C :   -0.012008
  80 Cl:    0.163203
  81 Cl:    0.159502
  82 H :    0.047925
  83 H :    0.045958
  84 H :    0.053210
  85 H :    0.053956
  86 H :    0.034269
  87 H :    0.034158
  88 H :    0.092464
  89 H :    0.029721
  90 H :    0.094101
  91 H :    0.025177
  92 H :    0.035236
  93 H :    0.022106
  94 H :    0.049861
  95 H :    0.038862
  96 H :    0.040944
  97 H :    0.049087
  98 H :    0.045305
  99 H :    0.044915

  Mayer bond orders larger than 0.100000
B(  0-C ,  1-C ) :   1.6908 B(  0-C ,  6-C ) :   1.0089 B(  0-C , 16-C ) :   1.0268
B(  1-C ,  2-C ) :   1.1319 B(  1-C ,  4-C ) :   1.1443 B(  2-C ,  3-N ) :   2.9809
B(  4-C ,  5-N ) :   2.9709 B(  6-C ,  7-C ) :   1.3218 B(  6-C , 11-C ) :   1.3306
B(  7-C ,  8-C ) :   1.3382 B(  7-C , 14-C ) :   0.9547 B(  8-C ,  9-C ) :   1.3501
B(  8-C , 82-H ) :   1.0169 B(  9-C , 10-C ) :   1.3897 B(  9-C , 13-Cl) :   1.0594
B( 10-C , 11-C ) :   1.3690 B( 10-C , 12-Cl) :   1.0877 B( 11-C , 83-H ) :   0.9860
B( 14-C , 15-O ) :   2.2229 B( 14-C , 16-C ) :   0.9113 B( 16-C , 17-C ) :   1.7900
B( 17-C , 18-C ) :   1.0014 B( 17-C , 84-H ) :   0.9134 B( 18-C , 19-C ) :   1.4440
B( 18-C , 28-C ) :   1.3675 B( 19-C , 20-C ) :   0.8939 B( 19-C , 25-C ) :   1.3611
B( 20-C , 21-O ) :   2.1312 B( 20-C , 22-N ) :   1.0588 B( 22-N , 23-C ) :   1.0161
B( 22-N , 34-C ) :   1.0075 B( 23-C , 24-O ) :   2.2449 B( 23-C , 25-C ) :   0.8698
B( 25-C , 26-C ) :   1.3540 B( 26-C , 27-C ) :   1.3139 B( 26-C , 85-H ) :   1.0263
B( 27-C , 28-C ) :   1.3656 B( 27-C , 32-C ) :   0.8379 B( 28-C , 29-C ) :   0.8457
B( 29-C , 30-O ) :   2.1682 B( 29-C , 31-S ) :   1.0366 B( 30-O , 31-S ) :   0.1095
B( 31-S , 32-C ) :   1.0192 B( 31-S , 33-O ) :   0.1057 B( 32-C , 33-O ) :   2.2306
B( 34-C , 35-C ) :   1.7276 B( 34-C , 86-H ) :   0.9716 B( 35-C , 36-C ) :   1.0801
B( 35-C , 87-H ) :   0.9532 B( 36-C , 37-N ) :   1.1973 B( 36-C , 43-C ) :   1.4186
B( 37-N , 38-C ) :   1.1540 B( 37-N , 88-H ) :   0.9348 B( 38-C , 39-C ) :   1.2693
B( 38-C , 42-C ) :   1.2980 B( 39-C , 40-C ) :   1.3238 B( 39-C , 89-H ) :   1.0420
B( 40-C , 41-N ) :   1.1774 B( 40-C , 44-C ) :   1.2273 B( 41-N , 42-C ) :   1.1941
B( 41-N , 90-H ) :   0.9283 B( 42-C , 43-C ) :   1.2607 B( 43-C , 91-H ) :   1.0285
B( 44-C , 45-C ) :   1.5378 B( 44-C , 92-H ) :   0.9453 B( 45-C , 46-C ) :   1.2166
B( 45-C , 93-H ) :   0.9425 B( 46-C , 47-C ) :   1.3096 B( 46-C , 56-C ) :   1.2599
B( 47-C , 48-C ) :   0.9272 B( 47-C , 53-C ) :   1.3890 B( 48-C , 49-O ) :   2.1289
B( 48-C , 50-N ) :   1.0124 B( 50-N , 51-C ) :   1.0052 B( 50-N , 62-C ) :   1.0749
B( 51-C , 52-O ) :   2.2229 B( 51-C , 53-C ) :   0.8830 B( 53-C , 54-C ) :   1.3224
B( 54-C , 55-C ) :   1.3399 B( 54-C , 94-H ) :   1.0282 B( 55-C , 56-C ) :   1.3568
B( 55-C , 60-C ) :   0.8388 B( 56-C , 57-C ) :   0.8642 B( 57-C , 58-O ) :   2.1685
B( 57-C , 59-S ) :   1.0151 B( 59-S , 60-C ) :   1.0332 B( 59-S , 61-O ) :   0.1097
B( 60-C , 61-O ) :   2.2142 B( 62-C , 63-C ) :   1.6624 B( 62-C , 95-H ) :   0.9577
B( 63-C , 64-C ) :   1.1760 B( 63-C , 96-H ) :   0.9436 B( 64-C , 65-C ) :   1.6087
B( 64-C , 97-H ) :   0.9479 B( 65-C , 66-C ) :   1.0586 B( 65-C , 74-C ) :   0.9453
B( 66-C , 67-C ) :   1.6607 B( 66-C , 72-C ) :   0.9957 B( 67-C , 68-C ) :   1.1337
B( 67-C , 70-C ) :   1.1358 B( 68-C , 69-N ) :   2.9789 B( 70-C , 71-N ) :   3.0058
B( 72-C , 73-C ) :   1.3301 B( 72-C , 79-C ) :   1.3406 B( 73-C , 74-C ) :   0.9461
B( 73-C , 76-C ) :   1.3456 B( 74-C , 75-O ) :   2.2120 B( 76-C , 77-C ) :   1.3442
B( 76-C , 98-H ) :   1.0158 B( 77-C , 78-C ) :   1.4053 B( 77-C , 81-Cl) :   1.0480
B( 78-C , 79-C ) :   1.3610 B( 78-C , 80-Cl) :   1.0750 B( 79-C , 99-H ) :   0.9864

-----------------------------------------------------------------------------
         ABSORPTION SPECTRUM VIA TRANSITION ELECTRIC DIPOLE MOMENTS
-----------------------------------------------------------------------------
State   Energy  Wavelength   fosc         T2         TX        TY        TZ
        (cm-1)    (nm)                  (au**2)     (au)      (au)      (au)
-----------------------------------------------------------------------------
   0   14268.9    700.8   0.051327552   1.18423   0.98840  -0.44714  -0.08581
   1   14839.2    673.9   0.001580008   0.03505   0.11330  -0.05946  -0.13668
   2   16220.6    616.5   0.356809981   7.24177   1.88518   0.20557   1.90934
   3   18575.5    538.3   0.843632847  14.95160  -2.42435  -0.39092  -2.98685
   4   21636.5    462.2   0.133641721   2.03344  -1.30339   0.14687  -0.55950
   5   22668.7    441.1   0.362588492   5.26577  -1.96143   0.23639  -1.16734
   6   25485.1    392.4   0.572612472   7.39691   1.84758  -1.36061  -1.46017
   7   25690.2    389.3   0.113500170   1.45447   1.16676  -0.07575   0.29563
   8   26209.0    381.5   0.002890114   0.03630   0.07028   0.05367   0.16877
   9   26278.5    380.5   0.013818070   0.17311  -0.35412   0.19003   0.10769
  10   27323.4    366.0   0.048942576   0.58969   0.72647  -0.16280   0.18823
  11   27666.8    361.4   0.011944131   0.14213  -0.03032   0.31560   0.20397
  12   27736.3    360.5   0.010704548   0.12706   0.24603   0.20561  -0.15574
  13   28136.0    355.4   0.022800716   0.26679   0.35843  -0.24080  -0.28343
  14   29114.3    343.5   0.000082262   0.00093   0.02536  -0.01222   0.01175
  15   29142.9    343.1   0.089162353   1.00722  -0.71019  -0.70124  -0.10537
  16   29318.6    341.1   0.015418927   0.17314   0.37144  -0.11846  -0.14539
  17   29838.3    335.1   0.001854180   0.02046   0.13169   0.04575   0.03195
  18   30181.9    331.3   0.021119371   0.23036  -0.06521  -0.08303  -0.46820
  19   30549.7    327.3   0.125053701   1.34761   0.17327  -0.28755  -1.11126
  20   30589.0    326.9   0.013572384   0.14607  -0.36704  -0.02059   0.10454
  21   30752.5    325.2   0.018105145   0.19382   0.21943  -0.29667  -0.24011
  22   31012.0    322.5   0.041121670   0.43653   0.42229  -0.30795  -0.40419
  23   31115.1    321.4   0.212890610   2.25248   0.92292   1.18306  -0.03279
  24   31147.4    321.1   0.049039316   0.51832   0.10457   0.49793   0.50937
  25   31491.3    317.5   0.020657938   0.21596   0.35054  -0.30219  -0.04192
  26   31735.0    315.1   0.002833592   0.02940   0.06435  -0.01668  -0.15804
  27   32136.0    311.2   0.030628810   0.31377  -0.19084   0.45581   0.26380
  28   32830.0    304.6   0.093377437   0.93637  -0.95829  -0.08879  -0.10085
  29   32921.3    303.8   0.035455336   0.35455   0.25030  -0.22549  -0.49098
  30   33152.3    301.6   0.216194882   2.14688  -0.69498   0.83430   0.98378
  31   33185.6    301.3   0.204873232   2.03241   1.27733   0.22709  -0.59100
  32   33529.7    298.2   0.031279138   0.30711   0.42308  -0.35716  -0.02341
  33   33575.9    297.8   0.092502549   0.90699  -0.59850   0.28852   0.68231
  34   33744.0    296.3   0.281863809   2.74991   1.41651   0.80948  -0.29689
  35   33934.7    294.7   0.073512722   0.71317   0.69128   0.14497  -0.46291
  36   34036.2    293.8   0.000631281   0.00611  -0.05665  -0.04311   0.03222
  37   34247.0    292.0   0.021147480   0.20329  -0.42935  -0.06629   0.12063
  38   34532.4    289.6   0.161724223   1.54179   0.58147   1.01903   0.40651
  39   34672.9    288.4   0.239862357   2.27744  -1.16621  -0.94879   0.13114
  40   34792.9    287.4   0.042038936   0.39777   0.24613   0.56773   0.12198
  41   34971.2    285.9   0.240872022   2.26752  -0.97362  -1.12484   0.23305
  42   35170.7    284.3   0.130661342   1.22304  -0.85002  -0.68827  -0.16369
  43   35268.3    283.5   0.144493958   1.34878   1.03552   0.46998   0.23579
  44   35527.0    281.5   0.252083986   2.33595   1.33802  -0.27815   0.68430
  45   35590.1    281.0   0.140279751   1.29760  -0.64390   0.18180   0.92192
  46   35799.0    279.3   0.117156409   1.07738  -0.66289  -0.79218   0.10204
  47   35981.9    277.9   0.057063737   0.52210  -0.56432  -0.38500  -0.23542
  48   36354.2    275.1   0.162936614   1.47550  -0.23100   0.93228   0.74363
  49   36442.8    274.4   0.238276337   2.15251  -0.46726   1.12463   0.81816
  50   36814.4    271.6   0.000072898   0.00065   0.00015   0.00960  -0.02366
  51   37252.6    268.4   0.038027435   0.33606  -0.51477   0.18624   0.19074
  52   37522.8    266.5   0.016651556   0.14610  -0.27760  -0.08488  -0.24865
  53   37938.4    263.6   0.012231909   0.10614  -0.22589   0.04636  -0.23014
  54   38066.1    262.7   0.026146089   0.22612  -0.39690  -0.00744   0.26180
  55   38138.7    262.2   0.001490755   0.01287   0.11097   0.01205   0.02020
  56   38652.9    258.7   0.000435771   0.00371  -0.04976   0.01905   0.02954
  57   38741.4    258.1   0.012235709   0.10398  -0.32219  -0.00319   0.01272
  58   38909.8    257.0   0.202988959   1.71747  -0.04689  -0.68750  -1.11473
  59   39053.3    256.1   0.094478515   0.79644   0.34560  -0.45344  -0.68658
  60   39117.5    255.6   0.049547441   0.41699   0.36926  -0.26277  -0.45999
  61   39416.4    253.7   0.008318418   0.06948  -0.17881   0.11008   0.15933
  62   39511.7    253.1   0.001455835   0.01213   0.08169  -0.01660  -0.07198
  63   39542.4    252.9   0.001608980   0.01340  -0.05401   0.04476   0.09206
  64   39806.7    251.2   0.001249965   0.01034  -0.06729   0.00298  -0.07616
  65   39907.2    250.6   0.003849825   0.03176   0.10673  -0.12396   0.07072
  66   40051.9    249.7   0.020503985   0.16854   0.02162   0.33066   0.24234

FINAL SINGLE POINT ENERGY     -6043.471127426100

DIPOLE MOMENT
-------------
                                X             Y             Z
Electronic contribution:    -47.54964     -19.19571     -17.88058
Nuclear contribution   :     45.64330      16.85423      15.69222
                        -----------------------------------------
Total Dipole Moment    :     -1.90634      -2.34147      -2.18836
                        -----------------------------------------
Magnitude (a.u.)       :      3.72902
Magnitude (Debye)      :      9.47841

Rotational constants in cm-1:     0.000715     0.000178     0.000150
Rotational constants in MHz :    21.449820     5.345074     4.492734

                             ****ORCA TERMINATED NORMALLY****
TOTAL RUN TIME: 0 days 0 hours 10 minutes 45 seconds 467 msec
