                         Program Version 4.2.0 -  RELEASE  -
|  1> # ORCA input file
|  2> # SCF done       -157.074500058621          0.000873433232
|  3> ! CAM-B3LYP def2-SVP def2/J RIJCOSX Grid4 TightSCF
|  4> %maxcore 5000
|  5> %tddft
|  6>     Mode sTDDFT
|  7>     Ethresh 5.0
|  8>     maxcore 5000
|  9> end
| 10>
| 11> %pal
| 12>   nprocs 6
| 13>   end
| 14> * xyz 0 1
| 15>    C       -4.36580        -0.26483         2.89791
| 16>    C       -4.56376         1.00947         3.40035
| 17>    C       -5.79085         1.30625         3.99919
| 18>    C       -6.01595         2.60758         4.51273
| 19>    N       -6.18874         3.66098         4.92591
| 20>    C       -6.80876         0.33922         4.09789
| 21>    C       -8.04344         0.67113         4.70579
| 22>    N       -9.05014         0.91935         5.19173
| 23>    C       -6.60455        -0.94603         3.59208
| 24>    C       -5.39140        -1.22521         3.00084
| 25>    C       -4.93412        -2.48722         2.38274
| 26>    O       -5.57113        -3.52749         2.31580
| 27>    C       -3.59225        -2.23106         1.87585
| 28>    C       -3.21878        -0.87383         2.21724
| 29>    C       -2.02185        -0.24932         1.98366
| 30>    C       -1.73390         1.08048         2.36124
| 31>    N       -1.43989         2.15386         2.64031
| 32>    C       -0.90119        -0.82956         1.35051
| 33>    N        0.05446        -1.22412         0.85106
| 34>    C       -2.83659        -3.12890         1.15454
| 35>    C       -3.11809        -4.44419         0.76904
| 36>    C       -2.18817        -5.14840        -0.01600
| 37>    C       -2.53045        -6.43403        -0.36200
| 38>    C       -3.76081        -6.87241         0.13703
| 39>   Se       -4.61460        -5.55019         1.14549
| 40>    C       -4.32424        -8.15467        -0.08520
| 41>    C       -5.55488        -8.50568         0.52510
| 42>    C       -6.16581        -9.78400         0.34937
| 43>    N       -7.32705       -10.05704         0.96989
| 44>    C       -7.88041        -9.14353         1.72169
| 45>    C       -7.28243        -7.87765         1.88413
| 46>    N       -6.15343        -7.58557         1.29902
| 47>    C       -5.59347       -10.79669        -0.46062
| 48>    C       -4.37461       -10.45226        -1.08682
| 49>    C       -3.74724        -9.15906        -0.89682
| 50>    N       -2.60489        -9.07091        -1.58185
| 51>    S       -2.34421       -10.43964        -2.36964
| 52>    N       -3.65494       -11.22902        -1.89914
| 53>    C       -6.22503       -12.05941        -0.57769
| 54>    C       -5.78933       -13.15161        -1.32220
| 55>    C       -6.59688       -14.27450        -1.25814
| 56>    C       -7.70572       -14.17407        -0.42133
| 57>   Se       -7.80804       -12.43932         0.33436
| 58>    C       -8.66531       -15.19457        -0.27835
| 59>    C       -9.63910       -15.33783         0.67081
| 60>    C      -10.82527       -16.17973         0.38368
| 61>    O      -10.96564       -16.96651        -0.52270
| 62>    C      -11.82285       -15.80162         1.41550
| 63>    C      -13.13474       -16.20747         1.53449
| 64>    C      -13.89323       -15.68433         2.58378
| 65>    C      -13.32014       -14.76371         3.48194
| 66>    C      -11.98662       -14.36770         3.35890
| 67>    C      -11.23751       -14.89594         2.32255
| 68>    C       -9.83009       -14.71644         1.96083
| 69>    C       -8.84530       -14.31243         2.82656
| 70>    C       -7.46955       -14.46645         2.55271
| 71>    N       -6.34386       -14.62307         2.38901
| 72>    C       -9.09196       -13.78566         4.11014
| 73>    N       -9.24927       -13.32722         5.15038
| 74>    C      -14.11108       -14.22637         4.52768
| 75>    N      -14.74092       -13.78406         5.37499
| 76>    C      -15.24445       -16.07616         2.74207
| 77>    N      -16.33514       -16.40580         2.85529
| 78>    H       -3.81045         1.77874         3.34286
| 79>    H       -7.37515        -1.69875         3.65898
| 80>    H       -1.87265        -2.77376         0.80655
| 81>    H       -1.26190        -4.69175        -0.32688
| 82>    H       -1.90759        -7.07144        -0.96506
| 83>    H       -8.80862        -9.40370         2.20932
| 84>    H       -7.72847        -7.10770         2.49607
| 85>    H       -4.88482       -13.10234        -1.90294
| 86>    H       -6.36525       -15.18604        -1.78430
| 87>    H       -8.69940       -15.93174        -1.07697
| 88>    H      -13.56349       -16.91038         0.83646
| 89>    H      -11.57764       -13.65833         4.06118
| 90> *
| 91>
| 92>                          ****END OF INPUT****

CARTESIAN COORDINATES (ANGSTROEM)
---------------------------------
  C     -4.365800   -0.264830    2.897910
  C     -4.563760    1.009470    3.400350
  C     -5.790850    1.306250    3.999190
  C     -6.015950    2.607580    4.512730
  N     -6.188740    3.660980    4.925910
  C     -6.808760    0.339220    4.097890
  C     -8.043440    0.671130    4.705790
  N     -9.050140    0.919350    5.191730
  C     -6.604550   -0.946030    3.592080
  C     -5.391400   -1.225210    3.000840
  C     -4.934120   -2.487220    2.382740
  O     -5.571130   -3.527490    2.315800
  C     -3.592250   -2.231060    1.875850
  C     -3.218780   -0.873830    2.217240
  C     -2.021850   -0.249320    1.983660
  C     -1.733900    1.080480    2.361240
  N     -1.439890    2.153860    2.640310
  C     -0.901190   -0.829560    1.350510
  N      0.054460   -1.224120    0.851060
  C     -2.836590   -3.128900    1.154540
  C     -3.118090   -4.444190    0.769040
  C     -2.188170   -5.148400   -0.016000
  C     -2.530450   -6.434030   -0.362000
  C     -3.760810   -6.872410    0.137030
  Se    -4.614600   -5.550190    1.145490
  C     -4.324240   -8.154670   -0.085200
  C     -5.554880   -8.505680    0.525100
  C     -6.165810   -9.784000    0.349370
  N     -7.327050  -10.057040    0.969890
  C     -7.880410   -9.143530    1.721690
  C     -7.282430   -7.877650    1.884130
  N     -6.153430   -7.585570    1.299020
  C     -5.593470  -10.796690   -0.460620
  C     -4.374610  -10.452260   -1.086820
  C     -3.747240   -9.159060   -0.896820
  N     -2.604890   -9.070910   -1.581850
  S     -2.344210  -10.439640   -2.369640
  N     -3.654940  -11.229020   -1.899140
  C     -6.225030  -12.059410   -0.577690
  C     -5.789330  -13.151610   -1.322200
  C     -6.596880  -14.274500   -1.258140
  C     -7.705720  -14.174070   -0.421330
  Se    -7.808040  -12.439320    0.334360
  C     -8.665310  -15.194570   -0.278350
  C     -9.639100  -15.337830    0.670810
  C    -10.825270  -16.179730    0.383680
  O    -10.965640  -16.966510   -0.522700
  C    -11.822850  -15.801620    1.415500
  C    -13.134740  -16.207470    1.534490
  C    -13.893230  -15.684330    2.583780
  C    -13.320140  -14.763710    3.481940
  C    -11.986620  -14.367700    3.358900
  C    -11.237510  -14.895940    2.322550
  C     -9.830090  -14.716440    1.960830
  C     -8.845300  -14.312430    2.826560
  C     -7.469550  -14.466450    2.552710
  N     -6.343860  -14.623070    2.389010
  C     -9.091960  -13.785660    4.110140
  N     -9.249270  -13.327220    5.150380
  C    -14.111080  -14.226370    4.527680
  N    -14.740920  -13.784060    5.374990
  C    -15.244450  -16.076160    2.742070
  N    -16.335140  -16.405800    2.855290
  H     -3.810450    1.778740    3.342860
  H     -7.375150   -1.698750    3.658980
  H     -1.872650   -2.773760    0.806550
  H     -1.261900   -4.691750   -0.326880
  H     -1.907590   -7.071440   -0.965060
  H     -8.808620   -9.403700    2.209320
  H     -7.728470   -7.107700    2.496070
  H     -4.884820  -13.102340   -1.902940
  H     -6.365250  -15.186040   -1.784300
  H     -8.699400  -15.931740   -1.076970
  H    -13.563490  -16.910380    0.836460
  H    -11.577640  -13.658330    4.061180

 Total Charge           Charge          ....    0
 Multiplicity           Mult            ....    1
 Number of Electrons    NEL             ....  472
 Basis Dimension        Dim             ....  982

ORBITAL ENERGIES
----------------

  NO   OCC          E(Eh)            E(eV)
   0   2.0000    -453.946625    -12352.5157
   1   2.0000    -453.940675    -12352.3538
   2   2.0000     -89.066168     -2423.6137
   3   2.0000     -58.160389     -1582.6246
   4   2.0000     -58.153774     -1582.4446
   5   2.0000     -52.230513     -1421.2645
   6   2.0000     -52.229302     -1421.2316
   7   2.0000     -52.228561     -1421.2114
   8   2.0000     -52.223852     -1421.0832
   9   2.0000     -52.222550     -1421.0478
  10   2.0000     -52.221940     -1421.0312
  11   2.0000     -19.243554      -523.6437
  12   2.0000     -19.236174      -523.4429
  13   2.0000     -14.476632      -393.9292
  14   2.0000     -14.473616      -393.8471
  15   2.0000     -14.473169      -393.8350
  16   2.0000     -14.472311      -393.8116
  17   2.0000     -14.435900      -392.8208
  18   2.0000     -14.434333      -392.7782
  19   2.0000     -14.431027      -392.6882
  20   2.0000     -14.430516      -392.6743
  21   2.0000     -14.430486      -392.6735
  22   2.0000     -14.430481      -392.6734
  23   2.0000     -14.430341      -392.6695
  24   2.0000     -14.428382      -392.6162
  25   2.0000     -10.391063      -282.7552
  26   2.0000     -10.387839      -282.6675
  27   2.0000     -10.368030      -282.1284
  28   2.0000     -10.366046      -282.0744
  29   2.0000     -10.365704      -282.0652
  30   2.0000     -10.364392      -282.0294
  31   2.0000     -10.364090      -282.0212
  32   2.0000     -10.363572      -282.0071
  33   2.0000     -10.362960      -281.9905
  34   2.0000     -10.362686      -281.9830
  35   2.0000     -10.362515      -281.9784
  36   2.0000     -10.361391      -281.9478
  37   2.0000     -10.361367      -281.9471
  38   2.0000     -10.361166      -281.9417
  39   2.0000     -10.361054      -281.9386
  40   2.0000     -10.360805      -281.9318
  41   2.0000     -10.342522      -281.4343
  42   2.0000     -10.340831      -281.3883
  43   2.0000     -10.339850      -281.3616
  44   2.0000     -10.337564      -281.2994
  45   2.0000     -10.336905      -281.2815
  46   2.0000     -10.336790      -281.2783
  47   2.0000     -10.336708      -281.2761
  48   2.0000     -10.336629      -281.2740
  49   2.0000     -10.336207      -281.2625
  50   2.0000     -10.336176      -281.2616
  51   2.0000     -10.336153      -281.2610
  52   2.0000     -10.336115      -281.2600
  53   2.0000     -10.334688      -281.2212
  54   2.0000     -10.332976      -281.1746
  55   2.0000     -10.331786      -281.1422
  56   2.0000     -10.327187      -281.0170
  57   2.0000     -10.327178      -281.0168
  58   2.0000     -10.327137      -281.0157
  59   2.0000     -10.326966      -281.0110
  60   2.0000     -10.326860      -281.0081
  61   2.0000     -10.326727      -281.0045
  62   2.0000     -10.324693      -280.9492
  63   2.0000     -10.317571      -280.7554
  64   2.0000     -10.316560      -280.7279
  65   2.0000     -10.312933      -280.6292
  66   2.0000     -10.312357      -280.6135
  67   2.0000     -10.306012      -280.4408
  68   2.0000     -10.302827      -280.3542
  69   2.0000     -10.297580      -280.2114
  70   2.0000     -10.291452      -280.0447
  71   2.0000      -8.157335      -221.9724
  72   2.0000      -7.934499      -215.9087
  73   2.0000      -7.927971      -215.7311
  74   2.0000      -6.128414      -166.7626
  75   2.0000      -6.120443      -166.5457
  76   2.0000      -6.120307      -166.5420
  77   2.0000      -5.883656      -160.1024
  78   2.0000      -5.879008      -159.9759
  79   2.0000      -5.876862      -159.9175
  80   2.0000      -5.874257      -159.8466
  81   2.0000      -5.872221      -159.7912
  82   2.0000      -5.867847      -159.6722
  83   2.0000      -2.238186       -60.9041
  84   2.0000      -2.237455       -60.8842
  85   2.0000      -2.232952       -60.7617
  86   2.0000      -2.231182       -60.7135
  87   2.0000      -2.230729       -60.7012
  88   2.0000      -2.229188       -60.6593
  89   2.0000      -2.228899       -60.6514
  90   2.0000      -2.226295       -60.5806
  91   2.0000      -2.222565       -60.4791
  92   2.0000      -2.222413       -60.4749
  93   2.0000      -1.162786       -31.6410
  94   2.0000      -1.156625       -31.4734
  95   2.0000      -1.151582       -31.3361
  96   2.0000      -1.130611       -30.7655
  97   2.0000      -1.056888       -28.7594
  98   2.0000      -1.045318       -28.4445
  99   2.0000      -1.044177       -28.4135
 100   2.0000      -1.030292       -28.0357
 101   2.0000      -1.029857       -28.0238
 102   2.0000      -1.017435       -27.6858
 103   2.0000      -1.014038       -27.5934
 104   2.0000      -1.013421       -27.5766
 105   2.0000      -1.010662       -27.5015
 106   2.0000      -1.010570       -27.4990
 107   2.0000      -1.009811       -27.4784
 108   2.0000      -1.008680       -27.4476
 109   2.0000      -1.003093       -27.2955
 110   2.0000      -0.985338       -26.8124
 111   2.0000      -0.982276       -26.7291
 112   2.0000      -0.977336       -26.5947
 113   2.0000      -0.970544       -26.4098
 114   2.0000      -0.928410       -25.2633
 115   2.0000      -0.928115       -25.2553
 116   2.0000      -0.926481       -25.2108
 117   2.0000      -0.914884       -24.8953
 118   2.0000      -0.908726       -24.7277
 119   2.0000      -0.906727       -24.6733
 120   2.0000      -0.905527       -24.6407
 121   2.0000      -0.897925       -24.4338
 122   2.0000      -0.866171       -23.5697
 123   2.0000      -0.852867       -23.2077
 124   2.0000      -0.841320       -22.8935
 125   2.0000      -0.831086       -22.6150
 126   2.0000      -0.828975       -22.5576
 127   2.0000      -0.813097       -22.1255
 128   2.0000      -0.811736       -22.0885
 129   2.0000      -0.807098       -21.9623
 130   2.0000      -0.801898       -21.8207
 131   2.0000      -0.780110       -21.2279
 132   2.0000      -0.763439       -20.7742
 133   2.0000      -0.755353       -20.5542
 134   2.0000      -0.753055       -20.4917
 135   2.0000      -0.739699       -20.1282
 136   2.0000      -0.731270       -19.8989
 137   2.0000      -0.718533       -19.5523
 138   2.0000      -0.714406       -19.4400
 139   2.0000      -0.709176       -19.2977
 140   2.0000      -0.698705       -19.0127
 141   2.0000      -0.693231       -18.8638
 142   2.0000      -0.688402       -18.7324
 143   2.0000      -0.678640       -18.4667
 144   2.0000      -0.668767       -18.1981
 145   2.0000      -0.665408       -18.1067
 146   2.0000      -0.658842       -17.9280
 147   2.0000      -0.657885       -17.9019
 148   2.0000      -0.645478       -17.5643
 149   2.0000      -0.639823       -17.4105
 150   2.0000      -0.636354       -17.3161
 151   2.0000      -0.624519       -16.9940
 152   2.0000      -0.623458       -16.9651
 153   2.0000      -0.617068       -16.7913
 154   2.0000      -0.609772       -16.5927
 155   2.0000      -0.604865       -16.4592
 156   2.0000      -0.601013       -16.3544
 157   2.0000      -0.595735       -16.2108
 158   2.0000      -0.592981       -16.1358
 159   2.0000      -0.587281       -15.9807
 160   2.0000      -0.582937       -15.8625
 161   2.0000      -0.577005       -15.7011
 162   2.0000      -0.571561       -15.5530
 163   2.0000      -0.570145       -15.5144
 164   2.0000      -0.565543       -15.3892
 165   2.0000      -0.564930       -15.3725
 166   2.0000      -0.563300       -15.3282
 167   2.0000      -0.555963       -15.1285
 168   2.0000      -0.548810       -14.9339
 169   2.0000      -0.545232       -14.8365
 170   2.0000      -0.537336       -14.6217
 171   2.0000      -0.532872       -14.5002
 172   2.0000      -0.532080       -14.4786
 173   2.0000      -0.527711       -14.3598
 174   2.0000      -0.526585       -14.3291
 175   2.0000      -0.523454       -14.2439
 176   2.0000      -0.517720       -14.0879
 177   2.0000      -0.514968       -14.0130
 178   2.0000      -0.511104       -13.9078
 179   2.0000      -0.508227       -13.8296
 180   2.0000      -0.506740       -13.7891
 181   2.0000      -0.504363       -13.7244
 182   2.0000      -0.502444       -13.6722
 183   2.0000      -0.497779       -13.5452
 184   2.0000      -0.493211       -13.4209
 185   2.0000      -0.491325       -13.3696
 186   2.0000      -0.490005       -13.3337
 187   2.0000      -0.484231       -13.1766
 188   2.0000      -0.471968       -12.8429
 189   2.0000      -0.470196       -12.7947
 190   2.0000      -0.465556       -12.6684
 191   2.0000      -0.464967       -12.6524
 192   2.0000      -0.462992       -12.5987
 193   2.0000      -0.462804       -12.5935
 194   2.0000      -0.460889       -12.5414
 195   2.0000      -0.459371       -12.5001
 196   2.0000      -0.459081       -12.4922
 197   2.0000      -0.456178       -12.4132
 198   2.0000      -0.456064       -12.4101
 199   2.0000      -0.454731       -12.3739
 200   2.0000      -0.454606       -12.3705
 201   2.0000      -0.453839       -12.3496
 202   2.0000      -0.453206       -12.3324
 203   2.0000      -0.452618       -12.3164
 204   2.0000      -0.448921       -12.2158
 205   2.0000      -0.446101       -12.1390
 206   2.0000      -0.445086       -12.1114
 207   2.0000      -0.443734       -12.0746
 208   2.0000      -0.442882       -12.0514
 209   2.0000      -0.440237       -11.9795
 210   2.0000      -0.436417       -11.8755
 211   2.0000      -0.435560       -11.8522
 212   2.0000      -0.430580       -11.7167
 213   2.0000      -0.429304       -11.6820
 214   2.0000      -0.427220       -11.6252
 215   2.0000      -0.425083       -11.5671
 216   2.0000      -0.423707       -11.5297
 217   2.0000      -0.419203       -11.4071
 218   2.0000      -0.416230       -11.3262
 219   2.0000      -0.398144       -10.8341
 220   2.0000      -0.392418       -10.6782
 221   2.0000      -0.385994       -10.5034
 222   2.0000      -0.379136       -10.3168
 223   2.0000      -0.372162       -10.1270
 224   2.0000      -0.371293       -10.1034
 225   2.0000      -0.370287       -10.0760
 226   2.0000      -0.361021        -9.8239
 227   2.0000      -0.359269        -9.7762
 228   2.0000      -0.351707        -9.5704
 229   2.0000      -0.345626        -9.4050
 230   2.0000      -0.341183        -9.2841
 231   2.0000      -0.332564        -9.0495
 232   2.0000      -0.327894        -8.9224
 233   2.0000      -0.324264        -8.8237
 234   2.0000      -0.305161        -8.3039
 235   2.0000      -0.265102        -7.2138
 236   0.0000      -0.150677        -4.1001
 237   0.0000      -0.109293        -2.9740
 238   0.0000      -0.105942        -2.8828
 239   0.0000      -0.092185        -2.5085
 240   0.0000      -0.089834        -2.4445

MULLIKEN ATOMIC CHARGES
-----------------------
   0 C :    0.044086
   1 C :   -0.046868
   2 C :   -0.062318
   3 C :   -0.175280
   4 N :    0.204727
   5 C :   -0.067273
   6 C :   -0.175004
   7 N :    0.199305
   8 C :   -0.042152
   9 C :    0.005396
  10 C :    0.172710
  11 O :   -0.186098
  12 C :   -0.093979
  13 C :    0.333067
  14 C :   -0.347264
  15 C :   -0.189407
  16 N :    0.169250
  17 C :   -0.189164
  18 N :    0.158987
  19 C :   -0.018712
  20 C :   -0.100529
  21 C :    0.028483
  22 C :    0.007868
  23 C :   -0.217283
  24 Se:    0.365970
  25 C :    0.186879
  26 C :   -0.034403
  27 C :   -0.018047
  28 N :   -0.101889
  29 C :    0.064788
  30 C :    0.056370
  31 N :   -0.082371
  32 C :    0.192591
  33 C :   -0.005219
  34 C :    0.009814
  35 N :   -0.293475
  36 S :    0.569613
  37 N :   -0.288294
  38 C :   -0.191918
  39 C :    0.015482
  40 C :    0.054399
  41 C :   -0.124341
  42 Se:    0.286679
  43 C :    0.046840
  44 C :   -0.136051
  45 C :    0.144601
  46 O :   -0.128265
  47 C :    0.010296
  48 C :   -0.034479
  49 C :   -0.070915
  50 C :   -0.061195
  51 C :   -0.041609
  52 C :    0.034414
  53 C :    0.247989
  54 C :   -0.309374
  55 C :   -0.208247
  56 N :    0.180777
  57 C :   -0.176382
  58 N :    0.166723
  59 C :   -0.173654
  60 N :    0.198900
  61 C :   -0.171748
  62 N :    0.197898
  63 H :    0.021987
  64 H :    0.012206
  65 H :    0.013696
  66 H :    0.007581
  67 H :    0.006968
  68 H :    0.031747
  69 H :    0.037134
  70 H :    0.007881
  71 H :    0.000011
  72 H :    0.031617
  73 H :    0.017744
  74 H :    0.019738
Sum of atomic charges:   -0.0000000

LOEWDIN ATOMIC CHARGES
----------------------
   0 C :    0.004517
   1 C :    0.033734
   2 C :   -0.024366
   3 C :   -0.031826
   4 N :   -0.011013
   5 C :   -0.029679
   6 C :   -0.032227
   7 N :   -0.014943
   8 C :    0.044966
   9 C :   -0.027563
  10 C :    0.087162
  11 O :   -0.154187
  12 C :   -0.116295
  13 C :    0.069770
  14 C :   -0.127784
  15 C :   -0.022151
  16 N :   -0.037849
  17 C :   -0.020863
  18 N :   -0.040254
  19 C :    0.068380
  20 C :   -0.174415
  21 C :   -0.006297
  22 C :   -0.043447
  23 C :   -0.134299
  24 Se:    0.477176
  25 C :   -0.032884
  26 C :   -0.006824
  27 C :   -0.008147
  28 N :   -0.026544
  29 C :    0.035347
  30 C :    0.035187
  31 N :   -0.021507
  32 C :   -0.029706
  33 C :   -0.035469
  34 C :   -0.033809
  35 N :   -0.275150
  36 S :    0.693514
  37 N :   -0.275139
  38 C :   -0.122514
  39 C :   -0.032156
  40 C :   -0.003987
  41 C :   -0.172117
  42 Se:    0.445591
  43 C :    0.067812
  44 C :   -0.108631
  45 C :    0.081584
  46 O :   -0.131034
  47 C :   -0.029693
  48 C :    0.048654
  49 C :   -0.030148
  50 C :   -0.024162
  51 C :    0.028810
  52 C :    0.005010
  53 C :    0.055916
  54 C :   -0.131967
  55 C :   -0.034136
  56 N :   -0.034931
  57 C :   -0.024031
  58 N :   -0.040939
  59 C :   -0.031623
  60 N :   -0.012368
  61 C :   -0.032405
  62 N :   -0.014102
  63 H :    0.052641
  64 H :    0.052054
  65 H :    0.049173
  66 H :    0.036789
  67 H :    0.030369
  68 H :    0.036091
  69 H :    0.038166
  70 H :    0.033256
  71 H :    0.035793
  72 H :    0.052336
  73 H :    0.054662
  74 H :    0.051119

  Mayer bond orders larger than 0.100000
B(  0-C ,  1-C ) :   1.3656 B(  0-C ,  9-C ) :   1.3344 B(  0-C , 13-C ) :   0.9509
B(  1-C ,  2-C ) :   1.3855 B(  1-C , 63-H ) :   0.9859 B(  2-C ,  3-C ) :   1.0875
B(  2-C ,  5-C ) :   1.4098 B(  3-C ,  4-N ) :   3.0439 B(  5-C ,  6-C ) :   1.0848
B(  5-C ,  8-C ) :   1.3563 B(  6-C ,  7-N ) :   3.0457 B(  8-C ,  9-C ) :   1.3661
B(  8-C , 64-H ) :   1.0153 B(  9-C , 10-C ) :   0.9405 B( 10-C , 11-O ) :   2.1051
B( 10-C , 12-C ) :   1.0059 B( 11-O , 24-Se) :   0.1090 B( 12-C , 13-C ) :   1.0919
B( 12-C , 19-C ) :   1.4431 B( 13-C , 14-C ) :   1.6324 B( 14-C , 15-C ) :   1.1525
B( 14-C , 17-C ) :   1.1476 B( 15-C , 16-N ) :   2.9596 B( 17-C , 18-N ) :   2.9616
B( 19-C , 20-C ) :   1.2947 B( 19-C , 65-H ) :   0.9435 B( 20-C , 21-C ) :   1.3137
B( 20-C , 24-Se) :   1.0222 B( 21-C , 22-C ) :   1.3503 B( 21-C , 66-H ) :   1.0034
B( 22-C , 23-C ) :   1.3796 B( 22-C , 67-H ) :   0.9844 B( 23-C , 24-Se) :   1.0786
B( 23-C , 25-C ) :   1.2129 B( 25-C , 26-C ) :   1.2710 B( 25-C , 32-C ) :   0.1343
B( 25-C , 34-C ) :   1.1782 B( 26-C , 27-C ) :   1.1460 B( 26-C , 31-N ) :   1.4018
B( 27-C , 28-N ) :   1.3760 B( 27-C , 32-C ) :   1.2668 B( 28-N , 29-C ) :   1.6395
B( 28-N , 42-Se) :   0.1280 B( 29-C , 30-C ) :   1.2028 B( 29-C , 68-H ) :   0.9726
B( 30-C , 31-N ) :   1.6494 B( 30-C , 69-H ) :   0.9741 B( 32-C , 33-C ) :   1.1855
B( 32-C , 38-C ) :   1.2113 B( 33-C , 34-C ) :   1.0944 B( 33-C , 37-N ) :   1.5061
B( 34-C , 35-N ) :   1.4977 B( 35-N , 36-S ) :   1.2897 B( 35-N , 37-N ) :   0.1522
B( 36-S , 37-N ) :   1.2895 B( 38-C , 39-C ) :   1.4256 B( 38-C , 42-Se) :   1.1071
B( 39-C , 40-C ) :   1.3066 B( 39-C , 70-H ) :   0.9820 B( 40-C , 41-C ) :   1.3953
B( 40-C , 71-H ) :   1.0007 B( 41-C , 42-Se) :   1.0237 B( 41-C , 43-C ) :   1.1803
B( 43-C , 44-C ) :   1.5833 B( 43-C , 72-H ) :   0.9492 B( 44-C , 45-C ) :   0.9576
B( 44-C , 53-C ) :   1.0539 B( 45-C , 46-O ) :   2.2786 B( 45-C , 47-C ) :   0.8984
B( 47-C , 48-C ) :   1.3691 B( 47-C , 52-C ) :   1.3348 B( 48-C , 49-C ) :   1.3624
B( 48-C , 73-H ) :   1.0158 B( 49-C , 50-C ) :   1.4048 B( 49-C , 61-C ) :   1.0866
B( 50-C , 51-C ) :   1.3821 B( 50-C , 59-C ) :   1.0857 B( 51-C , 52-C ) :   1.3631
B( 51-C , 74-H ) :   0.9919 B( 52-C , 53-C ) :   0.9800 B( 53-C , 54-C ) :   1.6565
B( 54-C , 55-C ) :   1.1508 B( 54-C , 57-C ) :   1.1367 B( 55-C , 56-N ) :   3.0161
B( 57-C , 58-N ) :   2.9836 B( 59-C , 60-N ) :   3.0440 B( 61-C , 62-N ) :   3.0451

-----------------------------------------------------------------------------
         ABSORPTION SPECTRUM VIA TRANSITION ELECTRIC DIPOLE MOMENTS
-----------------------------------------------------------------------------
State   Energy  Wavelength   fosc         T2         TX        TY        TZ
        (cm-1)    (nm)                  (au**2)     (au)      (au)      (au)
-----------------------------------------------------------------------------
   0    9948.7   1005.2   0.840730904  27.82045  -2.19539  -4.78971  -0.24378
   1   18382.2    544.0   0.138725574   2.48448   0.82925  -0.07860  -1.33815
   2   19058.2    524.7   0.070808675   1.22315   0.51062   0.84629  -0.49619
   3   20151.2    496.2   0.312877083   5.11149  -0.43779  -2.06602  -0.80708
   4   20556.0    486.5   0.061905996   0.99145   0.57937   0.79438  -0.15730
   5   20843.1    479.8   0.027485092   0.43412  -0.03145   0.54243   0.37270
   6   21152.2    472.8   0.001629632   0.02536  -0.03689  -0.02748   0.15247
   7   22722.9    440.1   0.276202281   4.00166  -0.19836   1.81086   0.82649
   8   23643.4    423.0   0.174527050   2.43012   1.30070   0.69699  -0.50251
   9   25050.5    399.2   0.015099514   0.19844   0.34429  -0.18897   0.21022
  10   26393.0    378.9   0.001149247   0.01434  -0.07013  -0.05901   0.07704
  11   26743.7    373.9   0.010818810   0.13318   0.18048   0.19287   0.25181
  12   27717.9    360.8   0.076410689   0.90755  -0.79716  -0.48819   0.18373
  13   28461.3    351.4   0.005468391   0.06325   0.19019  -0.14006  -0.08640
  14   29138.6    343.2   0.007469143   0.08439   0.12360  -0.25980   0.04018
  15   29322.0    341.0   0.022055861   0.24763  -0.37753  -0.29647   0.13119
  16   29804.2    335.5   0.003418150   0.03776  -0.15254   0.05436   0.10739
  17   29975.7    333.6   0.027166874   0.29836   0.27837   0.12765   0.45230
  18   30006.7    333.3   0.201858184   2.21464   1.27598  -0.27448  -0.71496
  19   30323.4    329.8   0.126885973   1.37756  -0.59952  -0.70984  -0.71712
  20   30670.1    326.1   0.003411125   0.03661  -0.14471  -0.00905  -0.12487
  21   30802.1    324.7   0.013744606   0.14690   0.15036  -0.22923  -0.26786
  22   30927.1    323.3   0.014494794   0.15429  -0.23125   0.07178   0.30930
  23   31034.4    322.2   0.026715384   0.28340   0.46037  -0.21113  -0.16394
  24   31696.7    315.5   0.081955562   0.85122  -0.15250   0.79341   0.44550
  25   32201.9    310.5   0.005390030   0.05510   0.10349  -0.11250  -0.17815
  26   33061.6    302.5   0.213476419   2.12570  -1.28837  -0.57590   0.36625
  27   33384.7    299.5   0.083836761   0.82673   0.85282   0.21883  -0.22702
  28   33575.9    297.8   0.011154791   0.10937  -0.32591   0.04928  -0.02692
  29   34013.6    294.0   0.031273960   0.30270  -0.44214   0.29467   0.14275
  30   34138.8    292.9   0.102972171   0.99299  -0.26400   0.83870   0.46892
  31   34562.9    289.3   0.090037643   0.85761   0.41858  -0.68084  -0.46782
  32   35055.5    285.3   0.045047238   0.42305  -0.62061  -0.18157  -0.07011
  33   35062.9    285.2   0.484757493   4.55147   2.00660   0.72446   0.01388
  34   35467.6    281.9   0.171538509   1.59223  -1.24811  -0.07081  -0.17156
  35   35776.9    279.5   0.502200667   4.62116  -1.89911  -0.09479   1.00278
  36   36181.4    276.4   0.018870424   0.17170  -0.37311   0.17195   0.05404
  37   36337.1    275.2   0.042304875   0.38328   0.57542   0.09787  -0.20637
  38   36547.8    273.6   0.049815317   0.44872  -0.39203  -0.37095  -0.39677
  39   36556.7    273.5   0.012511070   0.11267  -0.14780   0.26607   0.14153
  40   36915.0    270.9   0.061147489   0.54532   0.07073  -0.54852  -0.48933
  41   37340.8    267.8   0.041811945   0.36863   0.55234   0.23623   0.08804
  42   37595.5    266.0   0.012634091   0.11063   0.01388  -0.16609  -0.28785
  43   37754.2    264.9   0.109664780   0.95626  -0.20636   0.71379   0.63576
  44   37906.4    263.8   0.130387097   1.13239  -0.47255   0.50309   0.80993
  45   38386.5    260.5   0.050876216   0.43633  -0.49065   0.05864   0.43835
  46   38607.9    259.0   0.002666982   0.02274   0.10624  -0.10689  -0.00547
  47   39027.0    256.2   0.034949120   0.29481  -0.24707   0.42770   0.22548
  48   39225.5    254.9   0.085868565   0.72068  -0.21844   0.63504   0.51932
  49   39507.9    253.1   0.085928837   0.71603  -0.79639   0.15380   0.24112
  50   39556.5    252.8   0.157735202   1.31276   0.97200  -0.07042  -0.60251
  51   39706.5    251.8   0.059156877   0.49048   0.51329  -0.40299  -0.25419
  52   40217.0    248.7   0.107510886   0.88007   0.40982   0.55500   0.63569

FINAL SINGLE POINT ENERGY     -7764.974813774732

DIPOLE MOMENT
-------------
                                X             Y             Z
Electronic contribution:      9.94195      -9.97090     -13.01077
Nuclear contribution   :     -7.80328       7.42071       9.20473
                        -----------------------------------------
Total Dipole Moment    :      2.13866      -2.55020      -3.80604
                        -----------------------------------------
Magnitude (a.u.)       :      5.05601
Magnitude (Debye)      :     12.85137

Rotational constants in cm-1:     0.001771     0.000410     0.000341
Rotational constants in MHz :    53.081899    12.287593    10.224794

                             ****ORCA TERMINATED NORMALLY****
TOTAL RUN TIME: 0 days 0 hours 7 minutes 17 seconds 737 msec
