                         Program Version 4.2.0 -  RELEASE  -
|  1> # ORCA input file
|  2> # SCF done       -199.611233243388          0.000595335124
|  3> ! CAM-B3LYP def2-SVP def2/J RIJCOSX Grid4 TightSCF
|  4> %maxcore 5000
|  5> %tddft
|  6>     Mode sTDDFT
|  7>     Ethresh 5.0
|  8>     maxcore 5000
|  9> end
| 10>
| 11> %pal
| 12>   nprocs 6
| 13>   end
| 14> * xyz 0 1
| 15>    C       -2.27403         0.74135        -0.47381
| 16>    C       -1.89645         2.06344        -0.30238
| 17>    C       -0.90043         2.58405        -1.13085
| 18>    C       -0.49836         3.93330        -0.96809
| 19>    N       -0.17801         5.02353        -0.82954
| 20>    C       -0.28645         1.79594        -2.12345
| 21>    C        0.72028         2.35527        -2.94691
| 22>    N        1.53567         2.79181        -3.62190
| 23>    C       -0.67047         0.46545        -2.29396
| 24>    C       -1.65300        -0.03593        -1.46703
| 25>    C       -2.21565        -1.40465        -1.45649
| 26>    O       -1.89977        -2.29395        -2.21597
| 27>    C       -3.22483        -1.41319        -0.37531
| 28>    C       -3.26015        -0.08764         0.22212
| 29>    C       -4.04017         0.34581         1.26198
| 30>    C       -4.00726         1.65821         1.78440
| 31>    N       -4.03500         2.70324         2.25700
| 32>    C       -4.98565        -0.41841         1.98059
| 33>    N       -5.76852        -0.95917         2.62391
| 34>    C       -4.03812        -2.44659         0.01615
| 35>    C       -4.10310        -3.79111        -0.38643
| 36>    C       -3.34141        -4.56325        -1.25992
| 37>    C       -3.76675        -5.88056        -1.30160
| 38>    C       -4.87530        -6.13678        -0.45718
| 39>    S       -5.37802        -4.75402         0.38725
| 40>    C       -5.22678        -7.50039        -0.57987
| 41>    C       -4.34761        -8.11168        -1.49383
| 42>    C       -3.40031        -7.11743        -1.97414
| 43>    C       -2.38166        -7.31932        -2.85636
| 44>    C       -2.13935        -8.58298        -3.43946
| 45>    N       -1.93832        -9.60549        -3.91698
| 46>    C       -1.48510        -6.30038        -3.24899
| 47>    N       -0.73521        -5.49984        -3.57999
| 48>    C       -4.61074        -9.46672        -1.67467
| 49>    C       -5.68118        -9.89433        -0.90901
| 50>    S       -6.37514        -8.59783         0.05032
| 51>    C       -6.21450       -11.21850        -0.84785
| 52>    C       -7.30732       -11.56061        -0.05111
| 53>    N       -7.84188       -12.76423         0.05042
| 54>    C       -7.35547       -13.79130        -0.63098
| 55>    C       -6.23970       -13.60008        -1.49102
| 56>    C       -5.66180       -12.29000        -1.59890
| 57>    N       -4.62821       -12.27856        -2.44029
| 58>    S       -4.40978       -13.75492        -3.02932
| 59>    N       -5.60794       -14.48864        -2.25550
| 60>    C       -7.98982       -15.05675        -0.46139
| 61>    C       -7.67040       -16.26528        -1.05474
| 62>    C       -8.52979       -17.27752        -0.63910
| 63>    C       -9.50382       -16.82640         0.27810
| 64>    S       -9.35728       -15.16158         0.62398
| 65>    C      -10.32263       -17.92586         0.63738
| 66>    C       -9.86771       -19.06728        -0.05824
| 67>    C       -8.71917       -18.69893        -0.86883
| 68>    C       -7.96601       -19.53333        -1.64131
| 69>    C       -8.26493       -20.90976        -1.72946
| 70>    N       -8.53052       -22.02397        -1.78330
| 71>    C       -6.85596       -19.07874        -2.38464
| 72>    N       -5.95798       -18.71076        -2.99452
| 73>    C      -10.59470       -20.20882         0.23851
| 74>    C      -11.60244       -19.96479         1.16457
| 75>    S      -11.65403       -18.26844         1.63746
| 76>    C      -12.55701       -20.85862         1.68718
| 77>    C      -12.55579       -22.22365         1.66645
| 78>    C      -13.84693       -22.93614         1.86769
| 79>    O      -14.88406       -22.46253         2.26484
| 80>    C      -13.59431       -24.32587         1.42193
| 81>    C      -14.49290       -25.36185         1.28032
| 82>    C      -14.01875       -26.58123         0.79293
| 83>    C      -12.66021       -26.72855         0.45249
| 84>    C      -11.75610       -25.67616         0.61076
| 85>    C      -12.22945       -24.47382         1.10604
| 86>    C      -11.53752       -23.21700         1.40188
| 87>    C      -10.19336       -23.11224         1.64377
| 88>    C       -9.57736       -21.95347         2.15721
| 89>    N       -9.04375       -21.03696         2.59571
| 90>    C       -9.28200       -24.18161         1.50224
| 91>    N       -8.50694       -25.02183         1.41165
| 92>    C      -12.20436       -27.96735        -0.06380
| 93>    N      -11.83298       -28.96396        -0.48677
| 94>    C      -14.90907       -27.67040         0.63120
| 95>    N      -15.64529       -28.53819         0.50494
| 96>    H       -2.34074         2.70220         0.44368
| 97>    H       -0.21287        -0.15683        -3.04804
| 98>    H       -4.76603        -2.20624         0.78177
| 99>    H       -2.52518        -4.15431        -1.82844
|100>    H       -4.07039       -10.13449        -2.32036
|101>    H       -7.78850       -10.80176         0.55283
|102>    H       -6.85386       -16.36905        -1.74604
|103>    H      -10.44352       -21.16632        -0.22501
|104>    H      -13.45642       -20.41346         2.10196
|105>    H      -15.53350       -25.23289         1.53648
|106>    H      -10.72380       -25.81850         0.33225
|107> *
|108>
|109>                          ****END OF INPUT****

CARTESIAN COORDINATES (ANGSTROEM)
---------------------------------
  C     -2.274030    0.741350   -0.473810
  C     -1.896450    2.063440   -0.302380
  C     -0.900430    2.584050   -1.130850
  C     -0.498360    3.933300   -0.968090
  N     -0.178010    5.023530   -0.829540
  C     -0.286450    1.795940   -2.123450
  C      0.720280    2.355270   -2.946910
  N      1.535670    2.791810   -3.621900
  C     -0.670470    0.465450   -2.293960
  C     -1.653000   -0.035930   -1.467030
  C     -2.215650   -1.404650   -1.456490
  O     -1.899770   -2.293950   -2.215970
  C     -3.224830   -1.413190   -0.375310
  C     -3.260150   -0.087640    0.222120
  C     -4.040170    0.345810    1.261980
  C     -4.007260    1.658210    1.784400
  N     -4.035000    2.703240    2.257000
  C     -4.985650   -0.418410    1.980590
  N     -5.768520   -0.959170    2.623910
  C     -4.038120   -2.446590    0.016150
  C     -4.103100   -3.791110   -0.386430
  C     -3.341410   -4.563250   -1.259920
  C     -3.766750   -5.880560   -1.301600
  C     -4.875300   -6.136780   -0.457180
  S     -5.378020   -4.754020    0.387250
  C     -5.226780   -7.500390   -0.579870
  C     -4.347610   -8.111680   -1.493830
  C     -3.400310   -7.117430   -1.974140
  C     -2.381660   -7.319320   -2.856360
  C     -2.139350   -8.582980   -3.439460
  N     -1.938320   -9.605490   -3.916980
  C     -1.485100   -6.300380   -3.248990
  N     -0.735210   -5.499840   -3.579990
  C     -4.610740   -9.466720   -1.674670
  C     -5.681180   -9.894330   -0.909010
  S     -6.375140   -8.597830    0.050320
  C     -6.214500  -11.218500   -0.847850
  C     -7.307320  -11.560610   -0.051110
  N     -7.841880  -12.764230    0.050420
  C     -7.355470  -13.791300   -0.630980
  C     -6.239700  -13.600080   -1.491020
  C     -5.661800  -12.290000   -1.598900
  N     -4.628210  -12.278560   -2.440290
  S     -4.409780  -13.754920   -3.029320
  N     -5.607940  -14.488640   -2.255500
  C     -7.989820  -15.056750   -0.461390
  C     -7.670400  -16.265280   -1.054740
  C     -8.529790  -17.277520   -0.639100
  C     -9.503820  -16.826400    0.278100
  S     -9.357280  -15.161580    0.623980
  C    -10.322630  -17.925860    0.637380
  C     -9.867710  -19.067280   -0.058240
  C     -8.719170  -18.698930   -0.868830
  C     -7.966010  -19.533330   -1.641310
  C     -8.264930  -20.909760   -1.729460
  N     -8.530520  -22.023970   -1.783300
  C     -6.855960  -19.078740   -2.384640
  N     -5.957980  -18.710760   -2.994520
  C    -10.594700  -20.208820    0.238510
  C    -11.602440  -19.964790    1.164570
  S    -11.654030  -18.268440    1.637460
  C    -12.557010  -20.858620    1.687180
  C    -12.555790  -22.223650    1.666450
  C    -13.846930  -22.936140    1.867690
  O    -14.884060  -22.462530    2.264840
  C    -13.594310  -24.325870    1.421930
  C    -14.492900  -25.361850    1.280320
  C    -14.018750  -26.581230    0.792930
  C    -12.660210  -26.728550    0.452490
  C    -11.756100  -25.676160    0.610760
  C    -12.229450  -24.473820    1.106040
  C    -11.537520  -23.217000    1.401880
  C    -10.193360  -23.112240    1.643770
  C     -9.577360  -21.953470    2.157210
  N     -9.043750  -21.036960    2.595710
  C     -9.282000  -24.181610    1.502240
  N     -8.506940  -25.021830    1.411650
  C    -12.204360  -27.967350   -0.063800
  N    -11.832980  -28.963960   -0.486770
  C    -14.909070  -27.670400    0.631200
  N    -15.645290  -28.538190    0.504940
  H     -2.340740    2.702200    0.443680
  H     -0.212870   -0.156830   -3.048040
  H     -4.766030   -2.206240    0.781770
  H     -2.525180   -4.154310   -1.828440
  H     -4.070390  -10.134490   -2.320360
  H     -7.788500  -10.801760    0.552830
  H     -6.853860  -16.369050   -1.746040
  H    -10.443520  -21.166320   -0.225010
  H    -13.456420  -20.413460    2.101960
  H    -15.533500  -25.232890    1.536480
  H    -10.723800  -25.818500    0.332250

 Total Charge           Charge          ....    0
 Multiplicity           Mult            ....    1
 Number of Electrons    NEL             ....  566
 Basis Dimension        Dim             .... 1209

ORBITAL ENERGIES
----------------

  NO   OCC          E(Eh)            E(eV)
   0   2.0000     -89.062943     -2423.5259
   1   2.0000     -89.016065     -2422.2503
   2   2.0000     -89.013819     -2422.1892
   3   2.0000     -89.011889     -2422.1366
   4   2.0000     -89.009561     -2422.0733
   5   2.0000     -19.244523      -523.6701
   6   2.0000     -19.243300      -523.6368
   7   2.0000     -14.478481      -393.9795
   8   2.0000     -14.472988      -393.8300
   9   2.0000     -14.448992      -393.1771
  10   2.0000     -14.448790      -393.1716
  11   2.0000     -14.445941      -393.0940
  12   2.0000     -14.445712      -393.0878
  13   2.0000     -14.443417      -393.0253
  14   2.0000     -14.441266      -392.9668
  15   2.0000     -14.440330      -392.9414
  16   2.0000     -14.435379      -392.8066
  17   2.0000     -14.434616      -392.7859
  18   2.0000     -14.431806      -392.7094
  19   2.0000     -14.430753      -392.6807
  20   2.0000     -14.430352      -392.6698
  21   2.0000     -14.429216      -392.6389
  22   2.0000     -10.395454      -282.8747
  23   2.0000     -10.394564      -282.8505
  24   2.0000     -10.384210      -282.5687
  25   2.0000     -10.383873      -282.5595
  26   2.0000     -10.371564      -282.2246
  27   2.0000     -10.370601      -282.1984
  28   2.0000     -10.369486      -282.1681
  29   2.0000     -10.369462      -282.1674
  30   2.0000     -10.368652      -282.1454
  31   2.0000     -10.368125      -282.1310
  32   2.0000     -10.366389      -282.0838
  33   2.0000     -10.366197      -282.0786
  34   2.0000     -10.364603      -282.0352
  35   2.0000     -10.363877      -282.0154
  36   2.0000     -10.363605      -282.0080
  37   2.0000     -10.363574      -282.0072
  38   2.0000     -10.362302      -281.9726
  39   2.0000     -10.361854      -281.9604
  40   2.0000     -10.360346      -281.9193
  41   2.0000     -10.354753      -281.7672
  42   2.0000     -10.353684      -281.7381
  43   2.0000     -10.351155      -281.6692
  44   2.0000     -10.349506      -281.6244
  45   2.0000     -10.349200      -281.6160
  46   2.0000     -10.349149      -281.6147
  47   2.0000     -10.349098      -281.6133
  48   2.0000     -10.348776      -281.6045
  49   2.0000     -10.347562      -281.5715
  50   2.0000     -10.345520      -281.5159
  51   2.0000     -10.345448      -281.5139
  52   2.0000     -10.345184      -281.5068
  53   2.0000     -10.342775      -281.4412
  54   2.0000     -10.342326      -281.4290
  55   2.0000     -10.342227      -281.4263
  56   2.0000     -10.342015      -281.4205
  57   2.0000     -10.341244      -281.3996
  58   2.0000     -10.339062      -281.3402
  59   2.0000     -10.338393      -281.3220
  60   2.0000     -10.336657      -281.2747
  61   2.0000     -10.336433      -281.2686
  62   2.0000     -10.336356      -281.2665
  63   2.0000     -10.336178      -281.2617
  64   2.0000     -10.335990      -281.2566
  65   2.0000     -10.333646      -281.1928
  66   2.0000     -10.330584      -281.1095
  67   2.0000     -10.328653      -281.0569
  68   2.0000     -10.328313      -281.0477
  69   2.0000     -10.327976      -281.0385
  70   2.0000     -10.327383      -281.0224
  71   2.0000     -10.326898      -281.0092
  72   2.0000     -10.326739      -281.0048
  73   2.0000     -10.326702      -281.0038
  74   2.0000     -10.326172      -280.9894
  75   2.0000     -10.325489      -280.9708
  76   2.0000     -10.325343      -280.9669
  77   2.0000     -10.323996      -280.9302
  78   2.0000     -10.323210      -280.9088
  79   2.0000     -10.320648      -280.8391
  80   2.0000     -10.316019      -280.7131
  81   2.0000      -8.154244      -221.8883
  82   2.0000      -8.110766      -220.7052
  83   2.0000      -8.108637      -220.6472
  84   2.0000      -8.106398      -220.5863
  85   2.0000      -8.103480      -220.5069
  86   2.0000      -6.125421      -166.6812
  87   2.0000      -6.117441      -166.4640
  88   2.0000      -6.116927      -166.4501
  89   2.0000      -6.079885      -165.4421
  90   2.0000      -6.077729      -165.3834
  91   2.0000      -6.075762      -165.3299
  92   2.0000      -6.075673      -165.3275
  93   2.0000      -6.073582      -165.2706
  94   2.0000      -6.073272      -165.2621
  95   2.0000      -6.072700      -165.2466
  96   2.0000      -6.071479      -165.2134
  97   2.0000      -6.071162      -165.2047
  98   2.0000      -6.068721      -165.1383
  99   2.0000      -6.068390      -165.1293
 100   2.0000      -6.066055      -165.0657
 101   2.0000      -1.163563       -31.6622
 102   2.0000      -1.160415       -31.5765
 103   2.0000      -1.159231       -31.5443
 104   2.0000      -1.085472       -29.5372
 105   2.0000      -1.067593       -29.0507
 106   2.0000      -1.066740       -29.0275
 107   2.0000      -1.049003       -28.5448
 108   2.0000      -1.047033       -28.4912
 109   2.0000      -1.039740       -28.2928
 110   2.0000      -1.037432       -28.2300
 111   2.0000      -1.034348       -28.1460
 112   2.0000      -1.033456       -28.1218
 113   2.0000      -1.026811       -27.9410
 114   2.0000      -1.024726       -27.8842
 115   2.0000      -1.021225       -27.7889
 116   2.0000      -1.019675       -27.7468
 117   2.0000      -1.017485       -27.6872
 118   2.0000      -1.016458       -27.6592
 119   2.0000      -1.014739       -27.6125
 120   2.0000      -1.013630       -27.5823
 121   2.0000      -1.012120       -27.5412
 122   2.0000      -1.010518       -27.4976
 123   2.0000      -1.008981       -27.4558
 124   2.0000      -0.985918       -26.8282
 125   2.0000      -0.984854       -26.7992
 126   2.0000      -0.979098       -26.6426
 127   2.0000      -0.977743       -26.6057
 128   2.0000      -0.947770       -25.7901
 129   2.0000      -0.942136       -25.6368
 130   2.0000      -0.933042       -25.3894
 131   2.0000      -0.932734       -25.3810
 132   2.0000      -0.930658       -25.3245
 133   2.0000      -0.920034       -25.0354
 134   2.0000      -0.912026       -24.8175
 135   2.0000      -0.908850       -24.7311
 136   2.0000      -0.906578       -24.6692
 137   2.0000      -0.902043       -24.5458
 138   2.0000      -0.890127       -24.2216
 139   2.0000      -0.885682       -24.1006
 140   2.0000      -0.878307       -23.9000
 141   2.0000      -0.877332       -23.8734
 142   2.0000      -0.859944       -23.4003
 143   2.0000      -0.852139       -23.1879
 144   2.0000      -0.832933       -22.6652
 145   2.0000      -0.815185       -22.1823
 146   2.0000      -0.813801       -22.1447
 147   2.0000      -0.801171       -21.8010
 148   2.0000      -0.798996       -21.7418
 149   2.0000      -0.796865       -21.6838
 150   2.0000      -0.788767       -21.4635
 151   2.0000      -0.766148       -20.8479
 152   2.0000      -0.763132       -20.7659
 153   2.0000      -0.758732       -20.6461
 154   2.0000      -0.754605       -20.5339
 155   2.0000      -0.747617       -20.3437
 156   2.0000      -0.735883       -20.0244
 157   2.0000      -0.722031       -19.6475
 158   2.0000      -0.718849       -19.5609
 159   2.0000      -0.717802       -19.5324
 160   2.0000      -0.713578       -19.4175
 161   2.0000      -0.706219       -19.2172
 162   2.0000      -0.703548       -19.1445
 163   2.0000      -0.701519       -19.0893
 164   2.0000      -0.691025       -18.8037
 165   2.0000      -0.689912       -18.7735
 166   2.0000      -0.676886       -18.4190
 167   2.0000      -0.668780       -18.1984
 168   2.0000      -0.667330       -18.1590
 169   2.0000      -0.662906       -18.0386
 170   2.0000      -0.661752       -18.0072
 171   2.0000      -0.654962       -17.8224
 172   2.0000      -0.651848       -17.7377
 173   2.0000      -0.643375       -17.5071
 174   2.0000      -0.637818       -17.3559
 175   2.0000      -0.635720       -17.2988
 176   2.0000      -0.632333       -17.2067
 177   2.0000      -0.624569       -16.9954
 178   2.0000      -0.621158       -16.9026
 179   2.0000      -0.614490       -16.7211
 180   2.0000      -0.605929       -16.4882
 181   2.0000      -0.603553       -16.4235
 182   2.0000      -0.601929       -16.3793
 183   2.0000      -0.593816       -16.1586
 184   2.0000      -0.591944       -16.1076
 185   2.0000      -0.590639       -16.0721
 186   2.0000      -0.573932       -15.6175
 187   2.0000      -0.572679       -15.5834
 188   2.0000      -0.570472       -15.5233
 189   2.0000      -0.570118       -15.5137
 190   2.0000      -0.567903       -15.4534
 191   2.0000      -0.566914       -15.4265
 192   2.0000      -0.566568       -15.4171
 193   2.0000      -0.565810       -15.3965
 194   2.0000      -0.562625       -15.3098
 195   2.0000      -0.558064       -15.1857
 196   2.0000      -0.546664       -14.8755
 197   2.0000      -0.544611       -14.8196
 198   2.0000      -0.539307       -14.6753
 199   2.0000      -0.538962       -14.6659
 200   2.0000      -0.533195       -14.5090
 201   2.0000      -0.530276       -14.4296
 202   2.0000      -0.528997       -14.3947
 203   2.0000      -0.528454       -14.3800
 204   2.0000      -0.527633       -14.3576
 205   2.0000      -0.525368       -14.2960
 206   2.0000      -0.523907       -14.2562
 207   2.0000      -0.522458       -14.2168
 208   2.0000      -0.519703       -14.1418
 209   2.0000      -0.518079       -14.0977
 210   2.0000      -0.515128       -14.0173
 211   2.0000      -0.512980       -13.9589
 212   2.0000      -0.511500       -13.9186
 213   2.0000      -0.510915       -13.9027
 214   2.0000      -0.505529       -13.7561
 215   2.0000      -0.502556       -13.6752
 216   2.0000      -0.497515       -13.5381
 217   2.0000      -0.495543       -13.4844
 218   2.0000      -0.494425       -13.4540
 219   2.0000      -0.492343       -13.3973
 220   2.0000      -0.489179       -13.3112
 221   2.0000      -0.478502       -13.0207
 222   2.0000      -0.476057       -12.9542
 223   2.0000      -0.475197       -12.9308
 224   2.0000      -0.473303       -12.8792
 225   2.0000      -0.472008       -12.8440
 226   2.0000      -0.471916       -12.8415
 227   2.0000      -0.470438       -12.8013
 228   2.0000      -0.470083       -12.7916
 229   2.0000      -0.468848       -12.7580
 230   2.0000      -0.464502       -12.6398
 231   2.0000      -0.463671       -12.6171
 232   2.0000      -0.463651       -12.6166
 233   2.0000      -0.462698       -12.5907
 234   2.0000      -0.461908       -12.5692
 235   2.0000      -0.461209       -12.5501
 236   2.0000      -0.457725       -12.4553
 237   2.0000      -0.457180       -12.4405
 238   2.0000      -0.456412       -12.4196
 239   2.0000      -0.456399       -12.4193
 240   2.0000      -0.455826       -12.4037
 241   2.0000      -0.455655       -12.3990
 242   2.0000      -0.454713       -12.3734
 243   2.0000      -0.453662       -12.3448
 244   2.0000      -0.453525       -12.3410
 245   2.0000      -0.453241       -12.3333
 246   2.0000      -0.451684       -12.2909
 247   2.0000      -0.448238       -12.1972
 248   2.0000      -0.447994       -12.1905
 249   2.0000      -0.447513       -12.1774
 250   2.0000      -0.444010       -12.0821
 251   2.0000      -0.443203       -12.0602
 252   2.0000      -0.440304       -11.9813
 253   2.0000      -0.439112       -11.9488
 254   2.0000      -0.437479       -11.9044
 255   2.0000      -0.436618       -11.8810
 256   2.0000      -0.431921       -11.7532
 257   2.0000      -0.431082       -11.7303
 258   2.0000      -0.430669       -11.7191
 259   2.0000      -0.429591       -11.6898
 260   2.0000      -0.427799       -11.6410
 261   2.0000      -0.425121       -11.5681
 262   2.0000      -0.424297       -11.5457
 263   2.0000      -0.407065       -11.0768
 264   2.0000      -0.403446       -10.9783
 265   2.0000      -0.401419       -10.9232
 266   2.0000      -0.390008       -10.6127
 267   2.0000      -0.382278       -10.4023
 268   2.0000      -0.376566       -10.2469
 269   2.0000      -0.374029       -10.1779
 270   2.0000      -0.372524       -10.1369
 271   2.0000      -0.370786       -10.0896
 272   2.0000      -0.368924       -10.0389
 273   2.0000      -0.366809        -9.9814
 274   2.0000      -0.365521        -9.9463
 275   2.0000      -0.362052        -9.8519
 276   2.0000      -0.347470        -9.4551
 277   2.0000      -0.343194        -9.3388
 278   2.0000      -0.341868        -9.3027
 279   2.0000      -0.339245        -9.2313
 280   2.0000      -0.326583        -8.8868
 281   2.0000      -0.297044        -8.0830
 282   2.0000      -0.271999        -7.4015
 283   0.0000      -0.140005        -3.8097
 284   0.0000      -0.128415        -3.4944
 285   0.0000      -0.112039        -3.0487
 286   0.0000      -0.111877        -3.0443
 287   0.0000      -0.105119        -2.8604

MULLIKEN ATOMIC CHARGES
-----------------------
   0 C :    0.043170
   1 C :   -0.038771
   2 C :   -0.062124
   3 C :   -0.176653
   4 N :    0.204227
   5 C :   -0.062989
   6 C :   -0.174087
   7 N :    0.199665
   8 C :   -0.033913
   9 C :   -0.000279
  10 C :    0.159063
  11 O :   -0.136098
  12 C :   -0.091655
  13 C :    0.323525
  14 C :   -0.348173
  15 C :   -0.191011
  16 N :    0.170614
  17 C :   -0.180018
  18 N :    0.156217
  19 C :    0.045191
  20 C :   -0.112786
  21 C :   -0.012419
  22 C :   -0.002747
  23 C :   -0.075148
  24 S :    0.212050
  25 C :   -0.095566
  26 C :    0.037776
  27 C :    0.314371
  28 C :   -0.293802
  29 C :   -0.186803
  30 N :    0.180563
  31 C :   -0.193098
  32 N :    0.197689
  33 C :   -0.060563
  34 C :   -0.090634
  35 S :    0.185083
  36 C :    0.074859
  37 C :   -0.054000
  38 N :   -0.053163
  39 C :    0.032810
  40 C :    0.002457
  41 C :    0.047572
  42 N :   -0.282843
  43 S :    0.576036
  44 N :   -0.259475
  45 C :   -0.117476
  46 C :   -0.051223
  47 C :    0.020920
  48 C :   -0.092793
  49 S :    0.252039
  50 C :   -0.075571
  51 C :   -0.001061
  52 C :    0.308591
  53 C :   -0.281268
  54 C :   -0.183358
  55 N :    0.167633
  56 C :   -0.185510
  57 N :    0.183096
  58 C :   -0.001693
  59 C :   -0.112094
  60 S :    0.226750
  61 C :    0.088971
  62 C :   -0.139153
  63 C :    0.139882
  64 O :   -0.125546
  65 C :    0.011740
  66 C :   -0.033246
  67 C :   -0.066985
  68 C :   -0.065416
  69 C :   -0.032475
  70 C :    0.028931
  71 C :    0.262236
  72 C :   -0.314331
  73 C :   -0.201923
  74 N :    0.179421
  75 C :   -0.172828
  76 N :    0.181219
  77 C :   -0.173933
  78 N :    0.208147
  79 C :   -0.174798
  80 N :    0.197793
  81 H :    0.021070
  82 H :    0.021529
  83 H :    0.001427
  84 H :    0.041834
  85 H :    0.026633
  86 H :    0.013267
  87 H :    0.023579
  88 H :    0.026805
  89 H :    0.027448
  90 H :    0.018201
  91 H :    0.029398
Sum of atomic charges:   -0.0000000

LOEWDIN ATOMIC CHARGES
----------------------
   0 C :    0.001037
   1 C :    0.034235
   2 C :   -0.023782
   3 C :   -0.031794
   4 N :   -0.010405
   5 C :   -0.027309
   6 C :   -0.031922
   7 N :   -0.011944
   8 C :    0.049753
   9 C :   -0.028562
  10 C :    0.086609
  11 O :   -0.124339
  12 C :   -0.105958
  13 C :    0.071208
  14 C :   -0.128663
  15 C :   -0.022145
  16 N :   -0.035460
  17 C :   -0.022359
  18 N :   -0.040557
  19 C :    0.049023
  20 C :   -0.177900
  21 C :    0.022005
  22 C :   -0.072501
  23 C :   -0.151983
  24 S :    0.501513
  25 C :   -0.189985
  26 C :   -0.048648
  27 C :    0.071807
  28 C :   -0.086439
  29 C :   -0.016208
  30 N :   -0.022896
  31 C :   -0.023700
  32 N :   -0.009639
  33 C :   -0.021818
  34 C :   -0.146264
  35 S :    0.483190
  36 C :   -0.069657
  37 C :    0.016071
  38 N :   -0.080348
  39 C :    0.002729
  40 C :   -0.060575
  41 C :   -0.029226
  42 N :   -0.275611
  43 S :    0.697195
  44 N :   -0.262970
  45 C :   -0.171495
  46 C :   -0.006687
  47 C :   -0.060180
  48 C :   -0.177456
  49 S :    0.524082
  50 C :   -0.155875
  51 C :   -0.061183
  52 C :    0.078774
  53 C :   -0.093018
  54 C :   -0.011483
  55 N :   -0.031067
  56 C :   -0.018163
  57 N :   -0.021567
  58 C :    0.013025
  59 C :   -0.182010
  60 S :    0.508206
  61 C :    0.051479
  62 C :   -0.097757
  63 C :    0.083147
  64 O :   -0.127919
  65 C :   -0.032339
  66 C :    0.049634
  67 C :   -0.028728
  68 C :   -0.021436
  69 C :    0.034656
  70 C :    0.005531
  71 C :    0.058155
  72 C :   -0.121257
  73 C :   -0.015114
  74 N :   -0.032631
  75 C :   -0.023271
  76 N :   -0.026929
  77 C :   -0.031668
  78 N :   -0.008040
  79 C :   -0.032236
  80 N :   -0.012469
  81 H :    0.052408
  82 H :    0.055899
  83 H :    0.043031
  84 H :    0.043834
  85 H :    0.040732
  86 H :    0.020879
  87 H :    0.042585
  88 H :    0.042829
  89 H :    0.048913
  90 H :    0.054822
  91 H :    0.054549

  Mayer bond orders larger than 0.100000
B(  0-C ,  1-C ) :   1.3558 B(  0-C ,  9-C ) :   1.3377 B(  0-C , 13-C ) :   0.9529
B(  1-C ,  2-C ) :   1.3928 B(  1-C , 81-H ) :   0.9853 B(  2-C ,  3-C ) :   1.0882
B(  2-C ,  5-C ) :   1.4043 B(  3-C ,  4-N ) :   3.0437 B(  5-C ,  6-C ) :   1.0856
B(  5-C ,  8-C ) :   1.3573 B(  6-C ,  7-N ) :   3.0441 B(  8-C ,  9-C ) :   1.3641
B(  8-C , 82-H ) :   1.0162 B(  9-C , 10-C ) :   0.9336 B( 10-C , 11-O ) :   2.1753
B( 10-C , 12-C ) :   0.9457 B( 12-C , 13-C ) :   1.0979 B( 12-C , 19-C ) :   1.5600
B( 13-C , 14-C ) :   1.6294 B( 14-C , 15-C ) :   1.1514 B( 14-C , 17-C ) :   1.1416
B( 15-C , 16-N ) :   2.9584 B( 17-C , 18-N ) :   2.9525 B( 19-C , 20-C ) :   1.2510
B( 19-C , 83-H ) :   0.9037 B( 20-C , 21-C ) :   1.3705 B( 20-C , 24-S ) :   1.0695
B( 21-C , 22-C ) :   1.3288 B( 21-C , 84-H ) :   0.9706 B( 22-C , 23-C ) :   1.3629
B( 22-C , 27-C ) :   0.9909 B( 23-C , 24-S ) :   1.1734 B( 23-C , 25-C ) :   1.2092
B( 25-C , 26-C ) :   1.4261 B( 25-C , 35-S ) :   1.1100 B( 26-C , 27-C ) :   0.9962
B( 26-C , 33-C ) :   1.2545 B( 27-C , 28-C ) :   1.7204 B( 28-C , 29-C ) :   1.1382
B( 28-C , 31-C ) :   1.1343 B( 29-C , 30-N ) :   2.9837 B( 31-C , 32-N ) :   2.9956
B( 33-C , 34-C ) :   1.4685 B( 33-C , 85-H ) :   0.9832 B( 34-C , 35-S ) :   1.1091
B( 34-C , 36-C ) :   1.1202 B( 36-C , 37-C ) :   1.4048 B( 36-C , 39-C ) :   0.1096
B( 36-C , 41-C ) :   1.2095 B( 37-C , 38-N ) :   1.4631 B( 37-C , 86-H ) :   0.9765
B( 38-N , 39-C ) :   1.6608 B( 39-C , 40-C ) :   1.1724 B( 39-C , 45-C ) :   1.1339
B( 40-C , 41-C ) :   1.1886 B( 40-C , 44-N ) :   1.5386 B( 41-C , 42-N ) :   1.5122
B( 42-N , 43-S ) :   1.2713 B( 42-N , 44-N ) :   0.1442 B( 43-S , 44-N ) :   1.2882
B( 45-C , 46-C ) :   1.4709 B( 45-C , 49-S ) :   1.1011 B( 46-C , 47-C ) :   1.2707
B( 46-C , 87-H ) :   0.9823 B( 47-C , 48-C ) :   1.4188 B( 47-C , 52-C ) :   0.9963
B( 48-C , 49-S ) :   1.1237 B( 48-C , 50-C ) :   1.2025 B( 50-C , 51-C ) :   1.4023
B( 50-C , 60-S ) :   1.1600 B( 51-C , 52-C ) :   0.9941 B( 51-C , 58-C ) :   1.3762
B( 52-C , 53-C ) :   1.7205 B( 53-C , 54-C ) :   1.1332 B( 53-C , 56-C ) :   1.1336
B( 54-C , 55-N ) :   2.9784 B( 56-C , 57-N ) :   2.9900 B( 58-C , 59-C ) :   1.3734
B( 58-C , 88-H ) :   0.9767 B( 59-C , 60-S ) :   1.0887 B( 59-C , 61-C ) :   1.1603
B( 61-C , 62-C ) :   1.6428 B( 61-C , 89-H ) :   0.9289 B( 62-C , 63-C ) :   0.9528
B( 62-C , 71-C ) :   1.0455 B( 63-C , 64-O ) :   2.2792 B( 63-C , 65-C ) :   0.9001
B( 65-C , 66-C ) :   1.3693 B( 65-C , 70-C ) :   1.3339 B( 66-C , 67-C ) :   1.3660
B( 66-C , 90-H ) :   1.0146 B( 67-C , 68-C ) :   1.4021 B( 67-C , 79-C ) :   1.0878
B( 68-C , 69-C ) :   1.3870 B( 68-C , 77-C ) :   1.0881 B( 69-C , 70-C ) :   1.3654
B( 69-C , 91-H ) :   0.9900 B( 70-C , 71-C ) :   0.9738 B( 71-C , 72-C ) :   1.6654
B( 72-C , 73-C ) :   1.1738 B( 72-C , 75-C ) :   1.1265 B( 73-C , 74-N ) :   2.9946
B( 75-C , 76-N ) :   2.9909 B( 77-C , 78-N ) :   3.0455 B( 79-C , 80-N ) :   3.0455

-----------------------------------------------------------------------------
         ABSORPTION SPECTRUM VIA TRANSITION ELECTRIC DIPOLE MOMENTS
-----------------------------------------------------------------------------
State   Energy  Wavelength   fosc         T2         TX        TY        TZ
        (cm-1)    (nm)                  (au**2)     (au)      (au)      (au)
-----------------------------------------------------------------------------
   0   13257.4    754.3   1.355613424  33.66313   2.12642   5.38266  -0.41044
   1   14849.3    673.4   0.022441653   0.49754   0.30946  -0.27985  -0.56874
   2   18407.1    543.3   1.146715125  20.50905   1.54519   4.23809  -0.40005
   3   20388.7    490.5   0.134081046   2.16497   0.21832   1.04705   1.01044
   4   21733.2    460.1   0.050103477   0.75896   0.00059  -0.86504  -0.10331
   5   21911.1    456.4   0.143771304   2.16015  -0.66431   1.10266   0.70920
   6   24149.2    414.1   0.013909756   0.18962   0.39254  -0.01531  -0.18789
   7   24440.3    409.2   0.108945502   1.46750  -0.25790  -1.18117   0.07635
   8   25137.5    397.8   0.273827332   3.58616  -1.05860  -1.50982   0.43124
   9   27669.5    361.4   0.006667071   0.07932   0.08376  -0.22096  -0.15324
  10   28144.8    355.3   0.057567517   0.67337   0.77541  -0.14171  -0.22808
  11   28595.3    349.7   0.091812499   1.05702  -0.55415   0.80329   0.32352
  12   28990.9    344.9   0.040297180   0.45760   0.44440   0.50692   0.05607
  13   29247.8    341.9   0.149230639   1.67973  -0.74422   0.36953   0.99465
  14   29460.5    339.4   0.026326005   0.29419   0.38649   0.37994  -0.02137
  15   29583.2    338.0   0.036264355   0.40356  -0.62439  -0.03604   0.11133
  16   30096.7    332.3   0.161547246   1.76708   0.90573   0.05317  -0.97155
  17   30419.4    328.7   0.089385266   0.96737  -0.42067   0.76203   0.45794
  18   30494.0    327.9   0.000224905   0.00243   0.02922  -0.00188   0.03964
  19   31230.9    320.2   0.106074080   1.11815  -0.83308  -0.63871   0.12717
  20   31500.7    317.5   0.034457622   0.36011  -0.04912  -0.53242  -0.27246
  21   31574.3    316.7   0.064152300   0.66889  -0.17499  -0.76790  -0.22046
  22   31785.8    314.6   0.057799035   0.59864   0.64464   0.41338   0.11043
  23   32080.3    311.7   0.193799708   1.98880   0.75874   1.13371  -0.35749
  24   32523.6    307.5   0.139742613   1.41451   0.01220  -1.08590  -0.48496
  25   33095.8    302.2   0.118510885   1.17886   0.38136   1.01291  -0.08628
  26   33195.7    301.2   0.037512837   0.37203   0.08112   0.60358   0.03365
  27   33742.2    296.4   0.282282454   2.75414  -1.32074  -0.30347   0.95797
  28   33849.0    295.4   0.141353190   1.37479  -0.18119   1.09950   0.36476
  29   33928.5    294.7   0.038089532   0.36959   0.12811   0.25546   0.53658
  30   34260.7    291.9   0.463416134   4.45297  -1.30689  -1.55491   0.57206
  31   34646.8    288.6   0.443313183   4.21234  -1.52923  -0.11353   1.36415
  32   34861.0    286.9   0.079063235   0.74664  -0.73660  -0.11526   0.43678
  33   34943.8    286.2   0.377947446   3.56071  -0.43173  -1.81983  -0.25011
  34   35241.9    283.8   0.144307128   1.34804   0.99886   0.03337  -0.59094
  35   35442.7    282.1   0.276695317   2.57010   1.11061   0.90505   0.71940
  36   35793.2    279.4   0.035697406   0.32833  -0.44433   0.00726   0.36173
  37   36073.9    277.2   0.324098040   2.95773  -1.55125   0.01616   0.74235
  38   36345.3    275.1   0.016160440   0.14638  -0.29915  -0.16984  -0.16745
  39   37111.1    269.5   0.137119126   1.21638  -0.64108   0.42755   0.78905
  40   37202.6    268.8   0.126001169   1.11500   0.85251   0.59195   0.19448
  41   37240.3    268.5   0.236163244   2.08773   0.88611  -0.65920  -0.93166
  42   37433.4    267.1   0.078564300   0.69094   0.03100  -0.80851  -0.19049
  43   37592.8    266.0   0.006522983   0.05712   0.22763   0.03573  -0.06352
  44   37818.2    264.4   0.000064177   0.00056   0.01623   0.01411   0.00980
  45   37837.2    264.3   0.119172977   1.03689   0.70818   0.56277  -0.46762
  46   38033.2    262.9   0.048843155   0.42278  -0.26686   0.30502   0.50846
  47   38397.5    260.4   0.008876556   0.07611   0.18058  -0.12768  -0.16491
  48   38509.8    259.7   0.025014759   0.21385   0.32046   0.10506  -0.31641
  49   38576.7    259.2   0.047339638   0.40399   0.04520   0.63307   0.03434
  50   38754.8    258.0   0.011871103   0.10084   0.08028   0.16297  -0.26046
  51   38861.0    257.3   0.021980742   0.18621   0.15387  -0.22952  -0.33145
  52   39073.3    255.9   0.004096131   0.03451  -0.09980  -0.13541  -0.07884
  53   39191.3    255.2   0.022087863   0.18554  -0.35269   0.14248   0.20212
  54   39459.8    253.4   0.007105910   0.05928   0.08671   0.22719  -0.01229
  55   39725.2    251.7   0.134240393   1.11248   0.02590   1.02400   0.25146
  56   39888.0    250.7   0.020359676   0.16804  -0.37591   0.01753   0.16254
  57   39998.2    250.0   0.000071970   0.00059  -0.00720  -0.00047  -0.02324
  58   40136.3    249.2   0.014177694   0.11629   0.19936  -0.19191  -0.19929

FINAL SINGLE POINT ENERGY     -5212.612059483162

DIPOLE MOMENT
-------------
                                X             Y             Z
Electronic contribution:      0.77281      -1.44797      -0.13478
Nuclear contribution   :     -3.44242       1.67756       0.75049
                        -----------------------------------------
Total Dipole Moment    :     -2.66962       0.22959       0.61571
                        -----------------------------------------
Magnitude (a.u.)       :      2.74930
Magnitude (Debye)      :      6.98817

Rotational constants in cm-1:     0.002796     0.000140     0.000135
Rotational constants in MHz :    83.834057     4.201047     4.033274

                             ****ORCA TERMINATED NORMALLY****
TOTAL RUN TIME: 0 days 0 hours 9 minutes 20 seconds 450 msec
