                         Program Version 4.2.0 -  RELEASE  -
|  1> # ORCA input file
|  2> # SCF done       -169.300855617168          0.000613986769
|  3> ! CAM-B3LYP def2-SVP def2/J RIJCOSX Grid4 TightSCF
|  4> %maxcore 5000
|  5> %tddft
|  6>     Mode sTDDFT
|  7>     Ethresh 5.0
|  8>     maxcore 5000
|  9> end
| 10>
| 11> %pal
| 12>   nprocs 6
| 13>   end
| 14> * xyz 0 1
| 15>    C       -2.76673         2.17512        -4.00931
| 16>    C       -1.47510         2.56515        -3.76352
| 17>    C       -0.38497         2.25443        -4.60351
| 18>    N        0.54355         2.03166        -5.24099
| 19>    C       -1.04102         3.36549        -2.68544
| 20>    N       -0.60068         4.03106        -1.85922
| 21>    C       -3.21150         1.44716        -5.19045
| 22>    C       -4.62659         1.39577        -5.17922
| 23>    C       -5.35466         0.78231        -6.16998
| 24>    C       -4.65249         0.18483        -7.22067
| 25>    C       -3.23781         0.23534        -7.22089
| 26>    C       -2.50175         0.85967        -6.22077
| 27>    S       -2.58076        -0.57239        -8.60947
| 28>    C       -4.17164        -0.95998        -9.16715
| 29>    C       -5.15446        -0.51070        -8.35663
| 30>    C       -5.13865         2.07667        -3.97674
| 31>    O       -6.31088         2.23903        -3.70578
| 32>    C       -3.93942         2.48020        -3.20339
| 33>    C       -3.86744         2.93020        -1.91236
| 34>    C       -4.87026         3.30692        -0.99826
| 35>    C       -6.23672         3.50953        -1.13638
| 36>    C       -6.82693         3.91892         0.04952
| 37>    C       -5.92805         4.03899         1.12775
| 38>    S       -4.32158         3.64766         0.64948
| 39>    C       -6.52527         4.44080         2.31448
| 40>    C       -7.88929         4.64174         2.16003
| 41>    S       -8.44346         4.33339         0.52873
| 42>    C       -8.80311         5.05137         3.16797
| 43>    C      -10.17245         5.25169         2.86678
| 44>    C      -11.14491         5.66693         3.83651
| 45>    N      -12.42486         5.83451         3.44571
| 46>    C      -12.74650         5.61045         2.20280
| 47>    C      -11.79186         5.19899         1.25132
| 48>    N      -10.54727         5.03272         1.59398
| 49>    C      -10.78042         5.89373         5.18971
| 50>    C       -9.41716         5.68712         5.49010
| 51>    C       -8.43833         5.28034         4.51035
| 52>    N       -7.22431         5.16048         5.05500
| 53>    S       -7.30260         5.51595         6.61513
| 54>    N       -8.86865         5.84281         6.69659
| 55>    C      -11.68672         6.29364         6.21265
| 56>    C      -13.03736         6.58423         6.09442
| 57>    C      -13.59887         6.93064         7.31531
| 58>    C      -12.69373         6.91350         8.39047
| 59>    S      -11.11116         6.46197         7.86369
| 60>    C      -13.26133         7.27747         9.60503
| 61>    C      -14.61657         7.54459         9.49375
| 62>    S      -15.17853         7.39079         7.83232
| 63>    C      -15.44041         8.00943        10.54475
| 64>    C      -16.79561         8.10157        10.61256
| 65>    C      -17.85473         7.52156         9.81438
| 66>    C      -17.83310         6.27752         9.24000
| 67>    C      -18.92329         5.71438         8.54861
| 68>    N      -19.78036         5.22374         7.96353
| 69>    C      -16.74541         5.39088         9.38357
| 70>    N      -15.90289         4.62627         9.53521
| 71>    C      -19.03705         8.35413         9.99675
| 72>    C      -18.79590         9.25041        11.07100
| 73>    C      -17.41869         9.06343        11.56475
| 74>    O      -16.88006         9.60700        12.50163
| 75>    C      -19.74776        10.13699        11.51406
| 76>    C      -20.98420        10.14886        10.86114
| 77>    C      -21.20795         9.25975         9.78207
| 78>    C      -20.25089         8.35375         9.33931
| 79>    S      -22.79973         9.46144         9.12185
| 80>    C      -23.14755        10.70383        10.27440
| 81>    C      -22.12388        10.96309        11.11642
| 82>    H       -6.43285         0.76382        -6.13231
| 83>    H       -1.42565         0.86608        -6.26511
| 84>    H       -4.27345        -1.51040       -10.08224
| 85>    H       -6.20295        -0.65874        -8.54202
| 86>    H       -2.87108         2.99489        -1.48950
| 87>    H       -6.75812         3.35453        -2.06232
| 88>    H       -6.02024         4.58700         3.25051
| 89>    H      -13.78460         5.75716         1.93779
| 90>    H      -12.04779         5.00998         0.21883
| 91>    H      -13.55827         6.53237         5.15806
| 92>    H      -12.73295         7.32407        10.53950
| 93>    H      -14.90923         8.44291        11.38748
| 94>    H      -19.54426        10.80161        12.33928
| 95>    H      -20.45936         7.69699         8.51059
| 96>    H      -24.11295        11.17069        10.24838
| 97>    H      -22.15784        11.70209        11.89633
| 98> *
| 99>
|100>                          ****END OF INPUT****

CARTESIAN COORDINATES (ANGSTROEM)
---------------------------------
  C     -2.766730    2.175120   -4.009310
  C     -1.475100    2.565150   -3.763520
  C     -0.384970    2.254430   -4.603510
  N      0.543550    2.031660   -5.240990
  C     -1.041020    3.365490   -2.685440
  N     -0.600680    4.031060   -1.859220
  C     -3.211500    1.447160   -5.190450
  C     -4.626590    1.395770   -5.179220
  C     -5.354660    0.782310   -6.169980
  C     -4.652490    0.184830   -7.220670
  C     -3.237810    0.235340   -7.220890
  C     -2.501750    0.859670   -6.220770
  S     -2.580760   -0.572390   -8.609470
  C     -4.171640   -0.959980   -9.167150
  C     -5.154460   -0.510700   -8.356630
  C     -5.138650    2.076670   -3.976740
  O     -6.310880    2.239030   -3.705780
  C     -3.939420    2.480200   -3.203390
  C     -3.867440    2.930200   -1.912360
  C     -4.870260    3.306920   -0.998260
  C     -6.236720    3.509530   -1.136380
  C     -6.826930    3.918920    0.049520
  C     -5.928050    4.038990    1.127750
  S     -4.321580    3.647660    0.649480
  C     -6.525270    4.440800    2.314480
  C     -7.889290    4.641740    2.160030
  S     -8.443460    4.333390    0.528730
  C     -8.803110    5.051370    3.167970
  C    -10.172450    5.251690    2.866780
  C    -11.144910    5.666930    3.836510
  N    -12.424860    5.834510    3.445710
  C    -12.746500    5.610450    2.202800
  C    -11.791860    5.198990    1.251320
  N    -10.547270    5.032720    1.593980
  C    -10.780420    5.893730    5.189710
  C     -9.417160    5.687120    5.490100
  C     -8.438330    5.280340    4.510350
  N     -7.224310    5.160480    5.055000
  S     -7.302600    5.515950    6.615130
  N     -8.868650    5.842810    6.696590
  C    -11.686720    6.293640    6.212650
  C    -13.037360    6.584230    6.094420
  C    -13.598870    6.930640    7.315310
  C    -12.693730    6.913500    8.390470
  S    -11.111160    6.461970    7.863690
  C    -13.261330    7.277470    9.605030
  C    -14.616570    7.544590    9.493750
  S    -15.178530    7.390790    7.832320
  C    -15.440410    8.009430   10.544750
  C    -16.795610    8.101570   10.612560
  C    -17.854730    7.521560    9.814380
  C    -17.833100    6.277520    9.240000
  C    -18.923290    5.714380    8.548610
  N    -19.780360    5.223740    7.963530
  C    -16.745410    5.390880    9.383570
  N    -15.902890    4.626270    9.535210
  C    -19.037050    8.354130    9.996750
  C    -18.795900    9.250410   11.071000
  C    -17.418690    9.063430   11.564750
  O    -16.880060    9.607000   12.501630
  C    -19.747760   10.136990   11.514060
  C    -20.984200   10.148860   10.861140
  C    -21.207950    9.259750    9.782070
  C    -20.250890    8.353750    9.339310
  S    -22.799730    9.461440    9.121850
  C    -23.147550   10.703830   10.274400
  C    -22.123880   10.963090   11.116420
  H     -6.432850    0.763820   -6.132310
  H     -1.425650    0.866080   -6.265110
  H     -4.273450   -1.510400  -10.082240
  H     -6.202950   -0.658740   -8.542020
  H     -2.871080    2.994890   -1.489500
  H     -6.758120    3.354530   -2.062320
  H     -6.020240    4.587000    3.250510
  H    -13.784600    5.757160    1.937790
  H    -12.047790    5.009980    0.218830
  H    -13.558270    6.532370    5.158060
  H    -12.732950    7.324070   10.539500
  H    -14.909230    8.442910   11.387480
  H    -19.544260   10.801610   12.339280
  H    -20.459360    7.696990    8.510590
  H    -24.112950   11.170690   10.248380
  H    -22.157840   11.702090   11.896330

 Total Charge           Charge          ....    0
 Multiplicity           Mult            ....    1
 Number of Electrons    NEL             ....  500
 Basis Dimension        Dim             .... 1046

ORBITAL ENERGIES
----------------

  NO   OCC          E(Eh)            E(eV)
   0   2.0000     -89.050198     -2423.1791
   1   2.0000     -88.964633     -2420.8507
   2   2.0000     -88.963872     -2420.8300
   3   2.0000     -88.963115     -2420.8094
   4   2.0000     -88.960066     -2420.7265
   5   2.0000     -88.960063     -2420.7264
   6   2.0000     -88.956750     -2420.6362
   7   2.0000     -19.213503      -522.8260
   8   2.0000     -19.210243      -522.7373
   9   2.0000     -14.457709      -393.4143
  10   2.0000     -14.457441      -393.4070
  11   2.0000     -14.449172      -393.1820
  12   2.0000     -14.445845      -393.0914
  13   2.0000     -14.412440      -392.1824
  14   2.0000     -14.409475      -392.1018
  15   2.0000     -14.408284      -392.0693
  16   2.0000     -14.406724      -392.0269
  17   2.0000     -10.364579      -282.0345
  18   2.0000     -10.361931      -281.9625
  19   2.0000     -10.345668      -281.5199
  20   2.0000     -10.344301      -281.4827
  21   2.0000     -10.343913      -281.4722
  22   2.0000     -10.343400      -281.4582
  23   2.0000     -10.342109      -281.4231
  24   2.0000     -10.341351      -281.4025
  25   2.0000     -10.338741      -281.3314
  26   2.0000     -10.337248      -281.2908
  27   2.0000     -10.335243      -281.2363
  28   2.0000     -10.334635      -281.2197
  29   2.0000     -10.320562      -280.8368
  30   2.0000     -10.319958      -280.8203
  31   2.0000     -10.318802      -280.7889
  32   2.0000     -10.318620      -280.7839
  33   2.0000     -10.318168      -280.7716
  34   2.0000     -10.317515      -280.7539
  35   2.0000     -10.317457      -280.7523
  36   2.0000     -10.316811      -280.7347
  37   2.0000     -10.316384      -280.7231
  38   2.0000     -10.314921      -280.6833
  39   2.0000     -10.312624      -280.6208
  40   2.0000     -10.312538      -280.6184
  41   2.0000     -10.311897      -280.6010
  42   2.0000     -10.311689      -280.5953
  43   2.0000     -10.310935      -280.5748
  44   2.0000     -10.309194      -280.5274
  45   2.0000     -10.307973      -280.4942
  46   2.0000     -10.306819      -280.4628
  47   2.0000     -10.304247      -280.3928
  48   2.0000     -10.301794      -280.3261
  49   2.0000     -10.301138      -280.3082
  50   2.0000     -10.300874      -280.3010
  51   2.0000     -10.300495      -280.2907
  52   2.0000     -10.299106      -280.2529
  53   2.0000     -10.298553      -280.2379
  54   2.0000     -10.297762      -280.2164
  55   2.0000     -10.296705      -280.1876
  56   2.0000     -10.294558      -280.1292
  57   2.0000     -10.293635      -280.1040
  58   2.0000     -10.293320      -280.0955
  59   2.0000     -10.292701      -280.0786
  60   2.0000     -10.288178      -279.9556
  61   2.0000     -10.287199      -279.9289
  62   2.0000     -10.287059      -279.9251
  63   2.0000     -10.286009      -279.8965
  64   2.0000     -10.285410      -279.8802
  65   2.0000     -10.285267      -279.8764
  66   2.0000     -10.284783      -279.8632
  67   2.0000      -8.141244      -221.5345
  68   2.0000      -8.060903      -219.3483
  69   2.0000      -8.059323      -219.3053
  70   2.0000      -8.058731      -219.2892
  71   2.0000      -8.055434      -219.1995
  72   2.0000      -8.054124      -219.1638
  73   2.0000      -8.049762      -219.0452
  74   2.0000      -6.112310      -166.3244
  75   2.0000      -6.104499      -166.1118
  76   2.0000      -6.104122      -166.1016
  77   2.0000      -6.030414      -164.0959
  78   2.0000      -6.028848      -164.0533
  79   2.0000      -6.028294      -164.0382
  80   2.0000      -6.026118      -163.9790
  81   2.0000      -6.024837      -163.9442
  82   2.0000      -6.024529      -163.9358
  83   2.0000      -6.024276      -163.9289
  84   2.0000      -6.023823      -163.9166
  85   2.0000      -6.022576      -163.8826
  86   2.0000      -6.021006      -163.8399
  87   2.0000      -6.020943      -163.8382
  88   2.0000      -6.020228      -163.8187
  89   2.0000      -6.019622      -163.8022
  90   2.0000      -6.019452      -163.7976
  91   2.0000      -6.017081      -163.7331
  92   2.0000      -6.015626      -163.6935
  93   2.0000      -6.014993      -163.6763
  94   2.0000      -6.011349      -163.5771
  95   2.0000      -1.146751       -31.2047
  96   2.0000      -1.128200       -30.6999
  97   2.0000      -1.125458       -30.6253
  98   2.0000      -1.105823       -30.0910
  99   2.0000      -1.032232       -28.0885
 100   2.0000      -1.018283       -27.7089
 101   2.0000      -1.014979       -27.6190
 102   2.0000      -1.013420       -27.5766
 103   2.0000      -1.009085       -27.4586
 104   2.0000      -1.004267       -27.3275
 105   2.0000      -1.003506       -27.3068
 106   2.0000      -0.999792       -27.2057
 107   2.0000      -0.988468       -26.8976
 108   2.0000      -0.987661       -26.8756
 109   2.0000      -0.981696       -26.7133
 110   2.0000      -0.980621       -26.6840
 111   2.0000      -0.978430       -26.6244
 112   2.0000      -0.954036       -25.9607
 113   2.0000      -0.945029       -25.7155
 114   2.0000      -0.925802       -25.1923
 115   2.0000      -0.924261       -25.1504
 116   2.0000      -0.900140       -24.4941
 117   2.0000      -0.895292       -24.3621
 118   2.0000      -0.889236       -24.1973
 119   2.0000      -0.884929       -24.0801
 120   2.0000      -0.878859       -23.9150
 121   2.0000      -0.876848       -23.8602
 122   2.0000      -0.869481       -23.6598
 123   2.0000      -0.866097       -23.5677
 124   2.0000      -0.860886       -23.4259
 125   2.0000      -0.853935       -23.2367
 126   2.0000      -0.822568       -22.3832
 127   2.0000      -0.820407       -22.3244
 128   2.0000      -0.818904       -22.2835
 129   2.0000      -0.807909       -21.9843
 130   2.0000      -0.805867       -21.9287
 131   2.0000      -0.802605       -21.8400
 132   2.0000      -0.798211       -21.7204
 133   2.0000      -0.780447       -21.2370
 134   2.0000      -0.767893       -20.8954
 135   2.0000      -0.758174       -20.6310
 136   2.0000      -0.753058       -20.4918
 137   2.0000      -0.749172       -20.3860
 138   2.0000      -0.734439       -19.9851
 139   2.0000      -0.718313       -19.5463
 140   2.0000      -0.713828       -19.4242
 141   2.0000      -0.697417       -18.9777
 142   2.0000      -0.687348       -18.7037
 143   2.0000      -0.684186       -18.6177
 144   2.0000      -0.682351       -18.5677
 145   2.0000      -0.677698       -18.4411
 146   2.0000      -0.672887       -18.3102
 147   2.0000      -0.664447       -18.0805
 148   2.0000      -0.658833       -17.9278
 149   2.0000      -0.657508       -17.8917
 150   2.0000      -0.654075       -17.7983
 151   2.0000      -0.650027       -17.6881
 152   2.0000      -0.645588       -17.5674
 153   2.0000      -0.642410       -17.4809
 154   2.0000      -0.631313       -17.1789
 155   2.0000      -0.624026       -16.9806
 156   2.0000      -0.617540       -16.8041
 157   2.0000      -0.615305       -16.7433
 158   2.0000      -0.611199       -16.6316
 159   2.0000      -0.596226       -16.2241
 160   2.0000      -0.593072       -16.1383
 161   2.0000      -0.590813       -16.0768
 162   2.0000      -0.589256       -16.0345
 163   2.0000      -0.580407       -15.7937
 164   2.0000      -0.576057       -15.6753
 165   2.0000      -0.575300       -15.6547
 166   2.0000      -0.575155       -15.6508
 167   2.0000      -0.567627       -15.4459
 168   2.0000      -0.564722       -15.3669
 169   2.0000      -0.557913       -15.1816
 170   2.0000      -0.546091       -14.8599
 171   2.0000      -0.544510       -14.8169
 172   2.0000      -0.543775       -14.7969
 173   2.0000      -0.539779       -14.6881
 174   2.0000      -0.534962       -14.5571
 175   2.0000      -0.534722       -14.5505
 176   2.0000      -0.531338       -14.4584
 177   2.0000      -0.530683       -14.4406
 178   2.0000      -0.527886       -14.3645
 179   2.0000      -0.520983       -14.1767
 180   2.0000      -0.519249       -14.1295
 181   2.0000      -0.514180       -13.9915
 182   2.0000      -0.511189       -13.9102
 183   2.0000      -0.508846       -13.8464
 184   2.0000      -0.506908       -13.7937
 185   2.0000      -0.505042       -13.7429
 186   2.0000      -0.498091       -13.5538
 187   2.0000      -0.496642       -13.5143
 188   2.0000      -0.493936       -13.4407
 189   2.0000      -0.492003       -13.3881
 190   2.0000      -0.490051       -13.3350
 191   2.0000      -0.489613       -13.3230
 192   2.0000      -0.488570       -13.2947
 193   2.0000      -0.486921       -13.2498
 194   2.0000      -0.485797       -13.2192
 195   2.0000      -0.482092       -13.1184
 196   2.0000      -0.481448       -13.1009
 197   2.0000      -0.472295       -12.8518
 198   2.0000      -0.471409       -12.8277
 199   2.0000      -0.465244       -12.6599
 200   2.0000      -0.461002       -12.5445
 201   2.0000      -0.457583       -12.4515
 202   2.0000      -0.455022       -12.3818
 203   2.0000      -0.452306       -12.3079
 204   2.0000      -0.450602       -12.2615
 205   2.0000      -0.447477       -12.1765
 206   2.0000      -0.444948       -12.1076
 207   2.0000      -0.443880       -12.0786
 208   2.0000      -0.442351       -12.0370
 209   2.0000      -0.437604       -11.9078
 210   2.0000      -0.437449       -11.9036
 211   2.0000      -0.435909       -11.8617
 212   2.0000      -0.431298       -11.7362
 213   2.0000      -0.429998       -11.7008
 214   2.0000      -0.429811       -11.6957
 215   2.0000      -0.429117       -11.6769
 216   2.0000      -0.427948       -11.6450
 217   2.0000      -0.426302       -11.6003
 218   2.0000      -0.424879       -11.5615
 219   2.0000      -0.422403       -11.4942
 220   2.0000      -0.420816       -11.4510
 221   2.0000      -0.419395       -11.4123
 222   2.0000      -0.415799       -11.3145
 223   2.0000      -0.415114       -11.2958
 224   2.0000      -0.405433       -11.0324
 225   2.0000      -0.403027       -10.9669
 226   2.0000      -0.401653       -10.9295
 227   2.0000      -0.393687       -10.7128
 228   2.0000      -0.389086       -10.5876
 229   2.0000      -0.379700       -10.3322
 230   2.0000      -0.373861       -10.1733
 231   2.0000      -0.372908       -10.1474
 232   2.0000      -0.369893       -10.0653
 233   2.0000      -0.366387        -9.9699
 234   2.0000      -0.363278        -9.8853
 235   2.0000      -0.355814        -9.6822
 236   2.0000      -0.353192        -9.6109
 237   2.0000      -0.344441        -9.3727
 238   2.0000      -0.334704        -9.1078
 239   2.0000      -0.332359        -9.0440
 240   2.0000      -0.331109        -9.0099
 241   2.0000      -0.312564        -8.5053
 242   2.0000      -0.310288        -8.4434
 243   2.0000      -0.308723        -8.4008
 244   2.0000      -0.297359        -8.0915
 245   2.0000      -0.295318        -8.0360
 246   2.0000      -0.292179        -7.9506
 247   2.0000      -0.290559        -7.9065
 248   2.0000      -0.276127        -7.5138
 249   2.0000      -0.240450        -6.5430
 250   0.0000      -0.125340        -3.4107
 251   0.0000      -0.084814        -2.3079
 252   0.0000      -0.080366        -2.1869
 253   0.0000      -0.053992        -1.4692
 254   0.0000      -0.052182        -1.4199

MULLIKEN ATOMIC CHARGES
-----------------------
   0 C :    0.303001
   1 C :   -0.352626
   2 C :   -0.184196
   3 N :    0.143850
   4 C :   -0.200864
   5 N :    0.155628
   6 C :    0.014572
   7 C :   -0.009490
   8 C :   -0.072980
   9 C :    0.114537
  10 C :   -0.095642
  11 C :   -0.023411
  12 S :    0.138994
  13 C :   -0.048919
  14 C :    0.024673
  15 C :    0.154317
  16 O :   -0.162352
  17 C :   -0.090539
  18 C :    0.042946
  19 C :   -0.117066
  20 C :   -0.008395
  21 C :    0.005993
  22 C :    0.019484
  23 S :    0.146968
  24 C :   -0.051223
  25 C :   -0.164173
  26 S :    0.163733
  27 C :    0.173285
  28 C :   -0.043800
  29 C :   -0.066750
  30 N :   -0.027267
  31 C :    0.037030
  32 C :    0.053005
  33 N :   -0.079885
  34 C :    0.202953
  35 C :   -0.024937
  36 C :    0.000249
  37 N :   -0.291512
  38 S :    0.561694
  39 N :   -0.327569
  40 C :   -0.180637
  41 C :   -0.040137
  42 C :    0.018908
  43 C :    0.029901
  44 S :    0.165032
  45 C :   -0.004336
  46 C :   -0.086695
  47 S :    0.151686
  48 C :    0.044395
  49 C :   -0.126108
  50 C :    0.241058
  51 C :   -0.316405
  52 C :   -0.175303
  53 N :    0.151839
  54 C :   -0.211166
  55 N :    0.171957
  56 C :    0.010046
  57 C :   -0.002705
  58 C :    0.137840
  59 O :   -0.146465
  60 C :   -0.070856
  61 C :    0.111337
  62 C :   -0.090339
  63 C :   -0.027193
  64 S :    0.136433
  65 C :   -0.051059
  66 C :    0.024399
  67 H :   -0.013614
  68 H :   -0.005630
  69 H :    0.037058
  70 H :   -0.008035
  71 H :    0.015199
  72 H :    0.012773
  73 H :   -0.000068
  74 H :    0.022366
  75 H :    0.022928
  76 H :   -0.000253
  77 H :   -0.003174
  78 H :    0.024649
  79 H :   -0.011054
  80 H :   -0.003695
  81 H :    0.037707
  82 H :   -0.005892
Sum of atomic charges:   -0.0000000

LOEWDIN ATOMIC CHARGES
----------------------
   0 C :    0.077182
   1 C :   -0.145589
   2 C :   -0.017648
   3 N :   -0.057983
   4 C :   -0.026392
   5 N :   -0.053372
   6 C :   -0.022467
   7 C :   -0.052391
   8 C :    0.021062
   9 C :   -0.035896
  10 C :   -0.145958
  11 C :   -0.009587
  12 S :    0.428163
  13 C :   -0.150734
  14 C :   -0.058499
  15 C :    0.087493
  16 O :   -0.147029
  17 C :   -0.098775
  18 C :    0.046245
  19 C :   -0.170697
  20 C :   -0.016364
  21 C :   -0.208613
  22 C :   -0.184598
  23 S :    0.430543
  24 C :   -0.053354
  25 C :   -0.145133
  26 S :    0.457431
  27 C :   -0.039668
  28 C :   -0.010521
  29 C :   -0.005487
  30 N :   -0.021945
  31 C :    0.017973
  32 C :    0.024305
  33 N :   -0.041865
  34 C :   -0.038395
  35 C :   -0.045759
  36 C :   -0.037373
  37 N :   -0.279546
  38 S :    0.684558
  39 N :   -0.298000
  40 C :   -0.145771
  41 C :   -0.048619
  42 C :   -0.181387
  43 C :   -0.203356
  44 S :    0.459937
  45 C :   -0.020457
  46 C :   -0.169027
  47 S :    0.446980
  48 C :    0.049234
  49 C :   -0.097895
  50 C :    0.061026
  51 C :   -0.142821
  52 C :   -0.019379
  53 N :   -0.054192
  54 C :   -0.037325
  55 N :   -0.048584
  56 C :   -0.017799
  57 C :   -0.055146
  58 C :    0.083467
  59 O :   -0.146544
  60 C :    0.023291
  61 C :   -0.036843
  62 C :   -0.144918
  63 C :   -0.012974
  64 S :    0.426829
  65 C :   -0.151388
  66 C :   -0.057591
  67 H :    0.039268
  68 H :    0.040654
  69 H :    0.028811
  70 H :    0.034665
  71 H :    0.043588
  72 H :    0.036111
  73 H :    0.032540
  74 H :    0.030678
  75 H :    0.032186
  76 H :    0.031860
  77 H :    0.039014
  78 H :    0.051549
  79 H :    0.040543
  80 H :    0.040246
  81 H :    0.028969
  82 H :    0.035253

  Mayer bond orders larger than 0.100000
B(  0-C ,  1-C ) :   1.6197 B(  0-C ,  6-C ) :   0.9986 B(  0-C , 17-C ) :   1.0820
B(  1-C ,  2-C ) :   1.1451 B(  1-C ,  4-C ) :   1.1381 B(  2-C ,  3-N ) :   2.9702
B(  4-C ,  5-N ) :   2.9887 B(  6-C ,  7-C ) :   1.2709 B(  6-C , 11-C ) :   1.4114
B(  7-C ,  8-C ) :   1.4229 B(  7-C , 15-C ) :   0.9556 B(  8-C ,  9-C ) :   1.2428
B(  8-C , 67-H ) :   1.0174 B(  9-C , 10-C ) :   1.3038 B(  9-C , 14-C ) :   1.1723
B( 10-C , 11-C ) :   1.3218 B( 10-C , 12-S ) :   1.0978 B( 11-C , 68-H ) :   0.9833
B( 12-S , 13-C ) :   1.1268 B( 13-C , 14-C ) :   1.6280 B( 13-C , 69-H ) :   0.9685
B( 14-C , 70-H ) :   0.9995 B( 15-C , 16-O ) :   2.1645 B( 15-C , 17-C ) :   0.9428
B( 17-C , 18-C ) :   1.5770 B( 18-C , 19-C ) :   1.2335 B( 18-C , 71-H ) :   0.9181
B( 19-C , 20-C ) :   1.4302 B( 19-C , 23-S ) :   1.0722 B( 20-C , 21-C ) :   1.2912
B( 20-C , 72-H ) :   0.9827 B( 21-C , 22-C ) :   1.3524 B( 21-C , 26-S ) :   1.0021
B( 22-C , 23-S ) :   1.0889 B( 22-C , 24-C ) :   1.2489 B( 24-C , 25-C ) :   1.4639
B( 24-C , 73-H ) :   0.9913 B( 25-C , 26-S ) :   1.0994 B( 25-C , 27-C ) :   1.2030
B( 27-C , 28-C ) :   1.2678 B( 27-C , 34-C ) :   0.1301 B( 27-C , 36-C ) :   1.2130
B( 28-C , 29-C ) :   1.1278 B( 28-C , 33-N ) :   1.3937 B( 29-C , 30-N ) :   1.4534
B( 29-C , 34-C ) :   1.2752 B( 30-N , 31-C ) :   1.6765 B( 31-C , 32-C ) :   1.1903
B( 31-C , 74-H ) :   0.9746 B( 32-C , 33-N ) :   1.6613 B( 32-C , 75-H ) :   0.9734
B( 34-C , 35-C ) :   1.1948 B( 34-C , 40-C ) :   1.1983 B( 35-C , 36-C ) :   1.1095
B( 35-C , 39-N ) :   1.4628 B( 36-C , 37-N ) :   1.4963 B( 37-N , 38-S ) :   1.2863
B( 37-N , 39-N ) :   0.1554 B( 38-S , 39-N ) :   1.2819 B( 40-C , 41-C ) :   1.4569
B( 40-C , 44-S ) :   1.1055 B( 41-C , 42-C ) :   1.2506 B( 41-C , 76-H ) :   0.9894
B( 42-C , 43-C ) :   1.3607 B( 42-C , 47-S ) :   1.0813 B( 43-C , 44-S ) :   1.0301
B( 43-C , 45-C ) :   1.2782 B( 45-C , 46-C ) :   1.4336 B( 45-C , 77-H ) :   1.0091
B( 46-C , 47-S ) :   1.0862 B( 46-C , 48-C ) :   1.1609 B( 48-C , 49-C ) :   1.6356
B( 48-C , 78-H ) :   0.9457 B( 49-C , 50-C ) :   1.0345 B( 49-C , 58-C ) :   0.9402
B( 50-C , 51-C ) :   1.6580 B( 50-C , 56-C ) :   1.0168 B( 51-C , 52-C ) :   1.1345
B( 51-C , 54-C ) :   1.1484 B( 52-C , 53-N ) :   2.9932 B( 54-C , 55-N ) :   3.0313
B( 56-C , 57-C ) :   1.2687 B( 56-C , 63-C ) :   1.4185 B( 57-C , 58-C ) :   0.9241
B( 57-C , 60-C ) :   1.4261 B( 58-C , 59-O ) :   2.2645 B( 60-C , 61-C ) :   1.2517
B( 60-C , 79-H ) :   1.0174 B( 61-C , 62-C ) :   1.3040 B( 61-C , 66-C ) :   1.1715
B( 62-C , 63-C ) :   1.3162 B( 62-C , 64-S ) :   1.0964 B( 63-C , 80-H ) :   0.9885
B( 64-S , 65-C ) :   1.1248 B( 65-C , 66-C ) :   1.6310 B( 65-C , 81-H ) :   0.9683
B( 66-C , 82-H ) :   0.9999

-----------------------------------------------------------------------------
         ABSORPTION SPECTRUM VIA TRANSITION ELECTRIC DIPOLE MOMENTS
-----------------------------------------------------------------------------
State   Energy  Wavelength   fosc         T2         TX        TY        TZ
        (cm-1)    (nm)                  (au**2)     (au)      (au)      (au)
-----------------------------------------------------------------------------
   0   10374.9    963.9   1.213426570  38.50399  -4.28787   1.71098   4.14617
   1   18750.4    533.3   0.014491338   0.25443   0.36143   0.22793   0.26805
   2   19907.8    502.3   0.578732809   9.57042  -2.63949   0.41409   1.55950
   3   20648.2    484.3   0.036061658   0.57496  -0.08921  -0.20555  -0.72440
   4   20903.2    478.4   0.241056404   3.79649   1.35847  -0.66614  -1.22772
   5   21025.7    475.6   0.364335003   5.70461   1.22541  -0.73762  -1.91283
   6   22838.9    437.8   0.001332528   0.01921  -0.04020  -0.12645   0.04003
   7   24981.6    400.3   0.023579826   0.31074   0.17152   0.49106  -0.20045
   8   25475.4    392.5   0.025563765   0.33035  -0.54517   0.14131  -0.11479
   9   26420.7    378.5   0.072679014   0.90561  -0.27140  -0.47306  -0.77985
  10   27064.7    369.5   0.104975201   1.27691   0.25711  -0.53625  -0.96085
  11   27417.3    364.7   0.290966203   3.49377   1.20688  -0.91355  -1.09664
  12   27646.7    361.7   0.035498018   0.42270   0.31979  -0.21692  -0.52286
  13   28029.1    356.8   0.014131103   0.16598  -0.38680   0.04600  -0.11937
  14   28264.0    353.8   0.057520922   0.66999   0.34038  -0.47407  -0.57392
  15   28633.9    349.2   0.102574666   1.17933  -0.43686   0.57074   0.81409
  16   28836.4    346.8   0.007310929   0.08347  -0.10231   0.23305   0.13670
  17   29313.5    341.1   0.014622415   0.16422   0.34151   0.20541   0.07346
  18   29419.1    339.9   0.030993970   0.34683   0.15845   0.08963   0.56008
  19   29955.8    333.8   0.053902326   0.59238  -0.64610  -0.40914  -0.08686
  20   30372.1    329.2   0.049849100   0.54033   0.71009   0.10512   0.15830
  21   30509.0    327.8   0.049572165   0.53492   0.60129  -0.15916   0.38475
  22   30632.4    326.5   0.083559393   0.89803  -0.65220   0.07535  -0.68337
  23   31082.8    321.7   0.302592694   3.20490  -1.44335   1.02856   0.25237
  24   31548.7    317.0   0.469561343   4.89989  -0.29169  -1.20050  -1.83673
  25   32508.3    307.6   0.062731848   0.63529  -0.67012   0.42619  -0.06769
  26   32814.1    304.7   0.020003827   0.20069  -0.11308  -0.33970  -0.26927
  27   33277.5    300.5   0.043548416   0.43082  -0.12692   0.46984   0.44042
  28   33353.4    299.8   0.005083112   0.05017  -0.21310   0.05940   0.03512
  29   33669.6    297.0   0.006763154   0.06613  -0.18835  -0.14431  -0.09912
  30   33772.3    296.1   0.007435357   0.07248   0.13560   0.02772   0.23092
  31   34208.9    292.3   0.128546617   1.23708   0.73796  -0.29311  -0.77883
  32   35250.7    283.7   0.271836414   2.53872   1.51260  -0.03537   0.49953
  33   35315.7    283.2   0.504870239   4.70638   0.05603   1.74729   1.28460
  34   35548.6    281.3   0.281063755   2.60290   1.08259  -0.29742   1.15864
  35   35784.1    279.5   0.110598368   1.01750   0.91376  -0.01604   0.42694
  36   36258.5    275.8   0.007397307   0.06716   0.16427   0.06587  -0.18931
  37   36337.1    275.2   0.126118077   1.14262  -0.93670   0.06572  -0.51078
  38   36521.0    273.8   0.010769566   0.09708   0.18680  -0.20869   0.13650
  39   36602.1    273.2   0.013076524   0.11761   0.34123   0.01948  -0.02826
  40   36762.4    272.0   0.069292007   0.62052   0.09855   0.18821   0.75854
  41   36857.5    271.3   0.022401947   0.20009  -0.40293   0.18530  -0.05833
  42   37119.2    269.4   0.222730584   1.97541   0.95496   0.27258   0.99456
  43   37299.6    268.1   0.037132308   0.32774   0.40203  -0.25194  -0.32036
  44   37574.3    266.1   0.083280177   0.72967   0.81230  -0.25921  -0.05151
  45   38086.0    262.6   0.009441008   0.08161   0.28120   0.00830   0.04968
  46   38113.0    262.4   0.007330319   0.06332  -0.23434   0.03813   0.08336
  47   38448.2    260.1   0.028258818   0.24197  -0.07156   0.14623   0.46418
  48   38668.0    258.6   0.009858551   0.08393   0.24984  -0.07095   0.12837
  49   38966.8    256.6   0.067737946   0.57229   0.67486  -0.02570   0.34086
  50   39178.0    255.2   0.003168824   0.02663  -0.09385   0.13281  -0.01348
  51   39457.6    253.4   0.240613290   2.00754   1.39105   0.02578   0.26805
  52   39495.9    253.2   0.224521811   1.87146  -0.31162   0.50729   1.23167
  53   40083.1    249.5   0.085146482   0.69933  -0.72046  -0.12802  -0.40481
  54   40135.7    249.2   0.004283170   0.03513   0.13702  -0.03839   0.12200

FINAL SINGLE POINT ENERGY     -5286.657067875942

DIPOLE MOMENT
-------------
                                X             Y             Z
Electronic contribution:     14.97500      -1.42378       9.54066
Nuclear contribution   :    -17.69484       2.49066     -10.08579
                        -----------------------------------------
Total Dipole Moment    :     -2.71984       1.06688      -0.54513
                        -----------------------------------------
Magnitude (a.u.)       :      2.97202
Magnitude (Debye)      :      7.55428

Rotational constants in cm-1:     0.002709     0.000203     0.000192
Rotational constants in MHz :    81.225435     6.088184     5.753059

                             ****ORCA TERMINATED NORMALLY****
TOTAL RUN TIME: 0 days 0 hours 8 minutes 11 seconds 834 msec
