                         Program Version 4.2.0 -  RELEASE  -
|  1> # ORCA input file
|  2> # SCF done       -207.612827377471          0.000648508852
|  3> ! CAM-B3LYP def2-SVP def2/J RIJCOSX Grid4 TightSCF
|  4> %maxcore 5000
|  5> %tddft
|  6>     Mode sTDDFT
|  7>     Ethresh 5.0
|  8>     maxcore 5000
|  9> end
| 10>
| 11> %pal
| 12>   nprocs 6
| 13>   end
| 14> * xyz 0 1
| 15>    C        0.96631        -0.99548         0.25793
| 16>    C        1.37908        -1.69110         1.36420
| 17>    C        1.75171        -1.08312         2.58262
| 18>    N        2.07085        -0.64312         3.59259
| 19>    C        1.58025        -3.08504         1.38728
| 20>    N        1.78052        -4.21415         1.44216
| 21>    C        0.99869         0.46164         0.13211
| 22>    C        1.00274         0.80155        -1.23318
| 23>    C        1.07331         2.11452        -1.65238
| 24>    C        1.12677         3.11250        -0.68692
| 25>    C        1.10280         2.78253         0.67374
| 26>    C        1.04288         1.45728         1.09258
| 27>   Cl        1.14787         4.02759         1.85318
| 28>   Cl        1.21704         4.75748        -1.16828
| 29>    C        0.90012        -0.42770        -2.04630
| 30>    O        0.92473        -0.53218        -3.24966
| 31>    C        0.70193        -1.52856        -1.06135
| 32>    C        0.26720        -2.73655        -1.52255
| 33>    C       -0.33608        -3.79941        -0.82191
| 34>    C       -0.93835        -3.80098         0.43085
| 35>    C       -1.44805        -5.04544         0.76700
| 36>    C       -1.24552        -6.01632        -0.24071
| 37>    S       -0.44682        -5.37729        -1.59944
| 38>    C       -1.77504        -7.24770         0.20504
| 39>    C       -2.30872        -7.05943         1.49953
| 40>    C       -2.11169        -5.67439         1.89508
| 41>    C       -2.44216        -5.08929         3.08223
| 42>    C       -3.07731        -5.79943         4.12269
| 43>    N       -3.59981        -6.37078         4.96831
| 44>    C       -2.16060        -3.72912         3.33037
| 45>    N       -1.92678        -2.62099         3.51019
| 46>    C       -2.85271        -8.21748         2.03288
| 47>    C       -2.74521        -9.29554         1.16003
| 48>    S       -1.95070        -8.85531        -0.34559
| 49>    C       -3.18383       -10.63173         1.35769
| 50>    C       -3.83200       -11.09633         2.53440
| 51>    C       -4.23205       -12.46589         2.66519
| 52>    N       -4.83876       -12.88337         3.79088
| 53>    C       -5.05874       -12.03406         4.75444
| 54>    C       -4.66909       -10.68575         4.62420
| 55>    N       -4.07835       -10.24516         3.54892
| 56>    C       -4.02139       -13.43978         1.65802
| 57>    C       -3.38709       -12.97814         0.48596
| 58>    C       -2.98215       -11.60129         0.35226
| 59>    N       -2.40016       -11.37255        -0.82732
| 60>    S       -2.36494       -12.73519        -1.67540
| 61>    N       -3.07931       -13.68447        -0.60439
| 62>    C       -4.42588       -14.78345         1.85397
| 63>    C       -4.26841       -15.83686         0.95867
| 64>    C       -4.75995       -17.02764         1.47019
| 65>    C       -5.30128       -16.88200         2.76679
| 66>    S       -5.20002       -15.27050         3.34821
| 67>    C       -5.75660       -18.14657         3.19629
| 68>    C       -5.49967       -19.09934         2.17862
| 69>    C       -4.88381       -18.41602         1.05323
| 70>    C       -4.51806       -18.94792        -0.14753
| 71>    C       -4.72577       -20.30391        -0.48324
| 72>    N       -4.90322       -21.39323        -0.79172
| 73>    C       -3.92185       -18.16549        -1.16027
| 74>    N       -3.43434       -17.53840        -1.98705
| 75>    C       -5.87534       -20.38682         2.52601
| 76>    C       -6.43001       -20.44579         3.80117
| 77>    S       -6.49342       -18.84474         4.55825
| 78>    C       -6.97335       -21.50520         4.55029
| 79>    C       -6.89148       -22.86008         4.36371
| 80>    C       -7.59091       -23.83557         5.18258
| 81>    C       -8.62942       -23.59512         6.04382
| 82>    C       -9.27485       -24.59676         6.80079
| 83>    N       -9.83571       -25.35951         7.44930
| 84>    C       -9.23054       -22.33949         6.27722
| 85>    N       -9.78761       -21.36183         6.50729
| 86>    C       -7.04830       -25.15322         4.86432
| 87>    C       -6.10430       -25.01489         3.83336
| 88>    C       -5.97686       -23.59173         3.45480
| 89>    O       -5.22986       -23.14634         2.61196
| 90>    C       -5.42789       -26.09843         3.31162
| 91>    C       -5.69813       -27.35657         3.83522
| 92>    C       -6.63211       -27.50402         4.86782
| 93>    C       -7.31310       -26.40854         5.38757
| 94>   Cl       -6.94891       -29.06266         5.51364
| 95>   Cl       -4.88107       -28.73213         3.21460
| 96>    H        1.08653         2.35736        -2.70311
| 97>    H        1.01899         1.23713         2.14750
| 98>    H        0.34167        -2.85825        -2.59934
| 99>    H       -1.03451        -2.91737         1.03485
|100>    H       -3.31172        -8.31608         2.99891
|101>    H       -5.54761       -12.41131         5.64098
|102>    H       -4.84346        -9.96262         5.40837
|103>    H       -3.81081       -15.70123        -0.00396
|104>    H       -5.75492       -21.25566         1.90557
|105>    H       -7.52081       -21.17389         5.42528
|106>    H       -4.71056       -25.96705         2.51694
|107>    H       -8.02192       -26.56181         6.18453
|108> *
|109>
|110>                          ****END OF INPUT****

CARTESIAN COORDINATES (ANGSTROEM)
---------------------------------
  C      0.966310   -0.995480    0.257930
  C      1.379080   -1.691100    1.364200
  C      1.751710   -1.083120    2.582620
  N      2.070850   -0.643120    3.592590
  C      1.580250   -3.085040    1.387280
  N      1.780520   -4.214150    1.442160
  C      0.998690    0.461640    0.132110
  C      1.002740    0.801550   -1.233180
  C      1.073310    2.114520   -1.652380
  C      1.126770    3.112500   -0.686920
  C      1.102800    2.782530    0.673740
  C      1.042880    1.457280    1.092580
  Cl     1.147870    4.027590    1.853180
  Cl     1.217040    4.757480   -1.168280
  C      0.900120   -0.427700   -2.046300
  O      0.924730   -0.532180   -3.249660
  C      0.701930   -1.528560   -1.061350
  C      0.267200   -2.736550   -1.522550
  C     -0.336080   -3.799410   -0.821910
  C     -0.938350   -3.800980    0.430850
  C     -1.448050   -5.045440    0.767000
  C     -1.245520   -6.016320   -0.240710
  S     -0.446820   -5.377290   -1.599440
  C     -1.775040   -7.247700    0.205040
  C     -2.308720   -7.059430    1.499530
  C     -2.111690   -5.674390    1.895080
  C     -2.442160   -5.089290    3.082230
  C     -3.077310   -5.799430    4.122690
  N     -3.599810   -6.370780    4.968310
  C     -2.160600   -3.729120    3.330370
  N     -1.926780   -2.620990    3.510190
  C     -2.852710   -8.217480    2.032880
  C     -2.745210   -9.295540    1.160030
  S     -1.950700   -8.855310   -0.345590
  C     -3.183830  -10.631730    1.357690
  C     -3.832000  -11.096330    2.534400
  C     -4.232050  -12.465890    2.665190
  N     -4.838760  -12.883370    3.790880
  C     -5.058740  -12.034060    4.754440
  C     -4.669090  -10.685750    4.624200
  N     -4.078350  -10.245160    3.548920
  C     -4.021390  -13.439780    1.658020
  C     -3.387090  -12.978140    0.485960
  C     -2.982150  -11.601290    0.352260
  N     -2.400160  -11.372550   -0.827320
  S     -2.364940  -12.735190   -1.675400
  N     -3.079310  -13.684470   -0.604390
  C     -4.425880  -14.783450    1.853970
  C     -4.268410  -15.836860    0.958670
  C     -4.759950  -17.027640    1.470190
  C     -5.301280  -16.882000    2.766790
  S     -5.200020  -15.270500    3.348210
  C     -5.756600  -18.146570    3.196290
  C     -5.499670  -19.099340    2.178620
  C     -4.883810  -18.416020    1.053230
  C     -4.518060  -18.947920   -0.147530
  C     -4.725770  -20.303910   -0.483240
  N     -4.903220  -21.393230   -0.791720
  C     -3.921850  -18.165490   -1.160270
  N     -3.434340  -17.538400   -1.987050
  C     -5.875340  -20.386820    2.526010
  C     -6.430010  -20.445790    3.801170
  S     -6.493420  -18.844740    4.558250
  C     -6.973350  -21.505200    4.550290
  C     -6.891480  -22.860080    4.363710
  C     -7.590910  -23.835570    5.182580
  C     -8.629420  -23.595120    6.043820
  C     -9.274850  -24.596760    6.800790
  N     -9.835710  -25.359510    7.449300
  C     -9.230540  -22.339490    6.277220
  N     -9.787610  -21.361830    6.507290
  C     -7.048300  -25.153220    4.864320
  C     -6.104300  -25.014890    3.833360
  C     -5.976860  -23.591730    3.454800
  O     -5.229860  -23.146340    2.611960
  C     -5.427890  -26.098430    3.311620
  C     -5.698130  -27.356570    3.835220
  C     -6.632110  -27.504020    4.867820
  C     -7.313100  -26.408540    5.387570
  Cl    -6.948910  -29.062660    5.513640
  Cl    -4.881070  -28.732130    3.214600
  H      1.086530    2.357360   -2.703110
  H      1.018990    1.237130    2.147500
  H      0.341670   -2.858250   -2.599340
  H     -1.034510   -2.917370    1.034850
  H     -3.311720   -8.316080    2.998910
  H     -5.547610  -12.411310    5.640980
  H     -4.843460   -9.962620    5.408370
  H     -3.810810  -15.701230   -0.003960
  H     -5.754920  -21.255660    1.905570
  H     -7.520810  -21.173890    5.425280
  H     -4.710560  -25.967050    2.516940
  H     -8.021920  -26.561810    6.184530

 Total Charge           Charge          ....    0
 Multiplicity           Mult            ....    1
 Number of Electrons    NEL             ....  608
 Basis Dimension        Dim             .... 1230

ORBITAL ENERGIES
----------------

  NO   OCC          E(Eh)            E(eV)
   0   2.0000    -101.602810     -2764.7530
   1   2.0000    -101.601485     -2764.7170
   2   2.0000    -101.601383     -2764.7142
   3   2.0000    -101.600293     -2764.6845
   4   2.0000     -89.060644     -2423.4633
   5   2.0000     -89.001379     -2421.8507
   6   2.0000     -88.998880     -2421.7826
   7   2.0000     -88.993480     -2421.6357
   8   2.0000     -88.991878     -2421.5921
   9   2.0000     -19.226299      -523.1742
  10   2.0000     -19.225188      -523.1440
  11   2.0000     -14.468579      -393.7100
  12   2.0000     -14.467911      -393.6919
  13   2.0000     -14.461947      -393.5296
  14   2.0000     -14.455390      -393.3511
  15   2.0000     -14.436771      -392.8445
  16   2.0000     -14.436458      -392.8360
  17   2.0000     -14.433797      -392.7636
  18   2.0000     -14.430915      -392.6852
  19   2.0000     -14.425291      -392.5321
  20   2.0000     -14.423154      -392.4740
  21   2.0000     -14.420123      -392.3915
  22   2.0000     -14.419674      -392.3793
  23   2.0000     -10.378064      -282.4015
  24   2.0000     -10.376602      -282.3617
  25   2.0000     -10.370726      -282.2018
  26   2.0000     -10.368908      -282.1523
  27   2.0000     -10.359863      -281.9062
  28   2.0000     -10.358987      -281.8824
  29   2.0000     -10.358540      -281.8702
  30   2.0000     -10.358074      -281.8575
  31   2.0000     -10.357691      -281.8471
  32   2.0000     -10.356309      -281.8095
  33   2.0000     -10.355881      -281.7978
  34   2.0000     -10.355477      -281.7869
  35   2.0000     -10.355025      -281.7746
  36   2.0000     -10.354288      -281.7545
  37   2.0000     -10.353054      -281.7209
  38   2.0000     -10.352287      -281.7000
  39   2.0000     -10.351852      -281.6882
  40   2.0000     -10.350319      -281.6465
  41   2.0000     -10.349789      -281.6321
  42   2.0000     -10.349094      -281.6132
  43   2.0000     -10.349086      -281.6129
  44   2.0000     -10.348785      -281.6048
  45   2.0000     -10.337144      -281.2880
  46   2.0000     -10.336832      -281.2795
  47   2.0000     -10.335201      -281.2351
  48   2.0000     -10.334334      -281.2115
  49   2.0000     -10.334232      -281.2087
  50   2.0000     -10.333987      -281.2021
  51   2.0000     -10.333966      -281.2015
  52   2.0000     -10.333395      -281.1860
  53   2.0000     -10.332565      -281.1634
  54   2.0000     -10.332159      -281.1523
  55   2.0000     -10.331623      -281.1377
  56   2.0000     -10.330324      -281.1024
  57   2.0000     -10.330209      -281.0993
  58   2.0000     -10.327986      -281.0388
  59   2.0000     -10.326173      -280.9895
  60   2.0000     -10.325857      -280.9809
  61   2.0000     -10.322305      -280.8842
  62   2.0000     -10.322041      -280.8770
  63   2.0000     -10.320488      -280.8348
  64   2.0000     -10.319457      -280.8067
  65   2.0000     -10.318075      -280.7691
  66   2.0000     -10.313751      -280.6514
  67   2.0000     -10.313375      -280.6412
  68   2.0000     -10.312469      -280.6165
  69   2.0000     -10.312153      -280.6079
  70   2.0000     -10.311633      -280.5938
  71   2.0000     -10.311151      -280.5807
  72   2.0000     -10.311006      -280.5767
  73   2.0000     -10.310136      -280.5531
  74   2.0000     -10.309930      -280.5475
  75   2.0000     -10.307618      -280.4845
  76   2.0000     -10.306960      -280.4666
  77   2.0000     -10.306276      -280.4480
  78   2.0000     -10.303768      -280.3798
  79   2.0000     -10.303386      -280.3694
  80   2.0000     -10.302301      -280.3399
  81   2.0000      -9.557827      -260.0817
  82   2.0000      -9.556585      -260.0479
  83   2.0000      -9.556514      -260.0460
  84   2.0000      -9.555321      -260.0135
  85   2.0000      -8.151468      -221.8127
  86   2.0000      -8.096130      -220.3069
  87   2.0000      -8.093739      -220.2418
  88   2.0000      -8.086600      -220.0476
  89   2.0000      -8.083886      -219.9737
  90   2.0000      -7.328234      -199.4114
  91   2.0000      -7.326966      -199.3769
  92   2.0000      -7.326867      -199.3742
  93   2.0000      -7.325715      -199.3428
  94   2.0000      -7.318075      -199.1349
  95   2.0000      -7.317347      -199.1151
  96   2.0000      -7.316846      -199.1015
  97   2.0000      -7.316778      -199.0997
  98   2.0000      -7.316095      -199.0811
  99   2.0000      -7.316043      -199.0796
 100   2.0000      -7.315572      -199.0668
 101   2.0000      -7.314852      -199.0472
 102   2.0000      -6.122519      -166.6022
 103   2.0000      -6.114734      -166.3904
 104   2.0000      -6.114358      -166.3801
 105   2.0000      -6.065259      -165.0441
 106   2.0000      -6.062792      -164.9770
 107   2.0000      -6.061136      -164.9319
 108   2.0000      -6.058722      -164.8662
 109   2.0000      -6.058624      -164.8635
 110   2.0000      -6.056292      -164.8001
 111   2.0000      -6.056046      -164.7934
 112   2.0000      -6.053564      -164.7259
 113   2.0000      -6.051398      -164.6669
 114   2.0000      -6.049040      -164.6027
 115   2.0000      -6.048585      -164.5904
 116   2.0000      -6.046355      -164.5297
 117   2.0000      -1.157170       -31.4882
 118   2.0000      -1.142338       -31.0846
 119   2.0000      -1.141083       -31.0504
 120   2.0000      -1.116781       -30.3892
 121   2.0000      -1.053753       -28.6741
 122   2.0000      -1.051166       -28.6037
 123   2.0000      -1.041733       -28.3470
 124   2.0000      -1.035437       -28.1757
 125   2.0000      -1.033784       -28.1307
 126   2.0000      -1.028467       -27.9860
 127   2.0000      -1.024786       -27.8858
 128   2.0000      -1.022192       -27.8153
 129   2.0000      -1.020594       -27.7718
 130   2.0000      -1.015987       -27.6464
 131   2.0000      -1.013996       -27.5922
 132   2.0000      -1.009828       -27.4788
 133   2.0000      -1.007933       -27.4272
 134   2.0000      -1.001635       -27.2559
 135   2.0000      -1.000135       -27.2151
 136   2.0000      -0.999983       -27.2109
 137   2.0000      -0.995698       -27.0943
 138   2.0000      -0.994375       -27.0583
 139   2.0000      -0.984474       -26.7889
 140   2.0000      -0.965793       -26.2806
 141   2.0000      -0.964689       -26.2505
 142   2.0000      -0.963310       -26.2130
 143   2.0000      -0.960230       -26.1292
 144   2.0000      -0.940256       -25.5857
 145   2.0000      -0.938967       -25.5506
 146   2.0000      -0.927448       -25.2371
 147   2.0000      -0.922587       -25.1049
 148   2.0000      -0.909098       -24.7378
 149   2.0000      -0.903269       -24.5792
 150   2.0000      -0.900066       -24.4921
 151   2.0000      -0.891729       -24.2652
 152   2.0000      -0.881770       -23.9942
 153   2.0000      -0.878960       -23.9177
 154   2.0000      -0.870603       -23.6903
 155   2.0000      -0.864849       -23.5337
 156   2.0000      -0.863996       -23.5105
 157   2.0000      -0.862594       -23.4724
 158   2.0000      -0.860318       -23.4104
 159   2.0000      -0.857834       -23.3428
 160   2.0000      -0.829013       -22.5586
 161   2.0000      -0.811877       -22.0923
 162   2.0000      -0.808385       -21.9973
 163   2.0000      -0.797508       -21.7013
 164   2.0000      -0.785956       -21.3870
 165   2.0000      -0.781935       -21.2775
 166   2.0000      -0.777987       -21.1701
 167   2.0000      -0.772331       -21.0162
 168   2.0000      -0.771047       -20.9813
 169   2.0000      -0.762769       -20.7560
 170   2.0000      -0.747435       -20.3387
 171   2.0000      -0.731534       -19.9061
 172   2.0000      -0.730558       -19.8795
 173   2.0000      -0.720767       -19.6131
 174   2.0000      -0.710440       -19.3321
 175   2.0000      -0.709160       -19.2972
 176   2.0000      -0.700139       -19.0517
 177   2.0000      -0.699864       -19.0443
 178   2.0000      -0.695162       -18.9163
 179   2.0000      -0.692168       -18.8348
 180   2.0000      -0.689333       -18.7577
 181   2.0000      -0.685051       -18.6412
 182   2.0000      -0.681511       -18.5449
 183   2.0000      -0.669290       -18.2123
 184   2.0000      -0.665597       -18.1118
 185   2.0000      -0.664215       -18.0742
 186   2.0000      -0.653624       -17.7860
 187   2.0000      -0.648735       -17.6530
 188   2.0000      -0.640409       -17.4264
 189   2.0000      -0.637372       -17.3438
 190   2.0000      -0.630612       -17.1598
 191   2.0000      -0.625138       -17.0109
 192   2.0000      -0.623606       -16.9692
 193   2.0000      -0.622935       -16.9509
 194   2.0000      -0.619290       -16.8517
 195   2.0000      -0.614570       -16.7233
 196   2.0000      -0.608287       -16.5523
 197   2.0000      -0.601139       -16.3578
 198   2.0000      -0.591763       -16.1027
 199   2.0000      -0.590622       -16.0716
 200   2.0000      -0.588263       -16.0074
 201   2.0000      -0.586580       -15.9617
 202   2.0000      -0.581014       -15.8102
 203   2.0000      -0.579206       -15.7610
 204   2.0000      -0.569153       -15.4874
 205   2.0000      -0.562162       -15.2972
 206   2.0000      -0.559691       -15.2300
 207   2.0000      -0.557568       -15.1722
 208   2.0000      -0.555605       -15.1188
 209   2.0000      -0.555366       -15.1123
 210   2.0000      -0.552483       -15.0338
 211   2.0000      -0.552256       -15.0276
 212   2.0000      -0.549445       -14.9512
 213   2.0000      -0.548139       -14.9156
 214   2.0000      -0.548001       -14.9119
 215   2.0000      -0.540306       -14.7025
 216   2.0000      -0.538471       -14.6525
 217   2.0000      -0.535379       -14.5684
 218   2.0000      -0.532470       -14.4892
 219   2.0000      -0.526018       -14.3137
 220   2.0000      -0.522862       -14.2278
 221   2.0000      -0.517506       -14.0821
 222   2.0000      -0.515001       -14.0139
 223   2.0000      -0.513850       -13.9826
 224   2.0000      -0.513377       -13.9697
 225   2.0000      -0.511267       -13.9123
 226   2.0000      -0.510158       -13.8821
 227   2.0000      -0.508556       -13.8385
 228   2.0000      -0.506744       -13.7892
 229   2.0000      -0.504938       -13.7401
 230   2.0000      -0.501964       -13.6591
 231   2.0000      -0.499919       -13.6035
 232   2.0000      -0.499348       -13.5880
 233   2.0000      -0.497189       -13.5292
 234   2.0000      -0.495983       -13.4964
 235   2.0000      -0.495044       -13.4708
 236   2.0000      -0.491408       -13.3719
 237   2.0000      -0.486424       -13.2363
 238   2.0000      -0.483516       -13.1572
 239   2.0000      -0.478595       -13.0232
 240   2.0000      -0.476659       -12.9706
 241   2.0000      -0.471523       -12.8308
 242   2.0000      -0.471389       -12.8271
 243   2.0000      -0.469425       -12.7737
 244   2.0000      -0.467965       -12.7340
 245   2.0000      -0.467119       -12.7109
 246   2.0000      -0.465161       -12.6577
 247   2.0000      -0.464228       -12.6323
 248   2.0000      -0.461106       -12.5473
 249   2.0000      -0.458935       -12.4883
 250   2.0000      -0.457295       -12.4436
 251   2.0000      -0.456475       -12.4213
 252   2.0000      -0.455190       -12.3864
 253   2.0000      -0.454697       -12.3729
 254   2.0000      -0.452628       -12.3166
 255   2.0000      -0.448118       -12.1939
 256   2.0000      -0.448033       -12.1916
 257   2.0000      -0.446752       -12.1567
 258   2.0000      -0.444831       -12.1045
 259   2.0000      -0.442221       -12.0334
 260   2.0000      -0.441610       -12.0168
 261   2.0000      -0.441080       -12.0024
 262   2.0000      -0.440568       -11.9885
 263   2.0000      -0.439370       -11.9559
 264   2.0000      -0.434201       -11.8152
 265   2.0000      -0.434078       -11.8119
 266   2.0000      -0.433672       -11.8008
 267   2.0000      -0.433174       -11.7873
 268   2.0000      -0.431589       -11.7441
 269   2.0000      -0.430884       -11.7250
 270   2.0000      -0.430307       -11.7092
 271   2.0000      -0.428666       -11.6646
 272   2.0000      -0.423337       -11.5196
 273   2.0000      -0.422867       -11.5068
 274   2.0000      -0.419173       -11.4063
 275   2.0000      -0.416121       -11.3232
 276   2.0000      -0.415732       -11.3126
 277   2.0000      -0.411599       -11.2002
 278   2.0000      -0.409805       -11.1513
 279   2.0000      -0.406889       -11.0720
 280   2.0000      -0.406636       -11.0651
 281   2.0000      -0.396508       -10.7895
 282   2.0000      -0.386833       -10.5263
 283   2.0000      -0.385705       -10.4956
 284   2.0000      -0.384120       -10.4524
 285   2.0000      -0.382904       -10.4193
 286   2.0000      -0.381059       -10.3691
 287   2.0000      -0.364435        -9.9168
 288   2.0000      -0.362966        -9.8768
 289   2.0000      -0.355645        -9.6776
 290   2.0000      -0.353662        -9.6236
 291   2.0000      -0.351008        -9.5514
 292   2.0000      -0.347944        -9.4680
 293   2.0000      -0.347342        -9.4516
 294   2.0000      -0.345728        -9.4077
 295   2.0000      -0.342145        -9.3102
 296   2.0000      -0.336965        -9.1693
 297   2.0000      -0.328022        -8.9259
 298   2.0000      -0.326021        -8.8715
 299   2.0000      -0.316843        -8.6217
 300   2.0000      -0.314888        -8.5685
 301   2.0000      -0.308174        -8.3858
 302   2.0000      -0.281955        -7.6724
 303   2.0000      -0.248378        -6.7587
 304   0.0000      -0.139530        -3.7968
 305   0.0000      -0.112265        -3.0549
 306   0.0000      -0.103773        -2.8238
 307   0.0000      -0.093086        -2.5330
 308   0.0000      -0.091894        -2.5006

MULLIKEN ATOMIC CHARGES
-----------------------
   0 C :    0.270365
   1 C :   -0.323188
   2 C :   -0.173122
   3 N :    0.168984
   4 C :   -0.206322
   5 N :    0.171216
   6 C :    0.008711
   7 C :    0.003822
   8 C :   -0.027605
   9 C :    0.061152
  10 C :    0.045051
  11 C :   -0.009966
  12 Cl:   -0.032037
  13 Cl:   -0.042101
  14 C :    0.136018
  15 O :   -0.139900
  16 C :   -0.137681
  17 C :    0.079975
  18 C :   -0.110417
  19 C :   -0.002911
  20 C :   -0.004109
  21 C :   -0.072454
  22 S :    0.215197
  23 C :   -0.075862
  24 C :    0.050738
  25 C :    0.313917
  26 C :   -0.297596
  27 C :   -0.182984
  28 N :    0.171814
  29 C :   -0.188359
  30 N :    0.172318
  31 C :   -0.063157
  32 C :   -0.181293
  33 S :    0.215416
  34 C :    0.197962
  35 C :   -0.067142
  36 C :   -0.040884
  37 N :   -0.093758
  38 C :    0.058254
  39 C :    0.038697
  40 N :   -0.021533
  41 C :    0.163454
  42 C :    0.001566
  43 C :   -0.022263
  44 N :   -0.343226
  45 S :    0.579719
  46 N :   -0.280495
  47 C :   -0.161764
  48 C :   -0.067329
  49 C :    0.041959
  50 C :   -0.069277
  51 S :    0.209789
  52 C :   -0.086432
  53 C :   -0.013056
  54 C :    0.314485
  55 C :   -0.303538
  56 C :   -0.190536
  57 N :    0.190174
  58 C :   -0.189419
  59 N :    0.171967
  60 C :    0.008999
  61 C :   -0.114119
  62 S :    0.205559
  63 C :    0.034211
  64 C :   -0.091737
  65 C :    0.298460
  66 C :   -0.342110
  67 C :   -0.190497
  68 N :    0.159660
  69 C :   -0.198255
  70 N :    0.157650
  71 C :    0.033454
  72 C :   -0.017332
  73 C :    0.154391
  74 O :   -0.145201
  75 C :   -0.029167
  76 C :    0.060617
  77 C :    0.050115
  78 C :   -0.014634
  79 Cl:   -0.034495
  80 Cl:   -0.040010
  81 H :    0.001870
  82 H :    0.009565
  83 H :    0.023111
  84 H :    0.024361
  85 H :    0.022136
  86 H :    0.025364
  87 H :    0.037897
  88 H :    0.021514
  89 H :    0.037961
  90 H :    0.015321
  91 H :    0.003487
  92 H :    0.000846
Sum of atomic charges:   -0.0000000

LOEWDIN ATOMIC CHARGES
----------------------
   0 C :    0.063890
   1 C :   -0.131703
   2 C :   -0.021222
   3 N :   -0.038443
   4 C :   -0.015332
   5 N :   -0.041955
   6 C :   -0.010294
   7 C :   -0.046799
   8 C :    0.001774
   9 C :   -0.135245
  10 C :   -0.129303
  11 C :   -0.012150
  12 Cl:    0.165507
  13 Cl:    0.159826
  14 C :    0.083797
  15 O :   -0.138182
  16 C :   -0.095243
  17 C :    0.043080
  18 C :   -0.181315
  19 C :    0.011507
  20 C :   -0.064065
  21 C :   -0.155236
  22 S :    0.499678
  23 C :   -0.188079
  24 C :   -0.062619
  25 C :    0.082832
  26 C :   -0.099897
  27 C :   -0.013758
  28 N :   -0.034542
  29 C :   -0.013417
  30 N :   -0.033475
  31 C :   -0.011013
  32 C :   -0.155019
  33 S :    0.517802
  34 C :   -0.041757
  35 C :   -0.005453
  36 C :   -0.013085
  37 N :   -0.050740
  38 C :    0.028869
  39 C :    0.024509
  40 N :   -0.016889
  41 C :   -0.042416
  42 C :   -0.038298
  43 C :   -0.047483
  44 N :   -0.307403
  45 S :    0.697393
  46 N :   -0.270544
  47 C :   -0.154082
  48 C :   -0.015034
  49 C :   -0.058936
  50 C :   -0.196146
  51 S :    0.513243
  52 C :   -0.154651
  53 C :   -0.072562
  54 C :    0.076219
  55 C :   -0.096513
  56 C :   -0.021783
  57 N :   -0.019708
  58 C :   -0.015095
  59 N :   -0.032805
  60 C :    0.021515
  61 C :   -0.177858
  62 S :    0.493787
  63 C :    0.043710
  64 C :   -0.100606
  65 C :    0.074754
  66 C :   -0.137997
  67 C :   -0.020572
  68 N :   -0.046312
  69 C :   -0.024372
  70 N :   -0.049643
  71 C :   -0.014579
  72 C :   -0.042909
  73 C :    0.085568
  74 O :   -0.132076
  75 C :    0.002197
  76 C :   -0.133907
  77 C :   -0.130413
  78 C :   -0.012555
  79 Cl:    0.162850
  80 Cl:    0.160960
  81 H :    0.046590
  82 H :    0.046438
  83 H :    0.046483
  84 H :    0.042696
  85 H :    0.037345
  86 H :    0.033317
  87 H :    0.037253
  88 H :    0.038380
  89 H :    0.044604
  90 H :    0.043376
  91 H :    0.047311
  92 H :    0.044426

  Mayer bond orders larger than 0.100000
B(  0-C ,  1-C ) :   1.6540 B(  0-C ,  6-C ) :   1.0008 B(  0-C , 16-C ) :   1.0416
B(  1-C ,  2-C ) :   1.1226 B(  1-C ,  4-C ) :   1.1739 B(  2-C ,  3-N ) :   2.9964
B(  4-C ,  5-N ) :   2.9957 B(  6-C ,  7-C ) :   1.3321 B(  6-C , 11-C ) :   1.3463
B(  7-C ,  8-C ) :   1.3504 B(  7-C , 14-C ) :   0.9199 B(  8-C ,  9-C ) :   1.3428
B(  8-C , 81-H ) :   1.0169 B(  9-C , 10-C ) :   1.4069 B(  9-C , 13-Cl) :   1.0475
B( 10-C , 11-C ) :   1.3589 B( 10-C , 12-Cl) :   1.0729 B( 11-C , 82-H ) :   0.9906
B( 14-C , 15-O ) :   2.2646 B( 14-C , 16-C ) :   0.9492 B( 16-C , 17-C ) :   1.6549
B( 17-C , 18-C ) :   1.1521 B( 17-C , 83-H ) :   0.9271 B( 18-C , 19-C ) :   1.3808
B( 18-C , 22-S ) :   1.0859 B( 19-C , 20-C ) :   1.3688 B( 19-C , 84-H ) :   0.9785
B( 20-C , 21-C ) :   1.3925 B( 20-C , 25-C ) :   0.9964 B( 21-C , 22-S ) :   1.1551
B( 21-C , 23-C ) :   1.2081 B( 23-C , 24-C ) :   1.3945 B( 23-C , 33-S ) :   1.0937
B( 24-C , 25-C ) :   0.9933 B( 24-C , 31-C ) :   1.2674 B( 25-C , 26-C ) :   1.7127
B( 26-C , 27-C ) :   1.1391 B( 26-C , 29-C ) :   1.1361 B( 27-C , 28-N ) :   2.9889
B( 29-C , 30-N ) :   2.9841 B( 31-C , 32-C ) :   1.4057 B( 31-C , 85-H ) :   0.9806
B( 32-C , 33-S ) :   1.1064 B( 32-C , 34-C ) :   1.1935 B( 34-C , 35-C ) :   1.2690
B( 34-C , 41-C ) :   0.1335 B( 34-C , 43-C ) :   1.1987 B( 35-C , 36-C ) :   1.1273
B( 35-C , 40-N ) :   1.4698 B( 36-C , 37-N ) :   1.3896 B( 36-C , 41-C ) :   1.2701
B( 37-N , 38-C ) :   1.6529 B( 38-C , 39-C ) :   1.1908 B( 38-C , 86-H ) :   0.9736
B( 39-C , 40-N ) :   1.6690 B( 39-C , 87-H ) :   0.9754 B( 41-C , 42-C ) :   1.2118
B( 41-C , 47-C ) :   1.1995 B( 42-C , 43-C ) :   1.1097 B( 42-C , 46-N ) :   1.5026
B( 43-C , 44-N ) :   1.4580 B( 44-N , 45-S ) :   1.2752 B( 44-N , 46-N ) :   0.1535
B( 45-S , 46-N ) :   1.2949 B( 47-C , 48-C ) :   1.4111 B( 47-C , 51-S ) :   1.1018
B( 48-C , 49-C ) :   1.2831 B( 48-C , 88-H ) :   0.9823 B( 49-C , 50-C ) :   1.3979
B( 49-C , 54-C ) :   0.9911 B( 50-C , 51-S ) :   1.0587 B( 50-C , 52-C ) :   1.2201
B( 52-C , 53-C ) :   1.3632 B( 52-C , 62-S ) :   1.1660 B( 53-C , 54-C ) :   0.9925
B( 53-C , 60-C ) :   1.3367 B( 54-C , 55-C ) :   1.7129 B( 55-C , 56-C ) :   1.1347
B( 55-C , 58-C ) :   1.1421 B( 56-C , 57-N ) :   2.9962 B( 58-C , 59-N ) :   2.9841
B( 60-C , 61-C ) :   1.3864 B( 60-C , 89-H ) :   0.9732 B( 61-C , 62-S ) :   1.0714
B( 61-C , 63-C ) :   1.2240 B( 63-C , 64-C ) :   1.5793 B( 63-C , 90-H ) :   0.9188
B( 64-C , 65-C ) :   1.0844 B( 64-C , 73-C ) :   0.9470 B( 65-C , 66-C ) :   1.6337
B( 65-C , 71-C ) :   0.9907 B( 66-C , 67-C ) :   1.1410 B( 66-C , 69-C ) :   1.1411
B( 67-C , 68-N ) :   2.9757 B( 69-C , 70-N ) :   2.9848 B( 71-C , 72-C ) :   1.3308
B( 71-C , 78-C ) :   1.3424 B( 72-C , 73-C ) :   0.9490 B( 72-C , 75-C ) :   1.3462
B( 73-C , 74-O ) :   2.1883 B( 75-C , 76-C ) :   1.3389 B( 75-C , 91-H ) :   1.0182
B( 76-C , 77-C ) :   1.4048 B( 76-C , 80-Cl) :   1.0506 B( 77-C , 78-C ) :   1.3579
B( 77-C , 79-Cl) :   1.0766 B( 78-C , 92-H ) :   0.9879

-----------------------------------------------------------------------------
         ABSORPTION SPECTRUM VIA TRANSITION ELECTRIC DIPOLE MOMENTS
-----------------------------------------------------------------------------
State   Energy  Wavelength   fosc         T2         TX        TY        TZ
        (cm-1)    (nm)                  (au**2)     (au)      (au)      (au)
-----------------------------------------------------------------------------
   0    9197.0   1087.3   1.231516068  44.08292  -2.08380  -6.20800   1.09612
   1   13410.0    745.7   0.003208881   0.07878   0.08040  -0.23297   0.13431
   2   14621.9    683.9   0.003544087   0.07980   0.02661   0.21928   0.17608
   3   17653.6    566.5   0.005629328   0.10498  -0.14307   0.10829  -0.26978
   4   19619.0    509.7   0.565185622   9.48397  -1.46888  -2.69047   0.29617
   5   20634.3    484.6   0.671069776  10.70663   0.98466   2.82110  -1.33359
   6   22571.7    443.0   0.065875014   0.96080  -0.58100  -0.68829   0.38666
   7   23287.0    429.4   0.001192767   0.01686  -0.11176   0.03942  -0.05308
   8   24475.3    408.6   0.060688910   0.81631  -0.32488  -0.66784   0.51454
   9   24974.1    400.4   0.117572199   1.54985  -0.24802  -1.21159  -0.14275
  10   25406.1    393.6   0.032379474   0.41957  -0.04002  -0.53541   0.36236
  11   25847.7    386.9   0.035693872   0.45462   0.01231   0.51787  -0.43160
  12   25925.3    385.7   0.048502893   0.61591  -0.42984  -0.14732   0.63988
  13   26192.9    381.8   0.097564629   1.22626  -0.16469  -1.06232  -0.26573
  14   27242.9    367.1   0.089375235   1.08004   0.31511   0.71463  -0.68559
  15   27539.2    363.1   0.209881621   2.50899  -0.25214   1.56375  -0.01025
  16   27851.4    359.0   0.035055356   0.41436  -0.23082   0.59517   0.08281
  17   28330.3    353.0   0.010005992   0.11627  -0.00929  -0.20570   0.27180
  18   28708.3    348.3   0.039989598   0.45858  -0.64701  -0.18010   0.08675
  19   29343.1    340.8   0.043500944   0.48805  -0.34967  -0.28887   0.53135
  20   29726.7    336.4   0.039098681   0.43300   0.18235   0.62161  -0.11553
  21   30023.6    333.1   0.007255518   0.07956   0.23831   0.08862   0.12211
  22   30111.5    332.1   0.198746759   2.17291  -0.65015  -0.20456   1.30705
  23   30790.0    324.8   0.242205968   2.58971  -0.27947  -1.55546   0.30354
  24   30983.2    322.8   0.118108345   1.25496   0.02800  -1.08704  -0.26931
  25   31148.6    321.0   0.429286547   4.53717   0.30002  -1.57128  -1.40650
  26   31235.3    320.2   0.002843466   0.02997   0.01391   0.14177   0.09837
  27   31478.2    317.7   0.159649942   1.66968   0.23583   1.26412   0.12672
  28   31931.8    313.2   0.221077230   2.27927  -0.15270  -1.05230  -1.07174
  29   32055.5    312.0   0.037485945   0.38498   0.38424   0.48550   0.04037
  30   32284.3    309.7   0.012747956   0.12999   0.05362  -0.00496  -0.35650
  31   32310.0    309.5   0.158673726   1.61675  -0.05984   1.18384  -0.46010
  32   32666.7    306.1   0.059898406   0.60365  -0.13844  -0.50891   0.57052
  33   32812.2    304.8   0.014360722   0.14408   0.32580  -0.19189   0.03344
  34   33224.9    301.0   0.140319437   1.39037   0.55234   0.63667  -0.82458
  35   33280.5    300.5   0.025208892   0.24937  -0.26941   0.28292   0.31103
  36   33592.5    297.7   0.077289536   0.75745   0.51845  -0.54174  -0.44179
  37   33801.3    295.8   0.036999487   0.36036  -0.14925   0.55509   0.17309
  38   33830.3    295.6   0.004056211   0.03947   0.10031   0.01430   0.17089
  39   34251.7    292.0   0.126786463   1.21862   0.17970   0.53529  -0.94857
  40   34430.5    290.4   0.070818209   0.67714   0.46626  -0.14806  -0.66168
  41   34448.9    290.3   0.122232869   1.16812   0.41566  -0.97790  -0.19766
  42   34597.0    289.0   0.137311495   1.30661   0.66770  -0.86319  -0.34014
  43   34771.2    287.6   0.053335469   0.50498  -0.00407  -0.39136  -0.59312
  44   35204.2    284.1   0.075625283   0.70721  -0.33655  -0.75861   0.13587
  45   35233.1    283.8   0.119017477   1.11208   0.24920  -0.89443  -0.49997
  46   35345.9    282.9   0.242031172   2.25428   0.02237  -1.26913   0.80193
  47   35500.4    281.7   0.001105524   0.01025   0.09380  -0.03169  -0.02121
  48   35638.9    280.6   0.547739824   5.05971   0.69566   0.53851  -2.07021
  49   35727.6    279.9   0.026818574   0.24712  -0.24063   0.43227   0.04859
  50   35732.4    279.9   0.364336955   3.35673   1.27710  -0.71808  -1.10005
  51   35810.1    279.3   0.267586608   2.45999  -0.39919   1.50211   0.21047
  52   36025.4    277.6   0.287567911   2.62789  -0.32085   0.09491   1.58617
  53   36482.6    274.1   0.005795865   0.05230  -0.16611  -0.15161   0.04153
  54   37118.2    269.4   0.048719228   0.43211  -0.33958  -0.45177   0.33570
  55   37315.5    268.0   0.031113091   0.27449  -0.30729   0.24844   0.34401
  56   37370.4    267.6   0.120286232   1.05965   0.27328  -0.29174  -0.94861
  57   37697.0    265.3   0.127629933   1.11461  -0.51004  -0.35266   0.85446
  58   37746.0    264.9   0.012535690   0.10933   0.22172   0.17954  -0.16714
  59   38230.0    261.6   0.095775525   0.82476   0.06888  -0.31444  -0.84920
  60   38291.7    261.2   0.015616377   0.13426   0.20045   0.19227  -0.23899
  61   38504.9    259.7   0.067489914   0.57703  -0.24102  -0.68415   0.22557
  62   38635.9    258.8   0.073803172   0.62887  -0.39729  -0.44626   0.52143
  63   38841.8    257.5   0.067906712   0.57556   0.00701  -0.19755  -0.73245
  64   39045.1    256.1   0.012124743   0.10223   0.13937   0.22258  -0.18239
  65   39139.7    255.5   0.073471404   0.61798  -0.36146  -0.06785   0.69478
  66   39367.6    254.0   0.050387935   0.42137  -0.05784   0.43664   0.47683
  67   39764.6    251.5   0.015898541   0.13162  -0.23304   0.21338   0.17829
  68   39868.4    250.8   0.067775216   0.55965  -0.44215   0.38965   0.46079
  69   40055.0    249.7   0.012931864   0.10629  -0.08309   0.31141  -0.04904
  70   40207.7    248.7   0.011346955   0.09291   0.03494   0.29826   0.05222

FINAL SINGLE POINT ENERGY     -6851.435167617145

DIPOLE MOMENT
-------------
                                X             Y             Z
Electronic contribution:      7.91501      -1.84835      -3.91674
Nuclear contribution   :     -7.71490       2.88470       2.48478
                        -----------------------------------------
Total Dipole Moment    :      0.20011       1.03634      -1.43196
                        -----------------------------------------
Magnitude (a.u.)       :      1.77892
Magnitude (Debye)      :      4.52166

Rotational constants in cm-1:     0.002544     0.000128     0.000124
Rotational constants in MHz :    76.265708     3.836003     3.713630

                             ****ORCA TERMINATED NORMALLY****
TOTAL RUN TIME: 0 days 0 hours 15 minutes 5 seconds 340 msec
