                         Program Version 4.2.0 -  RELEASE  -
|  1> # ORCA input file
|  2> # SCF done       -228.841768396647          0.000965759163
|  3> ! CAM-B3LYP def2-SVP def2/J RIJCOSX Grid4 TightSCF
|  4> %maxcore 5000
|  5> %tddft
|  6>     Mode sTDDFT
|  7>     Ethresh 5.0
|  8>     maxcore 5000
|  9> end
| 10>
| 11> %pal
| 12>   nprocs 6
| 13>   end
| 14> * xyz 0 1
| 15>    C       -3.62865         2.36836         5.44179
| 16>    C       -4.47354         2.96982         6.33178
| 17>    F       -4.15059         4.15112         6.87375
| 18>    C       -5.69128         2.35759         6.69133
| 19>    F       -6.49843         2.96937         7.56800
| 20>    C       -6.04773         1.15210         6.15485
| 21>    C       -5.19785         0.50640         5.23594
| 22>    C       -3.96628         1.12445         4.87143
| 23>    C       -3.09659         0.49492         3.95188
| 24>    C       -3.44811        -0.71589         3.41566
| 25>    C       -4.67602        -1.32797         3.78960
| 26>    C       -5.53757        -0.74368         4.67258
| 27>    C       -4.81587        -2.62518         3.09871
| 28>    O       -5.74298        -3.39714         3.21088
| 29>    C       -3.56128        -2.79767         2.32520
| 30>    C       -2.76947        -1.58912         2.46440
| 31>    C       -1.63380        -1.27405         1.76456
| 32>    C       -1.04388        -2.08052         0.76810
| 33>    N       -0.52807        -2.67103        -0.07094
| 34>    C       -0.92107        -0.06677         1.92278
| 35>    N       -0.29438         0.89031         2.01550
| 36>    C       -3.10769        -3.95250         1.74807
| 37>    C       -3.80017        -5.14609         1.46563
| 38>    C       -5.15630        -5.42536         1.34319
| 39>    C       -5.38729        -6.74991         0.99874
| 40>    C       -4.19864        -7.50429         0.86439
| 41>    S       -2.80534        -6.56853         1.12002
| 42>    C       -4.54153        -8.83876         0.54905
| 43>    C       -5.94600        -8.93419         0.47636
| 44>    C       -6.52079        -7.62168         0.73685
| 45>    C       -7.84114        -7.28322         0.70797
| 46>    C       -8.84328        -8.23723         0.42966
| 47>    N       -9.65202        -9.01686         0.20009
| 48>    C       -8.29995        -5.96483         0.92103
| 49>    N       -8.69926        -4.90140         1.07243
| 50>    C       -6.38162       -10.21969         0.17984
| 51>    C       -5.32587       -11.11471         0.04066
| 52>    S       -3.77085       -10.33725         0.28536
| 53>    C       -5.40399       -12.49740        -0.29257
| 54>    C       -6.55178       -13.09532        -0.71817
| 55>    C       -6.62142       -14.45991        -1.08706
| 56>    C       -5.59352       -15.32805        -0.87939
| 57>    C       -4.36184       -14.83769        -0.14971
| 58>    C       -4.12465       -13.31964        -0.27605
| 59>    N       -3.25179       -12.81579         0.75721
| 60>    C       -3.22684       -13.39467         1.87465
| 61>    C       -3.98759       -14.63062         2.13964
| 62>    N       -4.50806       -15.30294         1.21425
| 63>    F       -4.11829       -15.02612         3.39784
| 64>    F       -2.46424       -12.90575         2.84172
| 65>    C       -5.64868       -16.71328        -1.19495
| 66>    C       -6.64199       -17.40179        -1.87989
| 67>    C       -6.34674       -18.75359        -2.01576
| 68>    C       -5.11963       -19.11011        -1.42281
| 69>    S       -4.33795       -17.77638        -0.70537
| 70>    C       -4.89803       -20.49149        -1.63211
| 71>    C       -5.98861       -21.01168        -2.36121
| 72>    C       -6.92857       -19.93811        -2.63001
| 73>    C       -8.08637       -20.02412        -3.34556
| 74>    C       -8.50835       -21.24441        -3.91478
| 75>    N       -8.83573       -22.24501        -4.36893
| 76>    C       -8.91877       -18.90573        -3.56030
| 77>    N       -9.59235       -17.99298        -3.72527
| 78>    C       -5.84028       -22.35717        -2.66775
| 79>    C       -4.64718       -22.87772        -2.18511
| 80>    S       -3.71903       -21.67066        -1.29996
| 81>    C       -4.14022       -24.18986        -2.29180
| 82>    C       -4.48238       -25.17150        -3.17311
| 83>    C       -4.12283       -26.58044        -2.84226
| 84>    O       -3.37265       -26.94424        -1.96704
| 85>    C       -4.91493       -27.41182        -3.76866
| 86>    C       -5.03975       -28.77062        -3.81030
| 87>    C       -5.89101       -29.35210        -4.77650
| 88>    C       -6.60835       -28.50945        -5.67500
| 89>    C       -7.46499       -29.09554        -6.62834
| 90>    C       -7.59830       -30.45425        -6.69111
| 91>    C       -6.88526       -31.28687        -5.80481
| 92>    C       -6.04966       -30.74874        -4.86661
| 93>    F       -7.03506       -32.61514        -5.88951
| 94>    F       -8.41037       -31.01007        -7.59883
| 95>    C       -6.45335       -27.10562        -5.61275
| 96>    C       -5.60846       -26.56591        -4.68051
| 97>    C       -5.22394       -25.18075        -4.41597
| 98>    C       -5.32597       -24.16030        -5.32579
| 99>    C       -4.73485       -22.89270        -5.16454
|100>    N       -4.25114       -21.85371        -5.09193
|101>    C       -5.95211       -24.29046        -6.58383
|102>    N       -6.44381       -24.34215        -7.61910
|103>    H       -2.70115         2.85128         5.17634
|104>    H       -6.98305         0.69647         6.43995
|105>    H       -2.16920         0.98416         3.70160
|106>    H       -6.46428        -1.22986         4.93695
|107>    H       -2.05498        -3.98833         1.49111
|108>    H       -5.91971        -4.68698         1.50255
|109>    H       -7.41315       -10.50304         0.08534
|110>    H       -7.45506       -12.51316        -0.80423
|111>    H       -7.53986       -14.80785        -1.53174
|112>    H       -3.47828       -15.35860        -0.54811
|113>    H       -3.60566       -13.11755        -1.22444
|114>    H       -7.52551       -16.93150        -2.26921
|115>    H       -6.57283       -22.95308        -3.18112
|116>    H       -3.41661       -24.48823        -1.53886
|117>    H       -4.49685       -29.39352        -3.11589
|118>    H       -8.01470       -28.47270        -7.31656
|119>    H       -5.51168       -31.39961        -4.19531
|120>    H       -7.01547       -26.49071        -6.29724
|121> *
|122>
|123>                          ****END OF INPUT****

CARTESIAN COORDINATES (ANGSTROEM)
---------------------------------
  C     -3.628650    2.368360    5.441790
  C     -4.473540    2.969820    6.331780
  F     -4.150590    4.151120    6.873750
  C     -5.691280    2.357590    6.691330
  F     -6.498430    2.969370    7.568000
  C     -6.047730    1.152100    6.154850
  C     -5.197850    0.506400    5.235940
  C     -3.966280    1.124450    4.871430
  C     -3.096590    0.494920    3.951880
  C     -3.448110   -0.715890    3.415660
  C     -4.676020   -1.327970    3.789600
  C     -5.537570   -0.743680    4.672580
  C     -4.815870   -2.625180    3.098710
  O     -5.742980   -3.397140    3.210880
  C     -3.561280   -2.797670    2.325200
  C     -2.769470   -1.589120    2.464400
  C     -1.633800   -1.274050    1.764560
  C     -1.043880   -2.080520    0.768100
  N     -0.528070   -2.671030   -0.070940
  C     -0.921070   -0.066770    1.922780
  N     -0.294380    0.890310    2.015500
  C     -3.107690   -3.952500    1.748070
  C     -3.800170   -5.146090    1.465630
  C     -5.156300   -5.425360    1.343190
  C     -5.387290   -6.749910    0.998740
  C     -4.198640   -7.504290    0.864390
  S     -2.805340   -6.568530    1.120020
  C     -4.541530   -8.838760    0.549050
  C     -5.946000   -8.934190    0.476360
  C     -6.520790   -7.621680    0.736850
  C     -7.841140   -7.283220    0.707970
  C     -8.843280   -8.237230    0.429660
  N     -9.652020   -9.016860    0.200090
  C     -8.299950   -5.964830    0.921030
  N     -8.699260   -4.901400    1.072430
  C     -6.381620  -10.219690    0.179840
  C     -5.325870  -11.114710    0.040660
  S     -3.770850  -10.337250    0.285360
  C     -5.403990  -12.497400   -0.292570
  C     -6.551780  -13.095320   -0.718170
  C     -6.621420  -14.459910   -1.087060
  C     -5.593520  -15.328050   -0.879390
  C     -4.361840  -14.837690   -0.149710
  C     -4.124650  -13.319640   -0.276050
  N     -3.251790  -12.815790    0.757210
  C     -3.226840  -13.394670    1.874650
  C     -3.987590  -14.630620    2.139640
  N     -4.508060  -15.302940    1.214250
  F     -4.118290  -15.026120    3.397840
  F     -2.464240  -12.905750    2.841720
  C     -5.648680  -16.713280   -1.194950
  C     -6.641990  -17.401790   -1.879890
  C     -6.346740  -18.753590   -2.015760
  C     -5.119630  -19.110110   -1.422810
  S     -4.337950  -17.776380   -0.705370
  C     -4.898030  -20.491490   -1.632110
  C     -5.988610  -21.011680   -2.361210
  C     -6.928570  -19.938110   -2.630010
  C     -8.086370  -20.024120   -3.345560
  C     -8.508350  -21.244410   -3.914780
  N     -8.835730  -22.245010   -4.368930
  C     -8.918770  -18.905730   -3.560300
  N     -9.592350  -17.992980   -3.725270
  C     -5.840280  -22.357170   -2.667750
  C     -4.647180  -22.877720   -2.185110
  S     -3.719030  -21.670660   -1.299960
  C     -4.140220  -24.189860   -2.291800
  C     -4.482380  -25.171500   -3.173110
  C     -4.122830  -26.580440   -2.842260
  O     -3.372650  -26.944240   -1.967040
  C     -4.914930  -27.411820   -3.768660
  C     -5.039750  -28.770620   -3.810300
  C     -5.891010  -29.352100   -4.776500
  C     -6.608350  -28.509450   -5.675000
  C     -7.464990  -29.095540   -6.628340
  C     -7.598300  -30.454250   -6.691110
  C     -6.885260  -31.286870   -5.804810
  C     -6.049660  -30.748740   -4.866610
  F     -7.035060  -32.615140   -5.889510
  F     -8.410370  -31.010070   -7.598830
  C     -6.453350  -27.105620   -5.612750
  C     -5.608460  -26.565910   -4.680510
  C     -5.223940  -25.180750   -4.415970
  C     -5.325970  -24.160300   -5.325790
  C     -4.734850  -22.892700   -5.164540
  N     -4.251140  -21.853710   -5.091930
  C     -5.952110  -24.290460   -6.583830
  N     -6.443810  -24.342150   -7.619100
  H     -2.701150    2.851280    5.176340
  H     -6.983050    0.696470    6.439950
  H     -2.169200    0.984160    3.701600
  H     -6.464280   -1.229860    4.936950
  H     -2.054980   -3.988330    1.491110
  H     -5.919710   -4.686980    1.502550
  H     -7.413150  -10.503040    0.085340
  H     -7.455060  -12.513160   -0.804230
  H     -7.539860  -14.807850   -1.531740
  H     -3.478280  -15.358600   -0.548110
  H     -3.605660  -13.117550   -1.224440
  H     -7.525510  -16.931500   -2.269210
  H     -6.572830  -22.953080   -3.181120
  H     -3.416610  -24.488230   -1.538860
  H     -4.496850  -29.393520   -3.115890
  H     -8.014700  -28.472700   -7.316560
  H     -5.511680  -31.399610   -4.195310
  H     -7.015470  -26.490710   -6.297240

 Total Charge           Charge          ....    0
 Multiplicity           Mult            ....    1
 Number of Electrons    NEL             ....  618
 Basis Dimension        Dim             .... 1338

ORBITAL ENERGIES
----------------

  NO   OCC          E(Eh)            E(eV)
   0   2.0000     -89.002937     -2421.8930
   1   2.0000     -89.002799     -2421.8893
   2   2.0000     -88.999608     -2421.8025
   3   2.0000     -88.998532     -2421.7732
   4   2.0000     -24.833099      -675.7430
   5   2.0000     -24.827419      -675.5884
   6   2.0000     -24.800222      -674.8484
   7   2.0000     -24.799303      -674.8233
   8   2.0000     -24.798955      -674.8139
   9   2.0000     -24.798188      -674.7930
  10   2.0000     -19.221503      -523.0437
  11   2.0000     -19.221063      -523.0317
  12   2.0000     -14.461151      -393.5079
  13   2.0000     -14.457745      -393.4152
  14   2.0000     -14.439519      -392.9193
  15   2.0000     -14.439293      -392.9131
  16   2.0000     -14.437111      -392.8538
  17   2.0000     -14.432952      -392.7406
  18   2.0000     -14.424119      -392.5002
  19   2.0000     -14.419149      -392.3650
  20   2.0000     -14.419027      -392.3617
  21   2.0000     -14.417384      -392.3170
  22   2.0000     -10.449130      -284.3353
  23   2.0000     -10.443129      -284.1720
  24   2.0000     -10.383484      -282.5490
  25   2.0000     -10.382910      -282.5333
  26   2.0000     -10.382218      -282.5145
  27   2.0000     -10.381553      -282.4964
  28   2.0000     -10.374573      -282.3065
  29   2.0000     -10.373437      -282.2756
  30   2.0000     -10.372470      -282.2492
  31   2.0000     -10.371315      -282.2178
  32   2.0000     -10.362043      -281.9655
  33   2.0000     -10.359698      -281.9017
  34   2.0000     -10.358997      -281.8826
  35   2.0000     -10.358080      -281.8577
  36   2.0000     -10.350761      -281.6585
  37   2.0000     -10.350296      -281.6459
  38   2.0000     -10.349682      -281.6292
  39   2.0000     -10.348843      -281.6063
  40   2.0000     -10.345118      -281.5050
  41   2.0000     -10.344240      -281.4811
  42   2.0000     -10.342232      -281.4264
  43   2.0000     -10.339621      -281.3554
  44   2.0000     -10.339447      -281.3506
  45   2.0000     -10.338919      -281.3363
  46   2.0000     -10.337849      -281.3072
  47   2.0000     -10.337468      -281.2968
  48   2.0000     -10.334916      -281.2274
  49   2.0000     -10.334348      -281.2119
  50   2.0000     -10.332346      -281.1574
  51   2.0000     -10.332060      -281.1496
  52   2.0000     -10.331742      -281.1410
  53   2.0000     -10.331712      -281.1402
  54   2.0000     -10.325491      -280.9709
  55   2.0000     -10.324664      -280.9484
  56   2.0000     -10.322220      -280.8819
  57   2.0000     -10.322163      -280.8803
  58   2.0000     -10.321422      -280.8602
  59   2.0000     -10.320333      -280.8305
  60   2.0000     -10.319764      -280.8151
  61   2.0000     -10.318242      -280.7736
  62   2.0000     -10.315410      -280.6966
  63   2.0000     -10.314372      -280.6683
  64   2.0000     -10.313494      -280.6444
  65   2.0000     -10.313201      -280.6365
  66   2.0000     -10.313106      -280.6339
  67   2.0000     -10.312942      -280.6294
  68   2.0000     -10.312438      -280.6157
  69   2.0000     -10.311768      -280.5975
  70   2.0000     -10.311518      -280.5907
  71   2.0000     -10.311333      -280.5856
  72   2.0000     -10.311265      -280.5838
  73   2.0000     -10.308712      -280.5143
  74   2.0000     -10.307907      -280.4924
  75   2.0000     -10.307005      -280.4679
  76   2.0000     -10.306460      -280.4530
  77   2.0000     -10.306226      -280.4467
  78   2.0000     -10.305266      -280.4205
  79   2.0000     -10.304658      -280.4040
  80   2.0000     -10.303769      -280.3798
  81   2.0000     -10.303406      -280.3699
  82   2.0000     -10.303380      -280.3692
  83   2.0000     -10.302253      -280.3386
  84   2.0000     -10.301792      -280.3260
  85   2.0000     -10.301211      -280.3102
  86   2.0000     -10.297491      -280.2090
  87   2.0000     -10.294660      -280.1319
  88   2.0000      -8.097528      -220.3449
  89   2.0000      -8.097206      -220.3362
  90   2.0000      -8.094522      -220.2631
  91   2.0000      -8.091829      -220.1899
  92   2.0000      -6.066690      -165.0830
  93   2.0000      -6.066399      -165.0751
  94   2.0000      -6.063619      -164.9995
  95   2.0000      -6.062525      -164.9697
  96   2.0000      -6.062174      -164.9602
  97   2.0000      -6.061179      -164.9331
  98   2.0000      -6.060013      -164.9013
  99   2.0000      -6.059759      -164.8944
 100   2.0000      -6.059500      -164.8874
 101   2.0000      -6.057032      -164.8202
 102   2.0000      -6.056583      -164.8080
 103   2.0000      -6.054411      -164.7489
 104   2.0000      -1.361399       -37.0456
 105   2.0000      -1.345886       -36.6234
 106   2.0000      -1.322879       -35.9974
 107   2.0000      -1.321584       -35.9621
 108   2.0000      -1.307990       -35.5922
 109   2.0000      -1.306703       -35.5572
 110   2.0000      -1.137450       -30.9516
 111   2.0000      -1.136929       -30.9374
 112   2.0000      -1.113523       -30.3005
 113   2.0000      -1.057593       -28.7786
 114   2.0000      -1.054394       -28.6915
 115   2.0000      -1.045630       -28.4530
 116   2.0000      -1.031512       -28.0689
 117   2.0000      -1.027734       -27.9661
 118   2.0000      -1.026046       -27.9201
 119   2.0000      -1.022594       -27.8262
 120   2.0000      -1.017252       -27.6808
 121   2.0000      -1.012844       -27.5609
 122   2.0000      -1.012001       -27.5379
 123   2.0000      -1.008604       -27.4455
 124   2.0000      -1.007967       -27.4282
 125   2.0000      -1.006115       -27.3778
 126   2.0000      -0.999160       -27.1885
 127   2.0000      -0.997002       -27.1298
 128   2.0000      -0.986240       -26.8370
 129   2.0000      -0.984041       -26.7771
 130   2.0000      -0.980586       -26.6831
 131   2.0000      -0.970306       -26.4034
 132   2.0000      -0.961651       -26.1678
 133   2.0000      -0.938478       -25.5373
 134   2.0000      -0.936222       -25.4759
 135   2.0000      -0.930111       -25.3096
 136   2.0000      -0.923022       -25.1167
 137   2.0000      -0.910024       -24.7630
 138   2.0000      -0.903859       -24.5953
 139   2.0000      -0.896775       -24.4025
 140   2.0000      -0.894924       -24.3521
 141   2.0000      -0.892790       -24.2941
 142   2.0000      -0.891566       -24.2607
 143   2.0000      -0.885489       -24.0954
 144   2.0000      -0.882471       -24.0132
 145   2.0000      -0.872606       -23.7448
 146   2.0000      -0.868377       -23.6297
 147   2.0000      -0.864569       -23.5261
 148   2.0000      -0.863747       -23.5037
 149   2.0000      -0.843671       -22.9574
 150   2.0000      -0.841795       -22.9064
 151   2.0000      -0.829463       -22.5708
 152   2.0000      -0.822352       -22.3773
 153   2.0000      -0.806718       -21.9519
 154   2.0000      -0.801321       -21.8050
 155   2.0000      -0.796133       -21.6639
 156   2.0000      -0.786505       -21.4019
 157   2.0000      -0.785080       -21.3631
 158   2.0000      -0.774343       -21.0710
 159   2.0000      -0.769513       -20.9395
 160   2.0000      -0.769318       -20.9342
 161   2.0000      -0.758077       -20.6283
 162   2.0000      -0.743683       -20.2366
 163   2.0000      -0.736564       -20.0429
 164   2.0000      -0.723756       -19.6944
 165   2.0000      -0.722076       -19.6487
 166   2.0000      -0.718973       -19.5643
 167   2.0000      -0.715141       -19.4600
 168   2.0000      -0.714191       -19.4341
 169   2.0000      -0.705505       -19.1978
 170   2.0000      -0.698954       -19.0195
 171   2.0000      -0.697217       -18.9723
 172   2.0000      -0.694531       -18.8991
 173   2.0000      -0.689695       -18.7676
 174   2.0000      -0.688882       -18.7454
 175   2.0000      -0.684864       -18.6361
 176   2.0000      -0.682936       -18.5836
 177   2.0000      -0.676772       -18.4159
 178   2.0000      -0.668159       -18.1815
 179   2.0000      -0.666555       -18.1379
 180   2.0000      -0.657962       -17.9041
 181   2.0000      -0.657162       -17.8823
 182   2.0000      -0.652932       -17.7672
 183   2.0000      -0.645629       -17.5685
 184   2.0000      -0.643915       -17.5218
 185   2.0000      -0.643287       -17.5047
 186   2.0000      -0.641200       -17.4479
 187   2.0000      -0.634070       -17.2539
 188   2.0000      -0.628185       -17.0938
 189   2.0000      -0.626672       -17.0526
 190   2.0000      -0.625294       -17.0151
 191   2.0000      -0.623860       -16.9761
 192   2.0000      -0.619957       -16.8699
 193   2.0000      -0.614819       -16.7301
 194   2.0000      -0.612031       -16.6542
 195   2.0000      -0.606995       -16.5172
 196   2.0000      -0.597681       -16.2637
 197   2.0000      -0.596328       -16.2269
 198   2.0000      -0.590455       -16.0671
 199   2.0000      -0.589162       -16.0319
 200   2.0000      -0.587304       -15.9813
 201   2.0000      -0.586091       -15.9483
 202   2.0000      -0.584302       -15.8997
 203   2.0000      -0.583013       -15.8646
 204   2.0000      -0.577728       -15.7208
 205   2.0000      -0.573571       -15.6077
 206   2.0000      -0.570921       -15.5355
 207   2.0000      -0.567382       -15.4392
 208   2.0000      -0.560879       -15.2623
 209   2.0000      -0.557950       -15.1826
 210   2.0000      -0.556948       -15.1553
 211   2.0000      -0.555765       -15.1231
 212   2.0000      -0.554726       -15.0949
 213   2.0000      -0.549232       -14.9454
 214   2.0000      -0.548873       -14.9356
 215   2.0000      -0.547678       -14.9031
 216   2.0000      -0.545348       -14.8397
 217   2.0000      -0.542432       -14.7603
 218   2.0000      -0.541709       -14.7406
 219   2.0000      -0.541039       -14.7224
 220   2.0000      -0.538652       -14.6575
 221   2.0000      -0.536378       -14.5956
 222   2.0000      -0.533235       -14.5101
 223   2.0000      -0.531995       -14.4763
 224   2.0000      -0.526939       -14.3387
 225   2.0000      -0.525371       -14.2961
 226   2.0000      -0.523823       -14.2540
 227   2.0000      -0.522453       -14.2167
 228   2.0000      -0.519025       -14.1234
 229   2.0000      -0.517581       -14.0841
 230   2.0000      -0.515697       -14.0328
 231   2.0000      -0.515246       -14.0205
 232   2.0000      -0.512904       -13.9568
 233   2.0000      -0.511393       -13.9157
 234   2.0000      -0.508761       -13.8441
 235   2.0000      -0.507921       -13.8212
 236   2.0000      -0.506546       -13.7838
 237   2.0000      -0.505171       -13.7464
 238   2.0000      -0.499585       -13.5944
 239   2.0000      -0.497492       -13.5374
 240   2.0000      -0.495378       -13.4799
 241   2.0000      -0.494628       -13.4595
 242   2.0000      -0.493423       -13.4267
 243   2.0000      -0.490619       -13.3504
 244   2.0000      -0.487728       -13.2718
 245   2.0000      -0.485619       -13.2144
 246   2.0000      -0.484481       -13.1834
 247   2.0000      -0.479798       -13.0560
 248   2.0000      -0.474761       -12.9189
 249   2.0000      -0.471016       -12.8170
 250   2.0000      -0.470587       -12.8053
 251   2.0000      -0.470010       -12.7896
 252   2.0000      -0.467323       -12.7165
 253   2.0000      -0.467053       -12.7092
 254   2.0000      -0.465791       -12.6748
 255   2.0000      -0.464301       -12.6343
 256   2.0000      -0.461954       -12.5704
 257   2.0000      -0.459478       -12.5030
 258   2.0000      -0.457463       -12.4482
 259   2.0000      -0.456393       -12.4191
 260   2.0000      -0.455185       -12.3862
 261   2.0000      -0.454375       -12.3642
 262   2.0000      -0.452109       -12.3025
 263   2.0000      -0.451230       -12.2786
 264   2.0000      -0.449885       -12.2420
 265   2.0000      -0.448862       -12.2142
 266   2.0000      -0.448079       -12.1928
 267   2.0000      -0.447447       -12.1756
 268   2.0000      -0.446716       -12.1558
 269   2.0000      -0.446085       -12.1386
 270   2.0000      -0.444855       -12.1051
 271   2.0000      -0.443843       -12.0776
 272   2.0000      -0.442539       -12.0421
 273   2.0000      -0.438310       -11.9270
 274   2.0000      -0.435664       -11.8550
 275   2.0000      -0.435167       -11.8415
 276   2.0000      -0.432914       -11.7802
 277   2.0000      -0.431309       -11.7365
 278   2.0000      -0.430632       -11.7181
 279   2.0000      -0.430054       -11.7024
 280   2.0000      -0.427046       -11.6205
 281   2.0000      -0.426223       -11.5981
 282   2.0000      -0.421652       -11.4737
 283   2.0000      -0.417000       -11.3472
 284   2.0000      -0.414575       -11.2812
 285   2.0000      -0.412636       -11.2284
 286   2.0000      -0.406392       -11.0585
 287   2.0000      -0.406130       -11.0514
 288   2.0000      -0.394728       -10.7411
 289   2.0000      -0.389968       -10.6116
 290   2.0000      -0.386626       -10.5206
 291   2.0000      -0.385510       -10.4903
 292   2.0000      -0.376074       -10.2335
 293   2.0000      -0.374449       -10.1893
 294   2.0000      -0.363646        -9.8953
 295   2.0000      -0.357857        -9.7378
 296   2.0000      -0.354371        -9.6429
 297   2.0000      -0.347921        -9.4674
 298   2.0000      -0.342851        -9.3295
 299   2.0000      -0.338223        -9.2035
 300   2.0000      -0.331880        -9.0309
 301   2.0000      -0.327167        -8.9027
 302   2.0000      -0.320789        -8.7291
 303   2.0000      -0.319495        -8.6939
 304   2.0000      -0.313710        -8.5365
 305   2.0000      -0.304475        -8.2852
 306   2.0000      -0.300882        -8.1874
 307   2.0000      -0.280711        -7.6385
 308   2.0000      -0.252235        -6.8637
 309   0.0000      -0.124387        -3.3848
 310   0.0000      -0.114016        -3.1025
 311   0.0000      -0.097298        -2.6476
 312   0.0000      -0.094540        -2.5726
 313   0.0000      -0.074429        -2.0253

MULLIKEN ATOMIC CHARGES
-----------------------
   0 C :   -0.107700
   1 C :    0.242797
   2 F :   -0.170056
   3 C :    0.239488
   4 F :   -0.171814
   5 C :   -0.103066
   6 C :    0.115548
   7 C :    0.112036
   8 C :   -0.081289
   9 C :    0.049195
  10 C :   -0.007096
  11 C :   -0.078317
  12 C :    0.154682
  13 O :   -0.148467
  14 C :   -0.099708
  15 C :    0.303023
  16 C :   -0.343035
  17 C :   -0.204442
  18 N :    0.156431
  19 C :   -0.183620
  20 N :    0.148826
  21 C :    0.030991
  22 C :   -0.113573
  23 C :    0.028675
  24 C :   -0.021870
  25 C :   -0.083777
  26 S :    0.208208
  27 C :   -0.099650
  28 C :    0.028131
  29 C :    0.306117
  30 C :   -0.293470
  31 C :   -0.188712
  32 N :    0.168065
  33 C :   -0.185192
  34 N :    0.188118
  35 C :   -0.048431
  36 C :   -0.058151
  37 S :    0.224982
  38 C :    0.024982
  39 C :   -0.022904
  40 C :   -0.041314
  41 C :    0.079399
  42 C :    0.022776
  43 C :    0.119383
  44 N :   -0.136227
  45 C :    0.140926
  46 C :    0.125491
  47 N :   -0.077342
  48 F :   -0.135010
  49 F :   -0.132029
  50 C :   -0.050191
  51 C :   -0.041105
  52 C :    0.025220
  53 C :   -0.101936
  54 S :    0.191182
  55 C :   -0.069733
  56 C :   -0.006996
  57 C :    0.306721
  58 C :   -0.285800
  59 C :   -0.183862
  60 N :    0.174714
  61 C :   -0.183867
  62 N :    0.170665
  63 C :   -0.001377
  64 C :   -0.113318
  65 S :    0.215161
  66 C :    0.080586
  67 C :   -0.140827
  68 C :    0.135303
  69 O :   -0.142358
  70 C :    0.017060
  71 C :   -0.081128
  72 C :    0.111821
  73 C :    0.109754
  74 C :   -0.103061
  75 C :    0.238432
  76 C :    0.237373
  77 C :   -0.100836
  78 F :   -0.171343
  79 F :   -0.169991
  80 C :   -0.075604
  81 C :    0.027662
  82 C :    0.277226
  83 C :   -0.336482
  84 C :   -0.198177
  85 N :    0.165554
  86 C :   -0.168336
  87 N :    0.159139
  88 H :    0.006828
  89 H :   -0.000025
  90 H :   -0.005902
  91 H :   -0.008279
  92 H :    0.021496
  93 H :    0.035738
  94 H :    0.008362
  95 H :   -0.006542
  96 H :   -0.005152
  97 H :    0.045352
  98 H :    0.047746
  99 H :    0.008306
 100 H :    0.025815
 101 H :    0.023310
 102 H :   -0.007877
 103 H :    0.009037
 104 H :   -0.000150
 105 H :    0.002682
Sum of atomic charges:   -0.0000000

LOEWDIN ATOMIC CHARGES
----------------------
   0 C :   -0.029375
   1 C :    0.066660
   2 F :   -0.048408
   3 C :    0.067761
   4 F :   -0.048897
   5 C :   -0.032417
   6 C :   -0.008566
   7 C :   -0.006615
   8 C :    0.017732
   9 C :   -0.023493
  10 C :   -0.051919
  11 C :    0.031406
  12 C :    0.084288
  13 O :   -0.137771
  14 C :   -0.097717
  15 C :    0.075160
  16 C :   -0.141794
  17 C :   -0.025509
  18 N :   -0.052993
  19 C :   -0.018086
  20 N :   -0.053292
  21 C :    0.044495
  22 C :   -0.178143
  23 C :    0.024620
  24 C :   -0.075126
  25 C :   -0.155729
  26 S :    0.495497
  27 C :   -0.201200
  28 C :   -0.055783
  29 C :    0.077243
  30 C :   -0.097000
  31 C :   -0.014336
  32 N :   -0.034142
  33 C :   -0.020882
  34 N :   -0.018994
  35 C :   -0.022848
  36 C :   -0.159998
  37 S :    0.523162
  38 C :   -0.043768
  39 C :   -0.016729
  40 C :   -0.010424
  41 C :   -0.036866
  42 C :    0.009169
  43 C :    0.017891
  44 N :   -0.094396
  45 C :    0.063420
  46 C :    0.048266
  47 N :   -0.070510
  48 F :   -0.023882
  49 F :   -0.020528
  50 C :   -0.147358
  51 C :   -0.021007
  52 C :   -0.054138
  53 C :   -0.190482
  54 S :    0.498321
  55 C :   -0.155901
  56 C :   -0.066945
  57 C :    0.082521
  58 C :   -0.096472
  59 C :   -0.013369
  60 N :   -0.029970
  61 C :   -0.015761
  62 N :   -0.029837
  63 C :    0.010653
  64 C :   -0.182046
  65 S :    0.499967
  66 C :    0.044073
  67 C :   -0.092899
  68 C :    0.082823
  69 O :   -0.142909
  70 C :   -0.054904
  71 C :    0.031094
  72 C :   -0.009174
  73 C :   -0.005101
  74 C :   -0.028908
  75 C :    0.067418
  76 C :    0.067572
  77 C :   -0.032803
  78 F :   -0.048738
  79 F :   -0.047647
  80 C :    0.017462
  81 C :   -0.020270
  82 C :    0.065863
  83 C :   -0.136489
  84 C :   -0.014819
  85 N :   -0.048084
  86 C :   -0.018873
  87 N :   -0.045615
  88 H :    0.047593
  89 H :    0.045173
  90 H :    0.039954
  91 H :    0.041171
  92 H :    0.043866
  93 H :    0.045643
  94 H :    0.039402
  95 H :    0.038185
  96 H :    0.038039
  97 H :    0.030459
  98 H :    0.048978
  99 H :    0.040526
 100 H :    0.043218
 101 H :    0.046356
 102 H :    0.040878
 103 H :    0.048305
 104 H :    0.044862
 105 H :    0.041508

  Mayer bond orders larger than 0.100000
B(  0-C ,  1-C ) :   1.4414 B(  0-C ,  5-C ) :   0.1085 B(  0-C ,  7-C ) :   1.1877
B(  0-C , 88-H ) :   1.0071 B(  1-C ,  2-F ) :   1.1357 B(  1-C ,  3-C ) :   1.1904
B(  3-C ,  4-F ) :   1.1330 B(  3-C ,  5-C ) :   1.4412 B(  5-C ,  6-C ) :   1.1933
B(  5-C , 89-H ) :   1.0076 B(  6-C ,  7-C ) :   1.2578 B(  6-C , 11-C ) :   1.1859
B(  7-C ,  8-C ) :   1.2152 B(  8-C ,  9-C ) :   1.4500 B(  8-C , 90-H ) :   0.9905
B(  9-C , 10-C ) :   1.2209 B(  9-C , 15-C ) :   0.9856 B( 10-C , 11-C ) :   1.4734
B( 10-C , 12-C ) :   0.9434 B( 11-C , 91-H ) :   1.0170 B( 12-C , 13-O ) :   2.1981
B( 12-C , 14-C ) :   0.9472 B( 14-C , 15-C ) :   1.0758 B( 14-C , 21-C ) :   1.5859
B( 15-C , 16-C ) :   1.6331 B( 16-C , 17-C ) :   1.1392 B( 16-C , 19-C ) :   1.1446
B( 17-C , 18-N ) :   2.9926 B( 19-C , 20-N ) :   2.9662 B( 21-C , 22-C ) :   1.2066
B( 21-C , 92-H ) :   0.9252 B( 22-C , 23-C ) :   1.3997 B( 22-C , 26-S ) :   1.0714
B( 23-C , 24-C ) :   1.3360 B( 23-C , 93-H ) :   0.9745 B( 24-C , 25-C ) :   1.3772
B( 24-C , 29-C ) :   0.9950 B( 25-C , 26-S ) :   1.1692 B( 25-C , 27-C ) :   1.2111
B( 27-C , 28-C ) :   1.4004 B( 27-C , 37-S ) :   1.1016 B( 28-C , 29-C ) :   0.9958
B( 28-C , 35-C ) :   1.3262 B( 29-C , 30-C ) :   1.7178 B( 30-C , 31-C ) :   1.1361
B( 30-C , 33-C ) :   1.1311 B( 31-C , 32-N ) :   2.9854 B( 33-C , 34-N ) :   2.9954
B( 35-C , 36-C ) :   1.4313 B( 35-C , 94-H ) :   0.9906 B( 36-C , 37-S ) :   1.1237
B( 36-C , 38-C ) :   1.1316 B( 38-C , 39-C ) :   1.6793 B( 38-C , 43-C ) :   0.9413
B( 39-C , 40-C ) :   1.1285 B( 39-C , 95-H ) :   0.9792 B( 40-C , 41-C ) :   1.6634
B( 40-C , 96-H ) :   0.9795 B( 41-C , 42-C ) :   0.9827 B( 41-C , 50-C ) :   1.1344
B( 42-C , 43-C ) :   0.9917 B( 42-C , 47-N ) :   1.0256 B( 42-C , 97-H ) :   0.8940
B( 43-C , 44-N ) :   0.9965 B( 43-C , 98-H ) :   0.8765 B( 44-N , 45-C ) :   1.9021
B( 45-C , 46-C ) :   0.9359 B( 45-C , 49-F ) :   1.1810 B( 46-C , 47-N ) :   1.9503
B( 46-C , 48-F ) :   1.1742 B( 50-C , 51-C ) :   1.4482 B( 50-C , 54-S ) :   1.1125
B( 51-C , 52-C ) :   1.3183 B( 51-C , 99-H ) :   0.9889 B( 52-C , 53-C ) :   1.4185
B( 52-C , 57-C ) :   0.9913 B( 53-C , 54-S ) :   1.1256 B( 53-C , 55-C ) :   1.2015
B( 55-C , 56-C ) :   1.4046 B( 55-C , 65-S ) :   1.1560 B( 56-C , 57-C ) :   1.0011
B( 56-C , 63-C ) :   1.3602 B( 57-C , 58-C ) :   1.7187 B( 58-C , 59-C ) :   1.1325
B( 58-C , 61-C ) :   1.1330 B( 59-C , 60-N ) :   2.9848 B( 61-C , 62-N ) :   2.9867
B( 63-C , 64-C ) :   1.3931 B( 63-C ,100-H ) :   0.9807 B( 64-C , 65-S ) :   1.0858
B( 64-C , 66-C ) :   1.1381 B( 66-C , 67-C ) :   1.6605 B( 66-C ,101-H ) :   0.9288
B( 67-C , 68-C ) :   0.9444 B( 67-C , 82-C ) :   1.0393 B( 68-C , 69-O ) :   2.2682
B( 68-C , 70-C ) :   0.9192 B( 70-C , 71-C ) :   1.4771 B( 70-C , 81-C ) :   1.2224
B( 71-C , 72-C ) :   1.1955 B( 71-C ,102-H ) :   1.0153 B( 72-C , 73-C ) :   1.2554
B( 72-C , 77-C ) :   1.1947 B( 73-C , 74-C ) :   1.1906 B( 73-C , 80-C ) :   1.2182
B( 74-C , 75-C ) :   1.4438 B( 74-C , 77-C ) :   0.1079 B( 74-C ,103-H ) :   1.0062
B( 75-C , 76-C ) :   1.1916 B( 75-C , 79-F ) :   1.1362 B( 76-C , 77-C ) :   1.4450
B( 76-C , 78-F ) :   1.1336 B( 77-C ,104-H ) :   1.0061 B( 80-C , 81-C ) :   1.4603
B( 80-C ,105-H ) :   0.9931 B( 81-C , 82-C ) :   0.9942 B( 82-C , 83-C ) :   1.6468
B( 83-C , 84-C ) :   1.1740 B( 83-C , 86-C ) :   1.1275 B( 84-C , 85-N ) :   2.9936
B( 86-C , 87-N ) :   2.9897

-----------------------------------------------------------------------------
         ABSORPTION SPECTRUM VIA TRANSITION ELECTRIC DIPOLE MOMENTS
-----------------------------------------------------------------------------
State   Energy  Wavelength   fosc         T2         TX        TY        TZ
        (cm-1)    (nm)                  (au**2)     (au)      (au)      (au)
-----------------------------------------------------------------------------
   0   12199.7    819.7   0.940748099  25.38635  -0.27733  -4.84564  -1.35248
   1   13640.2    733.1   0.113282724   2.73412   0.55517   1.50269   0.40966
   2   18255.5    547.8   1.813894630  32.71102  -0.33782  -5.41647  -1.80520
   3   20226.2    494.4   0.247610310   4.03023   1.11607   1.66730  -0.06874
   4   21037.5    475.3   0.022603208   0.35371  -0.05940  -0.48144  -0.34410
   5   22209.2    450.3   0.035730323   0.52964   0.53130   0.41138   0.27952
   6   22921.9    436.3   0.037831822   0.54335  -0.49748  -0.34230  -0.42273
   7   24724.5    404.5   0.160809058   2.14121   0.34534  -1.40483  -0.22003
   8   26013.7    384.4   0.067848901   0.85865   0.14623   0.91304  -0.06022
   9   26271.9    380.6   0.058977459   0.73904  -0.14332   0.75249   0.39020
  10   27409.6    364.8   0.011264052   0.13529  -0.06505  -0.16920  -0.32005
  11   27566.6    362.8   0.009582619   0.11444  -0.16817   0.15161   0.25134
  12   27972.8    357.5   0.026169682   0.30799  -0.48059   0.25596   0.10725
  13   28233.7    354.2   0.018499517   0.21571   0.16996  -0.08168  -0.42444
  14   28341.6    352.8   0.053411794   0.62042  -0.05684  -0.48855   0.61524
  15   28878.5    346.3   0.107057023   1.22044   0.32267  -0.87706  -0.58914
  16   29031.1    344.5   0.019563929   0.22185   0.05672  -0.39396   0.25186
  17   29348.6    340.7   0.020176029   0.22632   0.13329   0.45110   0.07117
  18   29418.3    339.9   0.074444237   0.83308  -0.67812   0.59237  -0.14945
  19   29948.3    333.9   0.194143101   2.13415  -1.18607   0.62449  -0.58087
  20   30182.3    331.3   0.501774926   5.47308  -1.86147  -1.30381  -0.55505
  21   30560.2    327.2   0.205325982   2.21189  -0.56557   0.96245   0.98270
  22   30770.6    325.0   0.414432771   4.43397  -1.24767   1.68687   0.17815
  23   31337.2    319.1   0.165695953   1.74071  -0.00676  -0.78936  -1.05716
  24   31754.9    314.9   0.099926574   1.03597   0.69264   0.53965   0.51477
  25   32086.5    311.7   0.128652521   1.31999   0.48171   1.00665   0.27314
  26   32325.7    309.4   0.048596307   0.49491  -0.40172   0.56503   0.11949
  27   32528.9    307.4   0.211986431   2.14543   0.79797   1.15703   0.41226
  28   32885.1    304.1   0.065217170   0.65289  -0.11205   0.79436   0.09655
  29   33061.6    302.5   0.163180108   1.62487  -0.36095   0.91162   0.81458
  30   33761.3    296.2   0.081941792   0.79903   0.88620  -0.09493  -0.06830
  31   34005.5    294.1   0.011483495   0.11117   0.05005  -0.28047  -0.17321
  32   34066.4    293.5   0.168920616   1.63242   1.11112   0.30300   0.55318
  33   34138.1    292.9   0.028854382   0.27826  -0.37530  -0.23724  -0.28483
  34   34367.8    291.0   0.154544767   1.48040  -0.07012   1.07560  -0.56442
  35   34484.5    290.0   0.354759515   3.38677  -1.35067   1.24997   0.00616
  36   34824.7    287.2   0.042634424   0.40304  -0.44790  -0.43132  -0.12802
  37   35040.6    285.4   0.371259990   3.48804  -1.17981   1.09174   0.95089
  38   35202.1    284.1   0.161086082   1.50649   0.16692  -0.60163  -1.05672
  39   35319.6    283.1   0.228473280   2.12959   0.66922   1.26298  -0.29429
  40   35603.4    280.9   0.192687478   1.78171  -0.47891  -1.19362   0.35726
  41   35857.6    278.9   0.082729670   0.75955   0.58181  -0.53715  -0.36402
  42   36050.8    277.4   0.082040699   0.74919   0.09456   0.71818   0.47377
  43   36219.8    276.1   0.031982475   0.29070   0.49579  -0.17386  -0.12111
  44   36314.2    275.4   0.034361189   0.31151  -0.37264   0.15269  -0.38643
  45   36642.8    272.9   0.067928802   0.61030  -0.66808  -0.40185   0.04984
  46   36802.3    271.7   0.126191608   1.12884   1.02420  -0.04683  -0.27867
  47   37161.9    269.1   0.053807181   0.47667   0.05635  -0.67410  -0.13816
  48   37292.2    268.2   0.061484627   0.54278  -0.72988   0.08948   0.04525
  49   37343.4    267.8   0.019073306   0.16815   0.10456  -0.31538  -0.24031
  50   37502.3    266.7   0.073749468   0.64741  -0.45413  -0.66197  -0.05439
  51   37690.7    265.3   0.007615075   0.06651  -0.00811   0.25275  -0.05063
  52   38156.0    262.1   0.071700629   0.61864   0.66662   0.25461  -0.33081
  53   38416.9    260.3   0.028865406   0.24736   0.07566  -0.34366   0.35148
  54   38882.0    257.2   0.028262084   0.23929   0.00633   0.47100   0.13197
  55   39078.1    255.9   0.013103644   0.11039   0.27339   0.17660   0.06677
  56   39098.4    255.8   0.073839153   0.62173   0.58568   0.52262  -0.07471
  57   39363.8    254.0   0.147014233   1.22953   0.74590   0.73894   0.35655
  58   39562.5    252.8   0.012676773   0.10549   0.13655  -0.27141  -0.11479
  59   39699.6    251.9   0.011435208   0.09483  -0.13636  -0.05549   0.27047
  60   39972.5    250.2   0.021465216   0.17679   0.19258   0.36478   0.08148
  61   40056.8    249.6   0.048944515   0.40226   0.18173   0.56100  -0.23348
  62   40233.6    248.5   0.025955145   0.21238   0.34002  -0.21640   0.22347

FINAL SINGLE POINT ENERGY     -5410.221002886468

DIPOLE MOMENT
-------------
                                X             Y             Z
Electronic contribution:      4.78912      -0.66369      12.09195
Nuclear contribution   :     -3.71329      -1.51146      -9.94286
                        -----------------------------------------
Total Dipole Moment    :      1.07583      -2.17514       2.14909
                        -----------------------------------------
Magnitude (a.u.)       :      3.24149
Magnitude (Debye)      :      8.23921

Rotational constants in cm-1:     0.002542     0.000113     0.000112
Rotational constants in MHz :    76.215452     3.400233     3.355961

                             ****ORCA TERMINATED NORMALLY****
TOTAL RUN TIME: 0 days 0 hours 12 minutes 7 seconds 552 msec
