                         Program Version 4.2.0 -  RELEASE  -
|  1> # ORCA input file
|  2> # SCF done       -184.655094066448          0.002442542642
|  3> ! CAM-B3LYP def2-SVP def2/J RIJCOSX Grid4 TightSCF
|  4> %maxcore 5000
|  5> %tddft
|  6>     Mode sTDDFT
|  7>     Ethresh 5.0
|  8>     maxcore 5000
|  9> end
| 10>
| 11> %pal
| 12>   nprocs 6
| 13>   end
| 14> * xyz 0 1
| 15>    C        8.12325         1.33496         0.28221
| 16>    C        7.56171         2.34882        -0.65532
| 17>    N        8.10196         3.52873        -0.86694
| 18>    S        7.21624         4.33732        -1.95982
| 19>    N        6.10943         3.17617        -2.20042
| 20>    C        6.39493         2.14437        -1.43704
| 21>    C        5.56477         0.90209        -1.37120
| 22>    C        6.44573        -0.21208        -0.89126
| 23>    C        7.60720        -0.00930        -0.10081
| 24>    N        8.18083        -1.14231         0.23964
| 25>    S        7.33314        -2.38198        -0.37848
| 26>    N        6.19480        -1.48357        -1.10883
| 27>    C        4.44138         1.08137        -0.38668
| 28>    C        4.06185         2.22473         0.25735
| 29>    C        3.02246         1.98654         1.17374
| 30>    C        2.63178         0.64120         1.20462
| 31>    S        3.51858        -0.31996         0.10518
| 32>    C        1.67609         0.46491         2.24040
| 33>    C        1.45945         1.71282         2.85574
| 34>    C        2.28428         2.71327         2.18936
| 35>    C        2.38451         4.03974         2.49350
| 36>    C        1.63751         4.63500         3.53191
| 37>    N        1.04420         5.12720         4.38119
| 38>    C        3.26432         4.89717         1.79957
| 39>    N        3.98854         5.58986         1.24161
| 40>    C        0.65068         1.62365         3.98165
| 41>    C        0.27047         0.31252         4.24486
| 42>    S        0.86097        -0.81008         3.02898
| 43>    C       -0.29657        -0.17889         5.44892
| 44>    C       -0.42365        -1.56582         5.68450
| 45>    C       -0.54434        -2.10393         7.00705
| 46>    N       -0.56292        -3.44034         7.17778
| 47>    C       -0.50006        -4.21601         6.14329
| 48>    C       -0.38762        -3.68323         4.83339
| 49>    N       -0.33943        -2.40504         4.63401
| 50>    F       -0.32752        -4.48201         3.77176
| 51>    F       -0.54281        -5.52973         6.34636
| 52>    C       -0.56284        -1.28009         8.15391
| 53>    C       -0.70923         0.10488         7.89815
| 54>    C       -0.57266         0.64816         6.56458
| 55>    N       -0.67474         1.97629         6.56610
| 56>    S       -0.93184         2.49166         8.06301
| 57>    N       -0.90311         1.06690         8.79900
| 58>    C       -0.25277        -1.79753         9.43852
| 59>    C       -0.12523        -1.07789        10.62012
| 60>    C        0.47863        -1.82822        11.62175
| 61>    C        0.80540        -3.13268        11.20402
| 62>    S        0.31960        -3.45158         9.59962
| 63>    C        1.54916        -3.75622        12.24103
| 64>    C        1.68626        -2.85524        13.30532
| 65>    C        1.00669        -1.61914        12.96362
| 66>    C        0.93557        -0.48120        13.71294
| 67>    C        1.54961        -0.38280        14.97988
| 68>    N        2.06665        -0.29567        15.99993
| 69>    C        0.27150         0.67940        13.26274
| 70>    N       -0.25960         1.63042        12.90509
| 71>    C        2.50527        -3.35362        14.33242
| 72>    C        2.98494        -4.59937        14.03864
| 73>    S        2.42113        -5.20324        12.49857
| 74>    C        3.95853        -5.41020        14.85169
| 75>    C        4.86970        -4.46524        15.57340
| 76>    N        4.62698        -3.96239        16.76262
| 77>    S        5.81989        -2.93553        17.15722
| 78>    N        6.68679        -3.12162        15.79587
| 79>    C        6.07485        -3.97483        15.00549
| 80>    C        6.59092        -4.40972        13.67516
| 81>    C        6.02077        -5.75321        13.37092
| 82>    C        4.81189        -6.23614        13.94033
| 83>    N        4.51888        -7.45582        13.55315
| 84>    S        5.67048        -7.97645        12.53378
| 85>    N        6.58285        -6.63403        12.57577
| 86>    H        7.81412         1.57015         1.30761
| 87>    H        9.21436         1.35228         0.26630
| 88>    H        5.15157         0.65915        -2.35673
| 89>    H        4.51093         3.18509         0.08237
| 90>    H        0.36827         2.43753         4.62392
| 91>    H       -0.43261        -0.05117        10.69669
| 92>    H        2.74061        -2.83011        15.24129
| 93>    H        3.41689        -6.04893        15.55830
| 94>    H        7.68134        -4.43657        13.66679
| 95>    H        6.27766        -3.69288        12.90670
| 96> *
| 97>
| 98>                          ****END OF INPUT****

CARTESIAN COORDINATES (ANGSTROEM)
---------------------------------
  C      8.123250    1.334960    0.282210
  C      7.561710    2.348820   -0.655320
  N      8.101960    3.528730   -0.866940
  S      7.216240    4.337320   -1.959820
  N      6.109430    3.176170   -2.200420
  C      6.394930    2.144370   -1.437040
  C      5.564770    0.902090   -1.371200
  C      6.445730   -0.212080   -0.891260
  C      7.607200   -0.009300   -0.100810
  N      8.180830   -1.142310    0.239640
  S      7.333140   -2.381980   -0.378480
  N      6.194800   -1.483570   -1.108830
  C      4.441380    1.081370   -0.386680
  C      4.061850    2.224730    0.257350
  C      3.022460    1.986540    1.173740
  C      2.631780    0.641200    1.204620
  S      3.518580   -0.319960    0.105180
  C      1.676090    0.464910    2.240400
  C      1.459450    1.712820    2.855740
  C      2.284280    2.713270    2.189360
  C      2.384510    4.039740    2.493500
  C      1.637510    4.635000    3.531910
  N      1.044200    5.127200    4.381190
  C      3.264320    4.897170    1.799570
  N      3.988540    5.589860    1.241610
  C      0.650680    1.623650    3.981650
  C      0.270470    0.312520    4.244860
  S      0.860970   -0.810080    3.028980
  C     -0.296570   -0.178890    5.448920
  C     -0.423650   -1.565820    5.684500
  C     -0.544340   -2.103930    7.007050
  N     -0.562920   -3.440340    7.177780
  C     -0.500060   -4.216010    6.143290
  C     -0.387620   -3.683230    4.833390
  N     -0.339430   -2.405040    4.634010
  F     -0.327520   -4.482010    3.771760
  F     -0.542810   -5.529730    6.346360
  C     -0.562840   -1.280090    8.153910
  C     -0.709230    0.104880    7.898150
  C     -0.572660    0.648160    6.564580
  N     -0.674740    1.976290    6.566100
  S     -0.931840    2.491660    8.063010
  N     -0.903110    1.066900    8.799000
  C     -0.252770   -1.797530    9.438520
  C     -0.125230   -1.077890   10.620120
  C      0.478630   -1.828220   11.621750
  C      0.805400   -3.132680   11.204020
  S      0.319600   -3.451580    9.599620
  C      1.549160   -3.756220   12.241030
  C      1.686260   -2.855240   13.305320
  C      1.006690   -1.619140   12.963620
  C      0.935570   -0.481200   13.712940
  C      1.549610   -0.382800   14.979880
  N      2.066650   -0.295670   15.999930
  C      0.271500    0.679400   13.262740
  N     -0.259600    1.630420   12.905090
  C      2.505270   -3.353620   14.332420
  C      2.984940   -4.599370   14.038640
  S      2.421130   -5.203240   12.498570
  C      3.958530   -5.410200   14.851690
  C      4.869700   -4.465240   15.573400
  N      4.626980   -3.962390   16.762620
  S      5.819890   -2.935530   17.157220
  N      6.686790   -3.121620   15.795870
  C      6.074850   -3.974830   15.005490
  C      6.590920   -4.409720   13.675160
  C      6.020770   -5.753210   13.370920
  C      4.811890   -6.236140   13.940330
  N      4.518880   -7.455820   13.553150
  S      5.670480   -7.976450   12.533780
  N      6.582850   -6.634030   12.575770
  H      7.814120    1.570150    1.307610
  H      9.214360    1.352280    0.266300
  H      5.151570    0.659150   -2.356730
  H      4.510930    3.185090    0.082370
  H      0.368270    2.437530    4.623920
  H     -0.432610   -0.051170   10.696690
  H      2.740610   -2.830110   15.241290
  H      3.416890   -6.048930   15.558300
  H      7.681340   -4.436570   13.666790
  H      6.277660   -3.692880   12.906700

 Total Charge           Charge          ....    0
 Multiplicity           Mult            ....    1
 Number of Electrons    NEL             ....  548
 Basis Dimension        Dim             .... 1080

ORBITAL ENERGIES
----------------

  NO   OCC          E(Eh)            E(eV)
   0   2.0000     -89.043066     -2422.9850
   1   2.0000     -89.015394     -2422.2320
   2   2.0000     -89.015156     -2422.2255
   3   2.0000     -89.012250     -2422.1465
   4   2.0000     -89.010853     -2422.1084
   5   2.0000     -88.988141     -2421.4904
   6   2.0000     -88.985488     -2421.4182
   7   2.0000     -88.982557     -2421.3385
   8   2.0000     -88.982248     -2421.3301
   9   2.0000     -24.825162      -675.5270
  10   2.0000     -24.824942      -675.5210
  11   2.0000     -14.467069      -393.6690
  12   2.0000     -14.466864      -393.6634
  13   2.0000     -14.453166      -393.2906
  14   2.0000     -14.452918      -393.2839
  15   2.0000     -14.446648      -393.1133
  16   2.0000     -14.445708      -393.0877
  17   2.0000     -14.443377      -393.0243
  18   2.0000     -14.442862      -393.0103
  19   2.0000     -14.441815      -392.9818
  20   2.0000     -14.441518      -392.9737
  21   2.0000     -14.439188      -392.9103
  22   2.0000     -14.438939      -392.9035
  23   2.0000     -14.427030      -392.5794
  24   2.0000     -14.426833      -392.5741
  25   2.0000     -14.425891      -392.5484
  26   2.0000     -14.425870      -392.5479
  27   2.0000     -10.441264      -284.1212
  28   2.0000     -10.440889      -284.1110
  29   2.0000     -10.360242      -281.9165
  30   2.0000     -10.359810      -281.9048
  31   2.0000     -10.350933      -281.6632
  32   2.0000     -10.350645      -281.6554
  33   2.0000     -10.347855      -281.5794
  34   2.0000     -10.347807      -281.5781
  35   2.0000     -10.343802      -281.4692
  36   2.0000     -10.343558      -281.4625
  37   2.0000     -10.335698      -281.2487
  38   2.0000     -10.335288      -281.2375
  39   2.0000     -10.334446      -281.2146
  40   2.0000     -10.333986      -281.2021
  41   2.0000     -10.332276      -281.1555
  42   2.0000     -10.332239      -281.1545
  43   2.0000     -10.331088      -281.1232
  44   2.0000     -10.330922      -281.1187
  45   2.0000     -10.327759      -281.0326
  46   2.0000     -10.327712      -281.0313
  47   2.0000     -10.327426      -281.0235
  48   2.0000     -10.327359      -281.0217
  49   2.0000     -10.326412      -280.9959
  50   2.0000     -10.326268      -280.9920
  51   2.0000     -10.324753      -280.9508
  52   2.0000     -10.324316      -280.9389
  53   2.0000     -10.323637      -280.9205
  54   2.0000     -10.322889      -280.9001
  55   2.0000     -10.322820      -280.8982
  56   2.0000     -10.322768      -280.8968
  57   2.0000     -10.321425      -280.8603
  58   2.0000     -10.321169      -280.8533
  59   2.0000     -10.320874      -280.8453
  60   2.0000     -10.320400      -280.8324
  61   2.0000     -10.303083      -280.3611
  62   2.0000     -10.302501      -280.3453
  63   2.0000     -10.299909      -280.2748
  64   2.0000     -10.298766      -280.2437
  65   2.0000     -10.296604      -280.1849
  66   2.0000     -10.296236      -280.1748
  67   2.0000     -10.296108      -280.1714
  68   2.0000     -10.295852      -280.1644
  69   2.0000     -10.294549      -280.1289
  70   2.0000     -10.294090      -280.1164
  71   2.0000      -8.134352      -221.3470
  72   2.0000      -8.108269      -220.6372
  73   2.0000      -8.108173      -220.6346
  74   2.0000      -8.104961      -220.5472
  75   2.0000      -8.103725      -220.5136
  76   2.0000      -8.082542      -219.9371
  77   2.0000      -8.080006      -219.8681
  78   2.0000      -8.075784      -219.7533
  79   2.0000      -8.075433      -219.7437
  80   2.0000      -6.105473      -166.1384
  81   2.0000      -6.097575      -165.9235
  82   2.0000      -6.097106      -165.9107
  83   2.0000      -6.079906      -165.4427
  84   2.0000      -6.079837      -165.4408
  85   2.0000      -6.076556      -165.3515
  86   2.0000      -6.075368      -165.3192
  87   2.0000      -6.072288      -165.2354
  88   2.0000      -6.072158      -165.2318
  89   2.0000      -6.069401      -165.1568
  90   2.0000      -6.069266      -165.1531
  91   2.0000      -6.068930      -165.1440
  92   2.0000      -6.067689      -165.1102
  93   2.0000      -6.066221      -165.0703
  94   2.0000      -6.064865      -165.0334
  95   2.0000      -6.051796      -164.6777
  96   2.0000      -6.049249      -164.6084
  97   2.0000      -6.047442      -164.5593
  98   2.0000      -6.045200      -164.4983
  99   2.0000      -6.045087      -164.4952
 100   2.0000      -6.044914      -164.4905
 101   2.0000      -6.044880      -164.4896
 102   2.0000      -6.042517      -164.4253
 103   2.0000      -6.040610      -164.3733
 104   2.0000      -6.040225      -164.3629
 105   2.0000      -6.038271      -164.3097
 106   2.0000      -6.037901      -164.2996
 107   2.0000      -1.353375       -36.8272
 108   2.0000      -1.339301       -36.4442
 109   2.0000      -1.142020       -31.0759
 110   2.0000      -1.129867       -30.7452
 111   2.0000      -1.128935       -30.7199
 112   2.0000      -1.125147       -30.6168
 113   2.0000      -1.123137       -30.5621
 114   2.0000      -1.122931       -30.5565
 115   2.0000      -1.052846       -28.6494
 116   2.0000      -1.040226       -28.3060
 117   2.0000      -1.039327       -28.2815
 118   2.0000      -1.018185       -27.7062
 119   2.0000      -1.018042       -27.7023
 120   2.0000      -1.004335       -27.3293
 121   2.0000      -1.004274       -27.3277
 122   2.0000      -1.002166       -27.2703
 123   2.0000      -1.001634       -27.2558
 124   2.0000      -0.993858       -27.0443
 125   2.0000      -0.988364       -26.8948
 126   2.0000      -0.983676       -26.7672
 127   2.0000      -0.977526       -26.5998
 128   2.0000      -0.977021       -26.5861
 129   2.0000      -0.975518       -26.5452
 130   2.0000      -0.961561       -26.1654
 131   2.0000      -0.956584       -26.0300
 132   2.0000      -0.947144       -25.7731
 133   2.0000      -0.946108       -25.7449
 134   2.0000      -0.914442       -24.8832
 135   2.0000      -0.904156       -24.6033
 136   2.0000      -0.891546       -24.2602
 137   2.0000      -0.883492       -24.0410
 138   2.0000      -0.870868       -23.6975
 139   2.0000      -0.870001       -23.6739
 140   2.0000      -0.865688       -23.5566
 141   2.0000      -0.865313       -23.5464
 142   2.0000      -0.856662       -23.3110
 143   2.0000      -0.849573       -23.1181
 144   2.0000      -0.848636       -23.0926
 145   2.0000      -0.847983       -23.0748
 146   2.0000      -0.823464       -22.4076
 147   2.0000      -0.808968       -22.0131
 148   2.0000      -0.799628       -21.7590
 149   2.0000      -0.791735       -21.5442
 150   2.0000      -0.782974       -21.3058
 151   2.0000      -0.773018       -21.0349
 152   2.0000      -0.772208       -21.0129
 153   2.0000      -0.759230       -20.6597
 154   2.0000      -0.755745       -20.5649
 155   2.0000      -0.734403       -19.9841
 156   2.0000      -0.722248       -19.6534
 157   2.0000      -0.716267       -19.4906
 158   2.0000      -0.703265       -19.1368
 159   2.0000      -0.696010       -18.9394
 160   2.0000      -0.695357       -18.9216
 161   2.0000      -0.694478       -18.8977
 162   2.0000      -0.692308       -18.8387
 163   2.0000      -0.687234       -18.7006
 164   2.0000      -0.681705       -18.5501
 165   2.0000      -0.679328       -18.4854
 166   2.0000      -0.673716       -18.3328
 167   2.0000      -0.672400       -18.2969
 168   2.0000      -0.671317       -18.2675
 169   2.0000      -0.666816       -18.1450
 170   2.0000      -0.653791       -17.7906
 171   2.0000      -0.647207       -17.6114
 172   2.0000      -0.635445       -17.2913
 173   2.0000      -0.633474       -17.2377
 174   2.0000      -0.630616       -17.1599
 175   2.0000      -0.627053       -17.0630
 176   2.0000      -0.625083       -17.0094
 177   2.0000      -0.624692       -16.9987
 178   2.0000      -0.622532       -16.9400
 179   2.0000      -0.612096       -16.6560
 180   2.0000      -0.611304       -16.6344
 181   2.0000      -0.606587       -16.5061
 182   2.0000      -0.601075       -16.3561
 183   2.0000      -0.591690       -16.1007
 184   2.0000      -0.585680       -15.9372
 185   2.0000      -0.580448       -15.7948
 186   2.0000      -0.579018       -15.7559
 187   2.0000      -0.571226       -15.5439
 188   2.0000      -0.563263       -15.3272
 189   2.0000      -0.560163       -15.2428
 190   2.0000      -0.555657       -15.1202
 191   2.0000      -0.552045       -15.0219
 192   2.0000      -0.551464       -15.0061
 193   2.0000      -0.541688       -14.7401
 194   2.0000      -0.540230       -14.7004
 195   2.0000      -0.538553       -14.6548
 196   2.0000      -0.537226       -14.6187
 197   2.0000      -0.534489       -14.5442
 198   2.0000      -0.533900       -14.5281
 199   2.0000      -0.532666       -14.4946
 200   2.0000      -0.532263       -14.4836
 201   2.0000      -0.529236       -14.4013
 202   2.0000      -0.524943       -14.2844
 203   2.0000      -0.522582       -14.2202
 204   2.0000      -0.519858       -14.1461
 205   2.0000      -0.519132       -14.1263
 206   2.0000      -0.504234       -13.7209
 207   2.0000      -0.503625       -13.7043
 208   2.0000      -0.503083       -13.6896
 209   2.0000      -0.501362       -13.6428
 210   2.0000      -0.500437       -13.6176
 211   2.0000      -0.497339       -13.5333
 212   2.0000      -0.490907       -13.3583
 213   2.0000      -0.489250       -13.3132
 214   2.0000      -0.487813       -13.2741
 215   2.0000      -0.486472       -13.2376
 216   2.0000      -0.484056       -13.1718
 217   2.0000      -0.482327       -13.1248
 218   2.0000      -0.477715       -12.9993
 219   2.0000      -0.475976       -12.9520
 220   2.0000      -0.473066       -12.8728
 221   2.0000      -0.470787       -12.8108
 222   2.0000      -0.470161       -12.7937
 223   2.0000      -0.461630       -12.5616
 224   2.0000      -0.458377       -12.4731
 225   2.0000      -0.458067       -12.4646
 226   2.0000      -0.457747       -12.4559
 227   2.0000      -0.456730       -12.4283
 228   2.0000      -0.455289       -12.3890
 229   2.0000      -0.453133       -12.3304
 230   2.0000      -0.452255       -12.3065
 231   2.0000      -0.449543       -12.2327
 232   2.0000      -0.445051       -12.1104
 233   2.0000      -0.442925       -12.0526
 234   2.0000      -0.437220       -11.8974
 235   2.0000      -0.436654       -11.8820
 236   2.0000      -0.435062       -11.8386
 237   2.0000      -0.434934       -11.8352
 238   2.0000      -0.433301       -11.7907
 239   2.0000      -0.424813       -11.5597
 240   2.0000      -0.424079       -11.5398
 241   2.0000      -0.423694       -11.5293
 242   2.0000      -0.410826       -11.1791
 243   2.0000      -0.410037       -11.1577
 244   2.0000      -0.409517       -11.1435
 245   2.0000      -0.405372       -11.0307
 246   2.0000      -0.404360       -11.0032
 247   2.0000      -0.398362       -10.8400
 248   2.0000      -0.398146       -10.8341
 249   2.0000      -0.396554       -10.7908
 250   2.0000      -0.393721       -10.7137
 251   2.0000      -0.393209       -10.6998
 252   2.0000      -0.383889       -10.4461
 253   2.0000      -0.382497       -10.4083
 254   2.0000      -0.380121       -10.3436
 255   2.0000      -0.373413       -10.1611
 256   2.0000      -0.372649       -10.1403
 257   2.0000      -0.372404       -10.1336
 258   2.0000      -0.371592       -10.1115
 259   2.0000      -0.367712       -10.0059
 260   2.0000      -0.367340        -9.9958
 261   2.0000      -0.362342        -9.8598
 262   2.0000      -0.348351        -9.4791
 263   2.0000      -0.346825        -9.4376
 264   2.0000      -0.345348        -9.3974
 265   2.0000      -0.340643        -9.2694
 266   2.0000      -0.339468        -9.2374
 267   2.0000      -0.337111        -9.1733
 268   2.0000      -0.336431        -9.1548
 269   2.0000      -0.321537        -8.7495
 270   2.0000      -0.317222        -8.6320
 271   2.0000      -0.313967        -8.5435
 272   2.0000      -0.282222        -7.6796
 273   2.0000      -0.237990        -6.4760
 274   0.0000      -0.121934        -3.3180
 275   0.0000      -0.098413        -2.6780
 276   0.0000      -0.093766        -2.5515
 277   0.0000      -0.036127        -0.9831
 278   0.0000      -0.035010        -0.9527

MULLIKEN ATOMIC CHARGES
-----------------------
   0 C :    0.401854
   1 C :   -0.177715
   2 N :   -0.265948
   3 S :    0.470485
   4 N :   -0.261526
   5 C :   -0.168290
   6 C :    0.370665
   7 C :   -0.106211
   8 C :   -0.189974
   9 N :   -0.267376
  10 S :    0.456955
  11 N :   -0.280225
  12 C :   -0.225877
  13 C :    0.021880
  14 C :    0.006076
  15 C :   -0.104721
  16 S :    0.217067
  17 C :   -0.075969
  18 C :    0.027740
  19 C :    0.302455
  20 C :   -0.304131
  21 C :   -0.187065
  22 N :    0.171401
  23 C :   -0.187107
  24 N :    0.167610
  25 C :   -0.047522
  26 C :   -0.164396
  27 S :    0.194491
  28 C :    0.182989
  29 C :   -0.077657
  30 C :   -0.075323
  31 N :   -0.041628
  32 C :    0.148965
  33 C :    0.148911
  34 N :   -0.041718
  35 F :   -0.137184
  36 F :   -0.137604
  37 C :    0.177972
  38 C :   -0.016764
  39 C :   -0.023938
  40 N :   -0.281987
  41 S :    0.565645
  42 N :   -0.283780
  43 C :   -0.167452
  44 C :   -0.046190
  45 C :    0.025703
  46 C :   -0.071951
  47 S :    0.194502
  48 C :   -0.102562
  49 C :    0.003630
  50 C :    0.302963
  51 C :   -0.307024
  52 C :   -0.189984
  53 N :    0.172099
  54 C :   -0.185424
  55 N :    0.173645
  56 C :    0.026558
  57 C :   -0.229573
  58 S :    0.205844
  59 C :    0.378028
  60 C :   -0.127483
  61 N :   -0.271756
  62 S :    0.466957
  63 N :   -0.265995
  64 C :   -0.186526
  65 C :    0.398097
  66 C :   -0.185315
  67 C :   -0.144308
  68 N :   -0.266714
  69 S :    0.455543
  70 N :   -0.263015
  71 H :    0.048492
  72 H :    0.039264
  73 H :    0.037288
  74 H :    0.007913
  75 H :    0.020192
  76 H :    0.020958
  77 H :    0.007102
  78 H :    0.039279
  79 H :    0.038327
  80 H :    0.047360
Sum of atomic charges:   -0.0000000

LOEWDIN ATOMIC CHARGES
----------------------
   0 C :   -0.021201
   1 C :   -0.057281
   2 N :   -0.267604
   3 S :    0.599360
   4 N :   -0.266172
   5 C :   -0.058263
   6 C :   -0.030362
   7 C :   -0.063539
   8 C :   -0.054194
   9 N :   -0.267583
  10 S :    0.587500
  11 N :   -0.279165
  12 C :   -0.162536
  13 C :   -0.038587
  14 C :   -0.072008
  15 C :   -0.179739
  16 S :    0.488886
  17 C :   -0.180487
  18 C :   -0.075852
  19 C :    0.083003
  20 C :   -0.106237
  21 C :   -0.017412
  22 N :   -0.034352
  23 C :   -0.015865
  24 N :   -0.037543
  25 C :   -0.010534
  26 C :   -0.165480
  27 S :    0.504541
  28 C :   -0.043680
  29 C :   -0.020240
  30 C :   -0.019686
  31 N :   -0.055814
  32 C :    0.060031
  33 C :    0.060687
  34 N :   -0.056616
  35 F :   -0.026457
  36 F :   -0.026853
  37 C :   -0.045178
  38 C :   -0.039654
  39 C :   -0.039996
  40 N :   -0.274846
  41 S :    0.689469
  42 N :   -0.275510
  43 C :   -0.165013
  44 C :   -0.011321
  45 C :   -0.076114
  46 C :   -0.180222
  47 S :    0.502955
  48 C :   -0.182645
  49 C :   -0.069188
  50 C :    0.082160
  51 C :   -0.104624
  52 C :   -0.016860
  53 N :   -0.034993
  54 C :   -0.017434
  55 N :   -0.033200
  56 C :   -0.035691
  57 C :   -0.166492
  58 S :    0.485596
  59 C :   -0.027063
  60 C :   -0.055043
  61 N :   -0.268755
  62 S :    0.595730
  63 N :   -0.267155
  64 C :   -0.056356
  65 C :   -0.021095
  66 C :   -0.054968
  67 C :   -0.072438
  68 N :   -0.272374
  69 S :    0.586528
  70 N :   -0.266225
  71 H :    0.060369
  72 H :    0.058998
  73 H :    0.060106
  74 H :    0.039022
  75 H :    0.038406
  76 H :    0.038666
  77 H :    0.040568
  78 H :    0.061276
  79 H :    0.058412
  80 H :    0.059528

  Mayer bond orders larger than 0.100000
B(  0-C ,  1-C ) :   1.0219 B(  0-C ,  8-C ) :   1.0221 B(  0-C , 71-H ) :   0.8636
B(  0-C , 72-H ) :   0.8793 B(  1-C ,  2-N ) :   1.6705 B(  1-C ,  5-C ) :   1.2290
B(  2-N ,  3-S ) :   1.2141 B(  2-N ,  4-N ) :   0.1228 B(  3-S ,  4-N ) :   1.2122
B(  3-S ,  5-C ) :   0.1001 B(  4-N ,  5-C ) :   1.6647 B(  5-C ,  6-C ) :   0.9841
B(  6-C ,  7-C ) :   0.9806 B(  6-C , 12-C ) :   1.0000 B(  6-C , 73-H ) :   0.8189
B(  7-C ,  8-C ) :   1.2365 B(  7-C , 11-N ) :   1.6497 B(  8-C ,  9-N ) :   1.6763
B(  9-N , 10-S ) :   1.2100 B(  9-N , 11-N ) :   0.1234 B( 10-S , 11-N ) :   1.2033
B( 12-C , 13-C ) :   1.5856 B( 12-C , 16-S ) :   1.1242 B( 13-C , 14-C ) :   1.2026
B( 13-C , 74-H ) :   0.9917 B( 14-C , 15-C ) :   1.4639 B( 14-C , 19-C ) :   1.0179
B( 15-C , 16-S ) :   1.1165 B( 15-C , 17-C ) :   1.1821 B( 17-C , 18-C ) :   1.4192
B( 17-C , 27-S ) :   1.1043 B( 18-C , 19-C ) :   0.9913 B( 18-C , 25-C ) :   1.2814
B( 19-C , 20-C ) :   1.7034 B( 20-C , 21-C ) :   1.1366 B( 20-C , 23-C ) :   1.1336
B( 21-C , 22-N ) :   2.9898 B( 23-C , 24-N ) :   2.9886 B( 25-C , 26-C ) :   1.4224
B( 25-C , 75-H ) :   0.9828 B( 26-C , 27-S ) :   1.0925 B( 26-C , 28-C ) :   1.1920
B( 28-C , 29-C ) :   1.2861 B( 28-C , 37-C ) :   0.1098 B( 28-C , 39-C ) :   1.1938
B( 29-C , 30-C ) :   1.1386 B( 29-C , 34-N ) :   1.3731 B( 30-C , 31-N ) :   1.3737
B( 30-C , 37-C ) :   1.2884 B( 31-N , 32-C ) :   1.6544 B( 32-C , 33-C ) :   1.1108
B( 32-C , 36-F ) :   1.1828 B( 33-C , 34-N ) :   1.6495 B( 33-C , 35-F ) :   1.1837
B( 37-C , 38-C ) :   1.1981 B( 37-C , 43-C ) :   1.1894 B( 38-C , 39-C ) :   1.1112
B( 38-C , 42-N ) :   1.5146 B( 39-C , 40-N ) :   1.5157 B( 40-N , 41-S ) :   1.2779
B( 40-N , 42-N ) :   0.1467 B( 41-S , 42-N ) :   1.2771 B( 43-C , 44-C ) :   1.4275
B( 43-C , 47-S ) :   1.0917 B( 44-C , 45-C ) :   1.2741 B( 44-C , 76-H ) :   0.9838
B( 45-C , 46-C ) :   1.4188 B( 45-C , 50-C ) :   0.9937 B( 46-C , 47-S ) :   1.1089
B( 46-C , 48-C ) :   1.1795 B( 48-C , 49-C ) :   1.4591 B( 48-C , 58-S ) :   1.1183
B( 49-C , 50-C ) :   1.0117 B( 49-C , 56-C ) :   1.2277 B( 50-C , 51-C ) :   1.7065
B( 51-C , 52-C ) :   1.1336 B( 51-C , 54-C ) :   1.1371 B( 52-C , 53-N ) :   2.9917
B( 54-C , 55-N ) :   2.9903 B( 56-C , 57-C ) :   1.5701 B( 56-C , 77-H ) :   0.9898
B( 57-C , 58-S ) :   1.1289 B( 57-C , 59-C ) :   1.0038 B( 59-C , 60-C ) :   0.9962
B( 59-C , 67-C ) :   0.9762 B( 59-C , 78-H ) :   0.8159 B( 60-C , 61-N ) :   1.6496
B( 60-C , 64-C ) :   1.2189 B( 61-N , 62-S ) :   1.2042 B( 61-N , 63-N ) :   0.1209
B( 62-S , 63-N ) :   1.2098 B( 63-N , 64-C ) :   1.6811 B( 64-C , 65-C ) :   1.0209
B( 65-C , 66-C ) :   1.0221 B( 65-C , 79-H ) :   0.8824 B( 65-C , 80-H ) :   0.8664
B( 66-C , 67-C ) :   1.2188 B( 66-C , 70-N ) :   1.6862 B( 67-C , 68-N ) :   1.6604
B( 68-N , 69-S ) :   1.2046 B( 68-N , 70-N ) :   0.1205 B( 69-S , 70-N ) :   1.2066

-----------------------------------------------------------------------------
         ABSORPTION SPECTRUM VIA TRANSITION ELECTRIC DIPOLE MOMENTS
-----------------------------------------------------------------------------
State   Energy  Wavelength   fosc         T2         TX        TY        TZ
        (cm-1)    (nm)                  (au**2)     (au)      (au)      (au)
-----------------------------------------------------------------------------
   0    9468.2   1056.2   0.485636501  16.88571   0.41987   1.51545  -3.79642
   1   13084.0    764.3   0.019495263   0.49053   0.67928  -0.10523   0.13431
   2   13739.9    727.8   0.004131819   0.09900  -0.02892  -0.11252   0.29241
   3   19333.6    517.2   0.089908097   1.53095  -1.21159  -0.12216  -0.21928
   4   23899.7    418.4   0.028827970   0.39710   0.06812   0.22230  -0.58569
   5   25039.1    399.4   0.036194205   0.47588   0.61828  -0.00493   0.30591
   6   25271.9    395.7   0.137727704   1.79415   0.27566   0.50764  -1.20850
   7   26681.0    374.8   0.005064569   0.06249   0.04827   0.24430  -0.02183
   8   26934.7    371.3   0.036759487   0.44930   0.09578  -0.61686  -0.24415
   9   27770.7    360.1   0.142171797   1.68540   0.11729   0.45735  -1.20933
  10   29620.1    337.6   0.088837223   0.98738  -0.53834   0.83071   0.08654
  11   29981.5    333.5   0.762286172   8.37030   0.37986   0.97384  -2.69771
  12   31346.3    319.0   0.061679372   0.64778   0.67071  -0.27583   0.34907
  13   31546.8    317.0   0.050677314   0.52885   0.02077   0.66156   0.30127
  14   31749.5    315.0   0.122975158   1.27514   0.26572  -1.07621  -0.21520
  15   32020.7    312.3   0.131816553   1.35524   0.76131  -0.50095  -0.72436
  16   32305.0    309.5   0.014050351   0.14318  -0.15127   0.29538   0.18180
  17   32345.3    309.2   0.311942322   3.17496  -0.03467  -1.04062   1.44598
  18   32553.3    307.2   0.748928554   7.57392  -0.01802  -2.38937  -1.36546
  19   33053.7    302.5   0.024245917   0.24149   0.10686   0.44519  -0.17852
  20   33453.4    298.9   0.189883748   1.86863  -0.07698  -1.23878  -0.57283
  21   34109.4    293.2   0.009637920   0.09302  -0.23892  -0.18624   0.03545
  22   34562.2    289.3   0.264801380   2.52229  -1.02505  -1.00992  -0.67202
  23   34804.7    287.3   0.017660951   0.16705   0.17598   0.18425  -0.31959
  24   35011.9    285.6   0.469856469   4.41799   0.41357   1.90506   0.78594
  25   35486.4    281.8   0.096283606   0.89323   0.11144   0.64463  -0.68211
  26   35569.6    281.1   0.053234979   0.49271  -0.53772   0.35316   0.28080
  27   36323.8    275.3   0.000641276   0.00581   0.05895   0.02531   0.04118
  28   36406.0    274.7   0.015536326   0.14049   0.10181  -0.33054   0.14446
  29   36685.8    272.6   0.103600066   0.92969  -0.25396   0.86330   0.34628
  30   36904.3    271.0   0.010928989   0.09749   0.11604   0.24627   0.15290
  31   37387.9    267.5   0.019719236   0.17363   0.07798  -0.38491  -0.13926
  32   37482.1    266.8   0.024988343   0.21948  -0.22329  -0.23736  -0.33657
  33   37700.6    265.2   0.004079202   0.03562   0.02260  -0.18709  -0.01035
  34   37875.6    264.0   0.003197121   0.02779   0.03379   0.11167   0.11907
  35   38384.9    260.5   0.072386100   0.62083   0.41083  -0.62370   0.25108
  36   38702.0    258.4   0.478830989   4.07310  -1.37501   1.35025   0.59939
  37   39018.1    256.3   0.045410517   0.38315  -0.29414   0.52933  -0.12822
  38   39268.5    254.7   0.041055460   0.34419  -0.33666   0.42473   0.22462
  39   39512.9    253.1   0.001605980   0.01338   0.05930  -0.06577   0.07442
  40   39731.8    251.7   0.008576259   0.07106  -0.05635   0.18488  -0.18359
  41   40081.0    249.5   0.139966450   1.14964  -0.40354   0.93196   0.34387

FINAL SINGLE POINT ENERGY     -6337.476880926259

DIPOLE MOMENT
-------------
                                X             Y             Z
Electronic contribution:    -22.12380     -13.29739      -7.04924
Nuclear contribution   :     22.58855      10.68123       5.86516
                        -----------------------------------------
Total Dipole Moment    :      0.46475      -2.61616      -1.18408
                        -----------------------------------------
Magnitude (a.u.)       :      2.90901
Magnitude (Debye)      :      7.39411

Rotational constants in cm-1:     0.001090     0.000335     0.000309
Rotational constants in MHz :    32.670012    10.037088     9.254737

                             ****ORCA TERMINATED NORMALLY****
TOTAL RUN TIME: 0 days 0 hours 7 minutes 39 seconds 948 msec
