                         Program Version 4.2.0 -  RELEASE  -
|  1> # ORCA input file
|  2> # SCF done       -222.338233109485          0.000752402440
|  3> ! CAM-B3LYP def2-SVP def2/J RIJCOSX Grid4 TightSCF
|  4> %maxcore 5000
|  5> %tddft
|  6>     Mode sTDDFT
|  7>     Ethresh 5.0
|  8>     maxcore 5000
|  9> end
| 10>
| 11> %pal
| 12>   nprocs 6
| 13>   end
| 14> * xyz 0 1
| 15>    C       -8.36112        -2.30122         1.75683
| 16>    C       -9.58492        -1.81841         2.19320
| 17>    C      -10.43752        -1.22745         1.26049
| 18>    C      -11.69454        -0.72752         1.68643
| 19>    N      -12.70420        -0.32254         2.04151
| 20>    C      -10.07278        -1.11891        -0.09640
| 21>    C      -10.95886        -0.50947        -1.01879
| 22>    N      -11.65927        -0.01665        -1.77797
| 23>    C       -8.84167        -1.60871        -0.53353
| 24>    C       -8.00623        -2.19311         0.39628
| 25>    C       -6.67366        -2.78926         0.18007
| 26>    O       -6.02131        -2.79261        -0.83575
| 27>    C       -6.28247        -3.36124         1.50433
| 28>    C       -7.28987        -2.97145         2.48515
| 29>    C       -7.22722        -3.17159         3.83265
| 30>    C       -8.18458        -2.71426         4.76367
| 31>    N       -8.89779        -2.35097         5.58603
| 32>    C       -6.16686        -3.83249         4.49564
| 33>    N       -5.34436        -4.35577         5.09867
| 34>    C       -5.19440        -4.12526         1.69502
| 35>    C       -4.25357        -4.50002         0.64910
| 36>    C       -2.90694        -4.17780         0.78713
| 37>    C       -2.25921        -3.39209         1.86581
| 38>    O       -2.79212        -2.84449         2.79772
| 39>    N       -0.90156        -3.39371         1.55821
| 40>    C       -0.62744        -4.05896         0.34920
| 41>    O        0.46386        -4.18319        -0.13107
| 42>    C       -1.93932        -4.54608        -0.14772
| 43>    C       -2.26670        -5.24611        -1.29325
| 44>    C       -3.61230        -5.57237        -1.44491
| 45>    C       -4.58095        -5.22903        -0.50385
| 46>    C       -5.94099        -5.71195        -0.82721
| 47>    O       -6.93369        -5.60463        -0.16700
| 48>    S       -5.90638        -6.53596        -2.41215
| 49>    C       -4.13164        -6.31172        -2.61620
| 50>    O       -3.51874        -6.70798        -3.55671
| 51>    C        0.14002        -2.83700         2.29814
| 52>    C        0.00989        -2.16332         3.44593
| 53>    C        1.13935        -1.63412         4.17097
| 54>    C        2.47025        -2.05874         3.99046
| 55>    C        3.36559        -1.41092         4.80162
| 56>    S        5.07384        -1.71350         4.83670
| 57>    C        5.61823        -0.51920         6.08795
| 58>    S        2.59037        -0.23837         5.81335
| 59>    C        1.02881        -0.63381         5.14287
| 60>    C       -0.12513         0.06808         5.55531
| 61>    C       -0.08968         1.12753         6.40110
| 62>    C       -1.21272         1.91833         6.79600
| 63>    C       -2.53118         1.43576         6.94218
| 64>    C       -3.04292         0.04331         6.95925
| 65>    O       -2.46123        -0.99853         6.81913
| 66>    N       -4.42432         0.15214         7.20262
| 67>    C       -4.83509         1.48557         7.34923
| 68>    O       -5.96964         1.83483         7.52424
| 69>    C       -3.59770         2.28614         7.24429
| 70>    C       -3.44546         3.64338         7.45689
| 71>    C       -2.14278         4.12090         7.39034
| 72>    C       -1.05972         3.30283         7.07943
| 73>    C        0.22661         4.02141         7.04745
| 74>    O        1.31739         3.60463         6.78833
| 75>    S       -0.04491         5.75422         7.46665
| 76>    C       -1.81210         5.54084         7.64307
| 77>    O       -2.56759         6.42265         7.91395
| 78>    C       -5.33148        -0.86737         7.40008
| 79>    C       -5.05392        -2.17122         7.56922
| 80>    C       -6.06702        -3.14997         7.78219
| 81>    C       -7.34075        -3.01358         8.23837
| 82>    C       -8.30957        -4.10256         7.92068
| 83>    O       -8.05399        -5.18664         7.45360
| 84>    C       -9.64336        -3.53574         8.21128
| 85>    C      -10.88277        -4.08585         7.96294
| 86>    C      -12.01268        -3.32975         8.27754
| 87>    C      -11.87096        -2.03738         8.81892
| 88>    C      -10.61072        -1.49214         9.06949
| 89>    C       -9.49333        -2.25351         8.77268
| 90>    C       -8.06652        -1.96437         8.92964
| 91>    C       -7.56409        -1.01671         9.77950
| 92>    C       -6.19511        -0.82148        10.05266
| 93>    N       -5.09851        -0.60980        10.31654
| 94>    C       -8.36615        -0.14371        10.54849
| 95>    N       -8.96909         0.57840        11.20437
| 96>    C      -13.02996        -1.27701         9.11447
| 97>    N      -13.96162        -0.65775         9.35712
| 98>    C      -13.30380        -3.86174         8.04429
| 99>    N      -14.33766        -4.31284         7.84696
|100>    H       -9.89813        -1.89067         3.22312
|101>    H       -8.55146        -1.53659        -1.57073
|102>    H       -4.93592        -4.48299         2.68286
|103>    H       -1.53437        -5.52886        -2.03264
|104>    H        1.09592        -3.00619         1.82187
|105>    H       -0.96859        -1.99804         3.86840
|106>    H        2.77629        -2.83024         3.30922
|107>    H        6.69499        -0.62845         6.16691
|108>    H        5.14590        -0.74873         7.03874
|109>    H        5.36403         0.48656         5.76599
|110>    H       -1.05902        -0.24913         5.11779
|111>    H        0.87548         1.48004         6.73830
|112>    H       -4.27568         4.29032         7.68877
|113>    H       -6.35027        -0.49588         7.40173
|114>    H       -4.03995        -2.52768         7.47283
|115>    H       -5.81312        -4.15747         7.46561
|116>    H      -10.97602        -5.07272         7.53564
|117>    H      -10.53896        -0.49363         9.47093
|118> *
|119>
|120>                          ****END OF INPUT****

CARTESIAN COORDINATES (ANGSTROEM)
---------------------------------
  C     -8.361120   -2.301220    1.756830
  C     -9.584920   -1.818410    2.193200
  C    -10.437520   -1.227450    1.260490
  C    -11.694540   -0.727520    1.686430
  N    -12.704200   -0.322540    2.041510
  C    -10.072780   -1.118910   -0.096400
  C    -10.958860   -0.509470   -1.018790
  N    -11.659270   -0.016650   -1.777970
  C     -8.841670   -1.608710   -0.533530
  C     -8.006230   -2.193110    0.396280
  C     -6.673660   -2.789260    0.180070
  O     -6.021310   -2.792610   -0.835750
  C     -6.282470   -3.361240    1.504330
  C     -7.289870   -2.971450    2.485150
  C     -7.227220   -3.171590    3.832650
  C     -8.184580   -2.714260    4.763670
  N     -8.897790   -2.350970    5.586030
  C     -6.166860   -3.832490    4.495640
  N     -5.344360   -4.355770    5.098670
  C     -5.194400   -4.125260    1.695020
  C     -4.253570   -4.500020    0.649100
  C     -2.906940   -4.177800    0.787130
  C     -2.259210   -3.392090    1.865810
  O     -2.792120   -2.844490    2.797720
  N     -0.901560   -3.393710    1.558210
  C     -0.627440   -4.058960    0.349200
  O      0.463860   -4.183190   -0.131070
  C     -1.939320   -4.546080   -0.147720
  C     -2.266700   -5.246110   -1.293250
  C     -3.612300   -5.572370   -1.444910
  C     -4.580950   -5.229030   -0.503850
  C     -5.940990   -5.711950   -0.827210
  O     -6.933690   -5.604630   -0.167000
  S     -5.906380   -6.535960   -2.412150
  C     -4.131640   -6.311720   -2.616200
  O     -3.518740   -6.707980   -3.556710
  C      0.140020   -2.837000    2.298140
  C      0.009890   -2.163320    3.445930
  C      1.139350   -1.634120    4.170970
  C      2.470250   -2.058740    3.990460
  C      3.365590   -1.410920    4.801620
  S      5.073840   -1.713500    4.836700
  C      5.618230   -0.519200    6.087950
  S      2.590370   -0.238370    5.813350
  C      1.028810   -0.633810    5.142870
  C     -0.125130    0.068080    5.555310
  C     -0.089680    1.127530    6.401100
  C     -1.212720    1.918330    6.796000
  C     -2.531180    1.435760    6.942180
  C     -3.042920    0.043310    6.959250
  O     -2.461230   -0.998530    6.819130
  N     -4.424320    0.152140    7.202620
  C     -4.835090    1.485570    7.349230
  O     -5.969640    1.834830    7.524240
  C     -3.597700    2.286140    7.244290
  C     -3.445460    3.643380    7.456890
  C     -2.142780    4.120900    7.390340
  C     -1.059720    3.302830    7.079430
  C      0.226610    4.021410    7.047450
  O      1.317390    3.604630    6.788330
  S     -0.044910    5.754220    7.466650
  C     -1.812100    5.540840    7.643070
  O     -2.567590    6.422650    7.913950
  C     -5.331480   -0.867370    7.400080
  C     -5.053920   -2.171220    7.569220
  C     -6.067020   -3.149970    7.782190
  C     -7.340750   -3.013580    8.238370
  C     -8.309570   -4.102560    7.920680
  O     -8.053990   -5.186640    7.453600
  C     -9.643360   -3.535740    8.211280
  C    -10.882770   -4.085850    7.962940
  C    -12.012680   -3.329750    8.277540
  C    -11.870960   -2.037380    8.818920
  C    -10.610720   -1.492140    9.069490
  C     -9.493330   -2.253510    8.772680
  C     -8.066520   -1.964370    8.929640
  C     -7.564090   -1.016710    9.779500
  C     -6.195110   -0.821480   10.052660
  N     -5.098510   -0.609800   10.316540
  C     -8.366150   -0.143710   10.548490
  N     -8.969090    0.578400   11.204370
  C    -13.029960   -1.277010    9.114470
  N    -13.961620   -0.657750    9.357120
  C    -13.303800   -3.861740    8.044290
  N    -14.337660   -4.312840    7.846960
  H     -9.898130   -1.890670    3.223120
  H     -8.551460   -1.536590   -1.570730
  H     -4.935920   -4.482990    2.682860
  H     -1.534370   -5.528860   -2.032640
  H      1.095920   -3.006190    1.821870
  H     -0.968590   -1.998040    3.868400
  H      2.776290   -2.830240    3.309220
  H      6.694990   -0.628450    6.166910
  H      5.145900   -0.748730    7.038740
  H      5.364030    0.486560    5.765990
  H     -1.059020   -0.249130    5.117790
  H      0.875480    1.480040    6.738300
  H     -4.275680    4.290320    7.688770
  H     -6.350270   -0.495880    7.401730
  H     -4.039950   -2.527680    7.472830
  H     -5.813120   -4.157470    7.465610
  H    -10.976020   -5.072720    7.535640
  H    -10.538960   -0.493630    9.470930

 Total Charge           Charge          ....    0
 Multiplicity           Mult            ....    1
 Number of Electrons    NEL             ....  598
 Basis Dimension        Dim             .... 1296

ORBITAL ENERGIES
----------------

  NO   OCC          E(Eh)            E(eV)
   0   2.0000     -88.976980     -2421.1867
   1   2.0000     -88.973948     -2421.1042
   2   2.0000     -88.957017     -2420.6435
   3   2.0000     -88.952650     -2420.5247
   4   2.0000     -19.269848      -524.3592
   5   2.0000     -19.269280      -524.3438
   6   2.0000     -19.266668      -524.2727
   7   2.0000     -19.262752      -524.1661
   8   2.0000     -19.260661      -524.1092
   9   2.0000     -19.250909      -523.8439
  10   2.0000     -19.250472      -523.8320
  11   2.0000     -19.249350      -523.8014
  12   2.0000     -19.247573      -523.7531
  13   2.0000     -19.231380      -523.3124
  14   2.0000     -14.510495      -394.8506
  15   2.0000     -14.500954      -394.5910
  16   2.0000     -14.464814      -393.6076
  17   2.0000     -14.459486      -393.4626
  18   2.0000     -14.444978      -393.0678
  19   2.0000     -14.444164      -393.0457
  20   2.0000     -14.431252      -392.6943
  21   2.0000     -14.426121      -392.5547
  22   2.0000     -14.423172      -392.4745
  23   2.0000     -14.421289      -392.4232
  24   2.0000     -10.441771      -284.1350
  25   2.0000     -10.439416      -284.0709
  26   2.0000     -10.433849      -283.9195
  27   2.0000     -10.430103      -283.8175
  28   2.0000     -10.429844      -283.8105
  29   2.0000     -10.427128      -283.7366
  30   2.0000     -10.417134      -283.4646
  31   2.0000     -10.413568      -283.3676
  32   2.0000     -10.410423      -283.2820
  33   2.0000     -10.394252      -282.8420
  34   2.0000     -10.388447      -282.6840
  35   2.0000     -10.381884      -282.5054
  36   2.0000     -10.381597      -282.4976
  37   2.0000     -10.380563      -282.4695
  38   2.0000     -10.367966      -282.1267
  39   2.0000     -10.366878      -282.0971
  40   2.0000     -10.364009      -282.0190
  41   2.0000     -10.361464      -281.9498
  42   2.0000     -10.360043      -281.9111
  43   2.0000     -10.359640      -281.9001
  44   2.0000     -10.357965      -281.8546
  45   2.0000     -10.357447      -281.8404
  46   2.0000     -10.356679      -281.8196
  47   2.0000     -10.355723      -281.7935
  48   2.0000     -10.354421      -281.7581
  49   2.0000     -10.353574      -281.7351
  50   2.0000     -10.353271      -281.7268
  51   2.0000     -10.352667      -281.7104
  52   2.0000     -10.352305      -281.7005
  53   2.0000     -10.351762      -281.6858
  54   2.0000     -10.351307      -281.6734
  55   2.0000     -10.348662      -281.6014
  56   2.0000     -10.346189      -281.5341
  57   2.0000     -10.344123      -281.4779
  58   2.0000     -10.340711      -281.3850
  59   2.0000     -10.340559      -281.3809
  60   2.0000     -10.339962      -281.3647
  61   2.0000     -10.339560      -281.3537
  62   2.0000     -10.333450      -281.1875
  63   2.0000     -10.333194      -281.1805
  64   2.0000     -10.332260      -281.1551
  65   2.0000     -10.332058      -281.1496
  66   2.0000     -10.331194      -281.1261
  67   2.0000     -10.331012      -281.1211
  68   2.0000     -10.327800      -281.0337
  69   2.0000     -10.327072      -281.0139
  70   2.0000     -10.326933      -281.0101
  71   2.0000     -10.325738      -280.9776
  72   2.0000     -10.325050      -280.9589
  73   2.0000     -10.319989      -280.8212
  74   2.0000     -10.317780      -280.7611
  75   2.0000     -10.317759      -280.7605
  76   2.0000     -10.312351      -280.6133
  77   2.0000     -10.312325      -280.6126
  78   2.0000     -10.308542      -280.5097
  79   2.0000     -10.307784      -280.4891
  80   2.0000     -10.306830      -280.4631
  81   2.0000     -10.299351      -280.2596
  82   2.0000     -10.296825      -280.1909
  83   2.0000     -10.286973      -279.9228
  84   2.0000     -10.285658      -279.8870
  85   2.0000      -8.076156      -219.7634
  86   2.0000      -8.069028      -219.5694
  87   2.0000      -8.056249      -219.2217
  88   2.0000      -8.048470      -219.0100
  89   2.0000      -6.045011      -164.4931
  90   2.0000      -6.041704      -164.4031
  91   2.0000      -6.038540      -164.3170
  92   2.0000      -6.037235      -164.2815
  93   2.0000      -6.034234      -164.1999
  94   2.0000      -6.030914      -164.1095
  95   2.0000      -6.025122      -163.9519
  96   2.0000      -6.021846      -163.8627
  97   2.0000      -6.018826      -163.7806
  98   2.0000      -6.017291      -163.7388
  99   2.0000      -6.014672      -163.6675
 100   2.0000      -6.008253      -163.4929
 101   2.0000      -1.207445       -32.8563
 102   2.0000      -1.197150       -32.5761
 103   2.0000      -1.195684       -32.5362
 104   2.0000      -1.191233       -32.4151
 105   2.0000      -1.184478       -32.2313
 106   2.0000      -1.181819       -32.1589
 107   2.0000      -1.175248       -31.9801
 108   2.0000      -1.173057       -31.9205
 109   2.0000      -1.170936       -31.8628
 110   2.0000      -1.147184       -31.2165
 111   2.0000      -1.100426       -29.9441
 112   2.0000      -1.090049       -29.6617
 113   2.0000      -1.068531       -29.0762
 114   2.0000      -1.054229       -28.6870
 115   2.0000      -1.043754       -28.4020
 116   2.0000      -1.040382       -28.3102
 117   2.0000      -1.037046       -28.2194
 118   2.0000      -1.032697       -28.1011
 119   2.0000      -1.024440       -27.8764
 120   2.0000      -1.023600       -27.8536
 121   2.0000      -1.019863       -27.7519
 122   2.0000      -1.007665       -27.4200
 123   2.0000      -1.007274       -27.4093
 124   2.0000      -1.004976       -27.3468
 125   2.0000      -1.001883       -27.2626
 126   2.0000      -1.001530       -27.2530
 127   2.0000      -0.981750       -26.7148
 128   2.0000      -0.974342       -26.5132
 129   2.0000      -0.965177       -26.2638
 130   2.0000      -0.960492       -26.1363
 131   2.0000      -0.952465       -25.9179
 132   2.0000      -0.938837       -25.5471
 133   2.0000      -0.930687       -25.3253
 134   2.0000      -0.926961       -25.2239
 135   2.0000      -0.926172       -25.2024
 136   2.0000      -0.921336       -25.0708
 137   2.0000      -0.915513       -24.9124
 138   2.0000      -0.906980       -24.6802
 139   2.0000      -0.898743       -24.4560
 140   2.0000      -0.896556       -24.3965
 141   2.0000      -0.889987       -24.2178
 142   2.0000      -0.875995       -23.8370
 143   2.0000      -0.862901       -23.4807
 144   2.0000      -0.853365       -23.2213
 145   2.0000      -0.840364       -22.8675
 146   2.0000      -0.833801       -22.6889
 147   2.0000      -0.827723       -22.5235
 148   2.0000      -0.821781       -22.3618
 149   2.0000      -0.819843       -22.3091
 150   2.0000      -0.804538       -21.8926
 151   2.0000      -0.803483       -21.8639
 152   2.0000      -0.796439       -21.6722
 153   2.0000      -0.784390       -21.3443
 154   2.0000      -0.779124       -21.2010
 155   2.0000      -0.777159       -21.1476
 156   2.0000      -0.765396       -20.8275
 157   2.0000      -0.760426       -20.6923
 158   2.0000      -0.759326       -20.6623
 159   2.0000      -0.749459       -20.3938
 160   2.0000      -0.739698       -20.1282
 161   2.0000      -0.735277       -20.0079
 162   2.0000      -0.725125       -19.7317
 163   2.0000      -0.718368       -19.5478
 164   2.0000      -0.712447       -19.3867
 165   2.0000      -0.707593       -19.2546
 166   2.0000      -0.705983       -19.2108
 167   2.0000      -0.699570       -19.0363
 168   2.0000      -0.696003       -18.9392
 169   2.0000      -0.689959       -18.7747
 170   2.0000      -0.684537       -18.6272
 171   2.0000      -0.671413       -18.2701
 172   2.0000      -0.668428       -18.1889
 173   2.0000      -0.660477       -17.9725
 174   2.0000      -0.654325       -17.8051
 175   2.0000      -0.652548       -17.7567
 176   2.0000      -0.651937       -17.7401
 177   2.0000      -0.648936       -17.6584
 178   2.0000      -0.640092       -17.4178
 179   2.0000      -0.635888       -17.3034
 180   2.0000      -0.632981       -17.2243
 181   2.0000      -0.628289       -17.0966
 182   2.0000      -0.627564       -17.0769
 183   2.0000      -0.622915       -16.9504
 184   2.0000      -0.618253       -16.8235
 185   2.0000      -0.614688       -16.7265
 186   2.0000      -0.611414       -16.6374
 187   2.0000      -0.606698       -16.5091
 188   2.0000      -0.601141       -16.3579
 189   2.0000      -0.596850       -16.2411
 190   2.0000      -0.594073       -16.1656
 191   2.0000      -0.592882       -16.1331
 192   2.0000      -0.591614       -16.0986
 193   2.0000      -0.590792       -16.0763
 194   2.0000      -0.588539       -16.0150
 195   2.0000      -0.584524       -15.9057
 196   2.0000      -0.583412       -15.8755
 197   2.0000      -0.578523       -15.7424
 198   2.0000      -0.576807       -15.6957
 199   2.0000      -0.572464       -15.5775
 200   2.0000      -0.570215       -15.5164
 201   2.0000      -0.566649       -15.4193
 202   2.0000      -0.565607       -15.3909
 203   2.0000      -0.563690       -15.3388
 204   2.0000      -0.563103       -15.3228
 205   2.0000      -0.561875       -15.2894
 206   2.0000      -0.561265       -15.2728
 207   2.0000      -0.558786       -15.2053
 208   2.0000      -0.555909       -15.1270
 209   2.0000      -0.554038       -15.0761
 210   2.0000      -0.549850       -14.9622
 211   2.0000      -0.549071       -14.9410
 212   2.0000      -0.547066       -14.8864
 213   2.0000      -0.545370       -14.8403
 214   2.0000      -0.544132       -14.8066
 215   2.0000      -0.543288       -14.7836
 216   2.0000      -0.539702       -14.6860
 217   2.0000      -0.536323       -14.5941
 218   2.0000      -0.534113       -14.5340
 219   2.0000      -0.532404       -14.4874
 220   2.0000      -0.528157       -14.3719
 221   2.0000      -0.527112       -14.3434
 222   2.0000      -0.524389       -14.2694
 223   2.0000      -0.524067       -14.2606
 224   2.0000      -0.521333       -14.1862
 225   2.0000      -0.518510       -14.1094
 226   2.0000      -0.516238       -14.0476
 227   2.0000      -0.514975       -14.0132
 228   2.0000      -0.514165       -13.9911
 229   2.0000      -0.511587       -13.9210
 230   2.0000      -0.507284       -13.8039
 231   2.0000      -0.506210       -13.7747
 232   2.0000      -0.504367       -13.7245
 233   2.0000      -0.500453       -13.6180
 234   2.0000      -0.498185       -13.5563
 235   2.0000      -0.495957       -13.4957
 236   2.0000      -0.493302       -13.4234
 237   2.0000      -0.492096       -13.3906
 238   2.0000      -0.489337       -13.3155
 239   2.0000      -0.486748       -13.2451
 240   2.0000      -0.485835       -13.2202
 241   2.0000      -0.482201       -13.1214
 242   2.0000      -0.480539       -13.0761
 243   2.0000      -0.476974       -12.9791
 244   2.0000      -0.473540       -12.8857
 245   2.0000      -0.472979       -12.8704
 246   2.0000      -0.471883       -12.8406
 247   2.0000      -0.470437       -12.8012
 248   2.0000      -0.468196       -12.7403
 249   2.0000      -0.466604       -12.6969
 250   2.0000      -0.465168       -12.6579
 251   2.0000      -0.463958       -12.6249
 252   2.0000      -0.462545       -12.5865
 253   2.0000      -0.455312       -12.3897
 254   2.0000      -0.453572       -12.3423
 255   2.0000      -0.452041       -12.3007
 256   2.0000      -0.451308       -12.2807
 257   2.0000      -0.450163       -12.2496
 258   2.0000      -0.449026       -12.2186
 259   2.0000      -0.447788       -12.1849
 260   2.0000      -0.445961       -12.1352
 261   2.0000      -0.444341       -12.0911
 262   2.0000      -0.444098       -12.0845
 263   2.0000      -0.439403       -11.9568
 264   2.0000      -0.434721       -11.8294
 265   2.0000      -0.432414       -11.7666
 266   2.0000      -0.428632       -11.6637
 267   2.0000      -0.423566       -11.5258
 268   2.0000      -0.422265       -11.4904
 269   2.0000      -0.419951       -11.4275
 270   2.0000      -0.415715       -11.3122
 271   2.0000      -0.412895       -11.2354
 272   2.0000      -0.411778       -11.2051
 273   2.0000      -0.407894       -11.0994
 274   2.0000      -0.402714       -10.9584
 275   2.0000      -0.397899       -10.8274
 276   2.0000      -0.396043       -10.7769
 277   2.0000      -0.395078       -10.7506
 278   2.0000      -0.390768       -10.6333
 279   2.0000      -0.389816       -10.6074
 280   2.0000      -0.384402       -10.4601
 281   2.0000      -0.382951       -10.4206
 282   2.0000      -0.380322       -10.3491
 283   2.0000      -0.376123       -10.2348
 284   2.0000      -0.375775       -10.2254
 285   2.0000      -0.374162       -10.1815
 286   2.0000      -0.371832       -10.1181
 287   2.0000      -0.367854       -10.0098
 288   2.0000      -0.366589        -9.9754
 289   2.0000      -0.361125        -9.8267
 290   2.0000      -0.354495        -9.6463
 291   2.0000      -0.352455        -9.5908
 292   2.0000      -0.351534        -9.5657
 293   2.0000      -0.350342        -9.5333
 294   2.0000      -0.333301        -9.0696
 295   2.0000      -0.330368        -8.9898
 296   2.0000      -0.306684        -8.3453
 297   2.0000      -0.303554        -8.2601
 298   2.0000      -0.261191        -7.1074
 299   0.0000      -0.135082        -3.6758
 300   0.0000      -0.123349        -3.3565
 301   0.0000      -0.112822        -3.0700
 302   0.0000      -0.104587        -2.8460
 303   0.0000      -0.102396        -2.7863

MULLIKEN ATOMIC CHARGES
-----------------------
   0 C :    0.049257
   1 C :   -0.042031
   2 C :   -0.056786
   3 C :   -0.176623
   4 N :    0.221889
   5 C :   -0.062600
   6 C :   -0.173507
   7 N :    0.209580
   8 C :   -0.022027
   9 C :   -0.002632
  10 C :    0.158507
  11 O :   -0.127122
  12 C :   -0.021977
  13 C :    0.324174
  14 C :   -0.318898
  15 C :   -0.159099
  16 N :    0.145639
  17 C :   -0.165473
  18 N :    0.168806
  19 C :   -0.061771
  20 C :    0.003879
  21 C :   -0.014740
  22 C :    0.216699
  23 O :   -0.150635
  24 N :   -0.235044
  25 C :    0.202482
  26 O :   -0.121811
  27 C :    0.015598
  28 C :   -0.052945
  29 C :    0.041597
  30 C :    0.087315
  31 C :    0.050946
  32 O :   -0.144697
  33 S :    0.035180
  34 C :    0.048981
  35 O :   -0.104006
  36 C :    0.077510
  37 C :   -0.036791
  38 C :    0.133852
  39 C :   -0.009535
  40 C :   -0.113653
  41 S :    0.017983
  42 C :   -0.099185
  43 S :    0.110252
  44 C :   -0.130547
  45 C :    0.089904
  46 C :   -0.098633
  47 C :    0.084088
  48 C :   -0.063411
  49 C :    0.216864
  50 O :   -0.138104
  51 N :   -0.235226
  52 C :    0.201720
  53 O :   -0.128970
  54 C :    0.013555
  55 C :   -0.071914
  56 C :    0.040938
  57 C :    0.043977
  58 C :    0.032333
  59 O :   -0.130170
  60 S :    0.014539
  61 C :    0.053192
  62 O :   -0.114879
  63 C :    0.086112
  64 C :    0.023119
  65 C :    0.015491
  66 C :   -0.112646
  67 C :    0.123556
  68 O :   -0.134351
  69 C :    0.036108
  70 C :   -0.035003
  71 C :   -0.072689
  72 C :   -0.064645
  73 C :   -0.030204
  74 C :    0.037792
  75 C :    0.277350
  76 C :   -0.319639
  77 C :   -0.193868
  78 N :    0.166793
  79 C :   -0.182377
  80 N :    0.175182
  81 C :   -0.172294
  82 N :    0.197581
  83 C :   -0.170450
  84 N :    0.194027
  85 H :    0.022794
  86 H :    0.022158
  87 H :    0.058177
  88 H :    0.026834
  89 H :    0.033934
  90 H :    0.035659
  91 H :   -0.014145
  92 H :    0.074542
  93 H :    0.076702
  94 H :    0.079141
  95 H :   -0.006094
  96 H :    0.024483
  97 H :    0.021079
  98 H :    0.051412
  99 H :    0.040023
 100 H :    0.049935
 101 H :    0.010071
 102 H :    0.022562
Sum of atomic charges:   -0.0000000

LOEWDIN ATOMIC CHARGES
----------------------
   0 C :    0.003482
   1 C :    0.036772
   2 C :   -0.016004
   3 C :   -0.034396
   4 N :    0.003216
   5 C :   -0.021178
   6 C :   -0.033300
   7 N :   -0.001375
   8 C :    0.056464
   9 C :   -0.027872
  10 C :    0.091434
  11 O :   -0.119718
  12 C :   -0.059495
  13 C :    0.076890
  14 C :   -0.107995
  15 C :   -0.003885
  16 N :   -0.038436
  17 C :   -0.005586
  18 N :   -0.017027
  19 C :    0.086353
  20 C :    0.021962
  21 C :   -0.023301
  22 C :    0.100773
  23 O :   -0.130740
  24 N :   -0.011046
  25 C :    0.101603
  26 O :   -0.118047
  27 C :   -0.030139
  28 C :    0.053651
  29 C :   -0.048570
  30 C :   -0.037285
  31 C :   -0.043692
  32 O :   -0.124261
  33 S :    0.322077
  34 C :   -0.041346
  35 O :   -0.096535
  36 C :    0.029507
  37 C :   -0.031284
  38 C :   -0.028375
  39 C :   -0.096486
  40 C :   -0.297398
  41 S :    0.315378
  42 C :   -0.158924
  43 S :    0.443868
  44 C :   -0.185476
  45 C :    0.021694
  46 C :   -0.071638
  47 C :    0.041284
  48 C :   -0.047154
  49 C :    0.110127
  50 O :   -0.120082
  51 N :   -0.010108
  52 C :    0.103720
  53 O :   -0.124826
  54 C :   -0.028184
  55 C :    0.030787
  56 C :   -0.046639
  57 C :   -0.062716
  58 C :   -0.039369
  59 O :   -0.114026
  60 S :    0.302848
  61 C :   -0.048346
  62 O :   -0.107286
  63 C :    0.082021
  64 C :   -0.057660
  65 C :    0.079725
  66 C :   -0.101619
  67 C :    0.083011
  68 O :   -0.134599
  69 C :   -0.026136
  70 C :    0.048259
  71 C :   -0.029567
  72 C :   -0.023626
  73 C :    0.035638
  74 C :    0.009813
  75 C :    0.064413
  76 C :   -0.125578
  77 C :   -0.011672
  78 N :   -0.041263
  79 C :   -0.022720
  80 N :   -0.035077
  81 C :   -0.030963
  82 N :   -0.013502
  83 C :   -0.031648
  84 N :   -0.017787
  85 H :    0.052925
  86 H :    0.057039
  87 H :    0.054810
  88 H :    0.055889
  89 H :    0.034558
  90 H :    0.035957
  91 H :    0.028982
  92 H :    0.038730
  93 H :    0.027305
  94 H :    0.028202
  95 H :    0.033116
  96 H :    0.023378
  97 H :    0.052435
  98 H :    0.036913
  99 H :    0.044286
 100 H :    0.047605
 101 H :    0.051718
 102 H :    0.052345

  Mayer bond orders larger than 0.100000
B(  0-C ,  1-C ) :   1.3469 B(  0-C ,  9-C ) :   1.3302 B(  0-C , 13-C ) :   0.9726
B(  1-C ,  2-C ) :   1.4038 B(  1-C , 85-H ) :   0.9885 B(  2-C ,  3-C ) :   1.0862
B(  2-C ,  5-C ) :   1.3985 B(  3-C ,  4-N ) :   3.0462 B(  5-C ,  6-C ) :   1.0862
B(  5-C ,  8-C ) :   1.3699 B(  6-C ,  7-N ) :   3.0437 B(  8-C ,  9-C ) :   1.3574
B(  8-C , 86-H ) :   1.0150 B(  9-C , 10-C ) :   0.9271 B( 10-C , 11-O ) :   2.2458
B( 10-C , 12-C ) :   0.9076 B( 12-C , 13-C ) :   1.0342 B( 12-C , 19-C ) :   1.7817
B( 13-C , 14-C ) :   1.6807 B( 14-C , 15-C ) :   1.1536 B( 14-C , 17-C ) :   1.1587
B( 15-C , 16-N ) :   2.8975 B( 17-C , 18-N ) :   2.8968 B( 19-C , 20-C ) :   0.9986
B( 19-C , 87-H ) :   0.9125 B( 20-C , 21-C ) :   1.4360 B( 20-C , 30-C ) :   1.3772
B( 21-C , 22-C ) :   0.8943 B( 21-C , 27-C ) :   1.3698 B( 22-C , 23-O ) :   2.1355
B( 22-C , 24-N ) :   1.0590 B( 24-N , 25-C ) :   1.0153 B( 24-N , 36-C ) :   1.0009
B( 25-C , 26-O ) :   2.2459 B( 25-C , 27-C ) :   0.8677 B( 27-C , 28-C ) :   1.3503
B( 28-C , 29-C ) :   1.3186 B( 28-C , 88-H ) :   1.0256 B( 29-C , 30-C ) :   1.3598
B( 29-C , 34-C ) :   0.8343 B( 30-C , 31-C ) :   0.8464 B( 31-C , 32-O ) :   2.1545
B( 31-C , 33-S ) :   1.0447 B( 32-O , 33-S ) :   0.1104 B( 33-S , 34-C ) :   1.0170
B( 33-S , 35-O ) :   0.1055 B( 34-C , 35-O ) :   2.2378 B( 36-C , 37-C ) :   1.7446
B( 36-C , 89-H ) :   0.9684 B( 37-C , 38-C ) :   1.0758 B( 37-C , 90-H ) :   0.9583
B( 38-C , 39-C ) :   1.2748 B( 38-C , 44-C ) :   1.4153 B( 39-C , 40-C ) :   1.5281
B( 39-C , 91-H ) :   0.9889 B( 40-C , 41-S ) :   1.0497 B( 40-C , 43-S ) :   1.1294
B( 41-S , 42-C ) :   1.0101 B( 42-C , 92-H ) :   0.9716 B( 42-C , 93-H ) :   0.9648
B( 42-C , 94-H ) :   0.9643 B( 43-S , 44-C ) :   1.0781 B( 44-C , 45-C ) :   1.2348
B( 45-C , 46-C ) :   1.6241 B( 45-C , 95-H ) :   0.9547 B( 46-C , 47-C ) :   1.1587
B( 46-C , 96-H ) :   0.9365 B( 47-C , 48-C ) :   1.3147 B( 47-C , 57-C ) :   1.3242
B( 48-C , 49-C ) :   0.9143 B( 48-C , 54-C ) :   1.3840 B( 49-C , 50-O ) :   2.1701
B( 49-C , 51-N ) :   1.0067 B( 51-N , 52-C ) :   1.0073 B( 51-N , 63-C ) :   1.0639
B( 52-C , 53-O ) :   2.2379 B( 52-C , 54-C ) :   0.8802 B( 54-C , 55-C ) :   1.3390
B( 55-C , 56-C ) :   1.3311 B( 55-C , 97-H ) :   1.0280 B( 56-C , 57-C ) :   1.3524
B( 56-C , 61-C ) :   0.8372 B( 57-C , 58-C ) :   0.8652 B( 58-C , 59-O ) :   2.1501
B( 58-C , 60-S ) :   1.0285 B( 59-O , 60-S ) :   0.1023 B( 60-S , 61-C ) :   1.0273
B( 60-S , 62-O ) :   0.1092 B( 61-C , 62-O ) :   2.2246 B( 63-C , 64-C ) :   1.6656
B( 63-C , 98-H ) :   0.9593 B( 64-C , 65-C ) :   1.1442 B( 64-C , 99-H ) :   0.9545
B( 65-C , 66-C ) :   1.6609 B( 65-C ,100-H ) :   0.9251 B( 66-C , 67-C ) :   0.9501
B( 66-C , 75-C ) :   1.0294 B( 67-C , 68-O ) :   2.2653 B( 67-C , 69-C ) :   0.9041
B( 69-C , 70-C ) :   1.3663 B( 69-C , 74-C ) :   1.3331 B( 70-C , 71-C ) :   1.3704
B( 70-C ,101-H ) :   1.0133 B( 71-C , 72-C ) :   1.4009 B( 71-C , 83-C ) :   1.0830
B( 72-C , 73-C ) :   1.3912 B( 72-C , 81-C ) :   1.0845 B( 73-C , 74-C ) :   1.3637
B( 73-C ,102-H ) :   0.9878 B( 74-C , 75-C ) :   0.9746 B( 75-C , 76-C ) :   1.6661
B( 76-C , 77-C ) :   1.1749 B( 76-C , 79-C ) :   1.1269 B( 77-C , 78-N ) :   2.9724
B( 79-C , 80-N ) :   2.9908 B( 81-C , 82-N ) :   3.0429 B( 83-C , 84-N ) :   3.0456

-----------------------------------------------------------------------------
         ABSORPTION SPECTRUM VIA TRANSITION ELECTRIC DIPOLE MOMENTS
-----------------------------------------------------------------------------
State   Energy  Wavelength   fosc         T2         TX        TY        TZ
        (cm-1)    (nm)                  (au**2)     (au)      (au)      (au)
-----------------------------------------------------------------------------
   0   16122.4    620.3   0.013963026   0.28512   0.23339   0.32400   0.35450
   1   17398.0    574.8   0.037784858   0.71498  -0.66480  -0.51814   0.06745
   2   17811.0    561.5   0.001900256   0.03512  -0.09866   0.07985   0.13789
   3   20469.5    488.5   0.212174403   3.41241   0.94291  -1.08727  -1.15809
   4   20970.2    476.9   0.078868818   1.23817   0.82849  -0.45892  -0.58409
   5   21364.1    468.1   0.293963763   4.52987  -1.77023   0.74521   0.91696
   6   23661.3    422.6   0.120381232   1.67493   0.13444   1.26174  -0.25471
   7   24551.7    407.3   0.260365305   3.49122  -1.12083   0.88110   1.20774
   8   24733.0    404.3   0.066734907   0.88828   0.91106  -0.17610  -0.16507
   9   24947.8    400.8   0.014441010   0.19056  -0.43035  -0.00525  -0.07305
  10   26124.1    382.8   0.013939558   0.17566   0.39557   0.00385  -0.13846
  11   26618.2    375.7   0.040138143   0.49643  -0.35262   0.41859   0.44370
  12   27405.0    364.9   0.006941811   0.08339   0.21903   0.18781   0.01206
  13   27889.3    358.6   0.038988296   0.46023   0.26418  -0.40333  -0.47724
  14   27999.0    357.2   0.155531775   1.82874   0.72294   1.14250   0.02832
  15   28341.2    352.8   0.002195704   0.02551   0.08078   0.12935   0.04742
  16   28549.3    350.3   0.009356647   0.10789   0.14025  -0.11468  -0.27399
  17   28740.7    347.9   0.080869297   0.92632  -0.69223   0.48156   0.46393
  18   28863.5    346.5   0.127359888   1.45264   0.25960  -0.00782  -1.17694
  19   29174.8    342.8   0.151517575   1.70974  -1.30233  -0.11367  -0.02762
  20   29261.0    341.8   0.018531464   0.20850   0.31761   0.21025   0.25182
  21   29753.4    336.1   0.000314389   0.00348  -0.05145   0.01429  -0.02504
  22   30119.0    332.0   0.035143025   0.38413   0.49941   0.36529   0.03576
  23   30179.0    331.4   0.045805525   0.49968   0.08475   0.09868   0.69481
  24   30473.2    328.2   0.019398872   0.20957   0.34780   0.23431   0.18360
  25   30863.6    324.0   0.075695444   0.80742  -0.78180  -0.41258   0.16118
  26   30915.9    323.5   0.033877810   0.36075   0.10326   0.42320   0.41351
  27   31444.7    318.0   0.160866123   1.68419   0.94934   0.82497   0.31996
  28   31547.2    317.0   0.206704958   2.15708  -0.95335  -0.59077  -0.94826
  29   31770.9    314.8   0.091412107   0.94722  -0.59110  -0.64809  -0.42166
  30   31814.7    314.3   0.018870072   0.19526   0.11370   0.35267  -0.24075
  31   32064.4    311.9   0.003332746   0.03422   0.00100   0.01969   0.18393
  32   32245.8    310.1   0.242143414   2.47215   0.78401  -0.28257   1.33328
  33   32496.1    307.7   0.214964644   2.17777  -1.16831  -0.89176  -0.13254
  34   32773.7    305.1   0.004468360   0.04488   0.04892   0.11700   0.16971
  35   33054.9    302.5   0.002204857   0.02196   0.13732  -0.05426  -0.01254
  36   33198.3    301.2   0.017302149   0.17158   0.26732   0.25789  -0.18333
  37   33238.7    300.9   0.003159747   0.03130  -0.14483  -0.10101   0.01080
  38   33650.5    297.2   0.006473020   0.06333   0.07935  -0.14563  -0.18927
  39   33751.4    296.3   0.011912567   0.11620   0.33003   0.02995  -0.07987
  40   34149.7    292.8   0.004132657   0.03984   0.09035   0.01368   0.17745
  41   34312.8    291.4   0.254153746   2.43846   0.90852  -0.65057   1.09079
  42   34486.0    290.0   0.051169510   0.48848   0.44349   0.52718   0.11778
  43   34539.5    289.5   0.105133812   1.00208  -0.24936  -0.02734   0.96910
  44   34715.8    288.1   0.000781334   0.00741  -0.08123   0.02845  -0.00156
  45   34813.6    287.2   0.023802491   0.22509  -0.33294  -0.30648  -0.14250
  46   34863.5    286.8   0.279096900   2.63548   1.14798   0.32637   1.10050
  47   34871.0    286.8   0.332680223   3.14079  -1.30739  -1.02022  -0.62504
  48   35185.2    284.2   0.093755903   0.87723  -0.69448   0.38394  -0.49751
  49   35316.8    283.2   0.131736639   1.22801   0.45681   0.99665  -0.16128
  50   35884.2    278.7   0.113821045   1.04423  -0.80327   0.10441  -0.62296
  51   36164.2    276.5   0.003466051   0.03155  -0.00470  -0.15641  -0.08406
  52   36486.0    274.1   0.099221563   0.89527   0.81556  -0.23971   0.41554
  53   36584.8    273.3   0.003579267   0.03221   0.06604  -0.02348   0.16521
  54   36739.8    272.2   0.018656581   0.16717  -0.12351   0.33399  -0.20092
  55   36979.2    270.4   0.010218748   0.09097   0.15355  -0.23339  -0.11369
  56   37091.7    269.6   0.164797523   1.46268   1.20923   0.01509  -0.01444
  57   37219.6    268.7   0.093336472   0.82557   0.04442  -0.67101  -0.61101
  58   37299.6    268.1   0.020976310   0.18514  -0.04512  -0.20133   0.37759
  59   37373.3    267.6   0.239269963   2.10767   0.71273  -0.64482  -1.08807
  60   37609.6    265.9   0.001441209   0.01262   0.02840  -0.03735   0.10205
  61   37705.2    265.2   0.000813932   0.00711  -0.00962   0.01520  -0.08236
  62   37826.1    264.4   0.001872124   0.01629  -0.00964  -0.08252  -0.09691
  63   37865.1    264.1   0.089480153   0.77797   0.05487  -0.61790  -0.62703
  64   38023.7    263.0   0.023094939   0.19996   0.20688   0.21677   0.33192
  65   38208.0    261.7   0.078603324   0.67727   0.69858  -0.42942  -0.06969
  66   38510.7    259.7   0.037712329   0.32239   0.23888   0.50634   0.09455
  67   38591.5    259.1   0.001242309   0.01060  -0.07077  -0.03282  -0.06718
  68   38748.4    258.1   0.036757881   0.31230   0.05308   0.42091   0.36376
  69   38774.7    257.9   0.037634000   0.31953  -0.20182   0.42811   0.30906
  70   38813.7    257.6   0.000496337   0.00421  -0.04513   0.01120   0.04526
  71   38853.3    257.4   0.004175265   0.03538   0.12300   0.00837   0.14205
  72   38920.6    256.9   0.004132062   0.03495   0.14652  -0.04375   0.10755
  73   38954.7    256.7   0.018898093   0.15971  -0.35135   0.07992  -0.17284
  74   39039.7    256.1   0.038596643   0.32548  -0.10918   0.47922   0.28965
  75   39373.2    254.0   0.002099074   0.01755  -0.02685   0.04784   0.12059
  76   39471.1    253.3   0.030822690   0.25708  -0.12178  -0.44652  -0.20705
  77   39653.7    252.2   0.016432702   0.13643  -0.29308   0.10181   0.20042
  78   39786.7    251.3   0.003501618   0.02897  -0.12875   0.10763   0.02850
  79   39990.8    250.1   0.006739487   0.05548  -0.18707   0.14298  -0.00633
  80   40057.4    249.6   0.000505532   0.00415  -0.00629   0.02524  -0.05898

FINAL SINGLE POINT ENERGY     -5222.792242651477

DIPOLE MOMENT
-------------
                                X             Y             Z
Electronic contribution:    -30.35344      -0.54847      -9.84799
Nuclear contribution   :     35.98179      -1.17368       7.02576
                        -----------------------------------------
Total Dipole Moment    :      5.62835      -1.72215      -2.82222
                        -----------------------------------------
Magnitude (a.u.)       :      6.52756
Magnitude (Debye)      :     16.59174

Rotational constants in cm-1:     0.000635     0.000516     0.000343
Rotational constants in MHz :    19.035530    15.475906    10.276234

                             ****ORCA TERMINATED NORMALLY****
TOTAL RUN TIME: 0 days 0 hours 13 minutes 8 seconds 35 msec
