                         Program Version 4.2.0 -  RELEASE  -
|  1> # ORCA input file
|  2> # SCF done       -208.826163258190          0.000645894872
|  3> ! CAM-B3LYP def2-SVP def2/J RIJCOSX Grid4 TightSCF
|  4> %maxcore 5000
|  5> %tddft
|  6>     Mode sTDDFT
|  7>     Ethresh 5.0
|  8>     maxcore 5000
|  9> end
| 10>
| 11> %pal
| 12>   nprocs 6
| 13>   end
| 14> * xyz 0 1
| 15>    C        6.83576         2.93580         7.03886
| 16>    C        5.62611         2.89734         7.67640
| 17>    C        4.34388         3.35127         7.13170
| 18>    O        4.26817         3.81696         6.01644
| 19>    C        3.15662         3.20118         8.04695
| 20>    S        5.79507         2.23131         9.27566
| 21>    C        7.46815         2.01467         9.05519
| 22>    C        7.90658         2.42674         7.81554
| 23>    C        9.26140         2.37667         7.32771
| 24>    C       10.28240         1.78340         7.96590
| 25>    C       11.64948         1.78516         7.50242
| 26>    C       12.03061         1.69534         6.15418
| 27>    C       11.22752         1.43014         4.93858
| 28>    O       10.04980         1.21284         4.80872
| 29>    N       12.13384         1.43229         3.86512
| 30>    C       13.44764         1.63135         4.28269
| 31>    O       14.42461         1.67962         3.58079
| 32>    C       13.37141         1.76058         5.75753
| 33>    C       14.41149         1.89274         6.65657
| 34>    C       14.05468         1.93335         7.99850
| 35>    C       12.72317         1.87964         8.41831
| 36>    C       12.56163         1.95626         9.87784
| 37>    O       11.55454         1.95342        10.52582
| 38>    S       14.18633         2.06450        10.65031
| 39>    C       15.05058         2.03737         9.07989
| 40>    O       16.23894         2.09533         8.97480
| 41>    C       11.67545         1.23182         2.56428
| 42>    C       12.41949         1.34896         1.46019
| 43>    C       11.93740         1.17303         0.10638
| 44>    C       12.71717         1.63958        -0.92977
| 45>    C       12.27943         1.52857        -2.26373
| 46>    C       12.85103         1.93466        -3.46718
| 47>    C       14.15889         2.60256        -3.71092
| 48>    C       14.26206         3.96652        -3.00588
| 49>    N       15.49107         4.62934        -3.40115
| 50>    C       15.33235         1.68937        -3.30579
| 51>    N       15.36886         0.54273        -4.19584
| 52>    C       11.93274         1.54891        -4.51303
| 53>    C       11.99097         1.72023        -5.84708
| 54>    C       10.89288         1.24656        -6.73730
| 55>    C        9.79743         0.50730        -6.04563
| 56>    C        9.75013         0.35760        -4.70639
| 57>    C       10.78396         0.87828        -3.89492
| 58>    C       11.00271         0.88023        -2.52580
| 59>    C       10.23481         0.38873        -1.44929
| 60>    C       10.68768         0.53908        -0.17566
| 61>    C       11.50910         0.43922        -7.85259
| 62>    C       11.98617         1.00470        -8.95525
| 63>    C       12.67916         0.29881       -10.02104
| 64>    C       12.21353        -0.87678       -10.61256
| 65>    C       10.97302        -1.64764       -10.36657
| 66>    O       10.09683        -1.47090        -9.55729
| 67>    N       10.98208        -2.69158       -11.29711
| 68>    C       12.12657        -2.68823       -12.09810
| 69>    O       12.41605        -3.50598       -12.92958
| 70>    C       12.89678        -1.49567       -11.66760
| 71>    C       14.07901        -0.99804       -12.18060
| 72>    C       14.55820         0.16836       -11.59557
| 73>    C       13.88217         0.80310       -10.54930
| 74>    C       14.55721         2.00251       -10.03604
| 75>    O       14.22873         2.70728        -9.12347
| 76>    S       16.04912         2.29094       -10.99586
| 77>    C       15.80088         0.83329       -12.02115
| 78>    O       16.55109         0.50396       -12.88967
| 79>    C        9.93410        -3.61187       -11.34843
| 80>    C        9.69241        -4.43073       -12.37309
| 81>    C        8.59799        -5.37644       -12.37853
| 82>    C        7.83291        -5.62669       -13.50574
| 83>    C        7.95197        -4.97756       -14.80680
| 84>    O        8.69800        -4.03735       -14.98713
| 85>    C        7.08620        -5.55090       -15.90112
| 86>    S        6.61166        -6.81883       -13.18813
| 87>    C        7.12698        -6.96996       -11.56851
| 88>    C        8.18480        -6.15906       -11.25532
| 89>    C        8.85616        -6.15405        -9.96575
| 90>    C        8.28569        -6.47881        -8.81309
| 91>    H        6.94454         3.30755         6.03591
| 92>    H        3.03061         2.15593         8.32204
| 93>    H        2.26060         3.55854         7.54711
| 94>    H        3.31916         3.77337         8.95834
| 95>    H        8.05190         1.61189         9.85938
| 96>    H        9.42398         2.88214         6.38738
| 97>    H       10.12005         1.33385         8.93387
| 98>    H       15.44186         1.94375         6.34390
| 99>    H       10.61954         0.99840         2.55227
|100>    H       13.45903         1.62688         1.55368
|101>    H       13.66310         2.10988        -0.70809
|102>    H       14.26486         2.77629        -4.78595
|103>    H       14.29704         3.82983        -1.92334
|104>    H       13.35256         4.54608        -3.24264
|105>    H       15.48572         4.82052        -4.39771
|106>    H       15.59340         5.51189        -2.91362
|107>    H       15.23236         1.41559        -2.24486
|108>    H       16.25725         2.25488        -3.43260
|109>    H       14.56411        -0.05447        -4.03367
|110>    H       16.20699        -0.00481        -4.04031
|111>    H       12.82665         2.20058        -6.33640
|112>    H       10.45585         2.14827        -7.19647
|113>    H        9.03227         0.09749        -6.68643
|114>    H        8.93019        -0.16833        -4.23948
|115>    H        9.29235        -0.10034        -1.64702
|116>    H       10.10450         0.15650         0.64679
|117>    H       11.60625        -0.61954        -7.66925
|118>    H       11.93384         2.07915        -9.07698
|119>    H       14.60080        -1.47744       -12.99318
|120>    H        9.29296        -3.54933       -10.47846
|121>    H       10.29220        -4.38328       -13.26990
|122>    H        6.03661        -5.45843       -15.62833
|123>    H        7.30881        -6.60693       -16.03923
|124>    H        7.26904        -5.01420       -16.82798
|125>    H        6.63697        -7.67618       -10.92756
|126>    H        9.89799        -5.86279        -9.99468
|127>    H        7.24535        -6.74850        -8.74528
|128>    H        8.84023        -6.47639        -7.89099
|129> *
|130>
|131>                          ****END OF INPUT****

CARTESIAN COORDINATES (ANGSTROEM)
---------------------------------
  C      6.835760    2.935800    7.038860
  C      5.626110    2.897340    7.676400
  C      4.343880    3.351270    7.131700
  O      4.268170    3.816960    6.016440
  C      3.156620    3.201180    8.046950
  S      5.795070    2.231310    9.275660
  C      7.468150    2.014670    9.055190
  C      7.906580    2.426740    7.815540
  C      9.261400    2.376670    7.327710
  C     10.282400    1.783400    7.965900
  C     11.649480    1.785160    7.502420
  C     12.030610    1.695340    6.154180
  C     11.227520    1.430140    4.938580
  O     10.049800    1.212840    4.808720
  N     12.133840    1.432290    3.865120
  C     13.447640    1.631350    4.282690
  O     14.424610    1.679620    3.580790
  C     13.371410    1.760580    5.757530
  C     14.411490    1.892740    6.656570
  C     14.054680    1.933350    7.998500
  C     12.723170    1.879640    8.418310
  C     12.561630    1.956260    9.877840
  O     11.554540    1.953420   10.525820
  S     14.186330    2.064500   10.650310
  C     15.050580    2.037370    9.079890
  O     16.238940    2.095330    8.974800
  C     11.675450    1.231820    2.564280
  C     12.419490    1.348960    1.460190
  C     11.937400    1.173030    0.106380
  C     12.717170    1.639580   -0.929770
  C     12.279430    1.528570   -2.263730
  C     12.851030    1.934660   -3.467180
  C     14.158890    2.602560   -3.710920
  C     14.262060    3.966520   -3.005880
  N     15.491070    4.629340   -3.401150
  C     15.332350    1.689370   -3.305790
  N     15.368860    0.542730   -4.195840
  C     11.932740    1.548910   -4.513030
  C     11.990970    1.720230   -5.847080
  C     10.892880    1.246560   -6.737300
  C      9.797430    0.507300   -6.045630
  C      9.750130    0.357600   -4.706390
  C     10.783960    0.878280   -3.894920
  C     11.002710    0.880230   -2.525800
  C     10.234810    0.388730   -1.449290
  C     10.687680    0.539080   -0.175660
  C     11.509100    0.439220   -7.852590
  C     11.986170    1.004700   -8.955250
  C     12.679160    0.298810  -10.021040
  C     12.213530   -0.876780  -10.612560
  C     10.973020   -1.647640  -10.366570
  O     10.096830   -1.470900   -9.557290
  N     10.982080   -2.691580  -11.297110
  C     12.126570   -2.688230  -12.098100
  O     12.416050   -3.505980  -12.929580
  C     12.896780   -1.495670  -11.667600
  C     14.079010   -0.998040  -12.180600
  C     14.558200    0.168360  -11.595570
  C     13.882170    0.803100  -10.549300
  C     14.557210    2.002510  -10.036040
  O     14.228730    2.707280   -9.123470
  S     16.049120    2.290940  -10.995860
  C     15.800880    0.833290  -12.021150
  O     16.551090    0.503960  -12.889670
  C      9.934100   -3.611870  -11.348430
  C      9.692410   -4.430730  -12.373090
  C      8.597990   -5.376440  -12.378530
  C      7.832910   -5.626690  -13.505740
  C      7.951970   -4.977560  -14.806800
  O      8.698000   -4.037350  -14.987130
  C      7.086200   -5.550900  -15.901120
  S      6.611660   -6.818830  -13.188130
  C      7.126980   -6.969960  -11.568510
  C      8.184800   -6.159060  -11.255320
  C      8.856160   -6.154050   -9.965750
  C      8.285690   -6.478810   -8.813090
  H      6.944540    3.307550    6.035910
  H      3.030610    2.155930    8.322040
  H      2.260600    3.558540    7.547110
  H      3.319160    3.773370    8.958340
  H      8.051900    1.611890    9.859380
  H      9.423980    2.882140    6.387380
  H     10.120050    1.333850    8.933870
  H     15.441860    1.943750    6.343900
  H     10.619540    0.998400    2.552270
  H     13.459030    1.626880    1.553680
  H     13.663100    2.109880   -0.708090
  H     14.264860    2.776290   -4.785950
  H     14.297040    3.829830   -1.923340
  H     13.352560    4.546080   -3.242640
  H     15.485720    4.820520   -4.397710
  H     15.593400    5.511890   -2.913620
  H     15.232360    1.415590   -2.244860
  H     16.257250    2.254880   -3.432600
  H     14.564110   -0.054470   -4.033670
  H     16.206990   -0.004810   -4.040310
  H     12.826650    2.200580   -6.336400
  H     10.455850    2.148270   -7.196470
  H      9.032270    0.097490   -6.686430
  H      8.930190   -0.168330   -4.239480
  H      9.292350   -0.100340   -1.647020
  H     10.104500    0.156500    0.646790
  H     11.606250   -0.619540   -7.669250
  H     11.933840    2.079150   -9.076980
  H     14.600800   -1.477440  -12.993180
  H      9.292960   -3.549330  -10.478460
  H     10.292200   -4.383280  -13.269900
  H      6.036610   -5.458430  -15.628330
  H      7.308810   -6.606930  -16.039230
  H      7.269040   -5.014200  -16.827980
  H      6.636970   -7.676180  -10.927560
  H      9.897990   -5.862790   -9.994680
  H      7.245350   -6.748500   -8.745280
  H      8.840230   -6.476390   -7.890990

 Total Charge           Charge          ....    0
 Multiplicity           Mult            ....    1
 Number of Electrons    NEL             ....  558
 Basis Dimension        Dim             .... 1270

ORBITAL ENERGIES
----------------

  NO   OCC          E(Eh)            E(eV)
   0   2.0000     -88.971047     -2421.0253
   1   2.0000     -88.965450     -2420.8730
   2   2.0000     -88.953347     -2420.5436
   3   2.0000     -88.952678     -2420.5254
   4   2.0000     -19.247112      -523.7405
   5   2.0000     -19.246894      -523.7346
   6   2.0000     -19.246518      -523.7244
   7   2.0000     -19.245165      -523.6876
   8   2.0000     -19.233125      -523.3599
   9   2.0000     -19.232860      -523.3527
  10   2.0000     -19.232319      -523.3380
  11   2.0000     -19.231343      -523.3115
  12   2.0000     -19.200265      -522.4658
  13   2.0000     -19.198951      -522.4300
  14   2.0000     -14.482231      -394.0815
  15   2.0000     -14.480838      -394.0436
  16   2.0000     -14.370863      -391.0511
  17   2.0000     -14.361010      -390.7829
  18   2.0000     -10.414203      -283.3849
  19   2.0000     -10.413571      -283.3677
  20   2.0000     -10.412245      -283.3316
  21   2.0000     -10.410608      -283.2870
  22   2.0000     -10.409338      -283.2525
  23   2.0000     -10.409109      -283.2463
  24   2.0000     -10.407683      -283.2075
  25   2.0000     -10.406355      -283.1713
  26   2.0000     -10.359743      -281.9029
  27   2.0000     -10.357966      -281.8546
  28   2.0000     -10.337213      -281.2899
  29   2.0000     -10.336487      -281.2701
  30   2.0000     -10.329100      -281.0691
  31   2.0000     -10.327843      -281.0349
  32   2.0000     -10.326367      -280.9947
  33   2.0000     -10.325689      -280.9763
  34   2.0000     -10.325337      -280.9667
  35   2.0000     -10.324286      -280.9381
  36   2.0000     -10.324191      -280.9355
  37   2.0000     -10.323458      -280.9156
  38   2.0000     -10.322834      -280.8986
  39   2.0000     -10.319926      -280.8195
  40   2.0000     -10.316539      -280.7273
  41   2.0000     -10.309221      -280.5282
  42   2.0000     -10.308816      -280.5171
  43   2.0000     -10.303193      -280.3641
  44   2.0000     -10.297686      -280.2143
  45   2.0000     -10.295201      -280.1467
  46   2.0000     -10.294446      -280.1261
  47   2.0000     -10.294372      -280.1241
  48   2.0000     -10.293271      -280.0941
  49   2.0000     -10.292359      -280.0693
  50   2.0000     -10.291196      -280.0377
  51   2.0000     -10.289666      -279.9960
  52   2.0000     -10.285522      -279.8833
  53   2.0000     -10.284939      -279.8674
  54   2.0000     -10.283826      -279.8371
  55   2.0000     -10.283599      -279.8310
  56   2.0000     -10.277214      -279.6572
  57   2.0000     -10.274925      -279.5949
  58   2.0000     -10.272457      -279.5278
  59   2.0000     -10.270933      -279.4863
  60   2.0000     -10.269125      -279.4371
  61   2.0000     -10.267829      -279.4018
  62   2.0000     -10.267284      -279.3870
  63   2.0000     -10.267124      -279.3827
  64   2.0000     -10.266548      -279.3670
  65   2.0000     -10.265062      -279.3265
  66   2.0000     -10.263551      -279.2854
  67   2.0000     -10.263387      -279.2810
  68   2.0000     -10.260517      -279.2029
  69   2.0000     -10.259919      -279.1866
  70   2.0000     -10.259537      -279.1762
  71   2.0000     -10.256599      -279.0963
  72   2.0000     -10.255997      -279.0799
  73   2.0000     -10.255055      -279.0542
  74   2.0000     -10.251260      -278.9510
  75   2.0000     -10.250487      -278.9299
  76   2.0000      -8.066767      -219.5079
  77   2.0000      -8.061184      -219.3560
  78   2.0000      -8.052423      -219.1176
  79   2.0000      -8.051902      -219.1034
  80   2.0000      -6.035877      -164.2446
  81   2.0000      -6.031461      -164.1244
  82   2.0000      -6.030323      -164.0934
  83   2.0000      -6.029526      -164.0717
  84   2.0000      -6.026028      -163.9766
  85   2.0000      -6.023771      -163.9151
  86   2.0000      -6.021307      -163.8481
  87   2.0000      -6.020778      -163.8337
  88   2.0000      -6.018035      -163.7591
  89   2.0000      -6.017509      -163.7447
  90   2.0000      -6.013483      -163.6352
  91   2.0000      -6.012940      -163.6204
  92   2.0000      -1.179398       -32.0930
  93   2.0000      -1.178796       -32.0767
  94   2.0000      -1.170153       -31.8415
  95   2.0000      -1.170005       -31.8375
  96   2.0000      -1.165995       -31.7283
  97   2.0000      -1.165692       -31.7201
  98   2.0000      -1.155284       -31.4369
  99   2.0000      -1.154776       -31.4230
 100   2.0000      -1.118122       -30.4256
 101   2.0000      -1.116879       -30.3918
 102   2.0000      -1.072276       -29.1781
 103   2.0000      -1.070470       -29.1290
 104   2.0000      -1.014448       -27.6045
 105   2.0000      -1.012618       -27.5547
 106   2.0000      -0.993388       -27.0315
 107   2.0000      -0.991742       -26.9867
 108   2.0000      -0.975881       -26.5551
 109   2.0000      -0.956348       -26.0236
 110   2.0000      -0.955532       -26.0013
 111   2.0000      -0.954801       -25.9814
 112   2.0000      -0.942081       -25.6353
 113   2.0000      -0.936854       -25.4931
 114   2.0000      -0.926699       -25.2168
 115   2.0000      -0.922096       -25.0915
 116   2.0000      -0.906346       -24.6629
 117   2.0000      -0.903315       -24.5804
 118   2.0000      -0.890536       -24.2327
 119   2.0000      -0.889099       -24.1936
 120   2.0000      -0.884296       -24.0629
 121   2.0000      -0.869986       -23.6735
 122   2.0000      -0.866943       -23.5907
 123   2.0000      -0.858122       -23.3507
 124   2.0000      -0.848061       -23.0769
 125   2.0000      -0.844326       -22.9753
 126   2.0000      -0.835171       -22.7261
 127   2.0000      -0.833040       -22.6682
 128   2.0000      -0.829320       -22.5669
 129   2.0000      -0.821733       -22.3605
 130   2.0000      -0.818493       -22.2723
 131   2.0000      -0.806199       -21.9378
 132   2.0000      -0.797819       -21.7098
 133   2.0000      -0.796191       -21.6654
 134   2.0000      -0.795497       -21.6466
 135   2.0000      -0.794562       -21.6211
 136   2.0000      -0.774997       -21.0888
 137   2.0000      -0.767695       -20.8901
 138   2.0000      -0.749714       -20.4008
 139   2.0000      -0.749002       -20.3814
 140   2.0000      -0.746316       -20.3083
 141   2.0000      -0.732443       -19.9308
 142   2.0000      -0.718349       -19.5473
 143   2.0000      -0.709359       -19.3026
 144   2.0000      -0.707412       -19.2497
 145   2.0000      -0.701698       -19.0942
 146   2.0000      -0.699740       -19.0409
 147   2.0000      -0.697162       -18.9707
 148   2.0000      -0.694669       -18.9029
 149   2.0000      -0.690805       -18.7978
 150   2.0000      -0.681944       -18.5567
 151   2.0000      -0.678684       -18.4679
 152   2.0000      -0.664706       -18.0876
 153   2.0000      -0.660924       -17.9847
 154   2.0000      -0.657911       -17.9027
 155   2.0000      -0.651150       -17.7187
 156   2.0000      -0.643502       -17.5106
 157   2.0000      -0.636833       -17.3291
 158   2.0000      -0.630528       -17.1575
 159   2.0000      -0.628889       -17.1129
 160   2.0000      -0.628404       -17.0997
 161   2.0000      -0.625354       -17.0167
 162   2.0000      -0.615879       -16.7589
 163   2.0000      -0.612284       -16.6611
 164   2.0000      -0.604308       -16.4441
 165   2.0000      -0.603127       -16.4119
 166   2.0000      -0.596476       -16.2309
 167   2.0000      -0.594575       -16.1792
 168   2.0000      -0.589351       -16.0371
 169   2.0000      -0.586538       -15.9605
 170   2.0000      -0.585068       -15.9205
 171   2.0000      -0.583652       -15.8820
 172   2.0000      -0.579664       -15.7735
 173   2.0000      -0.572085       -15.5672
 174   2.0000      -0.569107       -15.4862
 175   2.0000      -0.567980       -15.4555
 176   2.0000      -0.567354       -15.4385
 177   2.0000      -0.566516       -15.4157
 178   2.0000      -0.564894       -15.3715
 179   2.0000      -0.558076       -15.1860
 180   2.0000      -0.555949       -15.1281
 181   2.0000      -0.555444       -15.1144
 182   2.0000      -0.554567       -15.0905
 183   2.0000      -0.548361       -14.9217
 184   2.0000      -0.546716       -14.8769
 185   2.0000      -0.544011       -14.8033
 186   2.0000      -0.542604       -14.7650
 187   2.0000      -0.542469       -14.7613
 188   2.0000      -0.541124       -14.7247
 189   2.0000      -0.538655       -14.6575
 190   2.0000      -0.536987       -14.6122
 191   2.0000      -0.535336       -14.5672
 192   2.0000      -0.532432       -14.4882
 193   2.0000      -0.531565       -14.4646
 194   2.0000      -0.529426       -14.4064
 195   2.0000      -0.527438       -14.3523
 196   2.0000      -0.526045       -14.3144
 197   2.0000      -0.522455       -14.2167
 198   2.0000      -0.521809       -14.1991
 199   2.0000      -0.521577       -14.1928
 200   2.0000      -0.519549       -14.1377
 201   2.0000      -0.516410       -14.0522
 202   2.0000      -0.515669       -14.0321
 203   2.0000      -0.511494       -13.9185
 204   2.0000      -0.511177       -13.9098
 205   2.0000      -0.510008       -13.8780
 206   2.0000      -0.508252       -13.8302
 207   2.0000      -0.502913       -13.6849
 208   2.0000      -0.502346       -13.6695
 209   2.0000      -0.499493       -13.5919
 210   2.0000      -0.499035       -13.5794
 211   2.0000      -0.498700       -13.5703
 212   2.0000      -0.498311       -13.5597
 213   2.0000      -0.491992       -13.3878
 214   2.0000      -0.487970       -13.2783
 215   2.0000      -0.483496       -13.1566
 216   2.0000      -0.483027       -13.1438
 217   2.0000      -0.481590       -13.1047
 218   2.0000      -0.479888       -13.0584
 219   2.0000      -0.478978       -13.0336
 220   2.0000      -0.476752       -12.9731
 221   2.0000      -0.475184       -12.9304
 222   2.0000      -0.473803       -12.8928
 223   2.0000      -0.471698       -12.8356
 224   2.0000      -0.470107       -12.7923
 225   2.0000      -0.465319       -12.6620
 226   2.0000      -0.464324       -12.6349
 227   2.0000      -0.461055       -12.5460
 228   2.0000      -0.458641       -12.4802
 229   2.0000      -0.457786       -12.4570
 230   2.0000      -0.456422       -12.4199
 231   2.0000      -0.453714       -12.3462
 232   2.0000      -0.451801       -12.2941
 233   2.0000      -0.445613       -12.1258
 234   2.0000      -0.436779       -11.8854
 235   2.0000      -0.433810       -11.8046
 236   2.0000      -0.432672       -11.7736
 237   2.0000      -0.431769       -11.7490
 238   2.0000      -0.429610       -11.6903
 239   2.0000      -0.425701       -11.5839
 240   2.0000      -0.421045       -11.4572
 241   2.0000      -0.419887       -11.4257
 242   2.0000      -0.417919       -11.3721
 243   2.0000      -0.414163       -11.2700
 244   2.0000      -0.407756       -11.0956
 245   2.0000      -0.401386       -10.9223
 246   2.0000      -0.399990       -10.8843
 247   2.0000      -0.394714       -10.7407
 248   2.0000      -0.382606       -10.4112
 249   2.0000      -0.381502       -10.3812
 250   2.0000      -0.378381       -10.2963
 251   2.0000      -0.377555       -10.2738
 252   2.0000      -0.375431       -10.2160
 253   2.0000      -0.375141       -10.2081
 254   2.0000      -0.374381       -10.1874
 255   2.0000      -0.369012       -10.0413
 256   2.0000      -0.368868       -10.0374
 257   2.0000      -0.365068        -9.9340
 258   2.0000      -0.364040        -9.9060
 259   2.0000      -0.359953        -9.7948
 260   2.0000      -0.357407        -9.7255
 261   2.0000      -0.354773        -9.6539
 262   2.0000      -0.350394        -9.5347
 263   2.0000      -0.349990        -9.5237
 264   2.0000      -0.347523        -9.4566
 265   2.0000      -0.347079        -9.4445
 266   2.0000      -0.338581        -9.2133
 267   2.0000      -0.326676        -8.8893
 268   2.0000      -0.325083        -8.8460
 269   2.0000      -0.322948        -8.7879
 270   2.0000      -0.320097        -8.7103
 271   2.0000      -0.313015        -8.5176
 272   2.0000      -0.295738        -8.0474
 273   2.0000      -0.292569        -7.9612
 274   2.0000      -0.288317        -7.8455
 275   2.0000      -0.286080        -7.7846
 276   2.0000      -0.283740        -7.7209
 277   2.0000      -0.272890        -7.4257
 278   2.0000      -0.214417        -5.8346
 279   0.0000      -0.096428        -2.6239
 280   0.0000      -0.095529        -2.5995
 281   0.0000      -0.067434        -1.8350
 282   0.0000      -0.058521        -1.5924
 283   0.0000      -0.055672        -1.5149

MULLIKEN ATOMIC CHARGES
-----------------------
   0 C :    0.022361
   1 C :   -0.137186
   2 C :    0.023635
   3 O :   -0.174381
   4 C :    0.018315
   5 S :    0.141304
   6 C :   -0.103959
   7 C :    0.063325
   8 C :    0.086167
   9 C :   -0.048251
  10 C :    0.063101
  11 C :   -0.038594
  12 C :    0.178630
  13 O :   -0.144090
  14 N :   -0.223460
  15 C :    0.209054
  16 O :   -0.138386
  17 C :    0.009623
  18 C :   -0.075655
  19 C :    0.047199
  20 C :    0.039228
  21 C :    0.035282
  22 O :   -0.136385
  23 S :    0.009871
  24 C :    0.050644
  25 O :   -0.119243
  26 C :    0.068763
  27 C :   -0.014321
  28 C :    0.121247
  29 C :   -0.111038
  30 C :    0.056989
  31 C :   -0.056285
  32 C :   -0.043369
  33 C :    0.151976
  34 N :   -0.214365
  35 C :    0.149853
  36 N :   -0.230552
  37 C :    0.104478
  38 C :   -0.120661
  39 C :    0.110920
  40 C :   -0.052695
  41 C :    0.021210
  42 C :    0.011159
  43 C :    0.030149
  44 C :   -0.001370
  45 C :   -0.015276
  46 C :    0.005295
  47 C :   -0.028007
  48 C :    0.031580
  49 C :   -0.028607
  50 C :    0.183259
  51 O :   -0.141458
  52 N :   -0.235151
  53 C :    0.210438
  54 O :   -0.131623
  55 C :    0.010885
  56 C :   -0.069738
  57 C :    0.054686
  58 C :    0.046137
  59 C :    0.039267
  60 O :   -0.134200
  61 S :    0.012703
  62 C :    0.046333
  63 O :   -0.116881
  64 C :    0.053505
  65 C :    0.007277
  66 C :    0.081869
  67 C :   -0.173042
  68 C :    0.016147
  69 O :   -0.189199
  70 C :    0.020810
  71 S :    0.129556
  72 C :   -0.117233
  73 C :    0.074621
  74 C :   -0.031544
  75 C :   -0.015972
  76 H :    0.007992
  77 H :    0.042419
  78 H :    0.036811
  79 H :    0.042389
  80 H :    0.042506
  81 H :   -0.007083
  82 H :    0.014361
  83 H :    0.018690
  84 H :    0.027961
  85 H :    0.013866
  86 H :   -0.035030
  87 H :   -0.030674
  88 H :   -0.017431
  89 H :   -0.010491
  90 H :    0.090190
  91 H :    0.089482
  92 H :   -0.027349
  93 H :   -0.000641
  94 H :    0.092301
  95 H :    0.088222
  96 H :    0.004277
  97 H :    0.047327
  98 H :   -0.003182
  99 H :   -0.037400
 100 H :   -0.040005
 101 H :   -0.032582
 102 H :    0.016309
 103 H :    0.020666
 104 H :    0.020191
 105 H :    0.042223
 106 H :    0.048006
 107 H :    0.042668
 108 H :    0.042607
 109 H :    0.035728
 110 H :    0.025993
 111 H :    0.013540
 112 H :    0.013152
 113 H :    0.025318
Sum of atomic charges:   -0.0000000

LOEWDIN ATOMIC CHARGES
----------------------
   0 C :    0.001735
   1 C :   -0.227660
   2 C :    0.062313
   3 O :   -0.148390
   4 C :   -0.086104
   5 S :    0.469656
   6 C :   -0.157658
   7 C :   -0.074306
   8 C :    0.035671
   9 C :   -0.042986
  10 C :    0.039657
  11 C :   -0.042052
  12 C :    0.100335
  13 O :   -0.133449
  14 N :   -0.010444
  15 C :    0.096537
  16 O :   -0.130497
  17 C :   -0.022931
  18 C :    0.032308
  19 C :   -0.049914
  20 C :   -0.064173
  21 C :   -0.039002
  22 O :   -0.118500
  23 S :    0.299028
  24 C :   -0.046521
  25 O :   -0.110728
  26 C :    0.010201
  27 C :   -0.028346
  28 C :   -0.024669
  29 C :   -0.018375
  30 C :   -0.021129
  31 C :   -0.038966
  32 C :   -0.040896
  33 C :    0.026312
  34 N :   -0.115801
  35 C :    0.028428
  36 N :   -0.123718
  37 C :   -0.020131
  38 C :    0.072009
  39 C :   -0.030645
  40 C :   -0.036833
  41 C :   -0.015204
  42 C :   -0.037651
  43 C :   -0.031467
  44 C :   -0.006520
  45 C :   -0.030154
  46 C :    0.043366
  47 C :   -0.045986
  48 C :    0.039385
  49 C :   -0.037884
  50 C :    0.100086
  51 O :   -0.134940
  52 N :   -0.012964
  53 C :    0.099242
  54 O :   -0.122507
  55 C :   -0.024483
  56 C :    0.037768
  57 C :   -0.050440
  58 C :   -0.059950
  59 C :   -0.039845
  60 O :   -0.117874
  61 S :    0.300402
  62 C :   -0.043674
  63 O :   -0.108218
  64 C :    0.025493
  65 C :   -0.022376
  66 C :   -0.012946
  67 C :   -0.229261
  68 C :    0.062780
  69 O :   -0.150257
  70 C :   -0.085536
  71 S :    0.460572
  72 C :   -0.163794
  73 C :   -0.062458
  74 C :   -0.023740
  75 C :   -0.041834
  76 H :    0.040930
  77 H :    0.040055
  78 H :    0.041217
  79 H :    0.040475
  80 H :    0.029334
  81 H :    0.031168
  82 H :    0.031123
  83 H :    0.051410
  84 H :    0.029618
  85 H :    0.033753
  86 H :    0.021259
  87 H :    0.022557
  88 H :    0.014692
  89 H :    0.001362
  90 H :    0.052276
  91 H :    0.054365
  92 H :   -0.002956
  93 H :    0.015523
  94 H :    0.049552
  95 H :    0.051861
  96 H :    0.034016
  97 H :    0.065198
  98 H :    0.028360
  99 H :    0.029118
 100 H :    0.026363
 101 H :    0.024172
 102 H :    0.030039
 103 H :    0.034342
 104 H :    0.052305
 105 H :    0.034813
 106 H :    0.040713
 107 H :    0.039461
 108 H :    0.040038
 109 H :    0.040393
 110 H :    0.025424
 111 H :    0.032418
 112 H :    0.020340
 113 H :    0.026415

  Mayer bond orders larger than 0.100000
B(  0-C ,  1-C ) :   1.5269 B(  0-C ,  7-C ) :   1.2197 B(  0-C , 76-H ) :   1.0112
B(  1-C ,  2-C ) :   0.9617 B(  1-C ,  5-S ) :   1.1246 B(  2-C ,  3-O ) :   2.2183
B(  2-C ,  4-C ) :   1.0563 B(  4-C , 77-H ) :   0.9495 B(  4-C , 78-H ) :   0.9489
B(  4-C , 79-H ) :   0.9493 B(  5-S ,  6-C ) :   1.2080 B(  6-C ,  7-C ) :   1.4987
B(  6-C , 80-H ) :   0.9605 B(  7-C ,  8-C ) :   1.1055 B(  8-C ,  9-C ) :   1.7389
B(  8-C , 81-H ) :   0.9656 B(  9-C , 10-C ) :   1.1024 B(  9-C , 82-H ) :   0.9364
B( 10-C , 11-C ) :   1.3511 B( 10-C , 20-C ) :   1.3418 B( 11-C , 12-C ) :   0.8935
B( 11-C , 17-C ) :   1.3868 B( 12-C , 13-O ) :   2.1748 B( 12-C , 14-N ) :   1.0429
B( 14-N , 15-C ) :   1.0410 B( 14-N , 26-C ) :   0.9976 B( 15-C , 16-O ) :   2.2021
B( 15-C , 17-C ) :   0.8785 B( 17-C , 18-C ) :   1.3364 B( 18-C , 19-C ) :   1.3329
B( 18-C , 83-H ) :   1.0304 B( 19-C , 20-C ) :   1.3429 B( 19-C , 24-C ) :   0.8405
B( 20-C , 21-C ) :   0.8652 B( 21-C , 22-O ) :   2.1532 B( 21-C , 23-S ) :   1.0287
B( 22-O , 23-S ) :   0.1030 B( 23-S , 24-C ) :   1.0243 B( 23-S , 25-O ) :   0.1084
B( 24-C , 25-O ) :   2.2227 B( 26-C , 27-C ) :   1.7158 B( 26-C , 84-H ) :   0.9658
B( 27-C , 28-C ) :   1.0550 B( 27-C , 85-H ) :   0.9731 B( 28-C , 29-C ) :   1.5241
B( 28-C , 45-C ) :   1.1308 B( 29-C , 30-C ) :   1.1124 B( 29-C , 86-H ) :   0.9975
B( 30-C , 31-C ) :   1.4622 B( 30-C , 43-C ) :   1.1277 B( 31-C , 32-C ) :   1.0234
B( 31-C , 37-C ) :   1.1175 B( 32-C , 33-C ) :   1.0389 B( 32-C , 35-C ) :   1.0249
B( 32-C , 87-H ) :   0.8798 B( 33-C , 34-N ) :   1.0843 B( 33-C , 88-H ) :   0.9283
B( 33-C , 89-H ) :   0.9452 B( 34-N , 90-H ) :   0.9698 B( 34-N , 91-H ) :   0.9678
B( 35-C , 36-N ) :   1.0849 B( 35-C , 92-H ) :   0.9397 B( 35-C , 93-H ) :   0.9285
B( 36-N , 94-H ) :   0.9722 B( 36-N , 95-H ) :   0.9703 B( 37-C , 38-C ) :   1.6424
B( 37-C , 42-C ) :   1.0480 B( 38-C , 39-C ) :   0.9737 B( 38-C , 96-H ) :   0.9699
B( 39-C , 40-C ) :   0.9811 B( 39-C , 46-C ) :   0.9758 B( 39-C , 97-H ) :   0.8579
B( 40-C , 41-C ) :   1.7028 B( 40-C , 98-H ) :   0.9813 B( 41-C , 42-C ) :   1.1355
B( 41-C , 99-H ) :   0.9903 B( 42-C , 43-C ) :   1.4261 B( 43-C , 44-C ) :   1.1473
B( 44-C , 45-C ) :   1.6070 B( 44-C ,100-H ) :   0.9898 B( 45-C ,101-H ) :   0.9819
B( 46-C , 47-C ) :   1.8436 B( 46-C ,102-H ) :   0.9754 B( 47-C , 48-C ) :   1.0524
B( 47-C ,103-H ) :   0.9353 B( 48-C , 49-C ) :   1.3897 B( 48-C , 58-C ) :   1.3714
B( 49-C , 50-C ) :   0.8893 B( 49-C , 55-C ) :   1.3732 B( 50-C , 51-O ) :   2.1849
B( 50-C , 52-N ) :   1.0503 B( 52-N , 53-C ) :   1.0290 B( 52-N , 64-C ) :   0.9907
B( 53-C , 54-O ) :   2.2251 B( 53-C , 55-C ) :   0.8727 B( 55-C , 56-C ) :   1.3446
B( 56-C , 57-C ) :   1.3304 B( 56-C ,104-H ) :   1.0287 B( 57-C , 58-C ) :   1.3401
B( 57-C , 62-C ) :   0.8389 B( 58-C , 59-C ) :   0.8611 B( 59-C , 60-O ) :   2.1517
B( 59-C , 61-S ) :   1.0324 B( 60-O , 61-S ) :   0.1056 B( 61-S , 62-C ) :   1.0218
B( 61-S , 63-O ) :   0.1080 B( 62-C , 63-O ) :   2.2270 B( 64-C , 65-C ) :   1.7660
B( 64-C ,105-H ) :   0.9714 B( 65-C , 66-C ) :   1.0885 B( 65-C ,106-H ) :   0.9295
B( 66-C , 67-C ) :   1.4918 B( 66-C , 73-C ) :   1.2454 B( 67-C , 68-C ) :   0.9865
B( 67-C , 71-S ) :   1.1212 B( 68-C , 69-O ) :   2.1425 B( 68-C , 70-C ) :   1.0566
B( 70-C ,107-H ) :   0.9460 B( 70-C ,108-H ) :   0.9537 B( 70-C ,109-H ) :   0.9484
B( 71-S , 72-C ) :   1.1887 B( 72-C , 73-C ) :   1.5225 B( 72-C ,110-H ) :   0.9659
B( 73-C , 74-C ) :   1.0510 B( 74-C , 75-C ) :   1.9686 B( 74-C ,111-H ) :   0.9551
B( 75-C ,112-H ) :   0.9579 B( 75-C ,113-H ) :   0.9502

-----------------------------------------------------------------------------
         ABSORPTION SPECTRUM VIA TRANSITION ELECTRIC DIPOLE MOMENTS
-----------------------------------------------------------------------------
State   Energy  Wavelength   fosc         T2         TX        TY        TZ
        (cm-1)    (nm)                  (au**2)     (au)      (au)      (au)
-----------------------------------------------------------------------------
   0   13153.1    760.3   0.000530173   0.01327  -0.08117  -0.08049   0.01428
   1   14150.1    706.7   0.000599096   0.01394   0.11246   0.00955  -0.03463
   2   14842.6    673.7   0.054394098   1.20648   0.99884   0.42066  -0.17845
   3   20615.7    485.1   0.066408492   1.06048  -0.11559  -0.30669  -0.97625
   4   21552.0    464.0   0.151078174   2.30776   0.02364   0.16535   1.50992
   5   22418.9    446.1   0.048220954   0.70811   0.11807   0.03804   0.83230
   6   23472.8    426.0   0.005492751   0.07704   0.07250  -0.19663  -0.18198
   7   23603.0    423.7   0.026282404   0.36658   0.35543   0.06528   0.48579
   8   26227.0    381.3   0.024060459   0.30202  -0.40420  -0.36431   0.07695
   9   27116.0    368.8   0.105734702   1.28371  -0.29361   0.02346   1.09405
  10   27122.9    368.7   0.238721135   2.89755   0.50478   0.01674  -1.62557
  11   28101.1    355.9   0.000306212   0.00359   0.04180   0.03983   0.01593
  12   28442.6    351.6   0.019816754   0.22937  -0.06847  -0.10253   0.46279
  13   28744.2    347.9   0.011351350   0.13001   0.11092  -0.07055  -0.33575
  14   29127.5    343.3   0.218997450   2.47520  -0.28787   0.09396   1.54386
  15   29181.2    342.7   0.058883746   0.66431  -0.13416   0.11277   0.79598
  16   29831.7    335.2   0.023876406   0.26349   0.39212   0.30786  -0.12230
  17   30298.0    330.1   0.000088847   0.00097   0.01925   0.02435   0.00149
  18   30319.7    329.8   0.497154743   5.39811   2.24270  -0.31648  -0.51794
  19   30929.9    323.3   0.011286914   0.12014   0.21610  -0.02423   0.26991
  20   30982.0    322.8   0.000182002   0.00193   0.01213  -0.01491   0.03955
  21   31584.1    316.6   0.134493118   1.40187  -0.63744  -0.06271  -0.99579
  22   31660.6    315.8   0.004743737   0.04933   0.18715   0.02562   0.11681
  23   31716.6    315.3   0.005464895   0.05672  -0.16992  -0.01502  -0.16621
  24   31986.6    312.6   0.142674866   1.46844   0.79278   0.11946   0.90867
  25   32163.4    310.9   0.228985370   2.34381  -0.92829  -0.97656  -0.72693
  26   32512.5    307.6   0.018772134   0.19008  -0.39856   0.13979   0.10813
  27   32610.4    306.7   0.012252741   0.12369   0.31871   0.14836  -0.01040
  28   33010.9    302.9   0.000256677   0.00256   0.00541   0.00005  -0.05030
  29   33141.5    301.7   0.007508898   0.07459   0.09261  -0.11613  -0.22919
  30   33207.7    301.1   0.231192519   2.29198   0.94475   0.94625   0.70995
  31   33301.0    300.3   0.004582955   0.04531   0.20501  -0.04964  -0.02851
  32   33574.4    297.8   0.032045795   0.31422   0.16090   0.02205   0.53652
  33   33687.3    296.8   0.161655747   1.57979  -0.66372  -0.79317  -0.71425
  34   34529.8    289.6   0.258673251   2.46622  -0.25515  -0.27072   1.52572
  35   34612.7    288.9   0.210484613   2.00198   0.32617   0.16849   1.36646
  36   34791.9    287.4   0.001140492   0.01079  -0.09230  -0.00812  -0.04696
  37   35279.9    283.4   0.306148762   2.85681   0.45681   0.29242  -1.60082
  38   35499.0    281.7   0.267648885   2.48213   0.51321   0.13369   1.48353
  39   35584.9    281.0   0.007859918   0.07272   0.04676  -0.02609  -0.26429
  40   35709.2    280.0   0.000060446   0.00056  -0.00682   0.00138   0.02256
  41   35941.6    278.2   0.006972330   0.06386   0.00990  -0.23161   0.10061
  42   36095.9    277.0   0.015321880   0.13974  -0.19122  -0.05806  -0.31592
  43   36464.6    274.2   0.020712459   0.18700  -0.06614  -0.09002  -0.41776
  44   36476.8    274.1   0.005241972   0.04731  -0.07410  -0.13048  -0.15746
  45   36758.4    272.0   0.000194845   0.00175   0.00073   0.01676  -0.03826
  46   36949.6    270.6   0.531339909   4.73411  -0.26682  -0.00652   2.15937
  47   37057.9    269.8   0.008451993   0.07509   0.27185  -0.01558  -0.03066
  48   37433.1    267.1   0.062549919   0.55011   0.47788   0.11887   0.55462
  49   37863.5    264.1   0.158673753   1.37962  -0.50151  -0.18522  -1.04585
  50   38026.0    263.0   0.006479414   0.05610   0.23560  -0.00254  -0.02415
  51   38220.9    261.6   0.090830402   0.78236   0.05540  -0.25048   0.84649
  52   38312.1    261.0   0.014250745   0.12246  -0.21963   0.06792   0.26383
  53   38465.3    260.0   0.000558418   0.00478  -0.06324   0.00757   0.02688
  54   38625.3    258.9   0.000098050   0.00084  -0.01565   0.00655   0.02341
  55   38730.5    258.2   0.039787510   0.33820   0.53271  -0.03311  -0.23090
  56   38840.2    257.5   0.001466417   0.01243   0.02939  -0.01540   0.10643
  57   39031.4    256.2   0.023516874   0.19835   0.14085   0.13746  -0.39953
  58   39159.6    255.4   0.000507862   0.00427   0.05381   0.03690  -0.00353
  59   39216.3    255.0   0.026876048   0.22562   0.23779   0.06953  -0.40526
  60   39553.4    252.8   0.076574626   0.63735  -0.18285   0.33146  -0.70289
  61   39569.4    252.7   0.000321600   0.00268   0.02129  -0.01569   0.04445
  62   39608.9    252.5   0.005226285   0.04344  -0.10112   0.17199   0.06028
  63   39726.2    251.7   0.013391382   0.11097   0.07685  -0.14750  -0.28864
  64   39890.1    250.7   0.031709119   0.26169  -0.27414  -0.18269  -0.39137

FINAL SINGLE POINT ENERGY     -4792.620964648318

DIPOLE MOMENT
-------------
                                X             Y             Z
Electronic contribution:     20.22468       2.94602      27.75175
Nuclear contribution   :    -22.03789      -4.08367     -27.34777
                        -----------------------------------------
Total Dipole Moment    :     -1.81320      -1.13765       0.40398
                        -----------------------------------------
Magnitude (a.u.)       :      2.17834
Magnitude (Debye)      :      5.53689

Rotational constants in cm-1:     0.001049     0.000194     0.000174
Rotational constants in MHz :    31.438490     5.819715     5.217327

                             ****ORCA TERMINATED NORMALLY****
TOTAL RUN TIME: 0 days 0 hours 11 minutes 23 seconds 830 msec
