                         Program Version 4.2.0 -  RELEASE  -
|  1> # ORCA input file
|  2> # SCF done       -226.323930363547          0.000582664983
|  3> ! CAM-B3LYP def2-SVP def2/J RIJCOSX Grid4 TightSCF
|  4> %maxcore 5000
|  5> %tddft
|  6>     Mode sTDDFT
|  7>     Ethresh 5.0
|  8>     maxcore 5000
|  9> end
| 10>
| 11> %pal
| 12>   nprocs 6
| 13>   end
| 14> * xyz 0 1
| 15>    C       -2.39275         1.81550        -0.22122
| 16>    C       -1.67484         2.12403         0.89995
| 17>    C       -2.10775         1.83147         2.21181
| 18>    N       -2.42109         1.62581         3.29562
| 19>    C       -0.39502         2.71233         0.86779
| 20>    N        0.65752         3.17102         0.88052
| 21>    C       -3.62435         1.04669        -0.27619
| 22>    C       -3.81755         0.58055        -1.61159
| 23>    C       -4.89471        -0.18705        -1.95277
| 24>    C       -5.84621        -0.51830        -0.96278
| 25>    C       -5.66835        -0.03883         0.36876
| 26>    C       -4.54132         0.74685         0.69685
| 27>    C       -6.63534        -0.36376         1.34236
| 28>    C       -7.72422        -1.12688         1.01967
| 29>    C       -7.89637        -1.60127        -0.28977
| 30>    C       -6.97712        -1.30467        -1.25934
| 31>    C       -2.73962         1.08662        -2.47338
| 32>    O       -2.52690         0.85878        -3.63672
| 33>    C       -1.97781         2.04383        -1.59896
| 34>    C       -1.25049         3.02135        -2.16224
| 35>    C       -0.70368         4.20982        -1.53416
| 36>    C        0.63058         4.56402        -1.74858
| 37>    C        1.66266         3.83587        -2.52917
| 38>    O        1.54100         2.82031        -3.15920
| 39>    N        2.83250         4.58891        -2.39000
| 40>    C        2.64388         5.72641        -1.58421
| 41>    O        3.48852         6.53582        -1.32960
| 42>    C        1.22026         5.68212        -1.16500
| 43>    C        0.51380         6.53297        -0.33581
| 44>    C       -0.82360         6.21271        -0.13703
| 45>    C       -1.42953         5.09516        -0.71443
| 46>    C       -2.87048         4.97675        -0.40566
| 47>    O       -3.65140         4.15893        -0.79765
| 48>    S       -3.35344         6.30191         0.70100
| 49>    C       -1.71170         7.03386         0.71373
| 50>    O       -1.43171         8.01835         1.32140
| 51>    C        4.07191         4.33174        -2.95695
| 52>    C        4.38291         3.24626        -3.68070
| 53>    C        5.67492         3.04407        -4.26045
| 54>    O        5.93016         1.88909        -4.90662
| 55>    C        7.19486         1.91479        -5.38287
| 56>    C        7.77208         3.12944        -5.03775
| 57>    C        6.80578         3.84735        -4.31918
| 58>    F        6.93591         5.06740        -3.80236
| 59>    F        9.00396         3.51905        -5.34492
| 60>    C        7.77443         0.82489        -6.09054
| 61>    C        7.11991        -0.31477        -6.38753
| 62>    C        7.68556        -1.41290        -7.12818
| 63>    C        6.88105        -2.14299        -8.01867
| 64>    C        5.43076        -2.01453        -8.28950
| 65>    O        4.62157        -1.26465        -7.81648
| 66>    N        5.13830        -2.97890        -9.27362
| 67>    C        6.27264        -3.69554        -9.66561
| 68>    O        6.31743        -4.56548       -10.49134
| 69>    C        7.38334        -3.14778        -8.84361
| 70>    C        8.71719        -3.50860        -8.83277
| 71>    C        9.51340        -2.85064        -7.90265
| 72>    C        9.02914        -1.85194        -7.05680
| 73>    C       10.00880        -1.43779        -6.02894
| 74>    O        9.84953        -0.73974        -5.07449
| 75>    S       11.58844        -2.24912        -6.35017
| 76>    C       10.94344        -3.18939        -7.72699
| 77>    O       11.58663        -3.95989        -8.37124
| 78>    C        3.83463        -3.19823        -9.68335
| 79>    C        3.47670        -3.94949       -10.73758
| 80>    C        2.12319        -4.21767       -11.10489
| 81>    C        1.07368        -4.40675       -10.26129
| 82>    C       -0.29184        -4.69568       -10.67398
| 83>    C       -0.85435        -4.35938       -11.87534
| 84>    C       -2.19390        -4.63398       -12.22223
| 85>    N       -3.27185        -4.83913       -12.55900
| 86>    C       -0.18374        -3.66053       -12.90219
| 87>    N        0.29482        -3.07684       -13.76714
| 88>    C       -0.97318        -5.32378        -9.55163
| 89>    C       -0.09186        -5.32464        -8.43275
| 90>    C        1.18468        -4.68842        -8.80177
| 91>    O        2.13025        -4.49510        -8.06867
| 92>    C       -0.45836        -5.85141        -7.22753
| 93>    C       -1.74577        -6.41556        -7.08568
| 94>    C       -2.62996        -6.42672        -8.20335
| 95>    C       -2.22388        -5.87127        -9.43813
| 96>    C       -3.90910        -6.99985        -8.05133
| 97>    C       -4.29875        -7.53469        -6.85369
| 98>    C       -3.42828        -7.52132        -5.75342
| 99>    C       -2.17951        -6.97305        -5.86668
|100>    H       -5.02241        -0.53274        -2.96781
|101>    H       -4.43706         1.11047         1.70728
|102>    H       -6.49729         0.00131         2.34927
|103>    H       -8.45975        -1.36930         1.77169
|104>    H       -8.76219        -2.20112        -0.52662
|105>    H       -7.10545        -1.66582        -2.26911
|106>    H       -1.04394         2.91247        -3.22272
|107>    H        0.96224         7.39371         0.13389
|108>    H        4.78358         5.11893        -2.74547
|109>    H        3.66468         2.46254        -3.86551
|110>    H        8.79679         0.99130        -6.39582
|111>    H        6.06892        -0.39527        -6.14725
|112>    H        9.11997        -4.27012        -9.48081
|113>    H        3.11976        -2.65023        -9.08604
|114>    H        4.23566        -4.36877       -11.38264
|115>    H        1.95699        -4.36362       -12.16608
|116>    H        0.22616        -5.83754        -6.39237
|117>    H       -2.91101        -5.90085       -10.26907
|118>    H       -4.57614        -7.00655        -8.90086
|119>    H       -5.28038        -7.97168        -6.74748
|120>    H       -3.75175        -7.94875        -4.81605
|121>    H       -1.50471        -6.96040        -5.02321
|122> *
|123>
|124>                          ****END OF INPUT****

CARTESIAN COORDINATES (ANGSTROEM)
---------------------------------
  C     -2.392750    1.815500   -0.221220
  C     -1.674840    2.124030    0.899950
  C     -2.107750    1.831470    2.211810
  N     -2.421090    1.625810    3.295620
  C     -0.395020    2.712330    0.867790
  N      0.657520    3.171020    0.880520
  C     -3.624350    1.046690   -0.276190
  C     -3.817550    0.580550   -1.611590
  C     -4.894710   -0.187050   -1.952770
  C     -5.846210   -0.518300   -0.962780
  C     -5.668350   -0.038830    0.368760
  C     -4.541320    0.746850    0.696850
  C     -6.635340   -0.363760    1.342360
  C     -7.724220   -1.126880    1.019670
  C     -7.896370   -1.601270   -0.289770
  C     -6.977120   -1.304670   -1.259340
  C     -2.739620    1.086620   -2.473380
  O     -2.526900    0.858780   -3.636720
  C     -1.977810    2.043830   -1.598960
  C     -1.250490    3.021350   -2.162240
  C     -0.703680    4.209820   -1.534160
  C      0.630580    4.564020   -1.748580
  C      1.662660    3.835870   -2.529170
  O      1.541000    2.820310   -3.159200
  N      2.832500    4.588910   -2.390000
  C      2.643880    5.726410   -1.584210
  O      3.488520    6.535820   -1.329600
  C      1.220260    5.682120   -1.165000
  C      0.513800    6.532970   -0.335810
  C     -0.823600    6.212710   -0.137030
  C     -1.429530    5.095160   -0.714430
  C     -2.870480    4.976750   -0.405660
  O     -3.651400    4.158930   -0.797650
  S     -3.353440    6.301910    0.701000
  C     -1.711700    7.033860    0.713730
  O     -1.431710    8.018350    1.321400
  C      4.071910    4.331740   -2.956950
  C      4.382910    3.246260   -3.680700
  C      5.674920    3.044070   -4.260450
  O      5.930160    1.889090   -4.906620
  C      7.194860    1.914790   -5.382870
  C      7.772080    3.129440   -5.037750
  C      6.805780    3.847350   -4.319180
  F      6.935910    5.067400   -3.802360
  F      9.003960    3.519050   -5.344920
  C      7.774430    0.824890   -6.090540
  C      7.119910   -0.314770   -6.387530
  C      7.685560   -1.412900   -7.128180
  C      6.881050   -2.142990   -8.018670
  C      5.430760   -2.014530   -8.289500
  O      4.621570   -1.264650   -7.816480
  N      5.138300   -2.978900   -9.273620
  C      6.272640   -3.695540   -9.665610
  O      6.317430   -4.565480  -10.491340
  C      7.383340   -3.147780   -8.843610
  C      8.717190   -3.508600   -8.832770
  C      9.513400   -2.850640   -7.902650
  C      9.029140   -1.851940   -7.056800
  C     10.008800   -1.437790   -6.028940
  O      9.849530   -0.739740   -5.074490
  S     11.588440   -2.249120   -6.350170
  C     10.943440   -3.189390   -7.726990
  O     11.586630   -3.959890   -8.371240
  C      3.834630   -3.198230   -9.683350
  C      3.476700   -3.949490  -10.737580
  C      2.123190   -4.217670  -11.104890
  C      1.073680   -4.406750  -10.261290
  C     -0.291840   -4.695680  -10.673980
  C     -0.854350   -4.359380  -11.875340
  C     -2.193900   -4.633980  -12.222230
  N     -3.271850   -4.839130  -12.559000
  C     -0.183740   -3.660530  -12.902190
  N      0.294820   -3.076840  -13.767140
  C     -0.973180   -5.323780   -9.551630
  C     -0.091860   -5.324640   -8.432750
  C      1.184680   -4.688420   -8.801770
  O      2.130250   -4.495100   -8.068670
  C     -0.458360   -5.851410   -7.227530
  C     -1.745770   -6.415560   -7.085680
  C     -2.629960   -6.426720   -8.203350
  C     -2.223880   -5.871270   -9.438130
  C     -3.909100   -6.999850   -8.051330
  C     -4.298750   -7.534690   -6.853690
  C     -3.428280   -7.521320   -5.753420
  C     -2.179510   -6.973050   -5.866680
  H     -5.022410   -0.532740   -2.967810
  H     -4.437060    1.110470    1.707280
  H     -6.497290    0.001310    2.349270
  H     -8.459750   -1.369300    1.771690
  H     -8.762190   -2.201120   -0.526620
  H     -7.105450   -1.665820   -2.269110
  H     -1.043940    2.912470   -3.222720
  H      0.962240    7.393710    0.133890
  H      4.783580    5.118930   -2.745470
  H      3.664680    2.462540   -3.865510
  H      8.796790    0.991300   -6.395820
  H      6.068920   -0.395270   -6.147250
  H      9.119970   -4.270120   -9.480810
  H      3.119760   -2.650230   -9.086040
  H      4.235660   -4.368770  -11.382640
  H      1.956990   -4.363620  -12.166080
  H      0.226160   -5.837540   -6.392370
  H     -2.911010   -5.900850  -10.269070
  H     -4.576140   -7.006550   -8.900860
  H     -5.280380   -7.971680   -6.747480
  H     -3.751750   -7.948750   -4.816050
  H     -1.504710   -6.960400   -5.023210

 Total Charge           Charge          ....    0
 Multiplicity           Mult            ....    1
 Number of Electrons    NEL             ....  586
 Basis Dimension        Dim             .... 1308

ORBITAL ENERGIES
----------------

  NO   OCC          E(Eh)            E(eV)
   0   2.0000     -88.964564     -2420.8489
   1   2.0000     -88.954509     -2420.5753
   2   2.0000     -24.811013      -675.1420
   3   2.0000     -24.810856      -675.1377
   4   2.0000     -19.313147      -525.5375
   5   2.0000     -19.257532      -524.0241
   6   2.0000     -19.256190      -523.9876
   7   2.0000     -19.247306      -523.7458
   8   2.0000     -19.246934      -523.7357
   9   2.0000     -19.246566      -523.7257
  10   2.0000     -19.246410      -523.7214
  11   2.0000     -19.243551      -523.6436
  12   2.0000     -19.243168      -523.6332
  13   2.0000     -19.227450      -523.2055
  14   2.0000     -19.216832      -522.9166
  15   2.0000     -14.496929      -394.4815
  16   2.0000     -14.494432      -394.4135
  17   2.0000     -14.432865      -392.7382
  18   2.0000     -14.428533      -392.6204
  19   2.0000     -14.413014      -392.1980
  20   2.0000     -14.411637      -392.1606
  21   2.0000     -10.426427      -283.7175
  22   2.0000     -10.424680      -283.6700
  23   2.0000     -10.422289      -283.6049
  24   2.0000     -10.422151      -283.6011
  25   2.0000     -10.421602      -283.5862
  26   2.0000     -10.416950      -283.4596
  27   2.0000     -10.411129      -283.3012
  28   2.0000     -10.408054      -283.2176
  29   2.0000     -10.378196      -282.4051
  30   2.0000     -10.378039      -282.4008
  31   2.0000     -10.372820      -282.2588
  32   2.0000     -10.368473      -282.1405
  33   2.0000     -10.358976      -281.8821
  34   2.0000     -10.357684      -281.8469
  35   2.0000     -10.356298      -281.8092
  36   2.0000     -10.351797      -281.6867
  37   2.0000     -10.348563      -281.5987
  38   2.0000     -10.343008      -281.4476
  39   2.0000     -10.341152      -281.3970
  40   2.0000     -10.340963      -281.3919
  41   2.0000     -10.339721      -281.3581
  42   2.0000     -10.339244      -281.3451
  43   2.0000     -10.337643      -281.3016
  44   2.0000     -10.336156      -281.2611
  45   2.0000     -10.335765      -281.2505
  46   2.0000     -10.335678      -281.2481
  47   2.0000     -10.335296      -281.2377
  48   2.0000     -10.334744      -281.2227
  49   2.0000     -10.331402      -281.1317
  50   2.0000     -10.330767      -281.1144
  51   2.0000     -10.330352      -281.1032
  52   2.0000     -10.329349      -281.0759
  53   2.0000     -10.329058      -281.0680
  54   2.0000     -10.325857      -280.9809
  55   2.0000     -10.324019      -280.9308
  56   2.0000     -10.317460      -280.7524
  57   2.0000     -10.316676      -280.7310
  58   2.0000     -10.315781      -280.7067
  59   2.0000     -10.314473      -280.6711
  60   2.0000     -10.313945      -280.6567
  61   2.0000     -10.307891      -280.4920
  62   2.0000     -10.307474      -280.4806
  63   2.0000     -10.307212      -280.4735
  64   2.0000     -10.306971      -280.4669
  65   2.0000     -10.306491      -280.4539
  66   2.0000     -10.302122      -280.3350
  67   2.0000     -10.299899      -280.2745
  68   2.0000     -10.298094      -280.2254
  69   2.0000     -10.297841      -280.2185
  70   2.0000     -10.297216      -280.2015
  71   2.0000     -10.296731      -280.1883
  72   2.0000     -10.296602      -280.1848
  73   2.0000     -10.296129      -280.1719
  74   2.0000     -10.294900      -280.1385
  75   2.0000     -10.294355      -280.1236
  76   2.0000     -10.294157      -280.1183
  77   2.0000     -10.293699      -280.1058
  78   2.0000     -10.289474      -279.9908
  79   2.0000     -10.288780      -279.9719
  80   2.0000     -10.287582      -279.9393
  81   2.0000     -10.287003      -279.9236
  82   2.0000     -10.286689      -279.9150
  83   2.0000     -10.286168      -279.9009
  84   2.0000     -10.283424      -279.8262
  85   2.0000      -8.063747      -219.4257
  86   2.0000      -8.053836      -219.1560
  87   2.0000      -6.032581      -164.1549
  88   2.0000      -6.029335      -164.0665
  89   2.0000      -6.024823      -163.9438
  90   2.0000      -6.022660      -163.8849
  91   2.0000      -6.019441      -163.7973
  92   2.0000      -6.014889      -163.6735
  93   2.0000      -1.329555       -36.1790
  94   2.0000      -1.320432       -35.9308
  95   2.0000      -1.233935       -33.5771
  96   2.0000      -1.193706       -32.4824
  97   2.0000      -1.190313       -32.3901
  98   2.0000      -1.182662       -32.1819
  99   2.0000      -1.178311       -32.0635
 100   2.0000      -1.172632       -31.9089
 101   2.0000      -1.170970       -31.8637
 102   2.0000      -1.168428       -31.7945
 103   2.0000      -1.166870       -31.7521
 104   2.0000      -1.143767       -31.1235
 105   2.0000      -1.132235       -30.8097
 106   2.0000      -1.086536       -29.5662
 107   2.0000      -1.083736       -29.4899
 108   2.0000      -1.035761       -28.1845
 109   2.0000      -1.024914       -27.8893
 110   2.0000      -1.017341       -27.6833
 111   2.0000      -1.015738       -27.6396
 112   2.0000      -1.011570       -27.5262
 113   2.0000      -1.007723       -27.4215
 114   2.0000      -0.996999       -27.1297
 115   2.0000      -0.990993       -26.9663
 116   2.0000      -0.982636       -26.7389
 117   2.0000      -0.971351       -26.4318
 118   2.0000      -0.968342       -26.3499
 119   2.0000      -0.960666       -26.1410
 120   2.0000      -0.943092       -25.6629
 121   2.0000      -0.939004       -25.5516
 122   2.0000      -0.930755       -25.3271
 123   2.0000      -0.927376       -25.2352
 124   2.0000      -0.923051       -25.1175
 125   2.0000      -0.917388       -24.9634
 126   2.0000      -0.913280       -24.8516
 127   2.0000      -0.902843       -24.5676
 128   2.0000      -0.899410       -24.4742
 129   2.0000      -0.895130       -24.3577
 130   2.0000      -0.891049       -24.2467
 131   2.0000      -0.881931       -23.9986
 132   2.0000      -0.877409       -23.8755
 133   2.0000      -0.871460       -23.7136
 134   2.0000      -0.863707       -23.5027
 135   2.0000      -0.840912       -22.8824
 136   2.0000      -0.838184       -22.8081
 137   2.0000      -0.832571       -22.6554
 138   2.0000      -0.828324       -22.5398
 139   2.0000      -0.810999       -22.0684
 140   2.0000      -0.807104       -21.9624
 141   2.0000      -0.805488       -21.9185
 142   2.0000      -0.797923       -21.7126
 143   2.0000      -0.791269       -21.5315
 144   2.0000      -0.773220       -21.0404
 145   2.0000      -0.768015       -20.8987
 146   2.0000      -0.763476       -20.7752
 147   2.0000      -0.760320       -20.6894
 148   2.0000      -0.760075       -20.6827
 149   2.0000      -0.743749       -20.2385
 150   2.0000      -0.730610       -19.8809
 151   2.0000      -0.729449       -19.8493
 152   2.0000      -0.720410       -19.6033
 153   2.0000      -0.717926       -19.5358
 154   2.0000      -0.710541       -19.3348
 155   2.0000      -0.706910       -19.2360
 156   2.0000      -0.703964       -19.1558
 157   2.0000      -0.701589       -19.0912
 158   2.0000      -0.699076       -19.0228
 159   2.0000      -0.695475       -18.9248
 160   2.0000      -0.692717       -18.8498
 161   2.0000      -0.690382       -18.7862
 162   2.0000      -0.680554       -18.5188
 163   2.0000      -0.675080       -18.3699
 164   2.0000      -0.668626       -18.1942
 165   2.0000      -0.664073       -18.0703
 166   2.0000      -0.651402       -17.7256
 167   2.0000      -0.646486       -17.5918
 168   2.0000      -0.645820       -17.5736
 169   2.0000      -0.641400       -17.4534
 170   2.0000      -0.635383       -17.2896
 171   2.0000      -0.631046       -17.1716
 172   2.0000      -0.628435       -17.1006
 173   2.0000      -0.625661       -17.0251
 174   2.0000      -0.620706       -16.8903
 175   2.0000      -0.618912       -16.8415
 176   2.0000      -0.614653       -16.7255
 177   2.0000      -0.613679       -16.6990
 178   2.0000      -0.608799       -16.5663
 179   2.0000      -0.607073       -16.5193
 180   2.0000      -0.606628       -16.5072
 181   2.0000      -0.602634       -16.3985
 182   2.0000      -0.600442       -16.3389
 183   2.0000      -0.598904       -16.2970
 184   2.0000      -0.589786       -16.0489
 185   2.0000      -0.586975       -15.9724
 186   2.0000      -0.582188       -15.8422
 187   2.0000      -0.579369       -15.7654
 188   2.0000      -0.577884       -15.7250
 189   2.0000      -0.573696       -15.6111
 190   2.0000      -0.571597       -15.5540
 191   2.0000      -0.567206       -15.4345
 192   2.0000      -0.566476       -15.4146
 193   2.0000      -0.559464       -15.2238
 194   2.0000      -0.559012       -15.2115
 195   2.0000      -0.558319       -15.1926
 196   2.0000      -0.557513       -15.1707
 197   2.0000      -0.556035       -15.1305
 198   2.0000      -0.555577       -15.1180
 199   2.0000      -0.553790       -15.0694
 200   2.0000      -0.552589       -15.0367
 201   2.0000      -0.550296       -14.9743
 202   2.0000      -0.548144       -14.9157
 203   2.0000      -0.547139       -14.8884
 204   2.0000      -0.546393       -14.8681
 205   2.0000      -0.545302       -14.8384
 206   2.0000      -0.543345       -14.7852
 207   2.0000      -0.541077       -14.7235
 208   2.0000      -0.539187       -14.6720
 209   2.0000      -0.537275       -14.6200
 210   2.0000      -0.534504       -14.5446
 211   2.0000      -0.534292       -14.5388
 212   2.0000      -0.531951       -14.4751
 213   2.0000      -0.529557       -14.4100
 214   2.0000      -0.529137       -14.3986
 215   2.0000      -0.526912       -14.3380
 216   2.0000      -0.524965       -14.2850
 217   2.0000      -0.523311       -14.2400
 218   2.0000      -0.522513       -14.2183
 219   2.0000      -0.520010       -14.1502
 220   2.0000      -0.519981       -14.1494
 221   2.0000      -0.514908       -14.0114
 222   2.0000      -0.514328       -13.9956
 223   2.0000      -0.512698       -13.9512
 224   2.0000      -0.511399       -13.9159
 225   2.0000      -0.509256       -13.8576
 226   2.0000      -0.509239       -13.8571
 227   2.0000      -0.506985       -13.7958
 228   2.0000      -0.504881       -13.7385
 229   2.0000      -0.500280       -13.6133
 230   2.0000      -0.495962       -13.4958
 231   2.0000      -0.495620       -13.4865
 232   2.0000      -0.492571       -13.4035
 233   2.0000      -0.491307       -13.3692
 234   2.0000      -0.490162       -13.3380
 235   2.0000      -0.489714       -13.3258
 236   2.0000      -0.485116       -13.2007
 237   2.0000      -0.481210       -13.0944
 238   2.0000      -0.480005       -13.0616
 239   2.0000      -0.476680       -12.9711
 240   2.0000      -0.474749       -12.9186
 241   2.0000      -0.466442       -12.6925
 242   2.0000      -0.465125       -12.6567
 243   2.0000      -0.463664       -12.6169
 244   2.0000      -0.457433       -12.4474
 245   2.0000      -0.450140       -12.2489
 246   2.0000      -0.447528       -12.1778
 247   2.0000      -0.446400       -12.1472
 248   2.0000      -0.446029       -12.1371
 249   2.0000      -0.442915       -12.0523
 250   2.0000      -0.441131       -12.0038
 251   2.0000      -0.440660       -11.9910
 252   2.0000      -0.439853       -11.9690
 253   2.0000      -0.438833       -11.9413
 254   2.0000      -0.435636       -11.8543
 255   2.0000      -0.434593       -11.8259
 256   2.0000      -0.433248       -11.7893
 257   2.0000      -0.431696       -11.7470
 258   2.0000      -0.425602       -11.5812
 259   2.0000      -0.424045       -11.5389
 260   2.0000      -0.419401       -11.4125
 261   2.0000      -0.418068       -11.3762
 262   2.0000      -0.415704       -11.3119
 263   2.0000      -0.408529       -11.1166
 264   2.0000      -0.401745       -10.9320
 265   2.0000      -0.395834       -10.7712
 266   2.0000      -0.390333       -10.6215
 267   2.0000      -0.389888       -10.6094
 268   2.0000      -0.386154       -10.5078
 269   2.0000      -0.382592       -10.4109
 270   2.0000      -0.380283       -10.3480
 271   2.0000      -0.378706       -10.3051
 272   2.0000      -0.377812       -10.2808
 273   2.0000      -0.376886       -10.2556
 274   2.0000      -0.372906       -10.1473
 275   2.0000      -0.372240       -10.1292
 276   2.0000      -0.371396       -10.1062
 277   2.0000      -0.364433        -9.9167
 278   2.0000      -0.361430        -9.8350
 279   2.0000      -0.360101        -9.7988
 280   2.0000      -0.358878        -9.7656
 281   2.0000      -0.351337        -9.5604
 282   2.0000      -0.350201        -9.5295
 283   2.0000      -0.348235        -9.4760
 284   2.0000      -0.340804        -9.2737
 285   2.0000      -0.336275        -9.1505
 286   2.0000      -0.328388        -8.9359
 287   2.0000      -0.325750        -8.8641
 288   2.0000      -0.317581        -8.6418
 289   2.0000      -0.303805        -8.2670
 290   2.0000      -0.299720        -8.1558
 291   2.0000      -0.286909        -7.8072
 292   2.0000      -0.264274        -7.1913
 293   0.0000      -0.111245        -3.0271
 294   0.0000      -0.100874        -2.7449
 295   0.0000      -0.098026        -2.6674
 296   0.0000      -0.088941        -2.4202
 297   0.0000      -0.073193        -1.9917

MULLIKEN ATOMIC CHARGES
-----------------------
   0 C :    0.275818
   1 C :   -0.342862
   2 C :   -0.184999
   3 N :    0.166942
   4 C :   -0.175040
   5 N :    0.157594
   6 C :    0.054869
   7 C :    0.012741
   8 C :   -0.079562
   9 C :    0.095776
  10 C :    0.095486
  11 C :   -0.076139
  12 C :   -0.015543
  13 C :    0.036888
  14 C :    0.038218
  15 C :   -0.013596
  16 C :    0.138756
  17 O :   -0.121949
  18 C :   -0.079010
  19 C :    0.013020
  20 C :   -0.048158
  21 C :    0.012853
  22 C :    0.220993
  23 O :   -0.141494
  24 N :   -0.239778
  25 C :    0.202987
  26 O :   -0.120227
  27 C :    0.032539
  28 C :   -0.055144
  29 C :    0.054084
  30 C :    0.060619
  31 C :    0.042746
  32 O :   -0.133838
  33 S :    0.026726
  34 C :    0.049555
  35 O :   -0.107383
  36 C :    0.068363
  37 C :    0.003457
  38 C :    0.119433
  39 O :   -0.186969
  40 C :    0.049453
  41 C :    0.193097
  42 C :    0.141432
  43 F :   -0.162291
  44 F :   -0.155350
  45 C :    0.066377
  46 C :   -0.056547
  47 C :    0.063648
  48 C :   -0.026919
  49 C :    0.201236
  50 O :   -0.129901
  51 N :   -0.245854
  52 C :    0.220137
  53 O :   -0.128951
  54 C :    0.004760
  55 C :   -0.073231
  56 C :    0.044130
  57 C :    0.017817
  58 C :    0.028130
  59 O :   -0.118003
  60 S :    0.014043
  61 C :    0.052102
  62 O :   -0.117442
  63 C :    0.164771
  64 C :   -0.030754
  65 C :    0.006511
  66 C :   -0.097738
  67 C :    0.287336
  68 C :   -0.338374
  69 C :   -0.181119
  70 N :    0.148570
  71 C :   -0.211786
  72 N :    0.164632
  73 C :    0.054444
  74 C :   -0.001922
  75 C :    0.149691
  76 O :   -0.153834
  77 C :   -0.082664
  78 C :    0.100656
  79 C :    0.100586
  80 C :   -0.090703
  81 C :   -0.022649
  82 C :    0.037522
  83 C :    0.036473
  84 C :   -0.019160
  85 H :   -0.008315
  86 H :   -0.004646
  87 H :   -0.008940
  88 H :   -0.001168
  89 H :   -0.002319
  90 H :   -0.015173
  91 H :    0.048520
  92 H :    0.023207
  93 H :    0.044869
  94 H :    0.035797
  95 H :    0.008554
  96 H :    0.032754
  97 H :    0.019692
  98 H :    0.048828
  99 H :    0.037977
 100 H :    0.037826
 101 H :   -0.012984
 102 H :   -0.006388
 103 H :   -0.008677
 104 H :   -0.006415
 105 H :   -0.007076
 106 H :   -0.017053
Sum of atomic charges:   -0.0000000

LOEWDIN ATOMIC CHARGES
----------------------
   0 C :    0.077791
   1 C :   -0.136504
   2 C :   -0.019811
   3 N :   -0.040603
   4 C :   -0.014393
   5 N :   -0.056396
   6 C :   -0.019028
   7 C :   -0.053948
   8 C :    0.036774
   9 C :   -0.005832
  10 C :   -0.003754
  11 C :    0.025281
  12 C :   -0.003963
  13 C :   -0.010351
  14 C :   -0.009241
  15 C :   -0.007919
  16 C :    0.089519
  17 O :   -0.122511
  18 C :   -0.047565
  19 C :    0.057884
  20 C :    0.019394
  21 C :   -0.017417
  22 C :    0.106055
  23 O :   -0.120176
  24 N :   -0.011296
  25 C :    0.103988
  26 O :   -0.116859
  27 C :   -0.020192
  28 C :    0.054602
  29 C :   -0.047263
  30 C :   -0.053936
  31 C :   -0.045274
  32 O :   -0.115939
  33 S :    0.312542
  34 C :   -0.043578
  35 O :   -0.099988
  36 C :    0.041700
  37 C :   -0.055505
  38 C :    0.018457
  39 O :    0.032227
  40 C :   -0.008805
  41 C :    0.035654
  42 C :    0.011474
  43 F :   -0.037202
  44 F :   -0.034118
  45 C :    0.016177
  46 C :   -0.042706
  47 C :    0.039919
  48 C :   -0.041898
  49 C :    0.107539
  50 O :   -0.118587
  51 N :   -0.011007
  52 C :    0.103982
  53 O :   -0.118943
  54 C :   -0.027835
  55 C :    0.032431
  56 C :   -0.047114
  57 C :   -0.065288
  58 C :   -0.043856
  59 O :   -0.107128
  60 S :    0.302149
  61 C :   -0.049768
  62 O :   -0.109719
  63 C :    0.102437
  64 C :   -0.073629
  65 C :    0.076921
  66 C :   -0.097489
  67 C :    0.076396
  68 C :   -0.138912
  69 C :   -0.017087
  70 N :   -0.054745
  71 C :   -0.025825
  72 N :   -0.050266
  73 C :   -0.025294
  74 C :   -0.053836
  75 C :    0.085466
  76 O :   -0.140690
  77 C :    0.031888
  78 C :   -0.008313
  79 C :   -0.006180
  80 C :    0.019143
  81 C :   -0.005796
  82 C :   -0.014569
  83 C :   -0.013789
  84 C :   -0.009718
  85 H :    0.041008
  86 H :    0.039852
  87 H :    0.035250
  88 H :    0.034614
  89 H :    0.034034
  90 H :    0.032927
  91 H :    0.056560
  92 H :    0.054645
  93 H :    0.036200
  94 H :    0.047542
  95 H :    0.039861
  96 H :    0.039948
  97 H :    0.051652
  98 H :    0.040394
  99 H :    0.040768
 100 H :    0.047423
 101 H :    0.038693
 102 H :    0.039092
 103 H :    0.034664
 104 H :    0.032603
 105 H :    0.032027
 106 H :    0.031801

  Mayer bond orders larger than 0.100000
B(  0-C ,  1-C ) :   1.6765 B(  0-C ,  6-C ) :   1.0171 B(  0-C , 18-C ) :   0.9814
B(  1-C ,  2-C ) :   1.1257 B(  1-C ,  4-C ) :   1.1706 B(  2-C ,  3-N ) :   2.9956
B(  4-C ,  5-N ) :   2.9930 B(  6-C ,  7-C ) :   1.2104 B(  6-C , 11-C ) :   1.4455
B(  7-C ,  8-C ) :   1.4670 B(  7-C , 16-C ) :   0.9226 B(  8-C ,  9-C ) :   1.1893
B(  8-C , 85-H ) :   1.0162 B(  9-C , 10-C ) :   1.2514 B(  9-C , 15-C ) :   1.2450
B( 10-C , 11-C ) :   1.2136 B( 10-C , 12-C ) :   1.2357 B( 11-C , 86-H ) :   0.9937
B( 12-C , 13-C ) :   1.4932 B( 12-C , 87-H ) :   0.9977 B( 13-C , 14-C ) :   1.2574
B( 13-C , 88-H ) :   0.9884 B( 14-C , 15-C ) :   1.4913 B( 14-C , 89-H ) :   0.9885
B( 15-C , 90-H ) :   0.9974 B( 16-C , 17-O ) :   2.2931 B( 16-C , 18-C ) :   0.9124
B( 18-C , 19-C ) :   1.8308 B( 19-C , 20-C ) :   0.9992 B( 19-C , 91-H ) :   0.9215
B( 20-C , 21-C ) :   1.4216 B( 20-C , 30-C ) :   1.3649 B( 21-C , 22-C ) :   0.8916
B( 21-C , 27-C ) :   1.3919 B( 22-C , 23-O ) :   2.1522 B( 22-C , 24-N ) :   1.0440
B( 24-N , 25-C ) :   1.0116 B( 24-N , 36-C ) :   1.0212 B( 25-C , 26-O ) :   2.2509
B( 25-C , 27-C ) :   0.8688 B( 27-C , 28-C ) :   1.3284 B( 28-C , 29-C ) :   1.3389
B( 28-C , 92-H ) :   1.0252 B( 29-C , 30-C ) :   1.3393 B( 29-C , 34-C ) :   0.8357
B( 30-C , 31-C ) :   0.8509 B( 31-C , 32-O ) :   2.1538 B( 31-C , 33-S ) :   1.0425
B( 32-O , 33-S ) :   0.1080 B( 33-S , 34-C ) :   1.0171 B( 33-S , 35-O ) :   0.1058
B( 34-C , 35-O ) :   2.2345 B( 36-C , 37-C ) :   1.6971 B( 36-C , 93-H ) :   0.9679
B( 37-C , 38-C ) :   1.1123 B( 37-C , 94-H ) :   0.9582 B( 38-C , 39-O ) :   1.1435
B( 38-C , 40-C ) :   0.1286 B( 38-C , 42-C ) :   1.3777 B( 39-O , 40-C ) :   1.1232
B( 40-C , 41-C ) :   1.3551 B( 40-C , 45-C ) :   1.1932 B( 41-C , 42-C ) :   1.2148
B( 41-C , 44-F ) :   1.1859 B( 42-C , 43-F ) :   1.1417 B( 45-C , 46-C ) :   1.6554
B( 45-C , 95-H ) :   0.9481 B( 46-C , 47-C ) :   1.1091 B( 46-C , 96-H ) :   0.9540
B( 47-C , 48-C ) :   1.3613 B( 47-C , 57-C ) :   1.3198 B( 48-C , 49-C ) :   0.9034
B( 48-C , 54-C ) :   1.3835 B( 49-C , 50-O ) :   2.1842 B( 49-C , 51-N ) :   1.0176
B( 51-N , 52-C ) :   1.0148 B( 51-N , 63-C ) :   1.0545 B( 52-C , 53-O ) :   2.2259
B( 52-C , 54-C ) :   0.8798 B( 54-C , 55-C ) :   1.3300 B( 55-C , 56-C ) :   1.3406
B( 55-C , 97-H ) :   1.0293 B( 56-C , 57-C ) :   1.3501 B( 56-C , 61-C ) :   0.8394
B( 57-C , 58-C ) :   0.8525 B( 58-C , 59-O ) :   2.1929 B( 58-C , 60-S ) :   1.0178
B( 59-O , 60-S ) :   0.1044 B( 60-S , 61-C ) :   1.0292 B( 60-S , 62-O ) :   0.1093
B( 61-C , 62-O ) :   2.2212 B( 63-C , 64-C ) :   1.6950 B( 63-C , 98-H ) :   0.9606
B( 64-C , 65-C ) :   1.1561 B( 64-C , 99-H ) :   0.9405 B( 65-C , 66-C ) :   1.6353
B( 65-C ,100-H ) :   0.9506 B( 66-C , 67-C ) :   1.0492 B( 66-C , 75-C ) :   0.9386
B( 67-C , 68-C ) :   1.6554 B( 67-C , 73-C ) :   0.9969 B( 68-C , 69-C ) :   1.1422
B( 68-C , 71-C ) :   1.1362 B( 69-C , 70-N ) :   2.9721 B( 71-C , 72-N ) :   3.0123
B( 73-C , 74-C ) :   1.2123 B( 73-C , 80-C ) :   1.4507 B( 74-C , 75-C ) :   0.9496
B( 74-C , 77-C ) :   1.4734 B( 75-C , 76-O ) :   2.2026 B( 77-C , 78-C ) :   1.1797
B( 77-C ,101-H ) :   1.0160 B( 78-C , 79-C ) :   1.2565 B( 78-C , 84-C ) :   1.2440
B( 79-C , 80-C ) :   1.2049 B( 79-C , 81-C ) :   1.2399 B( 80-C ,102-H ) :   0.9914
B( 81-C , 82-C ) :   1.4897 B( 81-C ,103-H ) :   0.9974 B( 82-C , 83-C ) :   1.2598
B( 82-C ,104-H ) :   0.9879 B( 83-C , 84-C ) :   1.4903 B( 83-C ,105-H ) :   0.9882
B( 84-C ,106-H ) :   0.9974

-----------------------------------------------------------------------------
         ABSORPTION SPECTRUM VIA TRANSITION ELECTRIC DIPOLE MOMENTS
-----------------------------------------------------------------------------
State   Energy  Wavelength   fosc         T2         TX        TY        TZ
        (cm-1)    (nm)                  (au**2)     (au)      (au)      (au)
-----------------------------------------------------------------------------
   0   19114.1    523.2   0.061218898   1.05440  -0.91921   0.44237   0.11734
   1   19777.1    505.6   0.005315723   0.08849  -0.02997   0.21788   0.20029
   2   21779.9    459.1   0.341788570   5.16626   1.26268  -1.25678  -1.41153
   3   23717.3    421.6   0.561620749   7.79567   1.05665   2.14281   1.44482
   4   24829.6    402.7   0.231000731   3.06280  -1.72482   0.29424   0.03510
   5   24912.4    401.4   0.311243481   4.11301   1.53096  -1.19097  -0.59226
   6   25250.3    396.0   0.012634879   0.16473  -0.34984   0.19333   0.07045
   7   26045.6    383.9   0.026574839   0.33590  -0.28311  -0.49326   0.11155
   8   27850.1    359.1   0.039167487   0.46299  -0.36883  -0.21548  -0.52965
   9   28185.4    354.8   0.015564544   0.18180   0.33205   0.24313  -0.11149
  10   28268.0    353.8   0.110714931   1.28940   0.82597   0.45287  -0.63410
  11   28396.7    352.2   0.001758790   0.02039   0.08890  -0.01961  -0.11001
  12   28683.2    348.6   0.163549533   1.87714   1.25576  -0.51607   0.18407
  13   29094.7    343.7   0.137662790   1.55768  -0.33024   0.74913   0.94203
  14   29219.8    342.2   0.024095482   0.27148  -0.50432  -0.07809  -0.10505
  15   30041.0    332.9   0.011706233   0.12829  -0.31762  -0.16117  -0.03780
  16   30350.4    329.5   0.057560943   0.62437   0.51124  -0.17749   0.57575
  17   30441.9    328.5   0.155389172   1.68045   0.53659   1.15239  -0.25402
  18   31147.0    321.1   0.016853748   0.17814   0.41152  -0.04640   0.08149
  19   31499.5    317.5   0.086287909   0.90182   0.85230   0.03203  -0.41759
  20   32094.2    311.6   0.066644344   0.68362  -0.71382  -0.32541   0.26111
  21   32295.4    309.6   0.053013661   0.54041   0.68499   0.20536  -0.17036
  22   32486.2    307.8   0.023425709   0.23739  -0.31284  -0.11441   0.35558
  23   32783.9    305.0   0.046525133   0.46720  -0.43227   0.09704   0.52051
  24   32797.5    304.9   0.082752973   0.83065  -0.50002  -0.67890  -0.34601
  25   32834.2    304.6   0.034995618   0.35088   0.45705   0.37306  -0.05305
  26   32939.8    303.6   0.180236892   1.80135   1.16930   0.65580  -0.06345
  27   33112.6    302.0   0.029136704   0.28968   0.11361  -0.45353   0.26662
  28   33489.0    298.6   0.037538014   0.36902   0.45858   0.23811  -0.31941
  29   33543.0    298.1   0.002578518   0.02531  -0.07942  -0.13762  -0.00771
  30   33777.8    296.1   0.028078770   0.27367  -0.30472  -0.42510   0.01023
  31   33825.5    295.6   0.004724944   0.04599   0.19784  -0.06651   0.04923
  32   33997.5    294.1   0.254001390   2.45960  -1.38652  -0.36661   0.63464
  33   34146.8    292.9   0.526228404   5.07341   2.19553   0.50152  -0.03935
  34   34339.2    291.2   0.470384879   4.50961   1.46968   1.24457   0.89482
  35   34598.8    289.0   0.702751620   6.68678  -1.25206  -1.33621   1.82583
  36   34754.8    287.7   0.009378680   0.08884  -0.17871   0.16408  -0.17315
  37   34893.0    286.6   0.218004863   2.05685   0.32175   0.62380  -1.25068
  38   35086.6    285.0   0.060593814   0.56854   0.15094   0.41263  -0.61278
  39   35176.7    284.3   0.013721836   0.12842   0.03755  -0.20101   0.29428
  40   35518.6    281.5   0.026770287   0.24813  -0.24631  -0.37413   0.21791
  41   35723.1    279.9   0.001261011   0.01162   0.06921  -0.08002   0.02070
  42   36111.4    276.9   0.058011213   0.52886  -0.63135  -0.35425  -0.06901
  43   36157.4    276.6   0.045056255   0.41024   0.57406   0.09052  -0.26925
  44   36202.3    276.2   0.010745254   0.09771  -0.23052  -0.21088  -0.01000
  45   36351.1    275.1   0.052860404   0.47873   0.46788   0.50948  -0.01582
  46   36485.3    274.1   0.091423321   0.82492   0.84301   0.31840  -0.11348
  47   36494.5    274.0   0.005489103   0.04952  -0.15146  -0.08430   0.13953
  48   36860.5    271.3   0.000466483   0.00417  -0.00029  -0.03785   0.05229
  49   37018.1    270.1   0.010695507   0.09512   0.23910   0.14004   0.13541
  50   37415.1    267.3   0.008490918   0.07471   0.21420   0.12212   0.11796
  51   37826.8    264.4   0.011116884   0.09675   0.08476   0.24976  -0.16489
  52   37931.6    263.6   0.011352364   0.09853   0.26876  -0.03530  -0.15827
  53   38000.5    263.2   0.024259355   0.21017  -0.45449   0.05909   0.01057
  54   38245.0    261.5   0.104878084   0.90279   0.49866  -0.58316  -0.56040
  55   38564.2    259.3   0.007655497   0.06535  -0.01647  -0.06089   0.24774
  56   38581.2    259.2   0.037744149   0.32207  -0.44629  -0.34638  -0.05397
  57   38936.2    256.8   0.125264227   1.05913  -0.71828  -0.65665   0.33469
  58   38980.8    256.5   0.010036610   0.08476  -0.08690  -0.13639   0.24210
  59   39063.8    256.0   0.006440868   0.05428   0.11615   0.04084  -0.19779
  60   39479.6    253.3   0.138004113   1.15079  -0.05810   0.74161   0.77293
  61   39605.4    252.5   0.151679180   1.26080  -0.82815   0.25178  -0.71524
  62   39779.6    251.4   0.114323056   0.94613   0.84179  -0.42875  -0.23171
  63   39881.4    250.7   0.038596974   0.31861  -0.48531   0.05248   0.28343
  64   40036.4    249.8   0.201791307   1.65929   0.16120  -0.58883  -1.13428
  65   40227.1    248.6   0.122193403   1.00001  -0.77783  -0.22233  -0.58784

FINAL SINGLE POINT ENERGY     -4599.196758607667

DIPOLE MOMENT
-------------
                                X             Y             Z
Electronic contribution:     56.69173      45.74470       4.28354
Nuclear contribution   :    -58.98204     -46.69527      -2.52634
                        -----------------------------------------
Total Dipole Moment    :     -2.29032      -0.95057       1.75720
                        -----------------------------------------
Magnitude (a.u.)       :      3.03922
Magnitude (Debye)      :      7.72509

Rotational constants in cm-1:     0.000584     0.000378     0.000252
Rotational constants in MHz :    17.506748    11.321776     7.557108

                             ****ORCA TERMINATED NORMALLY****
TOTAL RUN TIME: 0 days 0 hours 11 minutes 51 seconds 319 msec
