                         Program Version 4.2.0 -  RELEASE  -
|  1> # ORCA input file
|  2> # SCF done       -179.873362073757          0.000448833797
|  3> ! CAM-B3LYP def2-SVP def2/J RIJCOSX Grid4 TightSCF
|  4> %maxcore 5000
|  5> %tddft
|  6>     Mode sTDDFT
|  7>     Ethresh 5.0
|  8>     maxcore 5000
|  9> end
| 10>
| 11> %pal
| 12>   nprocs 6
| 13>   end
| 14> * xyz 0 1
| 15>    C        7.73312         3.91220        -5.38712
| 16>    C        7.69833         5.26242        -5.55236
| 17>    S        7.67443         6.07682        -4.03147
| 18>    C        7.70779         4.56833        -3.14847
| 19>   Cl        7.70787         4.53481        -1.45539
| 20>    C        7.73959         3.51327        -4.01132
| 21>    C        7.75709         2.05097        -3.91384
| 22>    O        7.67904         1.37214        -2.91655
| 23>    C        7.79721         1.57595        -5.33329
| 24>    C        7.77139         2.72917        -6.22269
| 25>    C        7.82209         2.74287        -7.59096
| 26>    C        7.79862         3.95620        -8.31196
| 27>    N        7.77669         4.93317        -8.91251
| 28>    C        7.91666         1.61189        -8.42684
| 29>    N        8.00736         0.73624        -9.16332
| 30>    C        7.72781         0.27194        -5.71736
| 31>    C        7.86468        -0.88150        -4.89595
| 32>    C        7.27991        -2.09709        -5.16632
| 33>    C        7.61129        -3.02232        -4.12463
| 34>    C        8.50832        -2.29463        -3.21244
| 35>    C        8.65787        -1.02774        -3.67829
| 36>    C        9.15069        -2.80818        -2.07781
| 37>    N        9.70286        -3.19545        -1.14910
| 38>    C        7.18597        -4.32255        -4.00346
| 39>    C        7.48702        -5.25021        -2.95632
| 40>    C        6.87266        -6.44593        -3.23397
| 41>    C        6.14728        -6.31080        -4.48593
| 42>    C        6.31993        -5.04587        -4.95262
| 43>    C        5.75155        -4.55372        -6.13308
| 44>    N        5.25960        -4.19210        -7.10593
| 45>    C        6.92139        -7.62540        -2.43513
| 46>    N        6.34044        -8.82030        -2.82863
| 47>    C        6.57614        -9.70999        -1.83898
| 48>    N        6.22371       -10.98271        -1.75907
| 49>    C        6.64115       -11.50793        -0.61713
| 50>    N        6.48948       -12.77041        -0.15122
| 51>    C        7.08910       -12.80568         1.09244
| 52>    N        7.61392       -11.65690         1.43295
| 53>    C        7.37375       -10.80341         0.40600
| 54>    N        7.72137        -9.53342         0.29732
| 55>    C        7.32062        -8.98148        -0.83521
| 56>    N        7.50203        -7.71187        -1.26242
| 57>    C        7.11786       -13.98056         1.93307
| 58>    C        6.76654       -15.24283         1.46113
| 59>    C        6.78205       -16.33370         2.31261
| 60>    N        6.54184       -17.62189         1.70537
| 61>    O        5.72707       -17.66446         0.80872
| 62>    O        7.19798       -18.56191         2.09484
| 63>    C        7.10295       -16.20499         3.67358
| 64>    C        7.51583       -14.93907         4.11039
| 65>    C        7.52806       -13.85289         3.26603
| 66>    C        6.92873       -17.25901         4.64887
| 67>    C        5.92396       -18.15687         4.62492
| 68>    C        5.70928       -19.10749         5.66085
| 69>    C        4.59243       -19.85279         5.85506
| 70>    C        4.65300       -21.04328         6.76603
| 71>    O        5.52498       -21.28981         7.56177
| 72>    C        3.45783       -21.82119         6.42408
| 73>    C        2.91623       -23.02554         6.76281
| 74>    S        1.41725       -23.28560         5.90187
| 75>    C        1.53462       -21.76038         5.10415
| 76>    C        2.66310       -21.09740         5.47400
| 77>    C        3.28931       -19.81494         5.21029
| 78>    C        2.65356       -18.75085         4.62823
| 79>    C        1.35682       -18.88446         4.08440
| 80>    N        0.30919       -18.97973         3.62770
| 81>    C        3.13159       -17.42550         4.58236
| 82>    N        3.44866       -16.32256         4.54821
| 83>   Cl        3.52254       -24.17647         7.84625
| 84>    H        7.68176         5.83742        -6.45687
| 85>    H        7.51337         0.05781        -6.75812
| 86>    H        6.63367        -2.31151        -5.99531
| 87>    H        9.28719        -0.27142        -3.25263
| 88>    H        8.09288        -5.05087        -2.09538
| 89>    H        5.56158        -7.07585        -4.96232
| 90>    H        5.84685        -9.00651        -3.68572
| 91>    H        5.98732       -13.51063        -0.61310
| 92>    H        6.50750       -15.41414         0.42663
| 93>    H        7.79323       -14.81517         5.14580
| 94>    H        7.83535       -12.87796         3.60890
| 95>    H        7.57789       -17.21802         5.51337
| 96>    H        5.22449       -18.16633         3.80173
| 97>    H        6.53397       -19.30737         6.33615
| 98>    H        0.76915       -21.46776         4.41309
| 99> *
|100>
|101>                          ****END OF INPUT****

CARTESIAN COORDINATES (ANGSTROEM)
---------------------------------
  C      7.733120    3.912200   -5.387120
  C      7.698330    5.262420   -5.552360
  S      7.674430    6.076820   -4.031470
  C      7.707790    4.568330   -3.148470
  Cl     7.707870    4.534810   -1.455390
  C      7.739590    3.513270   -4.011320
  C      7.757090    2.050970   -3.913840
  O      7.679040    1.372140   -2.916550
  C      7.797210    1.575950   -5.333290
  C      7.771390    2.729170   -6.222690
  C      7.822090    2.742870   -7.590960
  C      7.798620    3.956200   -8.311960
  N      7.776690    4.933170   -8.912510
  C      7.916660    1.611890   -8.426840
  N      8.007360    0.736240   -9.163320
  C      7.727810    0.271940   -5.717360
  C      7.864680   -0.881500   -4.895950
  C      7.279910   -2.097090   -5.166320
  C      7.611290   -3.022320   -4.124630
  C      8.508320   -2.294630   -3.212440
  C      8.657870   -1.027740   -3.678290
  C      9.150690   -2.808180   -2.077810
  N      9.702860   -3.195450   -1.149100
  C      7.185970   -4.322550   -4.003460
  C      7.487020   -5.250210   -2.956320
  C      6.872660   -6.445930   -3.233970
  C      6.147280   -6.310800   -4.485930
  C      6.319930   -5.045870   -4.952620
  C      5.751550   -4.553720   -6.133080
  N      5.259600   -4.192100   -7.105930
  C      6.921390   -7.625400   -2.435130
  N      6.340440   -8.820300   -2.828630
  C      6.576140   -9.709990   -1.838980
  N      6.223710  -10.982710   -1.759070
  C      6.641150  -11.507930   -0.617130
  N      6.489480  -12.770410   -0.151220
  C      7.089100  -12.805680    1.092440
  N      7.613920  -11.656900    1.432950
  C      7.373750  -10.803410    0.406000
  N      7.721370   -9.533420    0.297320
  C      7.320620   -8.981480   -0.835210
  N      7.502030   -7.711870   -1.262420
  C      7.117860  -13.980560    1.933070
  C      6.766540  -15.242830    1.461130
  C      6.782050  -16.333700    2.312610
  N      6.541840  -17.621890    1.705370
  O      5.727070  -17.664460    0.808720
  O      7.197980  -18.561910    2.094840
  C      7.102950  -16.204990    3.673580
  C      7.515830  -14.939070    4.110390
  C      7.528060  -13.852890    3.266030
  C      6.928730  -17.259010    4.648870
  C      5.923960  -18.156870    4.624920
  C      5.709280  -19.107490    5.660850
  C      4.592430  -19.852790    5.855060
  C      4.653000  -21.043280    6.766030
  O      5.524980  -21.289810    7.561770
  C      3.457830  -21.821190    6.424080
  C      2.916230  -23.025540    6.762810
  S      1.417250  -23.285600    5.901870
  C      1.534620  -21.760380    5.104150
  C      2.663100  -21.097400    5.474000
  C      3.289310  -19.814940    5.210290
  C      2.653560  -18.750850    4.628230
  C      1.356820  -18.884460    4.084400
  N      0.309190  -18.979730    3.627700
  C      3.131590  -17.425500    4.582360
  N      3.448660  -16.322560    4.548210
  Cl     3.522540  -24.176470    7.846250
  H      7.681760    5.837420   -6.456870
  H      7.513370    0.057810   -6.758120
  H      6.633670   -2.311510   -5.995310
  H      9.287190   -0.271420   -3.252630
  H      8.092880   -5.050870   -2.095380
  H      5.561580   -7.075850   -4.962320
  H      5.846850   -9.006510   -3.685720
  H      5.987320  -13.510630   -0.613100
  H      6.507500  -15.414140    0.426630
  H      7.793230  -14.815170    5.145800
  H      7.835350  -12.877960    3.608900
  H      7.577890  -17.218020    5.513370
  H      5.224490  -18.166330    3.801730
  H      6.533970  -19.307370    6.336150
  H      0.769150  -21.467760    4.413090

 Total Charge           Charge          ....    0
 Multiplicity           Mult            ....    1
 Number of Electrons    NEL             ....  492
 Basis Dimension        Dim             .... 1057

ORBITAL ENERGIES
----------------

  NO   OCC          E(Eh)            E(eV)
   0   2.0000    -101.625409     -2765.3680
   1   2.0000    -101.619572     -2765.2091
   2   2.0000     -89.002481     -2421.8806
   3   2.0000     -88.995889     -2421.7013
   4   2.0000     -19.258584      -524.0527
   5   2.0000     -19.257703      -524.0287
   6   2.0000     -19.235763      -523.4317
   7   2.0000     -19.222768      -523.0781
   8   2.0000     -14.662926      -398.9985
   9   2.0000     -14.490439      -394.3049
  10   2.0000     -14.489256      -394.2727
  11   2.0000     -14.441127      -392.9630
  12   2.0000     -14.430181      -392.6652
  13   2.0000     -14.429134      -392.6367
  14   2.0000     -14.425017      -392.5247
  15   2.0000     -14.424635      -392.5143
  16   2.0000     -14.422033      -392.4435
  17   2.0000     -14.421663      -392.4334
  18   2.0000     -14.409086      -392.0912
  19   2.0000     -14.407847      -392.0575
  20   2.0000     -14.407671      -392.0527
  21   2.0000     -10.391628      -282.7706
  22   2.0000     -10.385589      -282.6062
  23   2.0000     -10.378920      -282.4248
  24   2.0000     -10.378713      -282.4191
  25   2.0000     -10.366535      -282.0877
  26   2.0000     -10.365799      -282.0677
  27   2.0000     -10.360848      -281.9330
  28   2.0000     -10.360702      -281.9290
  29   2.0000     -10.359765      -281.9035
  30   2.0000     -10.358942      -281.8811
  31   2.0000     -10.355561      -281.7892
  32   2.0000     -10.354703      -281.7658
  33   2.0000     -10.348728      -281.6032
  34   2.0000     -10.339815      -281.3607
  35   2.0000     -10.338779      -281.3325
  36   2.0000     -10.338328      -281.3202
  37   2.0000     -10.336920      -281.2819
  38   2.0000     -10.336416      -281.2682
  39   2.0000     -10.336088      -281.2592
  40   2.0000     -10.332052      -281.1494
  41   2.0000     -10.331894      -281.1451
  42   2.0000     -10.331545      -281.1356
  43   2.0000     -10.330655      -281.1114
  44   2.0000     -10.328464      -281.0518
  45   2.0000     -10.327145      -281.0159
  46   2.0000     -10.326699      -281.0038
  47   2.0000     -10.326641      -281.0022
  48   2.0000     -10.323904      -280.9277
  49   2.0000     -10.323293      -280.9111
  50   2.0000     -10.323246      -280.9098
  51   2.0000     -10.322240      -280.8824
  52   2.0000     -10.320968      -280.8478
  53   2.0000     -10.320875      -280.8453
  54   2.0000     -10.320459      -280.8340
  55   2.0000     -10.319229      -280.8005
  56   2.0000     -10.318416      -280.7784
  57   2.0000     -10.318352      -280.7766
  58   2.0000     -10.316368      -280.7226
  59   2.0000     -10.316276      -280.7201
  60   2.0000     -10.311685      -280.5952
  61   2.0000     -10.310553      -280.5644
  62   2.0000     -10.309709      -280.5414
  63   2.0000     -10.309693      -280.5410
  64   2.0000     -10.307300      -280.4759
  65   2.0000     -10.305476      -280.4263
  66   2.0000     -10.305150      -280.4174
  67   2.0000     -10.303104      -280.3617
  68   2.0000     -10.298902      -280.2474
  69   2.0000      -9.580059      -260.6867
  70   2.0000      -9.574349      -260.5313
  71   2.0000      -8.098216      -220.3637
  72   2.0000      -8.091664      -220.1854
  73   2.0000      -7.350713      -200.0231
  74   2.0000      -7.345004      -199.8677
  75   2.0000      -7.340119      -199.7348
  76   2.0000      -7.339552      -199.7194
  77   2.0000      -7.334379      -199.5786
  78   2.0000      -7.333833      -199.5637
  79   2.0000      -6.067583      -165.1073
  80   2.0000      -6.062949      -164.9812
  81   2.0000      -6.061024      -164.9289
  82   2.0000      -6.060493      -164.9144
  83   2.0000      -6.056438      -164.8041
  84   2.0000      -6.053910      -164.7353
  85   2.0000      -1.339670       -36.4543
  86   2.0000      -1.158426       -31.5224
  87   2.0000      -1.154367       -31.4119
  88   2.0000      -1.153159       -31.3791
  89   2.0000      -1.140065       -31.0227
  90   2.0000      -1.139018       -30.9943
  91   2.0000      -1.060635       -28.8613
  92   2.0000      -1.047683       -28.5089
  93   2.0000      -1.041219       -28.3330
  94   2.0000      -1.040093       -28.3024
  95   2.0000      -1.029401       -28.0114
  96   2.0000      -1.026679       -27.9374
  97   2.0000      -1.021971       -27.8092
  98   2.0000      -1.011508       -27.5245
  99   2.0000      -1.007882       -27.4259
 100   2.0000      -1.006956       -27.4007
 101   2.0000      -1.003239       -27.2995
 102   2.0000      -0.998225       -27.1631
 103   2.0000      -0.996481       -27.1156
 104   2.0000      -0.994453       -27.0604
 105   2.0000      -0.991786       -26.9879
 106   2.0000      -0.987966       -26.8839
 107   2.0000      -0.963758       -26.2252
 108   2.0000      -0.961013       -26.1505
 109   2.0000      -0.959167       -26.1002
 110   2.0000      -0.939238       -25.5580
 111   2.0000      -0.922626       -25.1059
 112   2.0000      -0.920386       -25.0450
 113   2.0000      -0.910714       -24.7818
 114   2.0000      -0.909642       -24.7526
 115   2.0000      -0.898315       -24.4444
 116   2.0000      -0.890712       -24.2375
 117   2.0000      -0.868919       -23.6445
 118   2.0000      -0.860418       -23.4132
 119   2.0000      -0.855429       -23.2774
 120   2.0000      -0.842124       -22.9153
 121   2.0000      -0.837833       -22.7986
 122   2.0000      -0.835670       -22.7397
 123   2.0000      -0.815187       -22.1824
 124   2.0000      -0.808377       -21.9971
 125   2.0000      -0.797539       -21.7021
 126   2.0000      -0.781559       -21.2673
 127   2.0000      -0.772329       -21.0161
 128   2.0000      -0.765366       -20.8267
 129   2.0000      -0.759787       -20.6749
 130   2.0000      -0.752329       -20.4719
 131   2.0000      -0.743705       -20.2372
 132   2.0000      -0.732698       -19.9377
 133   2.0000      -0.730024       -19.8650
 134   2.0000      -0.723079       -19.6760
 135   2.0000      -0.721446       -19.6315
 136   2.0000      -0.714445       -19.4410
 137   2.0000      -0.701202       -19.0807
 138   2.0000      -0.699248       -19.0275
 139   2.0000      -0.689302       -18.7569
 140   2.0000      -0.686529       -18.6814
 141   2.0000      -0.683809       -18.6074
 142   2.0000      -0.679975       -18.5031
 143   2.0000      -0.671122       -18.2622
 144   2.0000      -0.662793       -18.0355
 145   2.0000      -0.657058       -17.8795
 146   2.0000      -0.653967       -17.7954
 147   2.0000      -0.650637       -17.7047
 148   2.0000      -0.643256       -17.5039
 149   2.0000      -0.636381       -17.3168
 150   2.0000      -0.626306       -17.0426
 151   2.0000      -0.625659       -17.0251
 152   2.0000      -0.624491       -16.9933
 153   2.0000      -0.620144       -16.8750
 154   2.0000      -0.613405       -16.6916
 155   2.0000      -0.611345       -16.6355
 156   2.0000      -0.605804       -16.4848
 157   2.0000      -0.602302       -16.3895
 158   2.0000      -0.590397       -16.0655
 159   2.0000      -0.587871       -15.9968
 160   2.0000      -0.583466       -15.8769
 161   2.0000      -0.575886       -15.6707
 162   2.0000      -0.571760       -15.5584
 163   2.0000      -0.565037       -15.3754
 164   2.0000      -0.562907       -15.3175
 165   2.0000      -0.562338       -15.3020
 166   2.0000      -0.559749       -15.2315
 167   2.0000      -0.556124       -15.1329
 168   2.0000      -0.553802       -15.0697
 169   2.0000      -0.552449       -15.0329
 170   2.0000      -0.548568       -14.9273
 171   2.0000      -0.545265       -14.8374
 172   2.0000      -0.539910       -14.6917
 173   2.0000      -0.536697       -14.6043
 174   2.0000      -0.534725       -14.5506
 175   2.0000      -0.533429       -14.5153
 176   2.0000      -0.529797       -14.4165
 177   2.0000      -0.528933       -14.3930
 178   2.0000      -0.524812       -14.2809
 179   2.0000      -0.523591       -14.2476
 180   2.0000      -0.517761       -14.0890
 181   2.0000      -0.517275       -14.0758
 182   2.0000      -0.514622       -14.0036
 183   2.0000      -0.509888       -13.8747
 184   2.0000      -0.509774       -13.8717
 185   2.0000      -0.502883       -13.6841
 186   2.0000      -0.501661       -13.6509
 187   2.0000      -0.497270       -13.5314
 188   2.0000      -0.495501       -13.4833
 189   2.0000      -0.493854       -13.4385
 190   2.0000      -0.491671       -13.3790
 191   2.0000      -0.490372       -13.3437
 192   2.0000      -0.485196       -13.2028
 193   2.0000      -0.483260       -13.1502
 194   2.0000      -0.472482       -12.8569
 195   2.0000      -0.466310       -12.6889
 196   2.0000      -0.464084       -12.6284
 197   2.0000      -0.462510       -12.5855
 198   2.0000      -0.461326       -12.5533
 199   2.0000      -0.461107       -12.5474
 200   2.0000      -0.459208       -12.4957
 201   2.0000      -0.457351       -12.4451
 202   2.0000      -0.455816       -12.4034
 203   2.0000      -0.453471       -12.3396
 204   2.0000      -0.450482       -12.2582
 205   2.0000      -0.450466       -12.2578
 206   2.0000      -0.449526       -12.2322
 207   2.0000      -0.444497       -12.0954
 208   2.0000      -0.442865       -12.0510
 209   2.0000      -0.442189       -12.0326
 210   2.0000      -0.439214       -11.9516
 211   2.0000      -0.437893       -11.9157
 212   2.0000      -0.437087       -11.8937
 213   2.0000      -0.434077       -11.8118
 214   2.0000      -0.432219       -11.7613
 215   2.0000      -0.425925       -11.5900
 216   2.0000      -0.425089       -11.5673
 217   2.0000      -0.423869       -11.5340
 218   2.0000      -0.418574       -11.3900
 219   2.0000      -0.416844       -11.3429
 220   2.0000      -0.411278       -11.1914
 221   2.0000      -0.408086       -11.1046
 222   2.0000      -0.405414       -11.0319
 223   2.0000      -0.405192       -11.0258
 224   2.0000      -0.400572       -10.9001
 225   2.0000      -0.396725       -10.7954
 226   2.0000      -0.393137       -10.6978
 227   2.0000      -0.389515       -10.5993
 228   2.0000      -0.387800       -10.5526
 229   2.0000      -0.381711       -10.3869
 230   2.0000      -0.370825       -10.0906
 231   2.0000      -0.370283       -10.0759
 232   2.0000      -0.361814        -9.8455
 233   2.0000      -0.356096        -9.6899
 234   2.0000      -0.347553        -9.4574
 235   2.0000      -0.347175        -9.4471
 236   2.0000      -0.340564        -9.2672
 237   2.0000      -0.338391        -9.2081
 238   2.0000      -0.333433        -9.0732
 239   2.0000      -0.325118        -8.8469
 240   2.0000      -0.324863        -8.8400
 241   2.0000      -0.323771        -8.8103
 242   2.0000      -0.316206        -8.6044
 243   2.0000      -0.307882        -8.3779
 244   2.0000      -0.301069        -8.1925
 245   2.0000      -0.275066        -7.4849
 246   0.0000      -0.142545        -3.8788
 247   0.0000      -0.105286        -2.8650
 248   0.0000      -0.091613        -2.4929
 249   0.0000      -0.065816        -1.7909
 250   0.0000      -0.061479        -1.6729

MULLIKEN ATOMIC CHARGES
-----------------------
   0 C :    0.032560
   1 C :   -0.127562
   2 S :    0.194771
   3 C :   -0.167340
   4 Cl:    0.007212
   5 C :    0.077735
   6 C :    0.136818
   7 O :   -0.124994
   8 C :   -0.091182
   9 C :    0.288630
  10 C :   -0.318193
  11 C :   -0.194296
  12 N :    0.161500
  13 C :   -0.188653
  14 N :    0.171859
  15 C :   -0.031491
  16 C :    0.083366
  17 C :   -0.071915
  18 C :    0.109626
  19 C :   -0.118223
  20 C :    0.073195
  21 C :   -0.187716
  22 N :    0.155421
  23 C :    0.110614
  24 C :   -0.103544
  25 C :    0.133151
  26 C :   -0.013052
  27 C :   -0.099730
  28 C :   -0.181468
  29 N :    0.146014
  30 C :   -0.012741
  31 N :   -0.031571
  32 C :   -0.048231
  33 N :    0.026336
  34 C :   -0.039111
  35 N :   -0.040569
  36 C :    0.011258
  37 N :   -0.028359
  38 C :   -0.114134
  39 N :    0.079988
  40 C :   -0.106982
  41 N :   -0.009891
  42 C :    0.097315
  43 C :   -0.046090
  44 C :    0.112667
  45 N :    0.220767
  46 O :   -0.231653
  47 O :   -0.216500
  48 C :    0.081875
  49 C :    0.002094
  50 C :    0.034637
  51 C :    0.008945
  52 C :    0.035023
  53 C :    0.011364
  54 C :   -0.117137
  55 C :    0.138276
  56 O :   -0.123712
  57 C :    0.085527
  58 C :   -0.169976
  59 S :    0.188794
  60 C :   -0.128092
  61 C :    0.020679
  62 C :    0.278374
  63 C :   -0.317147
  64 C :   -0.187093
  65 N :    0.156947
  66 C :   -0.213808
  67 N :    0.172461
  68 Cl:    0.001681
  69 H :    0.056784
  70 H :    0.037389
  71 H :    0.017643
  72 H :    0.010409
  73 H :    0.029636
  74 H :   -0.008633
  75 H :    0.134662
  76 H :    0.141574
  77 H :   -0.015057
  78 H :   -0.002140
  79 H :    0.021983
  80 H :    0.013443
  81 H :    0.037368
  82 H :    0.024321
  83 H :    0.055296
Sum of atomic charges:   -0.0000000

LOEWDIN ATOMIC CHARGES
----------------------
   0 C :   -0.059330
   1 C :   -0.146925
   2 S :    0.483534
   3 C :   -0.269817
   4 Cl:    0.198016
   5 C :   -0.118927
   6 C :    0.081652
   7 O :   -0.120217
   8 C :   -0.074244
   9 C :    0.070839
  10 C :   -0.126281
  11 C :   -0.015015
  12 N :   -0.043655
  13 C :   -0.025676
  14 N :   -0.034677
  15 C :    0.072227
  16 C :   -0.022749
  17 C :    0.022270
  18 C :    0.044549
  19 C :   -0.089587
  20 C :    0.080198
  21 C :   -0.033696
  22 N :   -0.048445
  23 C :    0.040639
  24 C :    0.015666
  25 C :   -0.031734
  26 C :    0.043598
  27 C :   -0.075749
  28 C :   -0.034533
  29 N :   -0.053832
  30 C :    0.036240
  31 N :    0.063656
  32 C :   -0.001367
  33 N :   -0.093365
  34 C :    0.001366
  35 N :    0.063940
  36 C :    0.046378
  37 N :   -0.105340
  38 C :   -0.037023
  39 N :   -0.024292
  40 C :   -0.037977
  41 N :   -0.092402
  42 C :   -0.033292
  43 C :    0.004741
  44 C :   -0.015349
  45 N :    0.279298
  46 O :   -0.199939
  47 O :   -0.187548
  48 C :   -0.002567
  49 C :    0.007084
  50 C :    0.038390
  51 C :    0.029280
  52 C :   -0.012082
  53 C :    0.071489
  54 C :   -0.080310
  55 C :    0.080355
  56 O :   -0.129463
  57 C :   -0.118183
  58 C :   -0.271953
  59 S :    0.477496
  60 C :   -0.150479
  61 C :   -0.057310
  62 C :    0.071124
  63 C :   -0.132478
  64 C :   -0.015599
  65 N :   -0.046232
  66 C :   -0.025468
  67 N :   -0.046161
  68 Cl:    0.193938
  69 H :    0.038901
  70 H :    0.053891
  71 H :    0.040995
  72 H :    0.039455
  73 H :    0.047029
  74 H :    0.032457
  75 H :    0.095171
  76 H :    0.097647
  77 H :    0.033442
  78 H :    0.039614
  79 H :    0.047026
  80 H :    0.039860
  81 H :    0.031194
  82 H :    0.048458
  83 H :    0.038164

  Mayer bond orders larger than 0.100000
B(  0-C ,  1-C ) :   1.5417 B(  0-C ,  5-C ) :   1.2214 B(  0-C ,  9-C ) :   1.0013
B(  1-C ,  2-S ) :   1.1638 B(  1-C , 69-H ) :   0.9550 B(  2-S ,  3-C ) :   1.1556
B(  3-C ,  4-Cl) :   1.1348 B(  3-C ,  5-C ) :   1.4682 B(  5-C ,  6-C ) :   0.9540
B(  6-C ,  7-O ) :   2.2347 B(  6-C ,  8-C ) :   0.9285 B(  8-C ,  9-C ) :   1.0524
B(  8-C , 15-C ) :   1.6443 B(  9-C , 10-C ) :   1.6687 B( 10-C , 11-C ) :   1.1451
B( 10-C , 13-C ) :   1.1345 B( 11-C , 12-N ) :   2.9908 B( 13-C , 14-N ) :   2.9776
B( 15-C , 16-C ) :   1.0927 B( 15-C , 70-H ) :   0.9462 B( 16-C , 17-C ) :   1.5384
B( 16-C , 20-C ) :   1.0440 B( 17-C , 18-C ) :   1.0842 B( 17-C , 71-H ) :   1.0061
B( 18-C , 19-C ) :   1.1153 B( 18-C , 23-C ) :   1.4257 B( 19-C , 20-C ) :   1.6819
B( 19-C , 21-C ) :   1.0918 B( 20-C , 72-H ) :   1.0065 B( 21-C , 22-N ) :   2.9851
B( 23-C , 24-C ) :   1.0757 B( 23-C , 27-C ) :   1.0994 B( 24-C , 25-C ) :   1.5943
B( 24-C , 73-H ) :   1.0188 B( 25-C , 26-C ) :   1.0335 B( 25-C , 30-C ) :   0.9675
B( 26-C , 27-C ) :   1.7024 B( 26-C , 74-H ) :   1.0109 B( 27-C , 28-C ) :   1.0833
B( 28-C , 29-N ) :   2.9668 B( 30-C , 31-N ) :   1.1995 B( 30-C , 41-N ) :   1.7306
B( 31-N , 32-C ) :   1.2032 B( 31-N , 75-H ) :   0.9118 B( 32-C , 33-N ) :   1.5347
B( 32-C , 40-C ) :   1.1182 B( 33-N , 34-C ) :   1.5400 B( 34-C , 35-N ) :   1.1980
B( 34-C , 38-C ) :   1.1247 B( 35-N , 36-C ) :   1.1914 B( 35-N , 76-H ) :   0.9118
B( 36-C , 37-N ) :   1.7292 B( 36-C , 42-C ) :   0.9867 B( 37-N , 38-C ) :   1.3609
B( 38-C , 39-N ) :   1.5328 B( 39-N , 40-C ) :   1.5187 B( 40-C , 41-N ) :   1.3726
B( 42-C , 43-C ) :   1.2798 B( 42-C , 50-C ) :   1.3720 B( 43-C , 44-C ) :   1.4223
B( 43-C , 77-H ) :   0.9842 B( 44-C , 45-N ) :   0.8582 B( 44-C , 48-C ) :   1.3581
B( 45-N , 46-O ) :   1.5319 B( 45-N , 47-O ) :   1.5518 B( 46-O , 47-O ) :   0.2725
B( 48-C , 49-C ) :   1.3335 B( 48-C , 51-C ) :   1.0481 B( 49-C , 50-C ) :   1.3714
B( 49-C , 78-H ) :   0.9953 B( 50-C , 79-H ) :   0.9940 B( 51-C , 52-C ) :   1.7211
B( 51-C , 80-H ) :   0.9691 B( 52-C , 53-C ) :   1.1268 B( 52-C , 81-H ) :   0.9435
B( 53-C , 54-C ) :   1.6650 B( 53-C , 82-H ) :   0.9574 B( 54-C , 55-C ) :   0.9294
B( 54-C , 62-C ) :   1.0300 B( 55-C , 56-O ) :   2.2849 B( 55-C , 57-C ) :   0.9282
B( 57-C , 58-C ) :   1.4820 B( 57-C , 61-C ) :   1.2221 B( 58-C , 59-S ) :   1.1532
B( 58-C , 68-Cl) :   1.1308 B( 59-S , 60-C ) :   1.1625 B( 60-C , 61-C ) :   1.5472
B( 60-C , 83-H ) :   0.9556 B( 61-C , 62-C ) :   1.0137 B( 62-C , 63-C ) :   1.6596
B( 63-C , 64-C ) :   1.1342 B( 63-C , 66-C ) :   1.1519 B( 64-C , 65-N ) :   2.9990
B( 66-C , 67-N ) :   3.0114

-----------------------------------------------------------------------------
         ABSORPTION SPECTRUM VIA TRANSITION ELECTRIC DIPOLE MOMENTS
-----------------------------------------------------------------------------
State   Energy  Wavelength   fosc         T2         TX        TY        TZ
        (cm-1)    (nm)                  (au**2)     (au)      (au)      (au)
-----------------------------------------------------------------------------
   0   14157.1    706.4   0.780180425  18.14243  -0.62409  -3.96855   1.41546
   1   17538.6    570.2   0.010738347   0.20157  -0.07409  -0.44278  -0.00490
   2   21373.4    467.9   0.839778661  12.93503   0.61722   3.16797  -1.58683
   3   23335.5    428.5   0.032695212   0.46126   0.27448  -0.61899   0.05265
   4   23507.1    425.4   0.572870016   8.02292  -1.45278  -1.99591   1.38878
   5   23683.8    422.2   0.000266087   0.00370   0.04061   0.03102  -0.03297
   6   24782.1    403.5   0.092539218   1.22932   0.05456   1.10735   0.01072
   7   26081.3    383.4   0.094819813   1.19686   0.19678  -0.86348   0.64230
   8   27353.4    365.6   0.016722464   0.20126  -0.00400   0.32218  -0.31217
   9   27732.2    360.6   0.239169703   2.83921   0.46291  -1.46272   0.69669
  10   27812.2    359.6   0.057176817   0.67680   0.32270   0.67247  -0.34706
  11   28893.1    346.1   0.009058090   0.10321  -0.18739   0.24325   0.09448
  12   29250.4    341.9   0.000135197   0.00152   0.00285   0.03042   0.02425
  13   29445.7    339.6   0.250903693   2.80518   1.18829  -0.72688   0.92994
  14   30086.8    332.4   0.084526378   0.92489   0.22193   0.76536  -0.53839
  15   30250.1    330.6   0.031971584   0.34795   0.04920   0.47937  -0.34019
  16   30381.9    329.1   0.527687335   5.71791  -0.66952  -2.29393  -0.08678
  17   31910.1    313.4   0.022398035   0.23108   0.06993  -0.39102   0.27072
  18   32078.0    311.7   0.458739349   4.70798  -0.19037  -1.83726   1.13851
  19   32727.1    305.6   0.063250196   0.63625   0.09579  -0.06909   0.78886
  20   32779.0    305.1   0.259454096   2.60580   0.15787   1.49970  -0.57600
  21   33233.4    300.9   0.033345302   0.33032  -0.15094  -0.52260   0.18553
  22   33324.0    300.1   0.103939245   1.02683   0.18846  -0.53166   0.84181
  23   33603.3    297.6   0.005783514   0.05666   0.08294  -0.17913   0.13302
  24   33721.6    296.5   0.001536034   0.01500   0.11455  -0.03552  -0.02474
  25   34224.1    292.2   0.342692082   3.29646  -0.00145   1.42621   1.12356
  26   34748.7    287.8   0.144976411   1.37352   0.08333   1.16827   0.04146
  27   34841.4    287.0   0.013611331   0.12861  -0.01572   0.00123  -0.35828
  28   35566.1    281.2   0.002209275   0.02045   0.13057  -0.03881   0.04354
  29   35750.5    279.7   0.145110064   1.33626  -0.47674  -1.00028   0.32928
  30   35932.2    278.3   0.062710259   0.57455   0.30167  -0.59454   0.36066
  31   36014.3    277.7   0.009906291   0.09055   0.26684   0.04614   0.13124
  32   36309.4    275.4   0.108233366   0.98134   0.47579   0.82905  -0.26006
  33   36753.7    272.1   0.029673450   0.26579   0.32880   0.02778  -0.39612
  34   37154.2    269.1   0.005582046   0.04946   0.07457   0.11340  -0.17619
  35   37303.2    268.1   0.008114990   0.07162   0.01776   0.00146   0.26702
  36   37454.3    267.0   0.037607729   0.33056  -0.07960   0.56606  -0.06165
  37   37711.1    265.2   0.050265596   0.43881   0.31465   0.34781   0.46780
  38   37919.1    263.7   0.000374473   0.00325  -0.01117  -0.03955   0.03952
  39   38133.5    262.2   0.007866832   0.06792   0.05350   0.06189   0.24743
  40   38227.8    261.6   0.492653357   4.24266  -0.10046  -0.85953  -1.86916
  41   38295.2    261.1   0.472637751   4.06312   0.25991   1.85719  -0.73919
  42   38389.4    260.5   0.000537100   0.00461  -0.06102  -0.01412  -0.02612
  43   39123.5    255.6   0.014788396   0.12444   0.21292  -0.27340   0.06604
  44   39280.2    254.6   0.037016568   0.31024  -0.27322   0.27108  -0.40262
  45   39442.5    253.5   0.002387420   0.01993  -0.05235   0.10511  -0.07834
  46   39722.4    251.7   0.069264575   0.57405   0.33147  -0.61526  -0.29264
  47   40115.9    249.3   0.020388801   0.16732  -0.17878  -0.35651   0.09090

FINAL SINGLE POINT ENERGY     -4563.238813870191

DIPOLE MOMENT
-------------
                                X             Y             Z
Electronic contribution:     -7.29355       9.31726      10.44849
Nuclear contribution   :      6.76453      -9.95872      -9.97939
                        -----------------------------------------
Total Dipole Moment    :     -0.52902      -0.64147       0.46910
                        -----------------------------------------
Magnitude (a.u.)       :      0.95467
Magnitude (Debye)      :      2.42658

Rotational constants in cm-1:     0.003236     0.000149     0.000147
Rotational constants in MHz :    97.017025     4.474820     4.418884

                             ****ORCA TERMINATED NORMALLY****
TOTAL RUN TIME: 0 days 0 hours 7 minutes 18 seconds 973 msec
