                         Program Version 4.2.0 -  RELEASE  -
|  1> # ORCA input file
|  2> # SCF done       -176.234841370838          0.000793642224
|  3> ! CAM-B3LYP def2-SVP def2/J RIJCOSX Grid4 TightSCF
|  4> %maxcore 5000
|  5> %tddft
|  6>     Mode sTDDFT
|  7>     Ethresh 5.0
|  8>     maxcore 5000
|  9> end
| 10>
| 11> %pal
| 12>   nprocs 6
| 13>   end
| 14> * xyz 0 1
| 15>    C        2.99815         2.64162        -3.43849
| 16>    C        2.73489         3.89156        -3.90826
| 17>    S        4.03356         4.47880        -4.87987
| 18>    C        4.95556         3.01182        -4.65103
| 19>   Cl        6.48312         2.80972        -5.35320
| 20>    C        4.26970         2.13661        -3.86161
| 21>    C        4.49090         0.79473        -3.31444
| 22>    O        5.45233         0.08182        -3.48008
| 23>    C        3.23025         0.48272        -2.56144
| 24>    C        2.35269         1.65092        -2.60423
| 25>    C        1.17145         1.83640        -1.94099
| 26>    C        0.44160         3.03841        -2.06835
| 27>    N       -0.16083         4.00926        -2.16643
| 28>    C        0.56993         0.91413        -1.06016
| 29>    N        0.03813         0.21248        -0.32388
| 30>    C        2.87201        -0.73736        -2.09465
| 31>    C        3.70239        -1.91419        -1.98805
| 32>    C        3.12803        -3.16461        -2.22238
| 33>    C        3.89176        -4.31510        -2.15841
| 34>    N        3.21400        -5.57496        -2.34241
| 35>    O        2.17865        -5.56183        -2.97106
| 36>    O        3.70322        -6.55808        -1.82842
| 37>    C        5.26338        -4.27515        -1.84442
| 38>    C        5.80293        -3.01864        -1.53962
| 39>    C        5.04990        -1.86926        -1.60426
| 40>    C        6.09794        -5.45061        -1.89731
| 41>    C        7.13709        -5.67682        -1.06538
| 42>    C        7.96216        -6.83023        -1.18437
| 43>    N        8.93526        -7.17513        -0.27631
| 44>    C        9.22521        -6.51143         0.97130
| 45>    C        8.18344        -6.83760         2.03873
| 46>    C        9.59207        -8.36527        -0.63563
| 47>    O       10.49432        -8.85429         0.01594
| 48>    C        8.96267        -8.76133        -1.87559
| 49>    C        7.97387        -7.79231        -2.18788
| 50>    C        7.35053        -8.17749        -3.43429
| 51>    O        6.48330        -7.65784        -4.10671
| 52>    N        7.98823        -9.38142        -3.78215
| 53>    C        7.65472       -10.07260        -5.00382
| 54>    C        8.68188        -9.81194        -6.10313
| 55>    C        8.95069        -9.73931        -2.86723
| 56>    C        9.72720       -10.92559        -2.96544
| 57>    C       10.68556       -11.23919        -2.06248
| 58>    C       11.48493       -12.42941        -2.07369
| 59>    C       12.42922       -12.65612        -1.05380
| 60>    N       13.17938       -13.72934        -0.99967
| 61>    C       12.98820       -14.66279        -1.93420
| 62>    N       12.14071       -14.54407        -2.96161
| 63>    C       11.42545       -13.44719        -3.04053
| 64>    C       13.82261       -15.83852        -1.85129
| 65>    C       13.62463       -17.04522        -2.42190
| 66>    C       14.78270       -17.99726        -2.54510
| 67>    O       15.83605       -17.92443        -1.96459
| 68>    C       14.34543       -18.96522        -3.55679
| 69>    C       14.88425       -20.02289        -4.22785
| 70>    S       13.71095       -20.71467        -5.32264
| 71>    C       12.50335       -19.57410        -4.85352
| 72>    C       12.98018       -18.71082        -3.91747
| 73>    C       12.47681       -17.60850        -3.12086
| 74>    C       11.15478       -17.32947        -2.92620
| 75>    C       10.14784       -18.00244        -3.65047
| 76>    N        9.32130       -18.52905        -4.24638
| 77>    C       10.64636       -16.44184        -1.95555
| 78>    N       10.15313       -15.79811        -1.14375
| 79>   Cl       16.44888       -20.65688        -4.09550
| 80>    H        1.87019         4.50690        -3.75757
| 81>    H        1.83842        -0.88669        -1.80492
| 82>    H        2.08002        -3.25280        -2.47091
| 83>    H        6.84927        -2.95260        -1.28537
| 84>    H        5.49817        -0.92588        -1.34075
| 85>    H        5.86835        -6.18778        -2.65647
| 86>    H        7.33984        -4.99760        -0.24900
| 87>    H        9.29215        -5.43220         0.80694
| 88>    H       10.20493        -6.87946         1.28860
| 89>    H        7.18908        -6.53255         1.71984
| 90>    H        8.42934        -6.32409         2.96405
| 91>    H        8.17078        -7.90799         2.22818
| 92>    H        6.68078        -9.68318        -5.31321
| 93>    H        7.55666       -11.14357        -4.80560
| 94>    H        8.72780        -8.74811        -6.32264
| 95>    H        8.39447       -10.34062        -7.00770
| 96>    H        9.67272       -10.14528        -5.80138
| 97>    H        9.51309       -11.58781        -3.79140
| 98>    H       10.87722       -10.55762        -1.24351
| 99>    H       12.57470       -11.92691        -0.26653
|100>    H       10.77575       -13.38341        -3.90400
|101>    H       14.75189       -15.69831        -1.31099
|102>    H       11.53299       -19.61723        -5.30686
|103> *
|104>
|105>                          ****END OF INPUT****

CARTESIAN COORDINATES (ANGSTROEM)
---------------------------------
  C      2.998150    2.641620   -3.438490
  C      2.734890    3.891560   -3.908260
  S      4.033560    4.478800   -4.879870
  C      4.955560    3.011820   -4.651030
  Cl     6.483120    2.809720   -5.353200
  C      4.269700    2.136610   -3.861610
  C      4.490900    0.794730   -3.314440
  O      5.452330    0.081820   -3.480080
  C      3.230250    0.482720   -2.561440
  C      2.352690    1.650920   -2.604230
  C      1.171450    1.836400   -1.940990
  C      0.441600    3.038410   -2.068350
  N     -0.160830    4.009260   -2.166430
  C      0.569930    0.914130   -1.060160
  N      0.038130    0.212480   -0.323880
  C      2.872010   -0.737360   -2.094650
  C      3.702390   -1.914190   -1.988050
  C      3.128030   -3.164610   -2.222380
  C      3.891760   -4.315100   -2.158410
  N      3.214000   -5.574960   -2.342410
  O      2.178650   -5.561830   -2.971060
  O      3.703220   -6.558080   -1.828420
  C      5.263380   -4.275150   -1.844420
  C      5.802930   -3.018640   -1.539620
  C      5.049900   -1.869260   -1.604260
  C      6.097940   -5.450610   -1.897310
  C      7.137090   -5.676820   -1.065380
  C      7.962160   -6.830230   -1.184370
  N      8.935260   -7.175130   -0.276310
  C      9.225210   -6.511430    0.971300
  C      8.183440   -6.837600    2.038730
  C      9.592070   -8.365270   -0.635630
  O     10.494320   -8.854290    0.015940
  C      8.962670   -8.761330   -1.875590
  C      7.973870   -7.792310   -2.187880
  C      7.350530   -8.177490   -3.434290
  O      6.483300   -7.657840   -4.106710
  N      7.988230   -9.381420   -3.782150
  C      7.654720  -10.072600   -5.003820
  C      8.681880   -9.811940   -6.103130
  C      8.950690   -9.739310   -2.867230
  C      9.727200  -10.925590   -2.965440
  C     10.685560  -11.239190   -2.062480
  C     11.484930  -12.429410   -2.073690
  C     12.429220  -12.656120   -1.053800
  N     13.179380  -13.729340   -0.999670
  C     12.988200  -14.662790   -1.934200
  N     12.140710  -14.544070   -2.961610
  C     11.425450  -13.447190   -3.040530
  C     13.822610  -15.838520   -1.851290
  C     13.624630  -17.045220   -2.421900
  C     14.782700  -17.997260   -2.545100
  O     15.836050  -17.924430   -1.964590
  C     14.345430  -18.965220   -3.556790
  C     14.884250  -20.022890   -4.227850
  S     13.710950  -20.714670   -5.322640
  C     12.503350  -19.574100   -4.853520
  C     12.980180  -18.710820   -3.917470
  C     12.476810  -17.608500   -3.120860
  C     11.154780  -17.329470   -2.926200
  C     10.147840  -18.002440   -3.650470
  N      9.321300  -18.529050   -4.246380
  C     10.646360  -16.441840   -1.955550
  N     10.153130  -15.798110   -1.143750
  Cl    16.448880  -20.656880   -4.095500
  H      1.870190    4.506900   -3.757570
  H      1.838420   -0.886690   -1.804920
  H      2.080020   -3.252800   -2.470910
  H      6.849270   -2.952600   -1.285370
  H      5.498170   -0.925880   -1.340750
  H      5.868350   -6.187780   -2.656470
  H      7.339840   -4.997600   -0.249000
  H      9.292150   -5.432200    0.806940
  H     10.204930   -6.879460    1.288600
  H      7.189080   -6.532550    1.719840
  H      8.429340   -6.324090    2.964050
  H      8.170780   -7.907990    2.228180
  H      6.680780   -9.683180   -5.313210
  H      7.556660  -11.143570   -4.805600
  H      8.727800   -8.748110   -6.322640
  H      8.394470  -10.340620   -7.007700
  H      9.672720  -10.145280   -5.801380
  H      9.513090  -11.587810   -3.791400
  H     10.877220  -10.557620   -1.243510
  H     12.574700  -11.926910   -0.266530
  H     10.775750  -13.383410   -3.904000
  H     14.751890  -15.698310   -1.310990
  H     11.532990  -19.617230   -5.306860

 Total Charge           Charge          ....    0
 Multiplicity           Mult            ....    1
 Number of Electrons    NEL             ....  476
 Basis Dimension        Dim             .... 1041

ORBITAL ENERGIES
----------------

  NO   OCC          E(Eh)            E(eV)
   0   2.0000    -101.625485     -2765.3700
   1   2.0000    -101.617434     -2765.1509
   2   2.0000     -89.002423     -2421.8791
   3   2.0000     -88.993439     -2421.6346
   4   2.0000     -19.247895      -523.7618
   5   2.0000     -19.245910      -523.7078
   6   2.0000     -19.232254      -523.3362
   7   2.0000     -19.221180      -523.0349
   8   2.0000     -19.196014      -522.3501
   9   2.0000     -19.193705      -522.2873
  10   2.0000     -14.652533      -398.7157
  11   2.0000     -14.457623      -393.4119
  12   2.0000     -14.456868      -393.3914
  13   2.0000     -14.428912      -392.6307
  14   2.0000     -14.428551      -392.6208
  15   2.0000     -14.428145      -392.6098
  16   2.0000     -14.424110      -392.5000
  17   2.0000     -14.421618      -392.4322
  18   2.0000     -14.417141      -392.3103
  19   2.0000     -10.389978      -282.7257
  20   2.0000     -10.385026      -282.5909
  21   2.0000     -10.378269      -282.4071
  22   2.0000     -10.377200      -282.3780
  23   2.0000     -10.376510      -282.3592
  24   2.0000     -10.376468      -282.3581
  25   2.0000     -10.358274      -281.8630
  26   2.0000     -10.358135      -281.8592
  27   2.0000     -10.357525      -281.8426
  28   2.0000     -10.348837      -281.6062
  29   2.0000     -10.346873      -281.5527
  30   2.0000     -10.343505      -281.4611
  31   2.0000     -10.342328      -281.4290
  32   2.0000     -10.339941      -281.3641
  33   2.0000     -10.338071      -281.3132
  34   2.0000     -10.335963      -281.2558
  35   2.0000     -10.333690      -281.1940
  36   2.0000     -10.331141      -281.1246
  37   2.0000     -10.330724      -281.1133
  38   2.0000     -10.329814      -281.0885
  39   2.0000     -10.328563      -281.0545
  40   2.0000     -10.323513      -280.9171
  41   2.0000     -10.323018      -280.9036
  42   2.0000     -10.321447      -280.8608
  43   2.0000     -10.320264      -280.8287
  44   2.0000     -10.319520      -280.8084
  45   2.0000     -10.314497      -280.6717
  46   2.0000     -10.313553      -280.6461
  47   2.0000     -10.313472      -280.6438
  48   2.0000     -10.313244      -280.6376
  49   2.0000     -10.312879      -280.6277
  50   2.0000     -10.311554      -280.5916
  51   2.0000     -10.309695      -280.5411
  52   2.0000     -10.308969      -280.5213
  53   2.0000     -10.308008      -280.4952
  54   2.0000     -10.306766      -280.4614
  55   2.0000     -10.301429      -280.3161
  56   2.0000     -10.300775      -280.2984
  57   2.0000     -10.300245      -280.2839
  58   2.0000     -10.298956      -280.2489
  59   2.0000     -10.298680      -280.2413
  60   2.0000     -10.298072      -280.2248
  61   2.0000     -10.267896      -279.4037
  62   2.0000     -10.266817      -279.3743
  63   2.0000     -10.264922      -279.3227
  64   2.0000     -10.263738      -279.2905
  65   2.0000      -9.580231      -260.6913
  66   2.0000      -9.572230      -260.4736
  67   2.0000      -8.098139      -220.3616
  68   2.0000      -8.089203      -220.1184
  69   2.0000      -7.350890      -200.0279
  70   2.0000      -7.342883      -199.8100
  71   2.0000      -7.340276      -199.7391
  72   2.0000      -7.339701      -199.7234
  73   2.0000      -7.332263      -199.5210
  74   2.0000      -7.331711      -199.5060
  75   2.0000      -6.067498      -165.1050
  76   2.0000      -6.062874      -164.9792
  77   2.0000      -6.060434      -164.9128
  78   2.0000      -6.058559      -164.8618
  79   2.0000      -6.053981      -164.7372
  80   2.0000      -6.051458      -164.6686
  81   2.0000      -1.328459       -36.1492
  82   2.0000      -1.150104       -31.2959
  83   2.0000      -1.147753       -31.2319
  84   2.0000      -1.138501       -30.9802
  85   2.0000      -1.137710       -30.9587
  86   2.0000      -1.130976       -30.7754
  87   2.0000      -1.099013       -29.9057
  88   2.0000      -1.067921       -29.0596
  89   2.0000      -1.059704       -28.8360
  90   2.0000      -1.047144       -28.4942
  91   2.0000      -1.038048       -28.2467
  92   2.0000      -1.025973       -27.9181
  93   2.0000      -1.017068       -27.6758
  94   2.0000      -1.007073       -27.4039
  95   2.0000      -1.003648       -27.3107
  96   2.0000      -0.999325       -27.1930
  97   2.0000      -0.996014       -27.1029
  98   2.0000      -0.991592       -26.9826
  99   2.0000      -0.988035       -26.8858
 100   2.0000      -0.964148       -26.2358
 101   2.0000      -0.955104       -25.9897
 102   2.0000      -0.939904       -25.5761
 103   2.0000      -0.937054       -25.4985
 104   2.0000      -0.930400       -25.3175
 105   2.0000      -0.915777       -24.9196
 106   2.0000      -0.912213       -24.8226
 107   2.0000      -0.908702       -24.7270
 108   2.0000      -0.897150       -24.4127
 109   2.0000      -0.890070       -24.2200
 110   2.0000      -0.876892       -23.8614
 111   2.0000      -0.863076       -23.4855
 112   2.0000      -0.859514       -23.3886
 113   2.0000      -0.841456       -22.8972
 114   2.0000      -0.832566       -22.6553
 115   2.0000      -0.824121       -22.4255
 116   2.0000      -0.818291       -22.2668
 117   2.0000      -0.810898       -22.0657
 118   2.0000      -0.798009       -21.7149
 119   2.0000      -0.780733       -21.2448
 120   2.0000      -0.769182       -20.9305
 121   2.0000      -0.764481       -20.8026
 122   2.0000      -0.763807       -20.7842
 123   2.0000      -0.762183       -20.7400
 124   2.0000      -0.754597       -20.5336
 125   2.0000      -0.739258       -20.1162
 126   2.0000      -0.732419       -19.9301
 127   2.0000      -0.713322       -19.4105
 128   2.0000      -0.709191       -19.2981
 129   2.0000      -0.707692       -19.2573
 130   2.0000      -0.692839       -18.8531
 131   2.0000      -0.692603       -18.8467
 132   2.0000      -0.685867       -18.6634
 133   2.0000      -0.675794       -18.3893
 134   2.0000      -0.673909       -18.3380
 135   2.0000      -0.665478       -18.1086
 136   2.0000      -0.662166       -18.0184
 137   2.0000      -0.655692       -17.8423
 138   2.0000      -0.653213       -17.7748
 139   2.0000      -0.639629       -17.4052
 140   2.0000      -0.637568       -17.3491
 141   2.0000      -0.633228       -17.2310
 142   2.0000      -0.624113       -16.9830
 143   2.0000      -0.621425       -16.9098
 144   2.0000      -0.617239       -16.7959
 145   2.0000      -0.611069       -16.6280
 146   2.0000      -0.609326       -16.5806
 147   2.0000      -0.602148       -16.3853
 148   2.0000      -0.597171       -16.2498
 149   2.0000      -0.591817       -16.1042
 150   2.0000      -0.587988       -16.0000
 151   2.0000      -0.582972       -15.8635
 152   2.0000      -0.577139       -15.7047
 153   2.0000      -0.572274       -15.5724
 154   2.0000      -0.568161       -15.4604
 155   2.0000      -0.563835       -15.3427
 156   2.0000      -0.560702       -15.2575
 157   2.0000      -0.559501       -15.2248
 158   2.0000      -0.550122       -14.9696
 159   2.0000      -0.546245       -14.8641
 160   2.0000      -0.544863       -14.8265
 161   2.0000      -0.544533       -14.8175
 162   2.0000      -0.540235       -14.7006
 163   2.0000      -0.539778       -14.6881
 164   2.0000      -0.535614       -14.5748
 165   2.0000      -0.533191       -14.5089
 166   2.0000      -0.532549       -14.4914
 167   2.0000      -0.532345       -14.4858
 168   2.0000      -0.528768       -14.3885
 169   2.0000      -0.525783       -14.3073
 170   2.0000      -0.522920       -14.2294
 171   2.0000      -0.520757       -14.1705
 172   2.0000      -0.518560       -14.1107
 173   2.0000      -0.514301       -13.9948
 174   2.0000      -0.512507       -13.9460
 175   2.0000      -0.510023       -13.8784
 176   2.0000      -0.504881       -13.7385
 177   2.0000      -0.502732       -13.6800
 178   2.0000      -0.502099       -13.6628
 179   2.0000      -0.500608       -13.6222
 180   2.0000      -0.497043       -13.5252
 181   2.0000      -0.493073       -13.4172
 182   2.0000      -0.489516       -13.3204
 183   2.0000      -0.487253       -13.2588
 184   2.0000      -0.482955       -13.1419
 185   2.0000      -0.478917       -13.0320
 186   2.0000      -0.471710       -12.8359
 187   2.0000      -0.470175       -12.7941
 188   2.0000      -0.468239       -12.7414
 189   2.0000      -0.463811       -12.6209
 190   2.0000      -0.461115       -12.5476
 191   2.0000      -0.459703       -12.5092
 192   2.0000      -0.458871       -12.4865
 193   2.0000      -0.456786       -12.4298
 194   2.0000      -0.454767       -12.3748
 195   2.0000      -0.454168       -12.3585
 196   2.0000      -0.453773       -12.3478
 197   2.0000      -0.452575       -12.3152
 198   2.0000      -0.450499       -12.2587
 199   2.0000      -0.448545       -12.2055
 200   2.0000      -0.446473       -12.1492
 201   2.0000      -0.443292       -12.0626
 202   2.0000      -0.441577       -12.0159
 203   2.0000      -0.440612       -11.9896
 204   2.0000      -0.439188       -11.9509
 205   2.0000      -0.435485       -11.8502
 206   2.0000      -0.434676       -11.8281
 207   2.0000      -0.430989       -11.7278
 208   2.0000      -0.428972       -11.6729
 209   2.0000      -0.425778       -11.5860
 210   2.0000      -0.421486       -11.4692
 211   2.0000      -0.420745       -11.4490
 212   2.0000      -0.412265       -11.2183
 213   2.0000      -0.411468       -11.1966
 214   2.0000      -0.404469       -11.0062
 215   2.0000      -0.403194       -10.9715
 216   2.0000      -0.400130       -10.8881
 217   2.0000      -0.394531       -10.7357
 218   2.0000      -0.391820       -10.6620
 219   2.0000      -0.389113       -10.5883
 220   2.0000      -0.384126       -10.4526
 221   2.0000      -0.377029       -10.2595
 222   2.0000      -0.361826        -9.8458
 223   2.0000      -0.361026        -9.8240
 224   2.0000      -0.357073        -9.7164
 225   2.0000      -0.352573        -9.5940
 226   2.0000      -0.345525        -9.4022
 227   2.0000      -0.345161        -9.3923
 228   2.0000      -0.341271        -9.2865
 229   2.0000      -0.336263        -9.1502
 230   2.0000      -0.335118        -9.1190
 231   2.0000      -0.331833        -9.0296
 232   2.0000      -0.325545        -8.8585
 233   2.0000      -0.319637        -8.6978
 234   2.0000      -0.318280        -8.6609
 235   2.0000      -0.309403        -8.4193
 236   2.0000      -0.304314        -8.2808
 237   2.0000      -0.243074        -6.6144
 238   0.0000      -0.109451        -2.9783
 239   0.0000      -0.100394        -2.7319
 240   0.0000      -0.076955        -2.0940
 241   0.0000      -0.060920        -1.6577
 242   0.0000      -0.052130        -1.4185

MULLIKEN ATOMIC CHARGES
-----------------------
   0 C :    0.031863
   1 C :   -0.126971
   2 S :    0.194103
   3 C :   -0.170110
   4 Cl:    0.003503
   5 C :    0.076377
   6 C :    0.144897
   7 O :   -0.126224
   8 C :   -0.091483
   9 C :    0.278897
  10 C :   -0.316770
  11 C :   -0.192675
  12 N :    0.159827
  13 C :   -0.196518
  14 N :    0.168858
  15 C :   -0.027164
  16 C :    0.060658
  17 C :   -0.050553
  18 C :    0.147502
  19 N :    0.245202
  20 O :   -0.230148
  21 O :   -0.220339
  22 C :    0.062794
  23 C :   -0.047925
  24 C :    0.109558
  25 C :    0.021029
  26 C :   -0.030100
  27 C :    0.125141
  28 N :   -0.257816
  29 C :    0.098417
  30 C :    0.001904
  31 C :    0.166730
  32 O :   -0.212828
  33 C :   -0.064603
  34 C :   -0.060408
  35 C :    0.169931
  36 O :   -0.206312
  37 N :   -0.260299
  38 C :    0.099004
  39 C :    0.003647
  40 C :    0.128172
  41 C :    0.008261
  42 C :    0.010327
  43 C :    0.038579
  44 C :    0.037235
  45 N :   -0.033289
  46 C :   -0.082005
  47 N :   -0.077187
  48 C :    0.049710
  49 C :    0.090825
  50 C :   -0.106145
  51 C :    0.133652
  52 O :   -0.119031
  53 C :    0.081843
  54 C :   -0.169095
  55 S :    0.185825
  56 C :   -0.127218
  57 C :    0.018801
  58 C :    0.289624
  59 C :   -0.292845
  60 C :   -0.200336
  61 N :    0.159158
  62 C :   -0.182922
  63 N :    0.163850
  64 Cl:    0.000894
  65 H :    0.056737
  66 H :    0.038076
  67 H :    0.012050
  68 H :   -0.006326
  69 H :   -0.004548
  70 H :    0.042634
  71 H :   -0.020640
  72 H :    0.021433
  73 H :    0.043380
  74 H :    0.021064
  75 H :    0.022986
  76 H :    0.033003
  77 H :    0.046615
  78 H :    0.027544
  79 H :    0.031157
  80 H :    0.024811
  81 H :    0.012118
  82 H :   -0.026233
  83 H :    0.016120
  84 H :    0.027149
  85 H :    0.007141
  86 H :    0.033867
  87 H :    0.052584
Sum of atomic charges:   -0.0000000

LOEWDIN ATOMIC CHARGES
----------------------
   0 C :   -0.060091
   1 C :   -0.147400
   2 S :    0.482654
   3 C :   -0.271033
   4 Cl:    0.195178
   5 C :   -0.118032
   6 C :    0.081040
   7 O :   -0.123483
   8 C :   -0.081576
   9 C :    0.073307
  10 C :   -0.130030
  11 C :   -0.015344
  12 N :   -0.045438
  13 C :   -0.026278
  14 N :   -0.038828
  15 C :    0.079587
  16 C :   -0.039075
  17 C :    0.026593
  18 C :   -0.026007
  19 N :    0.285000
  20 O :   -0.197217
  21 O :   -0.181622
  22 C :    0.009222
  23 C :   -0.008144
  24 C :    0.043954
  25 C :    0.036279
  26 C :   -0.041220
  27 C :    0.077052
  28 N :    0.000741
  29 C :    0.036139
  30 C :   -0.060534
  31 C :    0.081511
  32 O :   -0.201473
  33 C :   -0.119850
  34 C :   -0.118269
  35 C :    0.082450
  36 O :   -0.194391
  37 N :    0.000822
  38 C :    0.036698
  39 C :   -0.061030
  40 C :    0.076823
  41 C :   -0.035544
  42 C :    0.028650
  43 C :   -0.058599
  44 C :    0.066153
  45 N :   -0.060836
  46 C :    0.015254
  47 N :   -0.064925
  48 C :    0.065835
  49 C :    0.063055
  50 C :   -0.056766
  51 C :    0.082053
  52 O :   -0.123648
  53 C :   -0.119184
  54 C :   -0.272163
  55 S :    0.475800
  56 C :   -0.153581
  57 C :   -0.055014
  58 C :    0.072064
  59 C :   -0.115640
  60 C :   -0.015302
  61 N :   -0.049135
  62 C :   -0.019127
  63 N :   -0.049435
  64 Cl:    0.192920
  65 H :    0.038841
  66 H :    0.049287
  67 H :    0.045131
  68 H :    0.036340
  69 H :    0.036509
  70 H :    0.038968
  71 H :    0.028141
  72 H :    0.021636
  73 H :    0.037724
  74 H :    0.023919
  75 H :    0.030624
  76 H :    0.033667
  77 H :    0.039632
  78 H :    0.023918
  79 H :    0.032884
  80 H :    0.031339
  81 H :    0.020553
  82 H :    0.027802
  83 H :    0.039414
  84 H :    0.035238
  85 H :    0.024924
  86 H :    0.054454
  87 H :    0.037488

  Mayer bond orders larger than 0.100000
B(  0-C ,  1-C ) :   1.5407 B(  0-C ,  5-C ) :   1.2199 B(  0-C ,  9-C ) :   1.0050
B(  1-C ,  2-S ) :   1.1655 B(  1-C , 65-H ) :   0.9545 B(  2-S ,  3-C ) :   1.1566
B(  3-C ,  4-Cl) :   1.1316 B(  3-C ,  5-C ) :   1.4694 B(  5-C ,  6-C ) :   0.9580
B(  6-C ,  7-O ) :   2.2409 B(  6-C ,  8-C ) :   0.9200 B(  8-C ,  9-C ) :   1.0431
B(  8-C , 15-C ) :   1.6957 B(  9-C , 10-C ) :   1.6768 B( 10-C , 11-C ) :   1.1410
B( 10-C , 13-C ) :   1.1326 B( 11-C , 12-N ) :   2.9940 B( 13-C , 14-N ) :   2.9893
B( 15-C , 16-C ) :   1.0558 B( 15-C , 66-H ) :   0.9501 B( 16-C , 17-C ) :   1.2814
B( 16-C , 24-C ) :   1.3330 B( 17-C , 18-C ) :   1.3882 B( 17-C , 67-H ) :   0.9978
B( 18-C , 19-N ) :   0.8787 B( 18-C , 22-C ) :   1.3345 B( 19-N , 20-O ) :   1.5541
B( 19-N , 21-O ) :   1.5344 B( 20-O , 21-O ) :   0.2688 B( 22-C , 23-C ) :   1.3451
B( 22-C , 25-C ) :   1.0524 B( 23-C , 24-C ) :   1.4094 B( 23-C , 68-H ) :   0.9909
B( 24-C , 69-H ) :   0.9805 B( 25-C , 26-C ) :   1.6857 B( 25-C , 70-H ) :   0.9160
B( 26-C , 27-C ) :   1.1425 B( 26-C , 71-H ) :   0.9617 B( 27-C , 28-N ) :   1.1602
B( 27-C , 34-C ) :   1.3617 B( 28-N , 29-C ) :   0.9473 B( 28-N , 31-C ) :   1.0604
B( 29-C , 30-C ) :   1.1190 B( 29-C , 72-H ) :   0.9499 B( 29-C , 73-H ) :   0.9283
B( 30-C , 74-H ) :   0.9687 B( 30-C , 75-H ) :   0.9679 B( 30-C , 76-H ) :   0.9638
B( 31-C , 32-O ) :   2.0195 B( 31-C , 33-C ) :   0.9876 B( 32-O , 83-H ) :   0.1151
B( 33-C , 34-C ) :   1.2458 B( 33-C , 40-C ) :   1.3530 B( 34-C , 35-C ) :   0.9840
B( 35-C , 36-O ) :   2.0342 B( 35-C , 37-N ) :   1.0546 B( 36-O , 70-H ) :   0.1059
B( 37-N , 38-C ) :   0.9455 B( 37-N , 40-C ) :   1.1624 B( 38-C , 39-C ) :   1.1198
B( 38-C , 77-H ) :   0.9272 B( 38-C , 78-H ) :   0.9496 B( 39-C , 79-H ) :   0.9639
B( 39-C , 80-H ) :   0.9682 B( 39-C , 81-H ) :   0.9683 B( 40-C , 41-C ) :   1.1506
B( 41-C , 42-C ) :   1.6250 B( 41-C , 82-H ) :   0.9557 B( 42-C , 43-C ) :   1.0792
B( 42-C , 83-H ) :   0.9598 B( 43-C , 44-C ) :   1.2974 B( 43-C , 48-C ) :   1.2908
B( 44-C , 45-N ) :   1.5692 B( 44-C , 84-H ) :   0.9862 B( 45-N , 46-C ) :   1.5114
B( 46-C , 47-N ) :   1.4631 B( 46-C , 49-C ) :   1.0129 B( 47-N , 48-C ) :   1.5699
B( 48-C , 85-H ) :   0.9833 B( 49-C , 50-C ) :   1.7190 B( 49-C , 86-H ) :   0.9476
B( 50-C , 51-C ) :   0.9217 B( 50-C , 58-C ) :   1.0096 B( 51-C , 52-O ) :   2.2928
B( 51-C , 53-C ) :   0.9253 B( 53-C , 54-C ) :   1.4816 B( 53-C , 57-C ) :   1.2201
B( 54-C , 55-S ) :   1.1555 B( 54-C , 64-Cl) :   1.1300 B( 55-S , 56-C ) :   1.1582
B( 56-C , 57-C ) :   1.5504 B( 56-C , 87-H ) :   0.9559 B( 57-C , 58-C ) :   1.0127
B( 58-C , 59-C ) :   1.7032 B( 59-C , 60-C ) :   1.1390 B( 59-C , 62-C ) :   1.1521
B( 60-C , 61-N ) :   3.0004 B( 62-C , 63-N ) :   2.9813

-----------------------------------------------------------------------------
         ABSORPTION SPECTRUM VIA TRANSITION ELECTRIC DIPOLE MOMENTS
-----------------------------------------------------------------------------
State   Energy  Wavelength   fosc         T2         TX        TY        TZ
        (cm-1)    (nm)                  (au**2)     (au)      (au)      (au)
-----------------------------------------------------------------------------
   0   15074.0    663.4   0.979166664  21.38473   2.05685  -4.07657  -0.73191
   1   18975.4    527.0   0.008691937   0.15080  -0.31261  -0.00142  -0.23037
   2   22553.5    443.4   0.035592159   0.51954   0.01123   0.23228  -0.68224
   3   25189.8    397.0   0.029152972   0.38101  -0.10553   0.47011   0.38583
   4   25446.1    393.0   0.017773687   0.22995  -0.15952  -0.45188   0.01764
   5   26211.8    381.5   0.262080540   3.29164   1.11446  -1.41438   0.22171
   6   26887.6    371.9   0.033649003   0.41200   0.03062   0.62714   0.13324
   7   27317.1    366.1   0.082304187   0.99189   0.09607   0.97805  -0.16148
   8   28629.1    349.3   0.012059501   0.13867   0.18488   0.31972   0.04770
   9   28954.9    345.4   0.137036024   1.55807   0.66495  -1.05537  -0.04580
  10   29026.8    344.5   0.019987715   0.22669   0.12332  -0.45582   0.06095
  11   29381.6    340.3   0.014198310   0.15909  -0.26720  -0.24705  -0.16328
  12   29422.1    339.9   0.233166154   2.60896  -0.85988   1.30073   0.42150
  13   30477.7    328.1   0.459070794   4.95876  -0.98653   1.93555  -0.48904
  14   30889.4    323.7   0.163107036   1.73836  -0.60051   1.09805  -0.41477
  15   32401.7    308.6   0.050291902   0.51098  -0.43301   0.56659   0.04961
  16   32635.6    306.4   0.018069204   0.18227  -0.38590   0.11442  -0.14233
  17   32966.2    303.3   0.172701832   1.72466   0.89723  -0.93888  -0.19529
  18   33120.5    301.9   0.135881677   1.35064  -1.00744   0.47072  -0.33782
  19   33404.4    299.4   0.077906057   0.76779  -0.65254   0.55358  -0.18850
  20   33881.6    295.1   0.080872750   0.78580  -0.64562   0.07333   0.60299
  21   34428.7    290.5   0.014337703   0.13710  -0.16995  -0.31454   0.09634
  22   34842.1    287.0   0.038191281   0.36086  -0.56659  -0.17975  -0.08673
  23   35369.8    282.7   0.074949348   0.69761   0.01327   0.75225  -0.36270
  24   35428.3    282.3   0.034835349   0.32370  -0.12913  -0.32488   0.44886
  25   35739.4    279.8   0.012750211   0.11745   0.04145   0.32157   0.11101
  26   36650.9    272.8   0.129652693   1.16459  -0.85586   0.65641   0.03491
  27   36992.3    270.3   0.013468701   0.11986  -0.32454   0.03596  -0.11510
  28   37112.1    269.5   0.443138469   3.93096  -1.24151  -0.76009   1.34606
  29   37505.6    266.6   0.325701619   2.85890  -1.04503   1.28103  -0.35467
  30   37599.1    266.0   0.096033795   0.84086   0.80179  -0.03076  -0.44390
  31   37911.3    263.8   0.124997843   1.08545  -1.03195   0.14328  -0.00136
  32   38209.3    261.7   0.146003673   1.25797   0.01103   0.73464   0.84744
  33   38549.4    259.4   0.252932680   2.16005   1.29805   0.16060  -0.67031
  34   38639.4    258.8   0.142972709   1.21814  -0.88459   0.63324   0.18613
  35   38748.1    258.1   0.145428557   1.23559  -0.94531  -0.40857   0.41839
  36   39375.4    254.0   0.051751695   0.43269   0.29791   0.58265   0.06680
  37   39814.5    251.2   0.019354835   0.16004   0.35816   0.14798  -0.09931
  38   39957.9    250.3   0.038155710   0.31436   0.01750  -0.27269  -0.48959
  39   40266.9    248.3   0.045705420   0.37368   0.19709  -0.44195   0.37351

FINAL SINGLE POINT ENERGY     -4423.537287345353

DIPOLE MOMENT
-------------
                                X             Y             Z
Electronic contribution:     12.08837      -6.50639     -20.00462
Nuclear contribution   :     -9.95598       8.45891      18.36736
                        -----------------------------------------
Total Dipole Moment    :      2.13239       1.95253      -1.63726
                        -----------------------------------------
Magnitude (a.u.)       :      3.32266
Magnitude (Debye)      :      8.44552

Rotational constants in cm-1:     0.003143     0.000216     0.000214
Rotational constants in MHz :    94.239270     6.472450     6.422719

                             ****ORCA TERMINATED NORMALLY****
TOTAL RUN TIME: 0 days 0 hours 9 minutes 44 seconds 769 msec
