                         Program Version 4.2.0 -  RELEASE  -
|  1> # ORCA input file
|  2> # SCF done       -202.492279494729          0.000270725389
|  3> ! CAM-B3LYP def2-SVP def2/J RIJCOSX Grid4 TightSCF
|  4> %maxcore 5000
|  5> %tddft
|  6>     Mode sTDDFT
|  7>     Ethresh 5.0
|  8>     maxcore 5000
|  9> end
| 10>
| 11> %pal
| 12>   nprocs 6
| 13>   end
| 14> * xyz 0 1
| 15>    C        0.94366         1.23806        -2.27729
| 16>    C        0.02101         1.94387        -2.98607
| 17>    S       -1.39246         1.00014        -3.28247
| 18>    C       -0.73489        -0.37386        -2.42542
| 19>   Cl       -1.60132        -1.81849        -2.27396
| 20>    C        0.51212        -0.08976        -1.95590
| 21>    C        1.54666        -0.77940        -1.18408
| 22>    O        1.45566        -1.82557        -0.58692
| 23>    C        2.69715         0.18817        -1.14985
| 24>    C        2.27926         1.44335        -1.75513
| 25>    C        3.00112         2.59942        -1.88651
| 26>    C        2.46383         3.73090        -2.53661
| 27>    N        2.04219         4.66241        -3.05660
| 28>    C        4.31137         2.80652        -1.41182
| 29>    N        5.37768         3.03173        -1.05118
| 30>    C        3.89649        -0.07489        -0.56934
| 31>    C        4.33978        -1.38908        -0.25225
| 32>    S        5.40931        -1.70211         1.10046
| 33>    C        4.10333        -2.56179        -0.93473
| 34>    C        3.43327        -2.98556        -2.18112
| 35>    O        2.85161        -2.33792        -3.01588
| 36>    N        3.65301        -4.35473        -2.24847
| 37>    C        3.14255        -5.18217        -3.31317
| 38>    C        4.42382        -4.85750        -1.20367
| 39>    O        4.74494        -6.01226        -1.07115
| 40>    C        4.73422        -3.68424        -0.37492
| 41>    C        5.48327        -3.41901         0.75597
| 42>    C        6.19236        -4.37270         1.52170
| 43>    C        6.94844        -4.06519         2.60676
| 44>    C        7.68839        -4.92020         3.45917
| 45>    N        7.76229        -6.29492         3.49238
| 46>    C        7.12840        -7.25940         2.62438
| 47>    C        7.88985        -7.43237         1.31216
| 48>    C        8.61297        -6.74504         4.52028
| 49>    O        8.81969        -7.92072         4.74957
| 50>    C        9.09067        -5.53870         5.15765
| 51>    C        8.50009        -4.44504         4.49030
| 52>    C        8.96776        -3.22414         5.11545
| 53>    O        8.73744        -2.05663         4.88994
| 54>    N        9.83330        -3.67410         6.13352
| 55>    C       10.48106        -2.74814         7.03241
| 56>    C        9.75989        -2.66278         8.37471
| 57>    C        9.91331        -5.04390         6.17433
| 58>    C       10.71868        -5.75690         7.09389
| 59>    C       10.75902        -7.11653         7.11573
| 60>    C       11.55701        -7.86356         8.01363
| 61>    S       11.50207        -9.61472         7.93016
| 62>    C       12.43905        -7.47761         9.01160
| 63>    C       12.98653        -6.24247         9.59816
| 64>    O       12.75107        -5.08257         9.35135
| 65>    N       13.88689        -6.66801        10.56782
| 66>    C       14.66418        -5.75910        11.37388
| 67>    C       13.97825        -8.05009        10.68242
| 68>    O       14.69157        -8.64176        11.45498
| 69>    C       13.03501        -8.56296         9.68041
| 70>    C       12.65045        -9.80828         9.23184
| 71>    C       13.15797       -11.04238         9.70097
| 72>    C       12.87737       -12.25814         9.17412
| 73>    C       13.42306       -13.48028         9.64813
| 74>    C       14.57361       -13.72138        10.33413
| 75>    C       14.69589       -15.04457        11.03320
| 76>    O       13.97199       -15.99879        10.88319
| 77>    C       15.83316       -14.87783        11.94182
| 78>    C       16.44715       -15.59667        12.92374
| 79>    S       17.78724       -14.69622        13.59308
| 80>    C       17.50798       -13.36518        12.53011
| 81>    C       16.44421       -13.60070        11.71701
| 82>    C       15.75280       -12.92445        10.63290
| 83>    C       16.28657       -11.87171         9.93767
| 84>    C       17.50827       -11.27832        10.32233
| 85>    N       18.50009       -10.78238        10.61514
| 86>    C       15.75410       -11.30879         8.76397
| 87>    N       15.37883       -10.82422         7.79318
| 88>   Cl       16.05124       -17.14266        13.49091
| 89>    H        0.06879         2.94905        -3.35549
| 90>    H        4.58374         0.73124        -0.34638
| 91>    H        2.73056        -4.52651        -4.07803
| 92>    H        2.36228        -5.84480        -2.93535
| 93>    H        3.94957        -5.78678        -3.72742
| 94>    H        6.08546        -5.38090         1.15180
| 95>    H        7.03277        -3.02082         2.88786
| 96>    H        6.08938        -6.97127         2.45230
| 97>    H        7.14004        -8.20630         3.17285
| 98>    H        8.02233        -6.48053         0.80311
| 99>    H        7.34256        -8.10357         0.65667
|100>    H        8.87141        -7.85668         1.50864
|101>    H       10.45130        -1.77467         6.53527
|102>    H       11.52278        -3.04437         7.17725
|103>    H        8.72747        -2.35491         8.22682
|104>    H       10.25501        -1.93195         9.00728
|105>    H        9.77119        -3.62425         8.88229
|106>    H       11.31966        -5.19186         7.79122
|107>    H       10.15768        -7.68690         6.41923
|108>    H       14.28189        -4.75335        11.20948
|109>    H       15.71633        -5.80567        11.08831
|110>    H       14.57212        -6.03268        12.42481
|111>    H       13.81474       -10.95214        10.55726
|112>    H       12.14519       -12.32585         8.37940
|113>    H       12.81300       -14.36547         9.48888
|114>    H       18.14069       -12.50218        12.59056
|115> *
|116>
|117>                          ****END OF INPUT****

CARTESIAN COORDINATES (ANGSTROEM)
---------------------------------
  C      0.943660    1.238060   -2.277290
  C      0.021010    1.943870   -2.986070
  S     -1.392460    1.000140   -3.282470
  C     -0.734890   -0.373860   -2.425420
  Cl    -1.601320   -1.818490   -2.273960
  C      0.512120   -0.089760   -1.955900
  C      1.546660   -0.779400   -1.184080
  O      1.455660   -1.825570   -0.586920
  C      2.697150    0.188170   -1.149850
  C      2.279260    1.443350   -1.755130
  C      3.001120    2.599420   -1.886510
  C      2.463830    3.730900   -2.536610
  N      2.042190    4.662410   -3.056600
  C      4.311370    2.806520   -1.411820
  N      5.377680    3.031730   -1.051180
  C      3.896490   -0.074890   -0.569340
  C      4.339780   -1.389080   -0.252250
  S      5.409310   -1.702110    1.100460
  C      4.103330   -2.561790   -0.934730
  C      3.433270   -2.985560   -2.181120
  O      2.851610   -2.337920   -3.015880
  N      3.653010   -4.354730   -2.248470
  C      3.142550   -5.182170   -3.313170
  C      4.423820   -4.857500   -1.203670
  O      4.744940   -6.012260   -1.071150
  C      4.734220   -3.684240   -0.374920
  C      5.483270   -3.419010    0.755970
  C      6.192360   -4.372700    1.521700
  C      6.948440   -4.065190    2.606760
  C      7.688390   -4.920200    3.459170
  N      7.762290   -6.294920    3.492380
  C      7.128400   -7.259400    2.624380
  C      7.889850   -7.432370    1.312160
  C      8.612970   -6.745040    4.520280
  O      8.819690   -7.920720    4.749570
  C      9.090670   -5.538700    5.157650
  C      8.500090   -4.445040    4.490300
  C      8.967760   -3.224140    5.115450
  O      8.737440   -2.056630    4.889940
  N      9.833300   -3.674100    6.133520
  C     10.481060   -2.748140    7.032410
  C      9.759890   -2.662780    8.374710
  C      9.913310   -5.043900    6.174330
  C     10.718680   -5.756900    7.093890
  C     10.759020   -7.116530    7.115730
  C     11.557010   -7.863560    8.013630
  S     11.502070   -9.614720    7.930160
  C     12.439050   -7.477610    9.011600
  C     12.986530   -6.242470    9.598160
  O     12.751070   -5.082570    9.351350
  N     13.886890   -6.668010   10.567820
  C     14.664180   -5.759100   11.373880
  C     13.978250   -8.050090   10.682420
  O     14.691570   -8.641760   11.454980
  C     13.035010   -8.562960    9.680410
  C     12.650450   -9.808280    9.231840
  C     13.157970  -11.042380    9.700970
  C     12.877370  -12.258140    9.174120
  C     13.423060  -13.480280    9.648130
  C     14.573610  -13.721380   10.334130
  C     14.695890  -15.044570   11.033200
  O     13.971990  -15.998790   10.883190
  C     15.833160  -14.877830   11.941820
  C     16.447150  -15.596670   12.923740
  S     17.787240  -14.696220   13.593080
  C     17.507980  -13.365180   12.530110
  C     16.444210  -13.600700   11.717010
  C     15.752800  -12.924450   10.632900
  C     16.286570  -11.871710    9.937670
  C     17.508270  -11.278320   10.322330
  N     18.500090  -10.782380   10.615140
  C     15.754100  -11.308790    8.763970
  N     15.378830  -10.824220    7.793180
  Cl    16.051240  -17.142660   13.490910
  H      0.068790    2.949050   -3.355490
  H      4.583740    0.731240   -0.346380
  H      2.730560   -4.526510   -4.078030
  H      2.362280   -5.844800   -2.935350
  H      3.949570   -5.786780   -3.727420
  H      6.085460   -5.380900    1.151800
  H      7.032770   -3.020820    2.887860
  H      6.089380   -6.971270    2.452300
  H      7.140040   -8.206300    3.172850
  H      8.022330   -6.480530    0.803110
  H      7.342560   -8.103570    0.656670
  H      8.871410   -7.856680    1.508640
  H     10.451300   -1.774670    6.535270
  H     11.522780   -3.044370    7.177250
  H      8.727470   -2.354910    8.226820
  H     10.255010   -1.931950    9.007280
  H      9.771190   -3.624250    8.882290
  H     11.319660   -5.191860    7.791220
  H     10.157680   -7.686900    6.419230
  H     14.281890   -4.753350   11.209480
  H     15.716330   -5.805670   11.088310
  H     14.572120   -6.032680   12.424810
  H     13.814740  -10.952140   10.557260
  H     12.145190  -12.325850    8.379400
  H     12.813000  -14.365470    9.488880
  H     18.140690  -12.502180   12.590560

 Total Charge           Charge          ....    0
 Multiplicity           Mult            ....    1
 Number of Electrons    NEL             ....  556
 Basis Dimension        Dim             .... 1190

ORBITAL ENERGIES
----------------

  NO   OCC          E(Eh)            E(eV)
   0   2.0000    -101.617540     -2765.1538
   1   2.0000    -101.616676     -2765.1303
   2   2.0000     -88.993388     -2421.6332
   3   2.0000     -88.993022     -2421.6232
   4   2.0000     -88.986739     -2421.4523
   5   2.0000     -88.985951     -2421.4308
   6   2.0000     -19.227859      -523.2166
   7   2.0000     -19.224080      -523.1138
   8   2.0000     -19.220707      -523.0220
   9   2.0000     -19.220069      -523.0047
  10   2.0000     -19.220031      -523.0036
  11   2.0000     -19.218678      -522.9668
  12   2.0000     -19.197670      -522.3951
  13   2.0000     -19.197159      -522.3812
  14   2.0000     -14.468797      -393.7160
  15   2.0000     -14.464620      -393.6023
  16   2.0000     -14.458793      -393.4438
  17   2.0000     -14.458260      -393.4293
  18   2.0000     -14.423296      -392.4778
  19   2.0000     -14.422907      -392.4673
  20   2.0000     -14.420899      -392.4126
  21   2.0000     -14.419804      -392.3828
  22   2.0000     -10.410281      -283.2781
  23   2.0000     -10.405134      -283.1381
  24   2.0000     -10.403157      -283.0843
  25   2.0000     -10.402322      -283.0616
  26   2.0000     -10.380667      -282.4723
  27   2.0000     -10.379488      -282.4402
  28   2.0000     -10.378678      -282.4182
  29   2.0000     -10.376310      -282.3537
  30   2.0000     -10.376143      -282.3492
  31   2.0000     -10.374930      -282.3162
  32   2.0000     -10.351462      -281.6776
  33   2.0000     -10.350314      -281.6464
  34   2.0000     -10.349592      -281.6267
  35   2.0000     -10.349563      -281.6259
  36   2.0000     -10.348256      -281.5904
  37   2.0000     -10.343947      -281.4731
  38   2.0000     -10.343931      -281.4727
  39   2.0000     -10.341730      -281.4128
  40   2.0000     -10.338954      -281.3372
  41   2.0000     -10.338229      -281.3175
  42   2.0000     -10.329132      -281.0700
  43   2.0000     -10.329107      -281.0693
  44   2.0000     -10.328786      -281.0605
  45   2.0000     -10.324792      -280.9519
  46   2.0000     -10.324253      -280.9372
  47   2.0000     -10.322842      -280.8988
  48   2.0000     -10.321834      -280.8714
  49   2.0000     -10.321801      -280.8705
  50   2.0000     -10.317375      -280.7500
  51   2.0000     -10.313037      -280.6320
  52   2.0000     -10.312907      -280.6285
  53   2.0000     -10.312577      -280.6195
  54   2.0000     -10.312023      -280.6044
  55   2.0000     -10.308989      -280.5219
  56   2.0000     -10.308445      -280.5070
  57   2.0000     -10.308246      -280.5016
  58   2.0000     -10.307608      -280.4843
  59   2.0000     -10.307438      -280.4796
  60   2.0000     -10.307152      -280.4719
  61   2.0000     -10.307000      -280.4677
  62   2.0000     -10.306776      -280.4616
  63   2.0000     -10.305996      -280.4404
  64   2.0000     -10.305870      -280.4370
  65   2.0000     -10.304843      -280.4090
  66   2.0000     -10.301263      -280.3116
  67   2.0000     -10.300292      -280.2852
  68   2.0000     -10.298512      -280.2367
  69   2.0000     -10.298134      -280.2265
  70   2.0000     -10.271171      -279.4928
  71   2.0000     -10.268086      -279.4088
  72   2.0000     -10.261794      -279.2376
  73   2.0000     -10.261716      -279.2355
  74   2.0000      -9.572304      -260.4756
  75   2.0000      -9.571490      -260.4535
  76   2.0000      -8.089094      -220.1154
  77   2.0000      -8.088824      -220.1081
  78   2.0000      -8.081810      -219.9172
  79   2.0000      -8.080984      -219.8947
  80   2.0000      -7.342914      -199.8109
  81   2.0000      -7.342119      -199.7892
  82   2.0000      -7.332365      -199.5238
  83   2.0000      -7.331822      -199.5090
  84   2.0000      -7.331526      -199.5010
  85   2.0000      -7.330989      -199.4863
  86   2.0000      -6.058461      -164.8591
  87   2.0000      -6.058218      -164.8525
  88   2.0000      -6.053844      -164.7335
  89   2.0000      -6.053600      -164.7268
  90   2.0000      -6.051381      -164.6664
  91   2.0000      -6.051034      -164.6570
  92   2.0000      -6.051032      -164.6570
  93   2.0000      -6.050291      -164.6368
  94   2.0000      -6.046840      -164.5429
  95   2.0000      -6.046091      -164.5225
  96   2.0000      -6.044064      -164.4673
  97   2.0000      -6.043081      -164.4406
  98   2.0000      -1.171093       -31.8671
  99   2.0000      -1.166488       -31.7418
 100   2.0000      -1.147508       -31.2253
 101   2.0000      -1.144489       -31.1431
 102   2.0000      -1.139504       -31.0075
 103   2.0000      -1.137260       -30.9464
 104   2.0000      -1.135601       -30.9013
 105   2.0000      -1.132902       -30.8278
 106   2.0000      -1.069497       -29.1025
 107   2.0000      -1.062364       -28.9084
 108   2.0000      -1.060094       -28.8466
 109   2.0000      -1.058141       -28.7935
 110   2.0000      -1.038398       -28.2563
 111   2.0000      -1.038036       -28.2464
 112   2.0000      -1.019332       -27.7374
 113   2.0000      -1.019030       -27.7292
 114   2.0000      -1.013514       -27.5791
 115   2.0000      -1.012126       -27.5413
 116   2.0000      -1.000390       -27.2220
 117   2.0000      -0.999942       -27.2098
 118   2.0000      -0.988745       -26.9051
 119   2.0000      -0.988472       -26.8977
 120   2.0000      -0.956657       -26.0320
 121   2.0000      -0.955651       -26.0046
 122   2.0000      -0.938975       -25.5508
 123   2.0000      -0.933542       -25.4030
 124   2.0000      -0.929721       -25.2990
 125   2.0000      -0.920265       -25.0417
 126   2.0000      -0.912104       -24.8196
 127   2.0000      -0.907876       -24.7046
 128   2.0000      -0.902198       -24.5501
 129   2.0000      -0.898846       -24.4588
 130   2.0000      -0.888270       -24.1710
 131   2.0000      -0.879281       -23.9264
 132   2.0000      -0.871124       -23.7045
 133   2.0000      -0.848898       -23.0997
 134   2.0000      -0.839556       -22.8455
 135   2.0000      -0.832688       -22.6586
 136   2.0000      -0.832487       -22.6531
 137   2.0000      -0.822204       -22.3733
 138   2.0000      -0.811277       -22.0760
 139   2.0000      -0.807591       -21.9757
 140   2.0000      -0.806126       -21.9358
 141   2.0000      -0.799730       -21.7618
 142   2.0000      -0.786487       -21.4014
 143   2.0000      -0.782030       -21.2801
 144   2.0000      -0.761862       -20.7313
 145   2.0000      -0.760604       -20.6971
 146   2.0000      -0.754930       -20.5427
 147   2.0000      -0.750475       -20.4214
 148   2.0000      -0.745342       -20.2818
 149   2.0000      -0.727507       -19.7965
 150   2.0000      -0.719981       -19.5917
 151   2.0000      -0.712089       -19.3769
 152   2.0000      -0.709384       -19.3033
 153   2.0000      -0.697352       -18.9759
 154   2.0000      -0.696938       -18.9646
 155   2.0000      -0.691990       -18.8300
 156   2.0000      -0.688983       -18.7482
 157   2.0000      -0.686591       -18.6831
 158   2.0000      -0.684294       -18.6206
 159   2.0000      -0.676799       -18.4166
 160   2.0000      -0.676505       -18.4086
 161   2.0000      -0.659121       -17.9356
 162   2.0000      -0.652850       -17.7649
 163   2.0000      -0.650381       -17.6978
 164   2.0000      -0.637552       -17.3487
 165   2.0000      -0.633439       -17.2367
 166   2.0000      -0.623394       -16.9634
 167   2.0000      -0.617189       -16.7946
 168   2.0000      -0.616208       -16.7679
 169   2.0000      -0.613696       -16.6995
 170   2.0000      -0.607802       -16.5391
 171   2.0000      -0.603626       -16.4255
 172   2.0000      -0.597304       -16.2535
 173   2.0000      -0.592239       -16.1156
 174   2.0000      -0.590090       -16.0572
 175   2.0000      -0.586808       -15.9679
 176   2.0000      -0.581252       -15.8167
 177   2.0000      -0.577823       -15.7234
 178   2.0000      -0.571279       -15.5453
 179   2.0000      -0.569714       -15.5027
 180   2.0000      -0.567842       -15.4518
 181   2.0000      -0.566059       -15.4032
 182   2.0000      -0.563127       -15.3235
 183   2.0000      -0.558173       -15.1887
 184   2.0000      -0.553226       -15.0541
 185   2.0000      -0.553050       -15.0492
 186   2.0000      -0.550616       -14.9830
 187   2.0000      -0.548451       -14.9241
 188   2.0000      -0.547347       -14.8941
 189   2.0000      -0.536448       -14.5975
 190   2.0000      -0.534863       -14.5544
 191   2.0000      -0.533666       -14.5218
 192   2.0000      -0.532258       -14.4835
 193   2.0000      -0.532002       -14.4765
 194   2.0000      -0.531217       -14.4552
 195   2.0000      -0.529523       -14.4090
 196   2.0000      -0.526258       -14.3202
 197   2.0000      -0.523895       -14.2559
 198   2.0000      -0.522303       -14.2126
 199   2.0000      -0.520826       -14.1724
 200   2.0000      -0.520264       -14.1571
 201   2.0000      -0.516346       -14.0505
 202   2.0000      -0.515153       -14.0180
 203   2.0000      -0.512047       -13.9335
 204   2.0000      -0.508493       -13.8368
 205   2.0000      -0.507982       -13.8229
 206   2.0000      -0.507516       -13.8102
 207   2.0000      -0.507059       -13.7978
 208   2.0000      -0.502564       -13.6754
 209   2.0000      -0.500180       -13.6106
 210   2.0000      -0.498594       -13.5674
 211   2.0000      -0.497402       -13.5350
 212   2.0000      -0.494718       -13.4620
 213   2.0000      -0.490555       -13.3487
 214   2.0000      -0.487725       -13.2717
 215   2.0000      -0.486110       -13.2277
 216   2.0000      -0.483359       -13.1529
 217   2.0000      -0.482714       -13.1353
 218   2.0000      -0.481248       -13.0954
 219   2.0000      -0.480457       -13.0739
 220   2.0000      -0.478518       -13.0211
 221   2.0000      -0.474756       -12.9188
 222   2.0000      -0.473071       -12.8729
 223   2.0000      -0.472013       -12.8441
 224   2.0000      -0.468721       -12.7545
 225   2.0000      -0.468261       -12.7420
 226   2.0000      -0.460533       -12.5317
 227   2.0000      -0.459783       -12.5113
 228   2.0000      -0.456055       -12.4099
 229   2.0000      -0.455889       -12.4054
 230   2.0000      -0.455518       -12.3953
 231   2.0000      -0.454473       -12.3668
 232   2.0000      -0.453544       -12.3416
 233   2.0000      -0.450760       -12.2658
 234   2.0000      -0.448386       -12.2012
 235   2.0000      -0.447232       -12.1698
 236   2.0000      -0.445127       -12.1125
 237   2.0000      -0.444493       -12.0953
 238   2.0000      -0.443245       -12.0613
 239   2.0000      -0.442799       -12.0492
 240   2.0000      -0.440740       -11.9932
 241   2.0000      -0.438389       -11.9292
 242   2.0000      -0.434616       -11.8265
 243   2.0000      -0.433282       -11.7902
 244   2.0000      -0.432995       -11.7824
 245   2.0000      -0.427586       -11.6352
 246   2.0000      -0.425049       -11.5662
 247   2.0000      -0.424517       -11.5517
 248   2.0000      -0.418826       -11.3968
 249   2.0000      -0.415097       -11.2954
 250   2.0000      -0.413918       -11.2633
 251   2.0000      -0.403951       -10.9921
 252   2.0000      -0.403029       -10.9670
 253   2.0000      -0.400610       -10.9012
 254   2.0000      -0.394931       -10.7466
 255   2.0000      -0.380443       -10.3524
 256   2.0000      -0.376281       -10.2391
 257   2.0000      -0.373172       -10.1545
 258   2.0000      -0.365900        -9.9566
 259   2.0000      -0.364953        -9.9309
 260   2.0000      -0.359421        -9.7803
 261   2.0000      -0.356913        -9.7121
 262   2.0000      -0.354529        -9.6472
 263   2.0000      -0.350886        -9.5481
 264   2.0000      -0.346772        -9.4362
 265   2.0000      -0.344976        -9.3873
 266   2.0000      -0.343214        -9.3393
 267   2.0000      -0.340831        -9.2745
 268   2.0000      -0.337973        -9.1967
 269   2.0000      -0.336640        -9.1604
 270   2.0000      -0.334223        -9.0947
 271   2.0000      -0.332751        -9.0546
 272   2.0000      -0.321467        -8.7476
 273   2.0000      -0.314716        -8.5639
 274   2.0000      -0.314167        -8.5489
 275   2.0000      -0.297392        -8.0925
 276   2.0000      -0.287393        -7.8204
 277   2.0000      -0.240969        -6.5571
 278   0.0000      -0.117955        -3.2097
 279   0.0000      -0.104633        -2.8472
 280   0.0000      -0.090383        -2.4594
 281   0.0000      -0.058917        -1.6032
 282   0.0000      -0.055221        -1.5026

MULLIKEN ATOMIC CHARGES
-----------------------
   0 C :    0.037006
   1 C :   -0.130306
   2 S :    0.186744
   3 C :   -0.170733
   4 Cl:   -0.002515
   5 C :    0.086942
   6 C :    0.160348
   7 O :   -0.137079
   8 C :   -0.077218
   9 C :    0.291933
  10 C :   -0.332896
  11 C :   -0.192109
  12 N :    0.158700
  13 C :   -0.185825
  14 N :    0.162433
  15 C :   -0.003095
  16 C :   -0.155677
  17 S :    0.189112
  18 C :    0.074541
  19 C :    0.201212
  20 O :   -0.168124
  21 N :   -0.310824
  22 C :    0.138625
  23 C :    0.192387
  24 O :   -0.163147
  25 C :   -0.016393
  26 C :   -0.104076
  27 C :   -0.018689
  28 C :   -0.022913
  29 C :    0.112101
  30 N :   -0.263285
  31 C :    0.095706
  32 C :    0.006505
  33 C :    0.163488
  34 O :   -0.211938
  35 C :   -0.063387
  36 C :   -0.036671
  37 C :    0.151670
  38 O :   -0.182313
  39 N :   -0.262850
  40 C :    0.098619
  41 C :    0.006868
  42 C :    0.139990
  43 C :   -0.024491
  44 C :    0.067587
  45 C :   -0.145719
  46 S :    0.196571
  47 C :    0.008970
  48 C :    0.211745
  49 O :   -0.174049
  50 N :   -0.307811
  51 C :    0.134862
  52 C :    0.187529
  53 O :   -0.161458
  54 C :    0.016468
  55 C :   -0.123035
  56 C :    0.008898
  57 C :    0.018428
  58 C :    0.036570
  59 C :   -0.129958
  60 C :    0.126388
  61 O :   -0.129842
  62 C :    0.096188
  63 C :   -0.172415
  64 S :    0.184635
  65 C :   -0.124289
  66 C :    0.005939
  67 C :    0.277034
  68 C :   -0.323969
  69 C :   -0.177735
  70 N :    0.157552
  71 C :   -0.195794
  72 N :    0.177321
  73 Cl:   -0.000087
  74 H :    0.054088
  75 H :    0.032405
  76 H :    0.053115
  77 H :    0.042445
  78 H :    0.041743
  79 H :    0.012267
  80 H :    0.016289
  81 H :    0.031091
  82 H :    0.041663
  83 H :    0.021341
  84 H :    0.031242
  85 H :    0.026244
  86 H :    0.041597
  87 H :    0.038482
  88 H :    0.024413
  89 H :    0.026237
  90 H :    0.018203
  91 H :   -0.005034
  92 H :    0.000792
  93 H :    0.052862
  94 H :    0.047094
  95 H :    0.043535
  96 H :    0.038684
  97 H :    0.014287
  98 H :    0.034015
  99 H :    0.056000
Sum of atomic charges:   -0.0000000

LOEWDIN ATOMIC CHARGES
----------------------
   0 C :   -0.056430
   1 C :   -0.149221
   2 S :    0.478228
   3 C :   -0.271187
   4 Cl:    0.192263
   5 C :   -0.109116
   6 C :    0.087408
   7 O :   -0.133379
   8 C :   -0.061357
   9 C :    0.074733
  10 C :   -0.131914
  11 C :   -0.015205
  12 N :   -0.048843
  13 C :   -0.022052
  14 N :   -0.043077
  15 C :    0.040883
  16 C :   -0.148300
  17 S :    0.476565
  18 C :   -0.056243
  19 C :    0.096168
  20 O :   -0.157158
  21 N :   -0.033086
  22 C :    0.037981
  23 C :    0.091933
  24 O :   -0.163232
  25 C :   -0.089540
  26 C :   -0.123549
  27 C :   -0.030285
  28 C :   -0.013957
  29 C :    0.062768
  30 N :    0.000259
  31 C :    0.035306
  32 C :   -0.061348
  33 C :    0.081364
  34 O :   -0.201286
  35 C :   -0.122729
  36 C :   -0.101398
  37 C :    0.080763
  38 O :   -0.185766
  39 N :    0.000369
  40 C :    0.037750
  41 C :   -0.058866
  42 C :    0.083847
  43 C :   -0.020205
  44 C :   -0.000090
  45 C :   -0.123855
  46 S :    0.487546
  47 C :   -0.090538
  48 C :    0.098269
  49 O :   -0.164403
  50 N :   -0.034849
  51 C :    0.037719
  52 C :    0.090853
  53 O :   -0.161001
  54 C :   -0.075021
  55 C :   -0.138872
  56 C :    0.016468
  57 C :   -0.032058
  58 C :    0.064598
  59 C :   -0.081508
  60 C :    0.080633
  61 O :   -0.132850
  62 C :   -0.118859
  63 C :   -0.272488
  64 S :    0.474723
  65 C :   -0.150524
  66 C :   -0.056467
  67 C :    0.065237
  68 C :   -0.131352
  69 C :   -0.013612
  70 N :   -0.048766
  71 C :   -0.015456
  72 N :   -0.040499
  73 Cl:    0.191778
  74 H :    0.037808
  75 H :    0.047458
  76 H :    0.038293
  77 H :    0.033699
  78 H :    0.034428
  79 H :    0.042474
  80 H :    0.042163
  81 H :    0.024919
  82 H :    0.037282
  83 H :    0.022557
  84 H :    0.035140
  85 H :    0.031547
  86 H :    0.037384
  87 H :    0.029603
  88 H :    0.029567
  89 H :    0.032713
  90 H :    0.023456
  91 H :    0.032774
  92 H :    0.036368
  93 H :    0.037801
  94 H :    0.035283
  95 H :    0.035341
  96 H :    0.045728
  97 H :    0.033694
  98 H :    0.049700
  99 H :    0.038203

  Mayer bond orders larger than 0.100000
B(  0-C ,  1-C ) :   1.5369 B(  0-C ,  5-C ) :   1.2294 B(  0-C ,  9-C ) :   1.0057
B(  1-C ,  2-S ) :   1.1657 B(  1-C , 74-H ) :   0.9532 B(  2-S ,  3-C ) :   1.1493
B(  3-C ,  4-Cl) :   1.1274 B(  3-C ,  5-C ) :   1.4778 B(  5-C ,  6-C ) :   0.9468
B(  6-C ,  7-O ) :   2.2392 B(  6-C ,  8-C ) :   0.9101 B(  8-C ,  9-C ) :   1.0810
B(  8-C , 15-C ) :   1.6853 B(  9-C , 10-C ) :   1.6529 B( 10-C , 11-C ) :   1.1462
B( 10-C , 13-C ) :   1.1404 B( 11-C , 12-N ) :   2.9916 B( 13-C , 14-N ) :   2.9731
B( 15-C , 16-C ) :   1.1017 B( 15-C , 75-H ) :   0.9319 B( 16-C , 17-S ) :   1.1192
B( 16-C , 18-C ) :   1.5153 B( 17-S , 26-C ) :   1.1247 B( 18-C , 19-C ) :   0.8841
B( 18-C , 25-C ) :   1.3032 B( 19-C , 20-O ) :   2.1637 B( 19-C , 21-N ) :   1.0861
B( 21-N , 22-C ) :   0.9387 B( 21-N , 23-C ) :   1.0716 B( 22-C , 76-H ) :   0.9610
B( 22-C , 77-H ) :   0.9780 B( 22-C , 78-H ) :   0.9727 B( 23-C , 24-O ) :   2.1864
B( 23-C , 25-C ) :   0.9013 B( 25-C , 26-C ) :   1.4602 B( 26-C , 27-C ) :   1.1876
B( 27-C , 28-C ) :   1.5364 B( 27-C , 79-H ) :   0.9711 B( 28-C , 29-C ) :   1.1963
B( 28-C , 80-H ) :   0.9506 B( 29-C , 30-N ) :   1.1635 B( 29-C , 36-C ) :   1.3417
B( 30-N , 31-C ) :   0.9371 B( 30-N , 33-C ) :   1.0680 B( 31-C , 32-C ) :   1.1194
B( 31-C , 81-H ) :   0.9512 B( 31-C , 82-H ) :   0.9243 B( 32-C , 83-H ) :   0.9677
B( 32-C , 84-H ) :   0.9678 B( 32-C , 85-H ) :   0.9606 B( 33-C , 34-O ) :   2.0151
B( 33-C , 35-C ) :   0.9895 B( 34-O , 92-H ) :   0.1171 B( 35-C , 36-C ) :   1.2613
B( 35-C , 42-C ) :   1.3055 B( 36-C , 37-C ) :   0.9661 B( 37-C , 38-O ) :   2.1416
B( 37-C , 39-N ) :   1.0342 B( 39-N , 40-C ) :   0.9374 B( 39-N , 42-C ) :   1.1774
B( 40-C , 41-C ) :   1.1240 B( 40-C , 86-H ) :   0.9284 B( 40-C , 87-H ) :   0.9482
B( 41-C , 88-H ) :   0.9643 B( 41-C , 89-H ) :   0.9675 B( 41-C , 90-H ) :   0.9675
B( 42-C , 43-C ) :   1.1720 B( 43-C , 44-C ) :   1.5923 B( 43-C , 91-H ) :   0.9424
B( 44-C , 45-C ) :   1.1505 B( 44-C , 92-H ) :   0.9334 B( 45-C , 46-S ) :   1.1526
B( 45-C , 47-C ) :   1.4571 B( 46-S , 55-C ) :   1.1046 B( 47-C , 48-C ) :   0.9059
B( 47-C , 54-C ) :   1.2912 B( 48-C , 49-O ) :   2.0919 B( 48-C , 50-N ) :   1.0956
B( 50-N , 51-C ) :   0.9358 B( 50-N , 52-C ) :   1.0734 B( 51-C , 93-H ) :   0.9615
B( 51-C , 94-H ) :   0.9787 B( 51-C , 95-H ) :   0.9722 B( 52-C , 53-O ) :   2.1880
B( 52-C , 54-C ) :   0.8956 B( 54-C , 55-C ) :   1.4979 B( 55-C , 56-C ) :   1.2059
B( 56-C , 57-C ) :   1.6176 B( 56-C , 96-H ) :   0.9550 B( 57-C , 58-C ) :   1.1480
B( 57-C , 97-H ) :   0.9616 B( 58-C , 59-C ) :   1.6944 B( 58-C , 98-H ) :   0.9257
B( 59-C , 60-C ) :   0.9399 B( 59-C , 67-C ) :   1.0265 B( 60-C , 61-O ) :   2.2714
B( 60-C , 62-C ) :   0.9266 B( 62-C , 63-C ) :   1.4830 B( 62-C , 66-C ) :   1.2201
B( 63-C , 64-S ) :   1.1513 B( 63-C , 73-Cl) :   1.1285 B( 64-S , 65-C ) :   1.1584
B( 65-C , 66-C ) :   1.5557 B( 65-C , 99-H ) :   0.9545 B( 66-C , 67-C ) :   1.0098
B( 67-C , 68-C ) :   1.6655 B( 68-C , 69-C ) :   1.1286 B( 68-C , 71-C ) :   1.1753
B( 69-C , 70-N ) :   2.9991 B( 71-C , 72-N ) :   2.9794

-----------------------------------------------------------------------------
         ABSORPTION SPECTRUM VIA TRANSITION ELECTRIC DIPOLE MOMENTS
-----------------------------------------------------------------------------
State   Energy  Wavelength   fosc         T2         TX        TY        TZ
        (cm-1)    (nm)                  (au**2)     (au)      (au)      (au)
-----------------------------------------------------------------------------
   0   12576.3    795.1   1.321955560  34.60508  -3.63086   2.64811  -3.79598
   1   17265.5    579.2   0.001526734   0.02911   0.14530  -0.05967  -0.06662
   2   19489.5    513.1   0.226209106   3.82106  -0.22140   1.80842   0.70828
   3   22252.2    449.4   0.189692005   2.80641  -1.23386   0.94353  -0.62750
   4   23108.4    432.7   0.396621844   5.65044   1.16864  -1.90760   0.80362
   5   24689.8    405.0   0.013620014   0.18161  -0.02609   0.25845   0.33783
   6   25856.8    386.7   0.020846086   0.26542  -0.12006  -0.06301  -0.49702
   7   26245.0    381.0   0.218300145   2.73832   0.34549  -1.36062   0.87616
   8   26326.2    379.9   0.019593063   0.24501   0.37729  -0.27051   0.17172
   9   26895.0    371.8   0.083696491   1.02450  -0.36913   0.44334  -0.83168
  10   27137.1    368.5   0.113665668   1.37893  -0.74943   0.59289  -0.68247
  11   27388.3    365.1   0.041973098   0.50452   0.36964  -0.50544   0.33530
  12   28454.4    351.4   0.057082534   0.66043  -0.72485  -0.22878  -0.28756
  13   28643.0    349.1   0.097192968   1.11710   0.03136   1.03997  -0.18593
  14   28783.4    347.4   0.051721746   0.59157   0.20707  -0.69916   0.24468
  15   29179.0    342.7   0.033386751   0.37669   0.03881  -0.60391  -0.10233
  16   30875.3    323.9   0.027201080   0.29004  -0.46626  -0.10931  -0.24634
  17   30918.7    323.4   0.126568418   1.34766  -0.98459  -0.21939  -0.57455
  18   31646.1    316.0   0.018648170   0.19400  -0.12109  -0.16095   0.39170
  19   31869.2    313.8   0.028616151   0.29561   0.05444   0.51788   0.15634
  20   32344.9    309.2   0.243199314   2.47532  -0.46498   1.36533  -0.62848
  21   32595.2    306.8   0.028856200   0.29145  -0.20966   0.04086   0.49581
  22   32697.5    305.8   0.106785113   1.07516  -0.29853   0.80943  -0.57520
  23   33008.3    303.0   0.060105156   0.59947  -0.56161   0.42250  -0.32488
  24   33463.0    298.8   0.089221784   0.87777   0.61454  -0.18153   0.68349
  25   33813.4    295.7   0.029933389   0.29144  -0.38350  -0.37925   0.02315
  26   34084.3    293.4   0.001266277   0.01223  -0.07228  -0.05878   0.05959
  27   34311.4    291.4   0.003698323   0.03548  -0.12569   0.13998  -0.00965
  28   34677.2    288.4   0.033215376   0.31533  -0.05314  -0.50396   0.24194
  29   35027.9    285.5   0.116995287   1.09959   0.19056  -1.01417   0.18638
  30   35087.0    285.0   0.078132173   0.73309  -0.29731  -0.79596   0.10557
  31   35263.0    283.6   0.158936961   1.48382   0.04634  -1.19491   0.23207
  32   35363.8    282.8   0.058714668   0.54659   0.41384   0.57538  -0.21039
  33   35737.6    279.8   0.074079222   0.68241  -0.43089   0.65618  -0.25725
  34   35913.2    278.4   0.034922899   0.32013   0.03923  -0.51842   0.22323
  35   36119.9    276.9   0.060305793   0.54965  -0.42206   0.05774  -0.60678
  36   36138.5    276.7   0.016974223   0.15463  -0.30991   0.10802  -0.21661
  37   36354.8    275.1   0.028677061   0.25969   0.09780   0.48656  -0.11568
  38   36452.7    274.3   0.041174816   0.37186   0.48053   0.04975  -0.37212
  39   36836.6    271.5   0.314706470   2.81256  -1.37681  -0.92476  -0.24857
  40   37198.3    268.8   0.408428253   3.61467  -0.56285   1.28505  -1.28317
  41   37323.2    267.9   0.004620052   0.04075   0.12681   0.15333  -0.03409
  42   37788.4    264.6   0.040691383   0.35450  -0.15817  -0.39542   0.41608
  43   37919.1    263.7   0.013874117   0.12045   0.24592   0.14645  -0.19629
  44   38053.7    262.8   0.008762741   0.07581   0.25130  -0.07568   0.08324
  45   38189.4    261.9   0.018337135   0.15808   0.24024   0.19270  -0.25145
  46   38375.2    260.6   0.123389953   1.05853  -0.62136   0.02047  -0.81977
  47   38667.6    258.6   0.009004788   0.07667  -0.19804   0.06427   0.18253
  48   38713.5    258.3   0.213900529   1.81897  -1.19074  -0.45032  -0.44534
  49   38864.8    257.3   0.013000250   0.11012  -0.25098  -0.21635  -0.01801
  50   38965.9    256.6   0.024486758   0.20688  -0.35020  -0.28662  -0.04572
  51   39305.7    254.4   0.005551895   0.04650  -0.06604  -0.19768  -0.05533
  52   39643.3    252.2   0.073597793   0.61118  -0.03623   0.78026   0.03265
  53   40051.2    249.7   0.022532023   0.18521  -0.02769   0.21669  -0.37079
  54   40195.4    248.8   0.000799369   0.00655  -0.01729  -0.04133  -0.06738
  55   40256.4    248.4   0.065222945   0.53338   0.18331  -0.42871   0.56213

FINAL SINGLE POINT ENERGY     -5545.591695120360

DIPOLE MOMENT
-------------
                                X             Y             Z
Electronic contribution:    -14.49945     -17.06874      -1.42905
Nuclear contribution   :     13.47908      15.44266       2.77070
                        -----------------------------------------
Total Dipole Moment    :     -1.02038      -1.62608       1.34166
                        -----------------------------------------
Magnitude (a.u.)       :      2.34208
Magnitude (Debye)      :      5.95310

Rotational constants in cm-1:     0.002362     0.000171     0.000163
Rotational constants in MHz :    70.805266     5.128926     4.890966

                             ****ORCA TERMINATED NORMALLY****
TOTAL RUN TIME: 0 days 0 hours 9 minutes 21 seconds 191 msec
