                         Program Version 4.2.0 -  RELEASE  -
|  1> # ORCA input file
|  2> # SCF done       -205.434543930506          0.000813690262
|  3> ! CAM-B3LYP def2-SVP def2/J RIJCOSX Grid4 TightSCF
|  4> %maxcore 5000
|  5> %tddft
|  6>     Mode sTDDFT
|  7>     Ethresh 5.0
|  8>     maxcore 5000
|  9> end
| 10>
| 11> %pal
| 12>   nprocs 6
| 13>   end
| 14> * xyz 0 1
| 15>    C        4.95347         4.35073         0.37734
| 16>    C        5.46718         3.09802         0.58178
| 17>    C        6.84770         2.80482         0.58461
| 18>    N        7.95515         2.50414         0.58940
| 19>    C        4.70543         1.94402         0.86578
| 20>    N        4.15368         0.97226         1.13053
| 21>    C        5.72669         5.57255         0.19215
| 22>    C        4.83071         6.68164         0.19194
| 23>    C        5.27089         7.96590         0.04679
| 24>    C        6.65370         8.20466        -0.11635
| 25>    C        7.55546         7.10110        -0.12751
| 26>    C        7.07059         5.78231         0.03132
| 27>    C        8.93195         7.35127        -0.29931
| 28>    C        9.39759         8.62917        -0.45165
| 29>    C        8.50927         9.71478        -0.43881
| 30>    C        7.16646         9.50714        -0.27421
| 31>    C        3.45484         6.19311         0.35419
| 32>    O        2.44159         6.86487         0.41868
| 33>    C        3.54745         4.72318         0.38661
| 34>    C        2.49983         3.85444         0.30685
| 35>    C        1.11119         4.10910         0.33748
| 36>    S        0.35391         5.63745         0.67828
| 37>    C       -1.21492         4.92383         0.59654
| 38>    C       -1.16185         3.57298         0.30223
| 39>    C        0.15049         3.10829         0.16681
| 40>    C        0.48052         1.66158        -0.06903
| 41>    F        1.34684         1.51594        -1.13200
| 42>    C       -0.76817         0.81119        -0.35296
| 43>    F       -1.19992         1.01491        -1.64075
| 44>    C       -1.90217         1.21886         0.59528
| 45>    F       -1.43091         1.16513         1.88093
| 46>    C       -2.33553         2.64355         0.22551
| 47>    F       -3.36092         3.05400         1.04233
| 48>    C       -2.35499         5.74750         0.91001
| 49>    N       -3.44278         5.97018         0.10790
| 50>    C       -3.61259         5.57437        -1.26831
| 51>    C       -2.53873         6.16569        -2.17591
| 52>    C       -4.37546         6.82666         0.73471
| 53>    O       -5.40545         7.18885         0.20047
| 54>    C       -3.79373         7.11137         2.02279
| 55>    C       -2.53236         6.45425         2.08129
| 56>    C       -1.95612         6.69323         3.38830
| 57>    O       -0.91051         6.35360         3.89397
| 58>    N       -2.91892         7.49285         4.03887
| 59>    C       -2.73281         7.91976         5.40473
| 60>    C       -3.49511         7.03312         6.38634
| 61>    C       -4.01456         7.73700         3.24528
| 62>    C       -5.14165         8.49370         3.66405
| 63>    C       -6.18056         8.76334         2.83739
| 64>    C       -7.32026         9.49257         3.27018
| 65>    S       -8.60716         9.94723         2.16485
| 66>    C       -9.38472        10.66385         3.57510
| 67>    N       -8.67534        10.51434         4.65905
| 68>    N       -7.55174         9.88523         4.49537
| 69>    C      -10.65162        11.30947         3.54140
| 70>    C      -11.27365        11.66920         2.39779
| 71>    C      -12.54357        12.31067         2.30656
| 72>    C      -13.62748        12.10700         3.10266
| 73>    C      -14.90289        12.79526         2.97449
| 74>    C      -15.09032        14.03727         2.43031
| 75>    C      -16.34090        14.68640         2.36304
| 76>    N      -17.33465        15.25396         2.27499
| 77>    C      -14.05468        14.84327         1.91074
| 78>    N      -13.25759        15.55540         1.49221
| 79>    C      -15.92029        11.97103         3.60974
| 80>    C      -15.27877        10.85777         4.22426
| 81>    C      -13.82254        10.93921         4.01129
| 82>    O      -12.98681        10.18071         4.44804
| 83>    C      -15.98405         9.89865         4.89250
| 84>    C      -17.39001        10.01007         4.97459
| 85>    C      -18.03952        11.12003         4.36012
| 86>    C      -17.28263        12.09929         3.67732
| 87>    C      -19.44351        11.21683         4.44462
| 88>    C      -20.17253        10.26402         5.10253
| 89>    C      -19.53224         9.17128         5.70611
| 90>    C      -18.17066         9.04785         5.64492
| 91>    H        4.57215         8.78916         0.05415
| 92>    H        7.77764         4.96814         0.01421
| 93>    H        9.61237         6.51253        -0.30709
| 94>    H       10.45377         8.81031        -0.58286
| 95>    H        8.89390        10.71625        -0.56040
| 96>    H        6.47754        10.33900        -0.26377
| 97>    H        2.75194         2.80997         0.18386
| 98>    H        0.99818         1.24168         0.80679
| 99>    H       -0.52599        -0.25429        -0.27021
|100>    H       -2.75417         0.53131         0.53847
|101>    H       -2.75316         2.60678        -0.79267
|102>    H       -4.59851         5.95182        -1.55657
|103>    H       -3.62366         4.48489        -1.34929
|104>    H       -2.52578         7.24939        -2.08530
|105>    H       -2.75210         5.90569        -3.20900
|106>    H       -1.55336         5.78325        -1.91910
|107>    H       -3.03800         8.96466         5.50546
|108>    H       -1.65943         7.84306         5.60021
|109>    H       -4.56517         7.06749         6.19533
|110>    H       -3.31056         7.36871         7.40298
|111>    H       -3.15856         6.00351         6.29319
|112>    H       -5.17494         8.86813         4.67641
|113>    H       -6.17696         8.41918         1.81254
|114>    H      -11.07030        11.53568         4.50969
|115>    H      -10.75375        11.52708         1.45669
|116>    H      -12.65783        12.97751         1.45881
|117>    H      -15.47495         9.06377         5.35075
|118>    H      -17.80159        12.92301         3.21289
|119>    H      -19.93183        12.06049         3.97943
|120>    H      -21.24741        10.34688         5.16125
|121>    H      -20.12330         8.42762         6.21930
|122>    H      -17.67202         8.20888         6.10778
|123> *
|124>
|125>                          ****END OF INPUT****

CARTESIAN COORDINATES (ANGSTROEM)
---------------------------------
  C      4.953470    4.350730    0.377340
  C      5.467180    3.098020    0.581780
  C      6.847700    2.804820    0.584610
  N      7.955150    2.504140    0.589400
  C      4.705430    1.944020    0.865780
  N      4.153680    0.972260    1.130530
  C      5.726690    5.572550    0.192150
  C      4.830710    6.681640    0.191940
  C      5.270890    7.965900    0.046790
  C      6.653700    8.204660   -0.116350
  C      7.555460    7.101100   -0.127510
  C      7.070590    5.782310    0.031320
  C      8.931950    7.351270   -0.299310
  C      9.397590    8.629170   -0.451650
  C      8.509270    9.714780   -0.438810
  C      7.166460    9.507140   -0.274210
  C      3.454840    6.193110    0.354190
  O      2.441590    6.864870    0.418680
  C      3.547450    4.723180    0.386610
  C      2.499830    3.854440    0.306850
  C      1.111190    4.109100    0.337480
  S      0.353910    5.637450    0.678280
  C     -1.214920    4.923830    0.596540
  C     -1.161850    3.572980    0.302230
  C      0.150490    3.108290    0.166810
  C      0.480520    1.661580   -0.069030
  F      1.346840    1.515940   -1.132000
  C     -0.768170    0.811190   -0.352960
  F     -1.199920    1.014910   -1.640750
  C     -1.902170    1.218860    0.595280
  F     -1.430910    1.165130    1.880930
  C     -2.335530    2.643550    0.225510
  F     -3.360920    3.054000    1.042330
  C     -2.354990    5.747500    0.910010
  N     -3.442780    5.970180    0.107900
  C     -3.612590    5.574370   -1.268310
  C     -2.538730    6.165690   -2.175910
  C     -4.375460    6.826660    0.734710
  O     -5.405450    7.188850    0.200470
  C     -3.793730    7.111370    2.022790
  C     -2.532360    6.454250    2.081290
  C     -1.956120    6.693230    3.388300
  O     -0.910510    6.353600    3.893970
  N     -2.918920    7.492850    4.038870
  C     -2.732810    7.919760    5.404730
  C     -3.495110    7.033120    6.386340
  C     -4.014560    7.737000    3.245280
  C     -5.141650    8.493700    3.664050
  C     -6.180560    8.763340    2.837390
  C     -7.320260    9.492570    3.270180
  S     -8.607160    9.947230    2.164850
  C     -9.384720   10.663850    3.575100
  N     -8.675340   10.514340    4.659050
  N     -7.551740    9.885230    4.495370
  C    -10.651620   11.309470    3.541400
  C    -11.273650   11.669200    2.397790
  C    -12.543570   12.310670    2.306560
  C    -13.627480   12.107000    3.102660
  C    -14.902890   12.795260    2.974490
  C    -15.090320   14.037270    2.430310
  C    -16.340900   14.686400    2.363040
  N    -17.334650   15.253960    2.274990
  C    -14.054680   14.843270    1.910740
  N    -13.257590   15.555400    1.492210
  C    -15.920290   11.971030    3.609740
  C    -15.278770   10.857770    4.224260
  C    -13.822540   10.939210    4.011290
  O    -12.986810   10.180710    4.448040
  C    -15.984050    9.898650    4.892500
  C    -17.390010   10.010070    4.974590
  C    -18.039520   11.120030    4.360120
  C    -17.282630   12.099290    3.677320
  C    -19.443510   11.216830    4.444620
  C    -20.172530   10.264020    5.102530
  C    -19.532240    9.171280    5.706110
  C    -18.170660    9.047850    5.644920
  H      4.572150    8.789160    0.054150
  H      7.777640    4.968140    0.014210
  H      9.612370    6.512530   -0.307090
  H     10.453770    8.810310   -0.582860
  H      8.893900   10.716250   -0.560400
  H      6.477540   10.339000   -0.263770
  H      2.751940    2.809970    0.183860
  H      0.998180    1.241680    0.806790
  H     -0.525990   -0.254290   -0.270210
  H     -2.754170    0.531310    0.538470
  H     -2.753160    2.606780   -0.792670
  H     -4.598510    5.951820   -1.556570
  H     -3.623660    4.484890   -1.349290
  H     -2.525780    7.249390   -2.085300
  H     -2.752100    5.905690   -3.209000
  H     -1.553360    5.783250   -1.919100
  H     -3.038000    8.964660    5.505460
  H     -1.659430    7.843060    5.600210
  H     -4.565170    7.067490    6.195330
  H     -3.310560    7.368710    7.402980
  H     -3.158560    6.003510    6.293190
  H     -5.174940    8.868130    4.676410
  H     -6.176960    8.419180    1.812540
  H    -11.070300   11.535680    4.509690
  H    -10.753750   11.527080    1.456690
  H    -12.657830   12.977510    1.458810
  H    -15.474950    9.063770    5.350750
  H    -17.801590   12.923010    3.212890
  H    -19.931830   12.060490    3.979430
  H    -21.247410   10.346880    5.161250
  H    -20.123300    8.427620    6.219300
  H    -17.672020    8.208880    6.107780

 Total Charge           Charge          ....    0
 Multiplicity           Mult            ....    1
 Number of Electrons    NEL             ....  536
 Basis Dimension        Dim             .... 1232

ORBITAL ENERGIES
----------------

  NO   OCC          E(Eh)            E(eV)
   0   2.0000     -88.978532     -2421.2290
   1   2.0000     -88.976888     -2421.1842
   2   2.0000     -24.781842      -674.3482
   3   2.0000     -24.779838      -674.2937
   4   2.0000     -24.773029      -674.1084
   5   2.0000     -24.769966      -674.0250
   6   2.0000     -19.225519      -523.1530
   7   2.0000     -19.219954      -523.0015
   8   2.0000     -19.196448      -522.3619
   9   2.0000     -19.189597      -522.1755
  10   2.0000     -14.458230      -393.4284
  11   2.0000     -14.454695      -393.3322
  12   2.0000     -14.445700      -393.0875
  13   2.0000     -14.443278      -393.0216
  14   2.0000     -14.419718      -392.3805
  15   2.0000     -14.417185      -392.3116
  16   2.0000     -14.416366      -392.2893
  17   2.0000     -14.416187      -392.2844
  18   2.0000     -10.378083      -282.4020
  19   2.0000     -10.375488      -282.3314
  20   2.0000     -10.374318      -282.2995
  21   2.0000     -10.374142      -282.2948
  22   2.0000     -10.373897      -282.2881
  23   2.0000     -10.373429      -282.2754
  24   2.0000     -10.373175      -282.2684
  25   2.0000     -10.371804      -282.2311
  26   2.0000     -10.348756      -281.6040
  27   2.0000     -10.346458      -281.5414
  28   2.0000     -10.346091      -281.5315
  29   2.0000     -10.345860      -281.5252
  30   2.0000     -10.345232      -281.5081
  31   2.0000     -10.344845      -281.4975
  32   2.0000     -10.343359      -281.4571
  33   2.0000     -10.342187      -281.4252
  34   2.0000     -10.326786      -281.0061
  35   2.0000     -10.324876      -280.9542
  36   2.0000     -10.323989      -280.9300
  37   2.0000     -10.322536      -280.8905
  38   2.0000     -10.321266      -280.8559
  39   2.0000     -10.319595      -280.8105
  40   2.0000     -10.319135      -280.7979
  41   2.0000     -10.318721      -280.7867
  42   2.0000     -10.309898      -280.5466
  43   2.0000     -10.309395      -280.5329
  44   2.0000     -10.308867      -280.5185
  45   2.0000     -10.307529      -280.4821
  46   2.0000     -10.305486      -280.4265
  47   2.0000     -10.305171      -280.4179
  48   2.0000     -10.305103      -280.4161
  49   2.0000     -10.304548      -280.4010
  50   2.0000     -10.302990      -280.3586
  51   2.0000     -10.301752      -280.3249
  52   2.0000     -10.300415      -280.2885
  53   2.0000     -10.300315      -280.2858
  54   2.0000     -10.300152      -280.2814
  55   2.0000     -10.300074      -280.2793
  56   2.0000     -10.299921      -280.2751
  57   2.0000     -10.299846      -280.2731
  58   2.0000     -10.299428      -280.2617
  59   2.0000     -10.299427      -280.2617
  60   2.0000     -10.299368      -280.2601
  61   2.0000     -10.298923      -280.2479
  62   2.0000     -10.292116      -280.0627
  63   2.0000     -10.291442      -280.0444
  64   2.0000     -10.288808      -279.9727
  65   2.0000     -10.288628      -279.9678
  66   2.0000     -10.288339      -279.9599
  67   2.0000     -10.288090      -279.9532
  68   2.0000     -10.288036      -279.9517
  69   2.0000     -10.287865      -279.9470
  70   2.0000     -10.287557      -279.9387
  71   2.0000     -10.287391      -279.9341
  72   2.0000     -10.265924      -279.3500
  73   2.0000     -10.265458      -279.3373
  74   2.0000     -10.264906      -279.3223
  75   2.0000     -10.261398      -279.2268
  76   2.0000      -8.074737      -219.7248
  77   2.0000      -8.069811      -219.5907
  78   2.0000      -6.043290      -164.4463
  79   2.0000      -6.040016      -164.3572
  80   2.0000      -6.039101      -164.3323
  81   2.0000      -6.037215      -164.2810
  82   2.0000      -6.034452      -164.2058
  83   2.0000      -6.032335      -164.1482
  84   2.0000      -1.302743       -35.4494
  85   2.0000      -1.295334       -35.2478
  86   2.0000      -1.282299       -34.8931
  87   2.0000      -1.278048       -34.7775
  88   2.0000      -1.148881       -31.2626
  89   2.0000      -1.141076       -31.0503
  90   2.0000      -1.136917       -30.9371
  91   2.0000      -1.135831       -30.9075
  92   2.0000      -1.128780       -30.7157
  93   2.0000      -1.067971       -29.0610
  94   2.0000      -1.058834       -28.8123
  95   2.0000      -1.021391       -27.7935
  96   2.0000      -1.019964       -27.7546
  97   2.0000      -1.010942       -27.5091
  98   2.0000      -1.001731       -27.2585
  99   2.0000      -1.000339       -27.2206
 100   2.0000      -0.996202       -27.1080
 101   2.0000      -0.995120       -27.0786
 102   2.0000      -0.974373       -26.5140
 103   2.0000      -0.974370       -26.5139
 104   2.0000      -0.955503       -26.0006
 105   2.0000      -0.940516       -25.5928
 106   2.0000      -0.933875       -25.4120
 107   2.0000      -0.930972       -25.3330
 108   2.0000      -0.926347       -25.2072
 109   2.0000      -0.925799       -25.1923
 110   2.0000      -0.913198       -24.8494
 111   2.0000      -0.909148       -24.7392
 112   2.0000      -0.893946       -24.3255
 113   2.0000      -0.889882       -24.2149
 114   2.0000      -0.886121       -24.1126
 115   2.0000      -0.883447       -24.0398
 116   2.0000      -0.882149       -24.0045
 117   2.0000      -0.872115       -23.7315
 118   2.0000      -0.861510       -23.4429
 119   2.0000      -0.851964       -23.1831
 120   2.0000      -0.844859       -22.9898
 121   2.0000      -0.837911       -22.8007
 122   2.0000      -0.830885       -22.6095
 123   2.0000      -0.830396       -22.5962
 124   2.0000      -0.821819       -22.3628
 125   2.0000      -0.813690       -22.1416
 126   2.0000      -0.803752       -21.8712
 127   2.0000      -0.793883       -21.6027
 128   2.0000      -0.770435       -20.9646
 129   2.0000      -0.765709       -20.8360
 130   2.0000      -0.763464       -20.7749
 131   2.0000      -0.762022       -20.7357
 132   2.0000      -0.749534       -20.3959
 133   2.0000      -0.744588       -20.2613
 134   2.0000      -0.727900       -19.8072
 135   2.0000      -0.722184       -19.6516
 136   2.0000      -0.713634       -19.4190
 137   2.0000      -0.708323       -19.2745
 138   2.0000      -0.706868       -19.2349
 139   2.0000      -0.706201       -19.2167
 140   2.0000      -0.702159       -19.1067
 141   2.0000      -0.700733       -19.0679
 142   2.0000      -0.698747       -19.0139
 143   2.0000      -0.686427       -18.6786
 144   2.0000      -0.681124       -18.5343
 145   2.0000      -0.678463       -18.4619
 146   2.0000      -0.671779       -18.2800
 147   2.0000      -0.663967       -18.0675
 148   2.0000      -0.658922       -17.9302
 149   2.0000      -0.651017       -17.7151
 150   2.0000      -0.646064       -17.5803
 151   2.0000      -0.640710       -17.4346
 152   2.0000      -0.637355       -17.3433
 153   2.0000      -0.634255       -17.2590
 154   2.0000      -0.633352       -17.2344
 155   2.0000      -0.622247       -16.9322
 156   2.0000      -0.616473       -16.7751
 157   2.0000      -0.614006       -16.7080
 158   2.0000      -0.609440       -16.5837
 159   2.0000      -0.608591       -16.5606
 160   2.0000      -0.607506       -16.5311
 161   2.0000      -0.606029       -16.4909
 162   2.0000      -0.603238       -16.4149
 163   2.0000      -0.592741       -16.1293
 164   2.0000      -0.587818       -15.9953
 165   2.0000      -0.587468       -15.9858
 166   2.0000      -0.583557       -15.8794
 167   2.0000      -0.579989       -15.7823
 168   2.0000      -0.575770       -15.6675
 169   2.0000      -0.574822       -15.6417
 170   2.0000      -0.568231       -15.4623
 171   2.0000      -0.563609       -15.3366
 172   2.0000      -0.559695       -15.2301
 173   2.0000      -0.557054       -15.1582
 174   2.0000      -0.554597       -15.0914
 175   2.0000      -0.551557       -15.0086
 176   2.0000      -0.549863       -14.9625
 177   2.0000      -0.548677       -14.9303
 178   2.0000      -0.546095       -14.8600
 179   2.0000      -0.543238       -14.7822
 180   2.0000      -0.540414       -14.7054
 181   2.0000      -0.538524       -14.6540
 182   2.0000      -0.537896       -14.6369
 183   2.0000      -0.535311       -14.5665
 184   2.0000      -0.533818       -14.5259
 185   2.0000      -0.530462       -14.4346
 186   2.0000      -0.529151       -14.3989
 187   2.0000      -0.526226       -14.3193
 188   2.0000      -0.523721       -14.2512
 189   2.0000      -0.523072       -14.2335
 190   2.0000      -0.521738       -14.1972
 191   2.0000      -0.520271       -14.1573
 192   2.0000      -0.516031       -14.0419
 193   2.0000      -0.513025       -13.9601
 194   2.0000      -0.512454       -13.9446
 195   2.0000      -0.511050       -13.9064
 196   2.0000      -0.507220       -13.8022
 197   2.0000      -0.506304       -13.7772
 198   2.0000      -0.503231       -13.6936
 199   2.0000      -0.501134       -13.6365
 200   2.0000      -0.498922       -13.5764
 201   2.0000      -0.498543       -13.5660
 202   2.0000      -0.496373       -13.5070
 203   2.0000      -0.494212       -13.4482
 204   2.0000      -0.491401       -13.3717
 205   2.0000      -0.489873       -13.3301
 206   2.0000      -0.486994       -13.2518
 207   2.0000      -0.485624       -13.2145
 208   2.0000      -0.482308       -13.1243
 209   2.0000      -0.480058       -13.0631
 210   2.0000      -0.470931       -12.8147
 211   2.0000      -0.468769       -12.7559
 212   2.0000      -0.467194       -12.7130
 213   2.0000      -0.466446       -12.6927
 214   2.0000      -0.465525       -12.6676
 215   2.0000      -0.461105       -12.5473
 216   2.0000      -0.456359       -12.4182
 217   2.0000      -0.455822       -12.4035
 218   2.0000      -0.451975       -12.2989
 219   2.0000      -0.450606       -12.2616
 220   2.0000      -0.450011       -12.2454
 221   2.0000      -0.448926       -12.2159
 222   2.0000      -0.446746       -12.1566
 223   2.0000      -0.446307       -12.1446
 224   2.0000      -0.445435       -12.1209
 225   2.0000      -0.443895       -12.0790
 226   2.0000      -0.442420       -12.0389
 227   2.0000      -0.440786       -11.9944
 228   2.0000      -0.437426       -11.9030
 229   2.0000      -0.436323       -11.8730
 230   2.0000      -0.435625       -11.8540
 231   2.0000      -0.434251       -11.8166
 232   2.0000      -0.432558       -11.7705
 233   2.0000      -0.430447       -11.7131
 234   2.0000      -0.429016       -11.6741
 235   2.0000      -0.427633       -11.6365
 236   2.0000      -0.426238       -11.5985
 237   2.0000      -0.423076       -11.5125
 238   2.0000      -0.420761       -11.4495
 239   2.0000      -0.419544       -11.4164
 240   2.0000      -0.411623       -11.2008
 241   2.0000      -0.411393       -11.1946
 242   2.0000      -0.410872       -11.1804
 243   2.0000      -0.406351       -11.0574
 244   2.0000      -0.404002       -10.9934
 245   2.0000      -0.403396       -10.9770
 246   2.0000      -0.398954       -10.8561
 247   2.0000      -0.395141       -10.7523
 248   2.0000      -0.386995       -10.5307
 249   2.0000      -0.381942       -10.3932
 250   2.0000      -0.378897       -10.3103
 251   2.0000      -0.364883        -9.9290
 252   2.0000      -0.362690        -9.8693
 253   2.0000      -0.352468        -9.5911
 254   2.0000      -0.345666        -9.4061
 255   2.0000      -0.341775        -9.3002
 256   2.0000      -0.336332        -9.1521
 257   2.0000      -0.332499        -9.0478
 258   2.0000      -0.329347        -8.9620
 259   2.0000      -0.329025        -8.9532
 260   2.0000      -0.320553        -8.7227
 261   2.0000      -0.319146        -8.6844
 262   2.0000      -0.317457        -8.6384
 263   2.0000      -0.303573        -8.2606
 264   2.0000      -0.300178        -8.1683
 265   2.0000      -0.291555        -7.9336
 266   2.0000      -0.289023        -7.8647
 267   2.0000      -0.248335        -6.7575
 268   0.0000      -0.106372        -2.8945
 269   0.0000      -0.096889        -2.6365
 270   0.0000      -0.077123        -2.0986
 271   0.0000      -0.061691        -1.6787
 272   0.0000      -0.058560        -1.5935

MULLIKEN ATOMIC CHARGES
-----------------------
   0 C :    0.311234
   1 C :   -0.337522
   2 C :   -0.184816
   3 N :    0.149705
   4 C :   -0.192894
   5 N :    0.150872
   6 C :    0.044426
   7 C :   -0.005210
   8 C :   -0.077464
   9 C :    0.097445
  10 C :    0.096983
  11 C :   -0.081000
  12 C :   -0.019934
  13 C :    0.035714
  14 C :    0.036318
  15 C :   -0.016405
  16 C :    0.174572
  17 O :   -0.173682
  18 C :   -0.084286
  19 C :   -0.050199
  20 C :   -0.090510
  21 S :    0.285685
  22 C :   -0.255989
  23 C :    0.011390
  24 C :   -0.084251
  25 C :    0.333656
  26 F :   -0.239537
  27 C :    0.187212
  28 F :   -0.234215
  29 C :    0.187472
  30 F :   -0.231219
  31 C :    0.322743
  32 F :   -0.228467
  33 C :    0.082394
  34 N :   -0.248238
  35 C :    0.114900
  36 C :   -0.011517
  37 C :    0.172502
  38 O :   -0.209401
  39 C :   -0.077084
  40 C :   -0.007138
  41 C :    0.138651
  42 O :   -0.176895
  43 N :   -0.266363
  44 C :    0.097813
  45 C :    0.001660
  46 C :    0.148026
  47 C :   -0.023555
  48 C :    0.081660
  49 C :   -0.103711
  50 S :    0.120855
  51 C :   -0.101594
  52 N :   -0.028822
  53 N :   -0.050219
  54 C :    0.144696
  55 C :   -0.032606
  56 C :    0.006583
  57 C :   -0.095710
  58 C :    0.283098
  59 C :   -0.332646
  60 C :   -0.178391
  61 N :    0.148697
  62 C :   -0.207165
  63 N :    0.165192
  64 C :    0.053822
  65 C :   -0.006930
  66 C :    0.150156
  67 O :   -0.141399
  68 C :   -0.078094
  69 C :    0.097188
  70 C :    0.096986
  71 C :   -0.083997
  72 C :   -0.018398
  73 C :    0.034830
  74 C :    0.037120
  75 C :   -0.016493
  76 H :   -0.010228
  77 H :   -0.006362
  78 H :   -0.007370
  79 H :   -0.002802
  80 H :   -0.004465
  81 H :   -0.015491
  82 H :    0.030053
  83 H :    0.050842
  84 H :    0.032930
  85 H :    0.030856
  86 H :    0.040061
  87 H :    0.046324
  88 H :    0.011917
  89 H :    0.027819
  90 H :    0.024843
  91 H :    0.029642
  92 H :    0.026874
  93 H :    0.043836
  94 H :    0.021420
  95 H :    0.025337
  96 H :    0.030366
  97 H :    0.005735
  98 H :    0.014891
  99 H :    0.031349
 100 H :    0.014388
 101 H :    0.037711
 102 H :   -0.011219
 103 H :   -0.006215
 104 H :   -0.008805
 105 H :   -0.002453
 106 H :   -0.003781
 107 H :   -0.016296
Sum of atomic charges:   -0.0000000

LOEWDIN ATOMIC CHARGES
----------------------
   0 C :    0.078247
   1 C :   -0.137019
   2 C :   -0.017236
   3 N :   -0.051388
   4 C :   -0.019360
   5 N :   -0.053009
   6 C :   -0.025205
   7 C :   -0.055360
   8 C :    0.034272
   9 C :   -0.008280
  10 C :   -0.005630
  11 C :    0.021187
  12 C :   -0.004920
  13 C :   -0.012206
  14 C :   -0.011345
  15 C :   -0.008874
  16 C :    0.086553
  17 O :   -0.160553
  18 C :   -0.094583
  19 C :    0.061151
  20 C :   -0.178237
  21 S :    0.577264
  22 C :   -0.169247
  23 C :   -0.074123
  24 C :   -0.046722
  25 C :    0.095679
  26 F :   -0.111574
  27 C :    0.088673
  28 F :   -0.108625
  29 C :    0.085803
  30 F :   -0.105695
  31 C :    0.090514
  32 F :   -0.107199
  33 C :    0.046998
  34 N :    0.005889
  35 C :    0.036177
  36 C :   -0.061719
  37 C :    0.083112
  38 O :   -0.198569
  39 C :   -0.122293
  40 C :   -0.112487
  41 C :    0.080607
  42 O :   -0.183970
  43 N :   -0.003440
  44 C :    0.036366
  45 C :   -0.060369
  46 C :    0.082253
  47 C :   -0.008178
  48 C :   -0.006142
  49 C :   -0.143718
  50 S :    0.410298
  51 C :   -0.149798
  52 N :   -0.055864
  53 N :   -0.075356
  54 C :    0.030674
  55 C :   -0.041266
  56 C :    0.065384
  57 C :   -0.082015
  58 C :    0.074086
  59 C :   -0.134669
  60 C :   -0.017086
  61 N :   -0.050487
  62 C :   -0.026026
  63 N :   -0.047280
  64 C :   -0.026574
  65 C :   -0.055402
  66 C :    0.083333
  67 O :   -0.131251
  68 C :    0.033232
  69 C :   -0.007808
  70 C :   -0.005865
  71 C :    0.020100
  72 C :   -0.005277
  73 C :   -0.012666
  74 C :   -0.011428
  75 C :   -0.009091
  76 H :    0.039827
  77 H :    0.039487
  78 H :    0.035204
  79 H :    0.033837
  80 H :    0.033185
  81 H :    0.032322
  82 H :    0.047547
  83 H :    0.040158
  84 H :    0.031304
  85 H :    0.029875
  86 H :    0.026904
  87 H :    0.037932
  88 H :    0.020288
  89 H :    0.030569
  90 H :    0.032221
  91 H :    0.022881
  92 H :    0.025095
  93 H :    0.038042
  94 H :    0.024117
  95 H :    0.031816
  96 H :    0.032562
  97 H :    0.038829
  98 H :    0.038400
  99 H :    0.050600
 100 H :    0.030434
 101 H :    0.047936
 102 H :    0.039604
 103 H :    0.039284
 104 H :    0.034905
 105 H :    0.033859
 106 H :    0.033296
 107 H :    0.032310

  Mayer bond orders larger than 0.100000
B(  0-C ,  1-C ) :   1.6437 B(  0-C ,  6-C ) :   0.9904 B(  0-C , 18-C ) :   1.0594
B(  1-C ,  2-C ) :   1.1449 B(  1-C ,  4-C ) :   1.1419 B(  2-C ,  3-N ) :   2.9687
B(  4-C ,  5-N ) :   2.9771 B(  6-C ,  7-C ) :   1.2129 B(  6-C , 11-C ) :   1.4545
B(  7-C ,  8-C ) :   1.4706 B(  7-C , 16-C ) :   0.9598 B(  8-C ,  9-C ) :   1.1804
B(  8-C , 76-H ) :   1.0165 B(  9-C , 10-C ) :   1.2535 B(  9-C , 15-C ) :   1.2445
B( 10-C , 11-C ) :   1.2055 B( 10-C , 12-C ) :   1.2408 B( 11-C , 77-H ) :   0.9904
B( 12-C , 13-C ) :   1.4889 B( 12-C , 78-H ) :   0.9976 B( 13-C , 14-C ) :   1.2588
B( 13-C , 79-H ) :   0.9890 B( 14-C , 15-C ) :   1.4886 B( 14-C , 80-H ) :   0.9895
B( 15-C , 81-H ) :   0.9981 B( 16-C , 17-O ) :   2.1374 B( 16-C , 18-C ) :   0.9672
B( 18-C , 19-C ) :   1.5637 B( 19-C , 20-C ) :   1.2149 B( 19-C , 82-H ) :   0.9278
B( 20-C , 21-S ) :   1.1222 B( 20-C , 22-C ) :   0.1086 B( 20-C , 24-C ) :   1.4353
B( 21-S , 22-C ) :   1.1891 B( 22-C , 23-C ) :   1.4852 B( 22-C , 33-C ) :   1.0006
B( 23-C , 24-C ) :   1.3772 B( 23-C , 31-C ) :   0.9368 B( 24-C , 25-C ) :   0.9629
B( 25-C , 26-F ) :   1.0049 B( 25-C , 27-C ) :   0.9851 B( 25-C , 83-H ) :   0.9139
B( 27-C , 28-F ) :   1.0166 B( 27-C , 29-C ) :   1.0027 B( 27-C , 84-H ) :   0.9313
B( 29-C , 30-F ) :   1.0265 B( 29-C , 31-C ) :   0.9959 B( 29-C , 85-H ) :   0.9309
B( 31-C , 32-F ) :   1.0509 B( 31-C , 86-H ) :   0.9051 B( 33-C , 34-N ) :   1.2050
B( 33-C , 40-C ) :   1.4683 B( 34-N , 35-C ) :   0.9479 B( 34-N , 37-C ) :   1.0444
B( 35-C , 36-C ) :   1.1126 B( 35-C , 87-H ) :   0.9266 B( 35-C , 88-H ) :   0.9484
B( 36-C , 89-H ) :   0.9654 B( 36-C , 90-H ) :   0.9663 B( 36-C , 91-H ) :   0.9677
B( 37-C , 38-O ) :   2.0201 B( 37-C , 39-C ) :   1.0012 B( 38-O , 98-H ) :   0.1110
B( 39-C , 40-C ) :   1.2117 B( 39-C , 46-C ) :   1.3595 B( 40-C , 41-C ) :   0.9479
B( 41-C , 42-O ) :   2.1760 B( 41-C , 43-N ) :   1.0243 B( 43-N , 44-C ) :   0.9424
B( 43-N , 46-C ) :   1.1686 B( 44-C , 45-C ) :   1.1204 B( 44-C , 92-H ) :   0.9506
B( 44-C , 93-H ) :   0.9283 B( 45-C , 94-H ) :   0.9690 B( 45-C , 95-H ) :   0.9681
B( 45-C , 96-H ) :   0.9637 B( 46-C , 47-C ) :   1.1219 B( 47-C , 48-C ) :   1.6618
B( 47-C , 97-H ) :   0.9743 B( 48-C , 49-C ) :   1.1075 B( 48-C , 98-H ) :   0.9230
B( 49-C , 50-S ) :   1.1149 B( 49-C , 53-N ) :   1.6525 B( 50-S , 51-C ) :   1.0923
B( 51-C , 52-N ) :   1.6395 B( 51-C , 54-C ) :   1.1416 B( 52-N , 53-N ) :   1.2462
B( 54-C , 55-C ) :   1.6662 B( 54-C , 99-H ) :   0.9629 B( 55-C , 56-C ) :   1.1530
B( 55-C ,100-H ) :   0.9526 B( 56-C , 57-C ) :   1.6583 B( 56-C ,101-H ) :   0.9466
B( 57-C , 58-C ) :   1.0424 B( 57-C , 66-C ) :   0.9301 B( 58-C , 59-C ) :   1.6599
B( 58-C , 64-C ) :   0.9983 B( 59-C , 60-C ) :   1.1399 B( 59-C , 62-C ) :   1.1340
B( 60-C , 61-N ) :   2.9720 B( 62-C , 63-N ) :   3.0106 B( 64-C , 65-C ) :   1.2090
B( 64-C , 71-C ) :   1.4504 B( 65-C , 66-C ) :   0.9461 B( 65-C , 68-C ) :   1.4747
B( 66-C , 67-O ) :   2.2201 B( 68-C , 69-C ) :   1.1823 B( 68-C ,102-H ) :   1.0157
B( 69-C , 70-C ) :   1.2523 B( 69-C , 75-C ) :   1.2452 B( 70-C , 71-C ) :   1.2082
B( 70-C , 72-C ) :   1.2400 B( 71-C ,103-H ) :   0.9913 B( 72-C , 73-C ) :   1.4904
B( 72-C ,104-H ) :   0.9969 B( 73-C , 74-C ) :   1.2588 B( 73-C ,105-H ) :   0.9888
B( 74-C , 75-C ) :   1.4904 B( 74-C ,106-H ) :   0.9885 B( 75-C ,107-H ) :   0.9974

-----------------------------------------------------------------------------
         ABSORPTION SPECTRUM VIA TRANSITION ELECTRIC DIPOLE MOMENTS
-----------------------------------------------------------------------------
State   Energy  Wavelength   fosc         T2         TX        TY        TZ
        (cm-1)    (nm)                  (au**2)     (au)      (au)      (au)
-----------------------------------------------------------------------------
   0   15840.6    631.3   0.927071731  19.26715   3.78037  -1.75654  -1.37496
   1   19455.8    514.0   0.081881399   1.38552   0.75037  -0.88211  -0.21057
   2   23169.5    431.6   0.424985170   6.03855  -2.18058   0.61660  -0.95050
   3   24674.2    405.3   0.111318852   1.48525   0.74636  -0.77917  -0.56664
   4   25512.8    392.0   0.328685939   4.24129  -2.00450   0.37627  -0.28579
   5   26360.5    379.4   0.041342184   0.51631   0.68913   0.12752  -0.15861
   6   26430.6    378.3   0.040410214   0.50334  -0.64604  -0.15371   0.24970
   7   26862.2    372.3   0.147913375   1.81276   1.34412   0.07368   0.02571
   8   26959.5    370.9   0.053248016   0.65023  -0.79774   0.03891   0.11102
   9   27571.2    362.7   0.217849484   2.60122  -1.50837  -0.57054   0.02299
  10   28191.1    354.7   0.177207189   2.06940   1.43036   0.13593  -0.07065
  11   28280.3    353.6   0.292571077   3.40583  -1.57301   0.96118   0.08717
  12   28860.5    346.5   0.116209381   1.32560  -1.14804  -0.08367   0.02483
  13   29023.0    344.6   0.042101345   0.47756   0.37414  -0.56187   0.14794
  14   29255.0    341.8   0.020292634   0.22836   0.32758   0.33901  -0.07823
  15   30017.9    333.1   0.191710539   2.10253  -1.31847  -0.54063   0.26813
  16   30808.5    324.6   0.024239580   0.25902   0.43148   0.02241   0.26896
  17   31400.9    318.5   0.077721114   0.81484  -0.86423   0.06384  -0.25271
  18   31899.2    313.5   0.012815555   0.13226   0.25696   0.23300  -0.10929
  19   32197.7    310.6   0.042409098   0.43362  -0.00325   0.09874  -0.65105
  20   32786.5    305.0   0.468493663   4.70418  -1.03411  -1.88228   0.30302
  21   33244.6    300.8   0.597784287   5.91968   1.60456   1.64251  -0.80451
  22   33402.1    299.4   0.043421777   0.42797  -0.57921  -0.10291   0.28616
  23   33691.0    296.8   0.232282710   2.26975  -0.69003  -1.23642   0.51466
  24   33799.5    295.9   0.113108081   1.10169  -0.47188  -0.93655  -0.04356
  25   34033.3    293.8   0.015082887   0.14590  -0.14707  -0.34625   0.06616
  26   34396.6    290.7   0.104691491   1.00201  -0.36621  -0.92517   0.10934
  27   34728.3    287.9   0.152306307   1.44381   0.61913   1.02980   0.00077
  28   34826.1    287.1   0.031963472   0.30215   0.28261  -0.42759   0.19861
  29   35324.9    283.1   0.038241760   0.35640  -0.26144  -0.53371   0.05652
  30   35368.1    282.7   0.043107009   0.40125   0.50443   0.38045  -0.04533
  31   35958.5    278.1   0.192781628   1.76498   0.88180  -0.66590   0.73756
  32   36268.0    275.7   0.036577010   0.33202  -0.11766  -0.51863   0.22179
  33   36753.0    272.1   0.123992188   1.11065  -0.04266   0.87133  -0.59128
  34   37023.8    270.1   0.008916152   0.07928  -0.00753   0.12810  -0.25063
  35   37262.6    268.4   0.016035380   0.14167   0.29745   0.23033  -0.01207
  36   37727.6    265.1   0.013733420   0.11984  -0.16996   0.30038  -0.02693
  37   38177.4    261.9   0.112532169   0.97039  -0.16126  -0.73968   0.63028
  38   38423.6    260.3   0.007823797   0.06703   0.09061  -0.08512  -0.22711
  39   38632.3    258.9   0.283053061   2.41209  -0.70936   1.36934  -0.18383
  40   39042.8    256.1   0.033056955   0.27874  -0.49334  -0.14870  -0.11510
  41   39393.1    253.9   0.116296185   0.97190  -0.31682   0.86978  -0.33914
  42   39597.9    252.5   0.099858622   0.83021   0.88497  -0.00122  -0.21689
  43   39813.5    251.2   0.114882368   0.94994  -0.95583  -0.18829   0.02965

FINAL SINGLE POINT ENERGY     -4159.634440603356

DIPOLE MOMENT
-------------
                                X             Y             Z
Electronic contribution:     16.58996     -23.08778     -12.78707
Nuclear contribution   :    -17.19410      22.63874      12.22415
                        -----------------------------------------
Total Dipole Moment    :     -0.60414      -0.44904      -0.56292
                        -----------------------------------------
Magnitude (a.u.)       :      0.93994
Magnitude (Debye)      :      2.38915

Rotational constants in cm-1:     0.001824     0.000205     0.000193
Rotational constants in MHz :    54.680064     6.143519     5.787870

                             ****ORCA TERMINATED NORMALLY****
TOTAL RUN TIME: 0 days 0 hours 10 minutes 35 seconds 409 msec
