                         Program Version 4.2.0 -  RELEASE  -
|  1> # ORCA input file
|  2> # SCF done       -173.443118079906          0.000405190436
|  3> ! CAM-B3LYP def2-SVP def2/J RIJCOSX Grid4 TightSCF
|  4> %maxcore 5000
|  5> %tddft
|  6>     Mode sTDDFT
|  7>     Ethresh 5.0
|  8>     maxcore 5000
|  9> end
| 10>
| 11> %pal
| 12>   nprocs 6
| 13>   end
| 14> * xyz 0 1
| 15>    C       -0.36054        -0.41723         1.91070
| 16>    C        0.37806         0.71690         1.75626
| 17>    C        0.24434         1.97500         2.54405
| 18>    F       -0.69024         1.86405         3.49617
| 19>    F        1.38646         2.32139         3.16029
| 20>    F       -0.10385         3.02565         1.78174
| 21>    S        1.55915         0.60124         0.50349
| 22>    C        1.04788        -1.01937         0.17855
| 23>    C        1.65160        -1.77836        -0.82611
| 24>    N        2.12933        -2.42450        -1.64581
| 25>    C        0.01113        -1.44140         1.00434
| 26>    C       -0.55978        -2.75723         0.90100
| 27>    C       -1.58046        -3.21276         1.64783
| 28>    C       -2.17045        -4.52968         1.56572
| 29>    C       -3.27422        -4.82230         2.36820
| 30>    C       -3.87980        -6.06503         2.32607
| 31>    N       -5.08054        -6.24239         3.10473
| 32>    O       -5.22394        -5.52766         4.07296
| 33>    O       -5.88638        -7.06307         2.72173
| 34>    C       -3.39735        -7.09490         1.49894
| 35>    C       -2.29531        -6.78339         0.69086
| 36>    C       -1.70241        -5.54290         0.71545
| 37>    C       -3.95078        -8.42677         1.53128
| 38>    C       -4.04059        -9.23433         0.45299
| 39>    C       -4.59137       -10.54388         0.53974
| 40>    N       -4.83403       -11.34946        -0.54849
| 41>    C       -4.51025       -11.06467        -1.92492
| 42>    C       -3.02910       -11.29284        -2.21786
| 43>    C       -5.43391       -12.56564        -0.17914
| 44>    O       -5.74124       -13.43039        -0.97722
| 45>    C       -5.56005       -12.48083         1.25777
| 46>    C       -5.02163       -11.23330         1.66761
| 47>    C       -5.13120       -11.15283         3.10716
| 48>    O       -4.77231       -10.31063         3.90542
| 49>    N       -5.75560       -12.35677         3.47511
| 50>    C       -6.10441       -12.62230         4.84994
| 51>    C       -7.57688       -12.33092         5.12907
| 52>    C       -6.02387       -13.15351         2.38592
| 53>    C       -6.66613       -14.41510         2.47334
| 54>    C       -6.93000       -15.17201         1.37823
| 55>    C       -7.60501       -16.42168         1.40770
| 56>    S       -7.92192       -17.25285        -0.08059
| 57>    C       -8.73561       -18.53246         0.74836
| 58>    C       -9.35825       -19.62221         0.03990
| 59>    O       -9.97733       -20.52038         0.56290
| 60>    C       -8.74132       -18.31635         2.12447
| 61>    C       -8.10993       -17.12742         2.48906
| 62>    C       -9.41601       -19.22890         3.04969
| 63>    C      -10.58280       -18.87968         3.68213
| 64>    C      -11.25971       -17.55916         3.58144
| 65>    F      -11.36955       -17.12533         2.31443
| 66>    F      -12.49149       -17.56849         4.09813
| 67>    F      -10.58292       -16.58822         4.23705
| 68>    S      -11.26186       -20.14542         4.62980
| 69>    C       -9.94992       -21.17862         4.17567
| 70>    C       -9.87726       -22.48722         4.66168
| 71>    N       -9.80726       -23.56050         5.06110
| 72>    C       -9.03165       -20.56804         3.33890
| 73>    C       -7.85013       -21.25958         2.86212
| 74>    C       -6.73825       -20.67926         2.42656
| 75>    H       -1.13576        -0.51000         2.64864
| 76>    H       -0.10249        -3.38565         0.14948
| 77>    H       -2.02992        -2.56211         2.38536
| 78>    H       -3.69030        -4.07299         3.02635
| 79>    H       -1.88546        -7.55489         0.05735
| 80>    H       -0.85421        -5.35810         0.07562
| 81>    H       -4.31781        -8.78783         2.48366
| 82>    H       -3.74902        -8.87477        -0.52391
| 83>    H       -4.80351       -10.03915        -2.16627
| 84>    H       -5.11149       -11.75291        -2.52560
| 85>    H       -2.40412       -10.65885        -1.59257
| 86>    H       -2.82116       -11.07123        -3.26094
| 87>    H       -2.76902       -12.33055        -2.02458
| 88>    H       -5.48025       -11.95603         5.45218
| 89>    H       -5.85465       -13.65772         5.09846
| 90>    H       -7.79304       -11.28716         4.91564
| 91>    H       -7.79794       -12.52442         6.17503
| 92>    H       -8.22462       -12.95125         4.51347
| 93>    H       -6.95907       -14.75995         3.45364
| 94>    H       -6.63210       -14.81245         0.40204
| 95>    H       -9.23174       -19.56785        -1.05698
| 96>    H       -8.02646       -16.79532         3.50788
| 97>    H       -7.91362       -22.33864         2.91255
| 98>    H       -6.61243       -19.61060         2.39757
| 99>    H       -5.90041       -21.26802         2.09676
|100> *
|101>
|102>                          ****END OF INPUT****

CARTESIAN COORDINATES (ANGSTROEM)
---------------------------------
  C     -0.360540   -0.417230    1.910700
  C      0.378060    0.716900    1.756260
  C      0.244340    1.975000    2.544050
  F     -0.690240    1.864050    3.496170
  F      1.386460    2.321390    3.160290
  F     -0.103850    3.025650    1.781740
  S      1.559150    0.601240    0.503490
  C      1.047880   -1.019370    0.178550
  C      1.651600   -1.778360   -0.826110
  N      2.129330   -2.424500   -1.645810
  C      0.011130   -1.441400    1.004340
  C     -0.559780   -2.757230    0.901000
  C     -1.580460   -3.212760    1.647830
  C     -2.170450   -4.529680    1.565720
  C     -3.274220   -4.822300    2.368200
  C     -3.879800   -6.065030    2.326070
  N     -5.080540   -6.242390    3.104730
  O     -5.223940   -5.527660    4.072960
  O     -5.886380   -7.063070    2.721730
  C     -3.397350   -7.094900    1.498940
  C     -2.295310   -6.783390    0.690860
  C     -1.702410   -5.542900    0.715450
  C     -3.950780   -8.426770    1.531280
  C     -4.040590   -9.234330    0.452990
  C     -4.591370  -10.543880    0.539740
  N     -4.834030  -11.349460   -0.548490
  C     -4.510250  -11.064670   -1.924920
  C     -3.029100  -11.292840   -2.217860
  C     -5.433910  -12.565640   -0.179140
  O     -5.741240  -13.430390   -0.977220
  C     -5.560050  -12.480830    1.257770
  C     -5.021630  -11.233300    1.667610
  C     -5.131200  -11.152830    3.107160
  O     -4.772310  -10.310630    3.905420
  N     -5.755600  -12.356770    3.475110
  C     -6.104410  -12.622300    4.849940
  C     -7.576880  -12.330920    5.129070
  C     -6.023870  -13.153510    2.385920
  C     -6.666130  -14.415100    2.473340
  C     -6.930000  -15.172010    1.378230
  C     -7.605010  -16.421680    1.407700
  S     -7.921920  -17.252850   -0.080590
  C     -8.735610  -18.532460    0.748360
  C     -9.358250  -19.622210    0.039900
  O     -9.977330  -20.520380    0.562900
  C     -8.741320  -18.316350    2.124470
  C     -8.109930  -17.127420    2.489060
  C     -9.416010  -19.228900    3.049690
  C    -10.582800  -18.879680    3.682130
  C    -11.259710  -17.559160    3.581440
  F    -11.369550  -17.125330    2.314430
  F    -12.491490  -17.568490    4.098130
  F    -10.582920  -16.588220    4.237050
  S    -11.261860  -20.145420    4.629800
  C     -9.949920  -21.178620    4.175670
  C     -9.877260  -22.487220    4.661680
  N     -9.807260  -23.560500    5.061100
  C     -9.031650  -20.568040    3.338900
  C     -7.850130  -21.259580    2.862120
  C     -6.738250  -20.679260    2.426560
  H     -1.135760   -0.510000    2.648640
  H     -0.102490   -3.385650    0.149480
  H     -2.029920   -2.562110    2.385360
  H     -3.690300   -4.072990    3.026350
  H     -1.885460   -7.554890    0.057350
  H     -0.854210   -5.358100    0.075620
  H     -4.317810   -8.787830    2.483660
  H     -3.749020   -8.874770   -0.523910
  H     -4.803510  -10.039150   -2.166270
  H     -5.111490  -11.752910   -2.525600
  H     -2.404120  -10.658850   -1.592570
  H     -2.821160  -11.071230   -3.260940
  H     -2.769020  -12.330550   -2.024580
  H     -5.480250  -11.956030    5.452180
  H     -5.854650  -13.657720    5.098460
  H     -7.793040  -11.287160    4.915640
  H     -7.797940  -12.524420    6.175030
  H     -8.224620  -12.951250    4.513470
  H     -6.959070  -14.759950    3.453640
  H     -6.632100  -14.812450    0.402040
  H     -9.231740  -19.567850   -1.056980
  H     -8.026460  -16.795320    3.507880
  H     -7.913620  -22.338640    2.912550
  H     -6.612430  -19.610600    2.397570
  H     -5.900410  -21.268020    2.096760

 Total Charge           Charge          ....    0
 Multiplicity           Mult            ....    1
 Number of Electrons    NEL             ....  448
 Basis Dimension        Dim             ....  977

ORBITAL ENERGIES
----------------

  NO   OCC          E(Eh)            E(eV)
   0   2.0000     -89.002602     -2421.8839
   1   2.0000     -88.989896     -2421.5382
   2   2.0000     -88.981754     -2421.3166
   3   2.0000     -24.817894      -675.3292
   4   2.0000     -24.813419      -675.2075
   5   2.0000     -24.811794      -675.1632
   6   2.0000     -24.811141      -675.1455
   7   2.0000     -24.805902      -675.0029
   8   2.0000     -24.805279      -674.9860
   9   2.0000     -19.249235      -523.7983
  10   2.0000     -19.247150      -523.7416
  11   2.0000     -19.216558      -522.9091
  12   2.0000     -19.196544      -522.3645
  13   2.0000     -19.193388      -522.2786
  14   2.0000     -14.653489      -398.7417
  15   2.0000     -14.458391      -393.4328
  16   2.0000     -14.456926      -393.3930
  17   2.0000     -14.427576      -392.5943
  18   2.0000     -14.412495      -392.1839
  19   2.0000     -10.540502      -286.8217
  20   2.0000     -10.533821      -286.6398
  21   2.0000     -10.378697      -282.4187
  22   2.0000     -10.376487      -282.3586
  23   2.0000     -10.366246      -282.0799
  24   2.0000     -10.353670      -281.7377
  25   2.0000     -10.344658      -281.4925
  26   2.0000     -10.343544      -281.4621
  27   2.0000     -10.342483      -281.4333
  28   2.0000     -10.340545      -281.3805
  29   2.0000     -10.338219      -281.3172
  30   2.0000     -10.331070      -281.1227
  31   2.0000     -10.329101      -281.0691
  32   2.0000     -10.328999      -281.0663
  33   2.0000     -10.328611      -281.0558
  34   2.0000     -10.320116      -280.8246
  35   2.0000     -10.319164      -280.7987
  36   2.0000     -10.316360      -280.7224
  37   2.0000     -10.314267      -280.6655
  38   2.0000     -10.314212      -280.6640
  39   2.0000     -10.314165      -280.6627
  40   2.0000     -10.313265      -280.6382
  41   2.0000     -10.312750      -280.6242
  42   2.0000     -10.312722      -280.6234
  43   2.0000     -10.311691      -280.5954
  44   2.0000     -10.308685      -280.5136
  45   2.0000     -10.308511      -280.5088
  46   2.0000     -10.307027      -280.4685
  47   2.0000     -10.306571      -280.4561
  48   2.0000     -10.304376      -280.3963
  49   2.0000     -10.303367      -280.3689
  50   2.0000     -10.301089      -280.3069
  51   2.0000     -10.298220      -280.2288
  52   2.0000     -10.297792      -280.2172
  53   2.0000     -10.297026      -280.1963
  54   2.0000     -10.286925      -279.9215
  55   2.0000     -10.277726      -279.6711
  56   2.0000     -10.270813      -279.4830
  57   2.0000     -10.265660      -279.3428
  58   2.0000     -10.265060      -279.3265
  59   2.0000     -10.263559      -279.2856
  60   2.0000      -8.097846      -220.3536
  61   2.0000      -8.085065      -220.0058
  62   2.0000      -8.077297      -219.7944
  63   2.0000      -6.067218      -165.0974
  64   2.0000      -6.062968      -164.9817
  65   2.0000      -6.059847      -164.8968
  66   2.0000      -6.054480      -164.7508
  67   2.0000      -6.050158      -164.6332
  68   2.0000      -6.047027      -164.5480
  69   2.0000      -6.046194      -164.5253
  70   2.0000      -6.042242      -164.4178
  71   2.0000      -6.039965      -164.3558
  72   2.0000      -1.404792       -38.2263
  73   2.0000      -1.398766       -38.0624
  74   2.0000      -1.329494       -36.1774
  75   2.0000      -1.308875       -35.6163
  76   2.0000      -1.304129       -35.4872
  77   2.0000      -1.303517       -35.4705
  78   2.0000      -1.295314       -35.2473
  79   2.0000      -1.148709       -31.2580
  80   2.0000      -1.137961       -30.9655
  81   2.0000      -1.131062       -30.7778
  82   2.0000      -1.129423       -30.7332
  83   2.0000      -1.068089       -29.0642
  84   2.0000      -1.059900       -28.8414
  85   2.0000      -1.035339       -28.1730
  86   2.0000      -1.026008       -27.9191
  87   2.0000      -1.007263       -27.4090
  88   2.0000      -1.005014       -27.3478
  89   2.0000      -1.001326       -27.2475
  90   2.0000      -0.990384       -26.9497
  91   2.0000      -0.943339       -25.6696
  92   2.0000      -0.933615       -25.4050
  93   2.0000      -0.922992       -25.1159
  94   2.0000      -0.916712       -24.9450
  95   2.0000      -0.910064       -24.7641
  96   2.0000      -0.909024       -24.7358
  97   2.0000      -0.898922       -24.4609
  98   2.0000      -0.893622       -24.3167
  99   2.0000      -0.881890       -23.9975
 100   2.0000      -0.873282       -23.7632
 101   2.0000      -0.857961       -23.3463
 102   2.0000      -0.855363       -23.2756
 103   2.0000      -0.843418       -22.9506
 104   2.0000      -0.828327       -22.5399
 105   2.0000      -0.824828       -22.4447
 106   2.0000      -0.815670       -22.1955
 107   2.0000      -0.810181       -22.0462
 108   2.0000      -0.802130       -21.8271
 109   2.0000      -0.793604       -21.5951
 110   2.0000      -0.777485       -21.1564
 111   2.0000      -0.765160       -20.8211
 112   2.0000      -0.752756       -20.4835
 113   2.0000      -0.740613       -20.1531
 114   2.0000      -0.739278       -20.1168
 115   2.0000      -0.732188       -19.9238
 116   2.0000      -0.728870       -19.8335
 117   2.0000      -0.721308       -19.6278
 118   2.0000      -0.713723       -19.4214
 119   2.0000      -0.711231       -19.3536
 120   2.0000      -0.699817       -19.0430
 121   2.0000      -0.694846       -18.9077
 122   2.0000      -0.686578       -18.6827
 123   2.0000      -0.685599       -18.6561
 124   2.0000      -0.681378       -18.5412
 125   2.0000      -0.680168       -18.5083
 126   2.0000      -0.669117       -18.2076
 127   2.0000      -0.667583       -18.1658
 128   2.0000      -0.657995       -17.9050
 129   2.0000      -0.655581       -17.8393
 130   2.0000      -0.652875       -17.7656
 131   2.0000      -0.640642       -17.4327
 132   2.0000      -0.638252       -17.3677
 133   2.0000      -0.636175       -17.3112
 134   2.0000      -0.623851       -16.9758
 135   2.0000      -0.618648       -16.8343
 136   2.0000      -0.611884       -16.6502
 137   2.0000      -0.606057       -16.4917
 138   2.0000      -0.599144       -16.3035
 139   2.0000      -0.594354       -16.1732
 140   2.0000      -0.589873       -16.0513
 141   2.0000      -0.589282       -16.0352
 142   2.0000      -0.585700       -15.9377
 143   2.0000      -0.581886       -15.8339
 144   2.0000      -0.577298       -15.7091
 145   2.0000      -0.573325       -15.6010
 146   2.0000      -0.568749       -15.4765
 147   2.0000      -0.563431       -15.3317
 148   2.0000      -0.560127       -15.2418
 149   2.0000      -0.559001       -15.2112
 150   2.0000      -0.557617       -15.1735
 151   2.0000      -0.557165       -15.1612
 152   2.0000      -0.548250       -14.9186
 153   2.0000      -0.545080       -14.8324
 154   2.0000      -0.540005       -14.6943
 155   2.0000      -0.538067       -14.6415
 156   2.0000      -0.536735       -14.6053
 157   2.0000      -0.535573       -14.5737
 158   2.0000      -0.533979       -14.5303
 159   2.0000      -0.533240       -14.5102
 160   2.0000      -0.529495       -14.4083
 161   2.0000      -0.525306       -14.2943
 162   2.0000      -0.520055       -14.1514
 163   2.0000      -0.519699       -14.1417
 164   2.0000      -0.517292       -14.0762
 165   2.0000      -0.516163       -14.0455
 166   2.0000      -0.515296       -14.0219
 167   2.0000      -0.514309       -13.9951
 168   2.0000      -0.513111       -13.9625
 169   2.0000      -0.509121       -13.8539
 170   2.0000      -0.505870       -13.7654
 171   2.0000      -0.503036       -13.6883
 172   2.0000      -0.502605       -13.6766
 173   2.0000      -0.501280       -13.6405
 174   2.0000      -0.498784       -13.5726
 175   2.0000      -0.496143       -13.5007
 176   2.0000      -0.492954       -13.4140
 177   2.0000      -0.490080       -13.3357
 178   2.0000      -0.487998       -13.2791
 179   2.0000      -0.481846       -13.1117
 180   2.0000      -0.479010       -13.0345
 181   2.0000      -0.476631       -12.9698
 182   2.0000      -0.473553       -12.8860
 183   2.0000      -0.470748       -12.8097
 184   2.0000      -0.469603       -12.7785
 185   2.0000      -0.467297       -12.7158
 186   2.0000      -0.464317       -12.6347
 187   2.0000      -0.461148       -12.5485
 188   2.0000      -0.457830       -12.4582
 189   2.0000      -0.455528       -12.3955
 190   2.0000      -0.454438       -12.3659
 191   2.0000      -0.452051       -12.3009
 192   2.0000      -0.451310       -12.2808
 193   2.0000      -0.449223       -12.2240
 194   2.0000      -0.446290       -12.1442
 195   2.0000      -0.442858       -12.0508
 196   2.0000      -0.441941       -12.0258
 197   2.0000      -0.439860       -11.9692
 198   2.0000      -0.437220       -11.8974
 199   2.0000      -0.433865       -11.8061
 200   2.0000      -0.432910       -11.7801
 201   2.0000      -0.427489       -11.6326
 202   2.0000      -0.426843       -11.6150
 203   2.0000      -0.422628       -11.5003
 204   2.0000      -0.411944       -11.2096
 205   2.0000      -0.396386       -10.7862
 206   2.0000      -0.392931       -10.6922
 207   2.0000      -0.386740       -10.5237
 208   2.0000      -0.384956       -10.4752
 209   2.0000      -0.380440       -10.3523
 210   2.0000      -0.372147       -10.1266
 211   2.0000      -0.356000        -9.6873
 212   2.0000      -0.353227        -9.6118
 213   2.0000      -0.352149        -9.5825
 214   2.0000      -0.350450        -9.5362
 215   2.0000      -0.341952        -9.3050
 216   2.0000      -0.341077        -9.2812
 217   2.0000      -0.335523        -9.1300
 218   2.0000      -0.323623        -8.8062
 219   2.0000      -0.319308        -8.6888
 220   2.0000      -0.310334        -8.4446
 221   2.0000      -0.302771        -8.2388
 222   2.0000      -0.296101        -8.0573
 223   2.0000      -0.241480        -6.5710
 224   0.0000      -0.097038        -2.6406
 225   0.0000      -0.071736        -1.9520
 226   0.0000      -0.053385        -1.4527
 227   0.0000      -0.042758        -1.1635
 228   0.0000      -0.039880        -1.0852

MULLIKEN ATOMIC CHARGES
-----------------------
   0 C :   -0.036338
   1 C :   -0.208432
   2 C :    0.550607
   3 F :   -0.150504
   4 F :   -0.155951
   5 F :   -0.156150
   6 S :    0.255698
   7 C :   -0.295457
   8 C :   -0.183160
   9 N :    0.132851
  10 C :    0.216555
  11 C :   -0.002917
  12 C :    0.009316
  13 C :    0.115463
  14 C :   -0.074020
  15 C :    0.153456
  16 N :    0.245604
  17 O :   -0.231686
  18 O :   -0.219867
  19 C :    0.059313
  20 C :   -0.025906
  21 C :    0.016767
  22 C :    0.018142
  23 C :   -0.034444
  24 C :    0.132175
  25 N :   -0.258001
  26 C :    0.098370
  27 C :    0.005459
  28 C :    0.166990
  29 O :   -0.215646
  30 C :   -0.070712
  31 C :   -0.067317
  32 C :    0.172340
  33 O :   -0.208879
  34 N :   -0.258420
  35 C :    0.096572
  36 C :    0.002629
  37 C :    0.140510
  38 C :   -0.021800
  39 C :    0.079728
  40 C :   -0.081421
  41 S :    0.190447
  42 C :   -0.152085
  43 C :    0.186857
  44 O :   -0.185872
  45 C :   -0.016030
  46 C :    0.008142
  47 C :    0.052237
  48 C :   -0.269620
  49 C :    0.554996
  50 F :   -0.155286
  51 F :   -0.148639
  52 F :   -0.168889
  53 S :    0.252089
  54 C :   -0.294325
  55 C :   -0.192603
  56 N :    0.136635
  57 C :    0.209896
  58 C :   -0.035923
  59 C :   -0.004468
  60 H :    0.013322
  61 H :    0.005660
  62 H :   -0.016831
  63 H :    0.002895
  64 H :   -0.010547
  65 H :   -0.006918
  66 H :    0.040267
  67 H :   -0.024503
  68 H :    0.024743
  69 H :    0.044578
  70 H :    0.010660
  71 H :    0.024863
  72 H :    0.030163
  73 H :    0.045558
  74 H :    0.021163
  75 H :    0.035353
  76 H :    0.025306
  77 H :    0.017134
  78 H :   -0.026346
  79 H :    0.007235
  80 H :   -0.016041
  81 H :   -0.010470
  82 H :    0.018968
  83 H :    0.033280
  84 H :    0.031435
Sum of atomic charges:    0.0000000

LOEWDIN ATOMIC CHARGES
----------------------
   0 C :   -0.022498
   1 C :   -0.221950
   2 C :    0.149343
   3 F :   -0.050689
   4 F :   -0.059283
   5 F :   -0.060089
   6 S :    0.512466
   7 C :   -0.219012
   8 C :   -0.056772
   9 N :   -0.042177
  10 C :   -0.020154
  11 C :   -0.016475
  12 C :    0.000586
  13 C :   -0.024501
  14 C :    0.010001
  15 C :   -0.019952
  16 N :    0.285187
  17 O :   -0.199131
  18 O :   -0.180980
  19 C :   -0.004333
  20 C :   -0.003525
  21 C :    0.013261
  22 C :    0.037090
  23 C :   -0.045907
  24 C :    0.077481
  25 N :    0.000939
  26 C :    0.036557
  27 C :   -0.060933
  28 C :    0.080781
  29 O :   -0.203831
  30 C :   -0.120684
  31 C :   -0.119903
  32 C :    0.082264
  33 O :   -0.196006
  34 N :    0.000762
  35 C :    0.035874
  36 C :   -0.060653
  37 C :    0.074966
  38 C :   -0.035083
  39 C :    0.004902
  40 C :   -0.154428
  41 S :    0.495029
  42 C :   -0.232579
  43 C :    0.088400
  44 O :   -0.137158
  45 C :   -0.030392
  46 C :   -0.043561
  47 C :   -0.022590
  48 C :   -0.228469
  49 C :    0.155125
  50 F :   -0.054139
  51 F :   -0.050566
  52 F :   -0.070548
  53 S :    0.513535
  54 C :   -0.214114
  55 C :   -0.054732
  56 N :   -0.043199
  57 C :   -0.002233
  58 C :   -0.019683
  59 C :   -0.020696
  60 H :    0.040240
  61 H :    0.035609
  62 H :    0.030943
  63 H :    0.040532
  64 H :    0.035144
  65 H :    0.035559
  66 H :    0.037439
  67 H :    0.027208
  68 H :    0.023574
  69 H :    0.038148
  70 H :    0.019951
  71 H :    0.031079
  72 H :    0.032649
  73 H :    0.038779
  74 H :    0.021834
  75 H :    0.034811
  76 H :    0.031523
  77 H :    0.022196
  78 H :    0.029228
  79 H :    0.036643
  80 H :   -0.002772
  81 H :    0.031141
  82 H :    0.041422
  83 H :    0.025215
  84 H :    0.030961

  Mayer bond orders larger than 0.100000
B(  0-C ,  1-C ) :   1.6055 B(  0-C , 10-C ) :   1.1963 B(  0-C , 60-H ) :   0.9960
B(  1-C ,  2-C ) :   0.9411 B(  1-C ,  6-S ) :   1.1309 B(  1-C ,  7-C ) :   0.1170
B(  2-C ,  3-F ) :   1.1763 B(  2-C ,  4-F ) :   1.1837 B(  2-C ,  5-F ) :   1.1850
B(  6-S ,  7-C ) :   1.1472 B(  7-C ,  8-C ) :   1.2078 B(  7-C , 10-C ) :   1.4593
B(  8-C ,  9-N ) :   2.9885 B( 10-C , 11-C ) :   1.1048 B( 11-C , 12-C ) :   1.7025
B( 11-C , 61-H ) :   0.9588 B( 12-C , 13-C ) :   1.0697 B( 12-C , 62-H ) :   0.9869
B( 13-C , 14-C ) :   1.2850 B( 13-C , 21-C ) :   1.3196 B( 14-C , 15-C ) :   1.3758
B( 14-C , 63-H ) :   1.0007 B( 15-C , 16-N ) :   0.8770 B( 15-C , 19-C ) :   1.3530
B( 16-N , 17-O ) :   1.5525 B( 16-N , 18-O ) :   1.5351 B( 17-O , 18-O ) :   0.2694
B( 19-C , 20-C ) :   1.3333 B( 19-C , 22-C ) :   1.0501 B( 20-C , 21-C ) :   1.4164
B( 20-C , 64-H ) :   0.9888 B( 21-C , 65-H ) :   0.9920 B( 22-C , 23-C ) :   1.6847
B( 22-C , 66-H ) :   0.9147 B( 23-C , 24-C ) :   1.1438 B( 23-C , 67-H ) :   0.9634
B( 24-C , 25-N ) :   1.1577 B( 24-C , 31-C ) :   1.3574 B( 25-N , 26-C ) :   0.9477
B( 25-N , 28-C ) :   1.0621 B( 26-C , 27-C ) :   1.1193 B( 26-C , 68-H ) :   0.9507
B( 26-C , 69-H ) :   0.9281 B( 27-C , 70-H ) :   0.9689 B( 27-C , 71-H ) :   0.9683
B( 27-C , 72-H ) :   0.9637 B( 28-C , 29-O ) :   2.0142 B( 28-C , 30-C ) :   0.9893
B( 29-O , 79-H ) :   0.1174 B( 30-C , 31-C ) :   1.2481 B( 30-C , 37-C ) :   1.3432
B( 31-C , 32-C ) :   0.9835 B( 32-C , 33-O ) :   2.0265 B( 32-C , 34-N ) :   1.0584
B( 33-O , 66-H ) :   0.1113 B( 34-N , 35-C ) :   0.9460 B( 34-N , 37-C ) :   1.1589
B( 35-C , 36-C ) :   1.1203 B( 35-C , 73-H ) :   0.9268 B( 35-C , 74-H ) :   0.9505
B( 36-C , 75-H ) :   0.9634 B( 36-C , 76-H ) :   0.9679 B( 36-C , 77-H ) :   0.9683
B( 37-C , 38-C ) :   1.1584 B( 38-C , 39-C ) :   1.6315 B( 38-C , 78-H ) :   0.9634
B( 39-C , 40-C ) :   1.1149 B( 39-C , 79-H ) :   0.9367 B( 40-C , 41-S ) :   1.1781
B( 40-C , 46-C ) :   1.4158 B( 41-S , 42-C ) :   1.1152 B( 42-C , 43-C ) :   1.0189
B( 42-C , 45-C ) :   1.4690 B( 43-C , 44-O ) :   2.1223 B( 43-C , 80-H ) :   0.9540
B( 45-C , 46-C ) :   1.3432 B( 45-C , 47-C ) :   0.9407 B( 46-C , 81-H ) :   0.9995
B( 47-C , 48-C ) :   1.6059 B( 47-C , 57-C ) :   1.2590 B( 48-C , 49-C ) :   0.9545
B( 48-C , 53-S ) :   1.1250 B( 48-C , 54-C ) :   0.1180 B( 49-C , 50-F ) :   1.1636
B( 49-C , 51-F ) :   1.1783 B( 49-C , 52-F ) :   1.1544 B( 53-S , 54-C ) :   1.1405
B( 54-C , 55-C ) :   1.1977 B( 54-C , 57-C ) :   1.4817 B( 55-C , 56-N ) :   3.0030
B( 57-C , 58-C ) :   1.1006 B( 58-C , 59-C ) :   1.9465 B( 58-C , 82-H ) :   0.9458
B( 59-C , 83-H ) :   0.9534 B( 59-C , 84-H ) :   0.9444

-----------------------------------------------------------------------------
         ABSORPTION SPECTRUM VIA TRANSITION ELECTRIC DIPOLE MOMENTS
-----------------------------------------------------------------------------
State   Energy  Wavelength   fosc         T2         TX        TY        TZ
        (cm-1)    (nm)                  (au**2)     (au)      (au)      (au)
-----------------------------------------------------------------------------
   0   15795.9    633.1   0.895543525  18.66459   1.90421   3.78522  -0.84304
   1   22447.1    445.5   0.004159583   0.06101   0.13608  -0.15397  -0.13704
   2   26238.8    381.1   0.076715277   0.96253  -0.61876  -0.55018   0.52628
   3   27388.3    365.1   0.013079247   0.15721  -0.25346  -0.29383   0.08146
   4   28507.5    350.8   0.130132023   1.50280   0.52697   1.08635   0.21197
   5   28947.2    345.5   0.252591344   2.87268  -0.82912  -1.47618   0.07823
   6   29178.6    342.7   0.098845685   1.11524  -0.53777  -0.68434  -0.59810
   7   29689.5    336.8   0.498764183   5.53054   1.11328   2.06535   0.15963
   8   30660.4    326.2   0.502496115   5.39549   1.03621   1.88149   0.88417
   9   31095.5    321.6   0.030726133   0.32530   0.35640   0.43779   0.08136
  10   31666.1    315.8   0.054398332   0.56554   0.23616   0.61685   0.35954
  11   32720.2    305.6   0.010345200   0.10409   0.17187   0.24449  -0.12154
  12   33760.9    296.2   0.074151087   0.72307   0.19097   0.66236   0.49787
  13   34648.2    288.6   0.090020536   0.85534  -0.67171  -0.57697   0.26691
  14   35372.3    282.7   0.363763189   3.38557   1.30667   0.87052  -0.95936
  15   35680.0    280.3   0.031738780   0.29285   0.05278   0.01586   0.53834
  16   36468.7    274.2   0.017675942   0.15957  -0.30085  -0.25716  -0.05407
  17   37327.2    267.9   0.200781158   1.77082   0.67152   1.14417   0.10370
  18   38501.4    259.7   0.066260934   0.56657   0.28614  -0.41397  -0.55975
  19   38972.9    256.6   0.015082739   0.12741  -0.23667  -0.08725  -0.25255
  20   39121.9    255.6   0.026111880   0.21973   0.08710   0.33238   0.31886
  21   39641.4    252.3   0.220084769   1.82775  -0.78913  -0.32603   1.04820
  22   39759.0    251.5   0.027190790   0.22515  -0.39274   0.09008   0.25057

FINAL SINGLE POINT ENERGY     -4017.069106370872

DIPOLE MOMENT
-------------
                                X             Y             Z
Electronic contribution:    -10.18641      37.36630      16.03790
Nuclear contribution   :     11.77374     -35.47806     -16.93439
                        -----------------------------------------
Total Dipole Moment    :      1.58733       1.88824      -0.89649
                        -----------------------------------------
Magnitude (a.u.)       :      2.62465
Magnitude (Debye)      :      6.67132

Rotational constants in cm-1:     0.003952     0.000258     0.000249
Rotational constants in MHz :   118.474514     7.743523     7.463561

                             ****ORCA TERMINATED NORMALLY****
TOTAL RUN TIME: 0 days 0 hours 6 minutes 13 seconds 15 msec
