                         Program Version 4.2.0 -  RELEASE  -
|  1> # ORCA input file
|  2> # SCF done       -199.143483650727          0.000556901982
|  3> ! CAM-B3LYP def2-SVP def2/J RIJCOSX Grid4 TightSCF
|  4> %maxcore 5000
|  5> %tddft
|  6>     Mode sTDDFT
|  7>     Ethresh 5.0
|  8>     maxcore 5000
|  9> end
| 10>
| 11> %pal
| 12>   nprocs 6
| 13>   end
| 14> * xyz 0 1
| 15>    C        0.11308        -0.70750        -0.54655
| 16>    S        1.23204         0.32369        -1.32023
| 17>    C        1.30311         1.37256         0.06392
| 18>    C        0.48465         0.91344         1.06958
| 19>    C       -0.20460        -0.27470         0.70662
| 20>    C       -1.25264        -0.92371         1.56603
| 21>    N       -2.52113        -0.80802         0.77283
| 22>    O       -3.27139         0.09563         1.03601
| 23>    O       -2.67539        -1.61901        -0.10527
| 24>    C       -1.40622        -0.27276         2.93666
| 25>    C       -1.15686         1.23477         2.90429
| 26>    C        0.25332         1.53287         2.40696
| 27>    N        1.25446         0.99392         3.39930
| 28>    O        0.92146         0.94557         4.55301
| 29>    O        2.32779         0.66027         2.96230
| 30>    C        2.09904         2.58333        -0.01666
| 31>    C        2.78489         3.10051         1.07485
| 32>    C        3.51307         4.27796         0.97512
| 33>    N        4.12467         4.71759         2.20464
| 34>    O        3.54389         4.42430         3.22905
| 35>    O        5.16352         5.34325         2.16216
| 36>    C        3.59055         5.00083        -0.23284
| 37>    C        2.91234         4.44280        -1.32912
| 38>    C        2.19541         3.27569        -1.23145
| 39>    C        4.31346         6.24498        -0.35126
| 40>    C        4.08124         7.15807        -1.32055
| 41>    C        4.71411         8.41151        -1.54853
| 42>    N        5.73377         9.04437        -0.87597
| 43>    C        6.51407         8.57482         0.24548
| 44>    C        7.55497         7.54101        -0.17589
| 45>    C        6.04389        10.28970        -1.46129
| 46>    O        6.91680        11.02560        -1.04392
| 47>    C        5.12267        10.41873        -2.56707
| 48>    C        4.32721         9.25128        -2.58946
| 49>    C        3.40046         9.35170        -3.69624
| 50>    O        2.54510         8.59626        -4.10845
| 51>    N        3.70336        10.59551        -4.28102
| 52>    C        2.94978        11.10205        -5.40352
| 53>    C        1.90250        12.12350        -4.96880
| 54>    C        4.72125        11.24202        -3.61989
| 55>    C        5.23181        12.50254        -4.01365
| 56>    C        6.23575        13.11983        -3.33720
| 57>    C        6.78314        14.36857        -3.71906
| 58>    C        6.50990        15.23073        -4.76209
| 59>    C        5.58283        15.31095        -5.89987
| 60>    O        4.71625        14.55247        -6.26943
| 61>    N        5.89532        16.50372        -6.53622
| 62>    C        5.20450        16.97090        -7.71239
| 63>    C        6.93207        17.20517        -5.93567
| 64>    O        7.36466        18.26187        -6.33228
| 65>    C        7.32920        16.38499        -4.78716
| 66>    C        8.26160        16.45914        -3.77309
| 67>    S        8.08567        15.03878        -2.75940
| 68>    C        9.22251        17.48180        -3.53261
| 69>    S        9.28174        18.87078        -4.58556
| 70>    C       10.55235        19.55046        -3.67831
| 71>    C       10.92604        18.77129        -2.61888
| 72>    C       10.18197        17.57457        -2.53449
| 73>    C       10.41957        16.59810        -1.43585
| 74>    N        9.36744        16.76943        -0.36601
| 75>    O        9.55013        16.18037         0.66590
| 76>    O        8.42168        17.46999        -0.62075
| 77>    C       11.79816        16.76651        -0.80209
| 78>    C       12.06586        18.22576        -0.44236
| 79>    C       12.02909        19.13172        -1.66650
| 80>    N       13.30275        19.04973        -2.45617
| 81>    O       14.02533        18.10420        -2.27529
| 82>    O       13.49379        19.94165        -3.24338
| 83>    H       -0.27442        -1.56600        -1.05891
| 84>    H       -1.05990        -1.99832         1.64848
| 85>    H       -0.71127        -0.74645         3.63178
| 86>    H       -2.41604        -0.45642         3.30674
| 87>    H       -1.28239         1.63960         3.90844
| 88>    H       -1.87861         1.71688         2.24453
| 89>    H        0.44030         2.61297         2.37601
| 90>    H        2.82265         2.56279         2.00821
| 91>    H        2.96992         4.93900        -2.28420
| 92>    H        1.68999         2.88490        -2.10191
| 93>    H        5.05738         6.42835         0.40425
| 94>    H        3.29725         6.98010        -2.04618
| 95>    H        5.85424         8.18124         1.02123
| 96>    H        7.02267         9.45897         0.64151
| 97>    H        7.09033         6.69490        -0.67647
| 98>    H        8.08201         7.17847         0.70162
| 99>    H        8.27346         7.99344        -0.85518
|100>    H        2.45612        10.23459        -5.85040
|101>    H        3.63068        11.54266        -6.13578
|102>    H        1.22297        11.67895        -4.24542
|103>    H        1.33009        12.44791        -5.83284
|104>    H        2.37432        12.99387        -4.51955
|105>    H        4.80579        12.97441        -4.88662
|106>    H        6.66353        12.65487        -2.45803
|107>    H        5.28476        16.23144        -8.50983
|108>    H        5.66892        17.90590        -8.01985
|109>    H        4.14966        17.13393        -7.48764
|110>    H       10.98119        20.49068        -3.96518
|111>    H       10.30605        15.56486        -1.78186
|112>    H       12.55970        16.41357        -1.49745
|113>    H       11.84643        16.15277         0.09832
|114>    H       13.04365        18.30266         0.03532
|115>    H       11.31584        18.57736         0.26893
|116>    H       11.93713        20.18522        -1.38286
|117> *
|118>
|119>                          ****END OF INPUT****

CARTESIAN COORDINATES (ANGSTROEM)
---------------------------------
  C      0.113080   -0.707500   -0.546550
  S      1.232040    0.323690   -1.320230
  C      1.303110    1.372560    0.063920
  C      0.484650    0.913440    1.069580
  C     -0.204600   -0.274700    0.706620
  C     -1.252640   -0.923710    1.566030
  N     -2.521130   -0.808020    0.772830
  O     -3.271390    0.095630    1.036010
  O     -2.675390   -1.619010   -0.105270
  C     -1.406220   -0.272760    2.936660
  C     -1.156860    1.234770    2.904290
  C      0.253320    1.532870    2.406960
  N      1.254460    0.993920    3.399300
  O      0.921460    0.945570    4.553010
  O      2.327790    0.660270    2.962300
  C      2.099040    2.583330   -0.016660
  C      2.784890    3.100510    1.074850
  C      3.513070    4.277960    0.975120
  N      4.124670    4.717590    2.204640
  O      3.543890    4.424300    3.229050
  O      5.163520    5.343250    2.162160
  C      3.590550    5.000830   -0.232840
  C      2.912340    4.442800   -1.329120
  C      2.195410    3.275690   -1.231450
  C      4.313460    6.244980   -0.351260
  C      4.081240    7.158070   -1.320550
  C      4.714110    8.411510   -1.548530
  N      5.733770    9.044370   -0.875970
  C      6.514070    8.574820    0.245480
  C      7.554970    7.541010   -0.175890
  C      6.043890   10.289700   -1.461290
  O      6.916800   11.025600   -1.043920
  C      5.122670   10.418730   -2.567070
  C      4.327210    9.251280   -2.589460
  C      3.400460    9.351700   -3.696240
  O      2.545100    8.596260   -4.108450
  N      3.703360   10.595510   -4.281020
  C      2.949780   11.102050   -5.403520
  C      1.902500   12.123500   -4.968800
  C      4.721250   11.242020   -3.619890
  C      5.231810   12.502540   -4.013650
  C      6.235750   13.119830   -3.337200
  C      6.783140   14.368570   -3.719060
  C      6.509900   15.230730   -4.762090
  C      5.582830   15.310950   -5.899870
  O      4.716250   14.552470   -6.269430
  N      5.895320   16.503720   -6.536220
  C      5.204500   16.970900   -7.712390
  C      6.932070   17.205170   -5.935670
  O      7.364660   18.261870   -6.332280
  C      7.329200   16.384990   -4.787160
  C      8.261600   16.459140   -3.773090
  S      8.085670   15.038780   -2.759400
  C      9.222510   17.481800   -3.532610
  S      9.281740   18.870780   -4.585560
  C     10.552350   19.550460   -3.678310
  C     10.926040   18.771290   -2.618880
  C     10.181970   17.574570   -2.534490
  C     10.419570   16.598100   -1.435850
  N      9.367440   16.769430   -0.366010
  O      9.550130   16.180370    0.665900
  O      8.421680   17.469990   -0.620750
  C     11.798160   16.766510   -0.802090
  C     12.065860   18.225760   -0.442360
  C     12.029090   19.131720   -1.666500
  N     13.302750   19.049730   -2.456170
  O     14.025330   18.104200   -2.275290
  O     13.493790   19.941650   -3.243380
  H     -0.274420   -1.566000   -1.058910
  H     -1.059900   -1.998320    1.648480
  H     -0.711270   -0.746450    3.631780
  H     -2.416040   -0.456420    3.306740
  H     -1.282390    1.639600    3.908440
  H     -1.878610    1.716880    2.244530
  H      0.440300    2.612970    2.376010
  H      2.822650    2.562790    2.008210
  H      2.969920    4.939000   -2.284200
  H      1.689990    2.884900   -2.101910
  H      5.057380    6.428350    0.404250
  H      3.297250    6.980100   -2.046180
  H      5.854240    8.181240    1.021230
  H      7.022670    9.458970    0.641510
  H      7.090330    6.694900   -0.676470
  H      8.082010    7.178470    0.701620
  H      8.273460    7.993440   -0.855180
  H      2.456120   10.234590   -5.850400
  H      3.630680   11.542660   -6.135780
  H      1.222970   11.678950   -4.245420
  H      1.330090   12.447910   -5.832840
  H      2.374320   12.993870   -4.519550
  H      4.805790   12.974410   -4.886620
  H      6.663530   12.654870   -2.458030
  H      5.284760   16.231440   -8.509830
  H      5.668920   17.905900   -8.019850
  H      4.149660   17.133930   -7.487640
  H     10.981190   20.490680   -3.965180
  H     10.306050   15.564860   -1.781860
  H     12.559700   16.413570   -1.497450
  H     11.846430   16.152770    0.098320
  H     13.043650   18.302660    0.035320
  H     11.315840   18.577360    0.268930
  H     11.937130   20.185220   -1.382860

 Total Charge           Charge          ....    0
 Multiplicity           Mult            ....    1
 Number of Electrons    NEL             ....  508
 Basis Dimension        Dim             .... 1134

ORBITAL ENERGIES
----------------

  NO   OCC          E(Eh)            E(eV)
   0   2.0000     -88.987097     -2421.4620
   1   2.0000     -88.976115     -2421.1632
   2   2.0000     -88.971735     -2421.0440
   3   2.0000     -19.258394      -524.0476
   4   2.0000     -19.256924      -524.0075
   5   2.0000     -19.256177      -523.9872
   6   2.0000     -19.256094      -523.9849
   7   2.0000     -19.253289      -523.9086
   8   2.0000     -19.252767      -523.8944
   9   2.0000     -19.252690      -523.8923
  10   2.0000     -19.252254      -523.8805
  11   2.0000     -19.252192      -523.8788
  12   2.0000     -19.250663      -523.8372
  13   2.0000     -19.223899      -523.1089
  14   2.0000     -19.221011      -523.0303
  15   2.0000     -19.192850      -522.2640
  16   2.0000     -19.191702      -522.2328
  17   2.0000     -14.656180      -398.8149
  18   2.0000     -14.653279      -398.7360
  19   2.0000     -14.650526      -398.6611
  20   2.0000     -14.650478      -398.6598
  21   2.0000     -14.649160      -398.6239
  22   2.0000     -14.466207      -393.6455
  23   2.0000     -14.454057      -393.3149
  24   2.0000     -14.453404      -393.2971
  25   2.0000     -10.405344      -283.1438
  26   2.0000     -10.404052      -283.1086
  27   2.0000     -10.375124      -282.3215
  28   2.0000     -10.374932      -282.3163
  29   2.0000     -10.348250      -281.5902
  30   2.0000     -10.345426      -281.5133
  31   2.0000     -10.345120      -281.5050
  32   2.0000     -10.344811      -281.4966
  33   2.0000     -10.344322      -281.4833
  34   2.0000     -10.342063      -281.4218
  35   2.0000     -10.338889      -281.3355
  36   2.0000     -10.338266      -281.3185
  37   2.0000     -10.337755      -281.3046
  38   2.0000     -10.326696      -281.0037
  39   2.0000     -10.322341      -280.8852
  40   2.0000     -10.318588      -280.7831
  41   2.0000     -10.313025      -280.6317
  42   2.0000     -10.311249      -280.5833
  43   2.0000     -10.310791      -280.5709
  44   2.0000     -10.306998      -280.4677
  45   2.0000     -10.305500      -280.4269
  46   2.0000     -10.304289      -280.3940
  47   2.0000     -10.303700      -280.3779
  48   2.0000     -10.303547      -280.3738
  49   2.0000     -10.303160      -280.3632
  50   2.0000     -10.302842      -280.3546
  51   2.0000     -10.302434      -280.3435
  52   2.0000     -10.301682      -280.3230
  53   2.0000     -10.301503      -280.3181
  54   2.0000     -10.301403      -280.3154
  55   2.0000     -10.300220      -280.2832
  56   2.0000     -10.298072      -280.2248
  57   2.0000     -10.296619      -280.1853
  58   2.0000     -10.295658      -280.1591
  59   2.0000     -10.293829      -280.1093
  60   2.0000     -10.292384      -280.0700
  61   2.0000     -10.292165      -280.0640
  62   2.0000     -10.289198      -279.9833
  63   2.0000     -10.288336      -279.9598
  64   2.0000     -10.263344      -279.2798
  65   2.0000     -10.262125      -279.2466
  66   2.0000     -10.258608      -279.1509
  67   2.0000     -10.258027      -279.1351
  68   2.0000      -8.081836      -219.9179
  69   2.0000      -8.071981      -219.6498
  70   2.0000      -8.066583      -219.5029
  71   2.0000      -6.051272      -164.6635
  72   2.0000      -6.046843      -164.5430
  73   2.0000      -6.043929      -164.4637
  74   2.0000      -6.041136      -164.3877
  75   2.0000      -6.036801      -164.2697
  76   2.0000      -6.035827      -164.2432
  77   2.0000      -6.034505      -164.2072
  78   2.0000      -6.031224      -164.1179
  79   2.0000      -6.029024      -164.0581
  80   2.0000      -1.338804       -36.4307
  81   2.0000      -1.335801       -36.3490
  82   2.0000      -1.335592       -36.3433
  83   2.0000      -1.334515       -36.3140
  84   2.0000      -1.331697       -36.2373
  85   2.0000      -1.169185       -31.8151
  86   2.0000      -1.160603       -31.5816
  87   2.0000      -1.157358       -31.4933
  88   2.0000      -1.157198       -31.4890
  89   2.0000      -1.156192       -31.4616
  90   2.0000      -1.150208       -31.2988
  91   2.0000      -1.145524       -31.1713
  92   2.0000      -1.134113       -30.8608
  93   2.0000      -1.127442       -30.6793
  94   2.0000      -1.064010       -28.9532
  95   2.0000      -1.060041       -28.8452
  96   2.0000      -1.054830       -28.7034
  97   2.0000      -1.022448       -27.8222
  98   2.0000      -1.019109       -27.7314
  99   2.0000      -1.003868       -27.3166
 100   2.0000      -0.995117       -27.0785
 101   2.0000      -0.961327       -26.1590
 102   2.0000      -0.959709       -26.1150
 103   2.0000      -0.936096       -25.4725
 104   2.0000      -0.935204       -25.4482
 105   2.0000      -0.929148       -25.2834
 106   2.0000      -0.920203       -25.0400
 107   2.0000      -0.917516       -24.9669
 108   2.0000      -0.909958       -24.7612
 109   2.0000      -0.900326       -24.4991
 110   2.0000      -0.880241       -23.9526
 111   2.0000      -0.870106       -23.6768
 112   2.0000      -0.864734       -23.5306
 113   2.0000      -0.851687       -23.1756
 114   2.0000      -0.851182       -23.1618
 115   2.0000      -0.829039       -22.5593
 116   2.0000      -0.824134       -22.4258
 117   2.0000      -0.823124       -22.3983
 118   2.0000      -0.819534       -22.3006
 119   2.0000      -0.817790       -22.2532
 120   2.0000      -0.806733       -21.9523
 121   2.0000      -0.805710       -21.9245
 122   2.0000      -0.790036       -21.4980
 123   2.0000      -0.774474       -21.0745
 124   2.0000      -0.757745       -20.6193
 125   2.0000      -0.753852       -20.5134
 126   2.0000      -0.749705       -20.4005
 127   2.0000      -0.749476       -20.3943
 128   2.0000      -0.739202       -20.1147
 129   2.0000      -0.717332       -19.5196
 130   2.0000      -0.711508       -19.3611
 131   2.0000      -0.707197       -19.2438
 132   2.0000      -0.704987       -19.1837
 133   2.0000      -0.696595       -18.9553
 134   2.0000      -0.691232       -18.8094
 135   2.0000      -0.690925       -18.8010
 136   2.0000      -0.689969       -18.7750
 137   2.0000      -0.684274       -18.6201
 138   2.0000      -0.681499       -18.5445
 139   2.0000      -0.678257       -18.4563
 140   2.0000      -0.667601       -18.1663
 141   2.0000      -0.657553       -17.8929
 142   2.0000      -0.653152       -17.7732
 143   2.0000      -0.649627       -17.6773
 144   2.0000      -0.649317       -17.6688
 145   2.0000      -0.647806       -17.6277
 146   2.0000      -0.646062       -17.5803
 147   2.0000      -0.644202       -17.5296
 148   2.0000      -0.639347       -17.3975
 149   2.0000      -0.638998       -17.3880
 150   2.0000      -0.637969       -17.3600
 151   2.0000      -0.630289       -17.1510
 152   2.0000      -0.622590       -16.9415
 153   2.0000      -0.615893       -16.7593
 154   2.0000      -0.606911       -16.5149
 155   2.0000      -0.604476       -16.4486
 156   2.0000      -0.602006       -16.3814
 157   2.0000      -0.599912       -16.3244
 158   2.0000      -0.599247       -16.3063
 159   2.0000      -0.596974       -16.2445
 160   2.0000      -0.593185       -16.1414
 161   2.0000      -0.589493       -16.0409
 162   2.0000      -0.588823       -16.0227
 163   2.0000      -0.587981       -15.9998
 164   2.0000      -0.584937       -15.9170
 165   2.0000      -0.581105       -15.8127
 166   2.0000      -0.575168       -15.6511
 167   2.0000      -0.573012       -15.5925
 168   2.0000      -0.570852       -15.5337
 169   2.0000      -0.564500       -15.3608
 170   2.0000      -0.563444       -15.3321
 171   2.0000      -0.557724       -15.1764
 172   2.0000      -0.551134       -14.9971
 173   2.0000      -0.544530       -14.8174
 174   2.0000      -0.542547       -14.7634
 175   2.0000      -0.540335       -14.7033
 176   2.0000      -0.538673       -14.6581
 177   2.0000      -0.538071       -14.6416
 178   2.0000      -0.533239       -14.5102
 179   2.0000      -0.528750       -14.3880
 180   2.0000      -0.528126       -14.3710
 181   2.0000      -0.527285       -14.3482
 182   2.0000      -0.522944       -14.2300
 183   2.0000      -0.522498       -14.2179
 184   2.0000      -0.520758       -14.1706
 185   2.0000      -0.519083       -14.1250
 186   2.0000      -0.515629       -14.0310
 187   2.0000      -0.511909       -13.9297
 188   2.0000      -0.510309       -13.8862
 189   2.0000      -0.506935       -13.7944
 190   2.0000      -0.503688       -13.7060
 191   2.0000      -0.502315       -13.6687
 192   2.0000      -0.497806       -13.5460
 193   2.0000      -0.495179       -13.4745
 194   2.0000      -0.492707       -13.4072
 195   2.0000      -0.487152       -13.2561
 196   2.0000      -0.485690       -13.2163
 197   2.0000      -0.484635       -13.1876
 198   2.0000      -0.479292       -13.0422
 199   2.0000      -0.478962       -13.0332
 200   2.0000      -0.475393       -12.9361
 201   2.0000      -0.473312       -12.8795
 202   2.0000      -0.467708       -12.7270
 203   2.0000      -0.464669       -12.6443
 204   2.0000      -0.464454       -12.6384
 205   2.0000      -0.461767       -12.5653
 206   2.0000      -0.460130       -12.5208
 207   2.0000      -0.458114       -12.4659
 208   2.0000      -0.456798       -12.4301
 209   2.0000      -0.450851       -12.2683
 210   2.0000      -0.448910       -12.2155
 211   2.0000      -0.444670       -12.1001
 212   2.0000      -0.439279       -11.9534
 213   2.0000      -0.437920       -11.9164
 214   2.0000      -0.437690       -11.9101
 215   2.0000      -0.435747       -11.8573
 216   2.0000      -0.434523       -11.8240
 217   2.0000      -0.428818       -11.6687
 218   2.0000      -0.427796       -11.6409
 219   2.0000      -0.423265       -11.5176
 220   2.0000      -0.422045       -11.4844
 221   2.0000      -0.419095       -11.4041
 222   2.0000      -0.401542       -10.9265
 223   2.0000      -0.398192       -10.8354
 224   2.0000      -0.396849       -10.7988
 225   2.0000      -0.394376       -10.7315
 226   2.0000      -0.394298       -10.7294
 227   2.0000      -0.393013       -10.6944
 228   2.0000      -0.392266       -10.6741
 229   2.0000      -0.392195       -10.6722
 230   2.0000      -0.390285       -10.6202
 231   2.0000      -0.389428       -10.5969
 232   2.0000      -0.386295       -10.5116
 233   2.0000      -0.383858       -10.4453
 234   2.0000      -0.382259       -10.4018
 235   2.0000      -0.380313       -10.3489
 236   2.0000      -0.379677       -10.3315
 237   2.0000      -0.377053       -10.2601
 238   2.0000      -0.376192       -10.2367
 239   2.0000      -0.370780       -10.0894
 240   2.0000      -0.364355        -9.9146
 241   2.0000      -0.352104        -9.5812
 242   2.0000      -0.349750        -9.5172
 243   2.0000      -0.348658        -9.4875
 244   2.0000      -0.342394        -9.3170
 245   2.0000      -0.340432        -9.2636
 246   2.0000      -0.337246        -9.1769
 247   2.0000      -0.334417        -9.0999
 248   2.0000      -0.332775        -9.0553
 249   2.0000      -0.330478        -8.9928
 250   2.0000      -0.316090        -8.6012
 251   2.0000      -0.298980        -8.1356
 252   2.0000      -0.285400        -7.7661
 253   2.0000      -0.238343        -6.4856
 254   0.0000      -0.099574        -2.7095
 255   0.0000      -0.061614        -1.6766
 256   0.0000      -0.054110        -1.4724
 257   0.0000      -0.040003        -1.0885
 258   0.0000      -0.028822        -0.7843

MULLIKEN ATOMIC CHARGES
-----------------------
   0 C :   -0.099556
   1 S :    0.155123
   2 C :   -0.138306
   3 C :    0.041722
   4 C :   -0.058370
   5 C :    0.120977
   6 N :    0.204151
   7 O :   -0.222049
   8 O :   -0.228131
   9 C :    0.061766
  10 C :    0.075560
  11 C :    0.042060
  12 N :    0.207705
  13 O :   -0.210247
  14 O :   -0.208297
  15 C :    0.068471
  16 C :   -0.074161
  17 C :    0.134338
  18 N :    0.251431
  19 O :   -0.226496
  20 O :   -0.231216
  21 C :    0.080996
  22 C :   -0.042562
  23 C :    0.019544
  24 C :   -0.043187
  25 C :   -0.018899
  26 C :    0.107537
  27 N :   -0.263930
  28 C :    0.097814
  29 C :    0.007172
  30 C :    0.165952
  31 O :   -0.214267
  32 C :   -0.061358
  33 C :   -0.042564
  34 C :    0.155143
  35 O :   -0.197753
  36 N :   -0.263852
  37 C :    0.099945
  38 C :    0.011274
  39 C :    0.135457
  40 C :   -0.028743
  41 C :    0.068246
  42 C :   -0.131222
  43 C :    0.011221
  44 C :    0.204078
  45 O :   -0.180319
  46 N :   -0.300551
  47 C :    0.139087
  48 C :    0.196567
  49 O :   -0.171153
  50 C :   -0.041265
  51 C :   -0.088357
  52 S :    0.144958
  53 C :   -0.125094
  54 S :    0.209994
  55 C :   -0.074937
  56 C :   -0.047820
  57 C :   -0.001761
  58 C :    0.028689
  59 N :    0.198388
  60 O :   -0.218658
  61 O :   -0.208174
  62 C :    0.064744
  63 C :    0.072201
  64 C :    0.104013
  65 N :    0.210613
  66 O :   -0.222755
  67 O :   -0.226754
  68 H :    0.040022
  69 H :    0.043015
  70 H :    0.030535
  71 H :    0.033097
  72 H :    0.035527
  73 H :    0.042937
  74 H :    0.063749
  75 H :   -0.002763
  76 H :    0.003888
  77 H :   -0.003873
  78 H :    0.016714
  79 H :    0.007750
  80 H :    0.034453
  81 H :    0.042118
  82 H :    0.020962
  83 H :    0.027322
  84 H :    0.022100
  85 H :    0.038735
  86 H :    0.035304
  87 H :    0.023555
  88 H :    0.022722
  89 H :    0.018863
  90 H :   -0.006410
  91 H :   -0.001212
  92 H :    0.041115
  93 H :    0.054901
  94 H :    0.040627
  95 H :    0.034408
  96 H :    0.065541
  97 H :    0.043116
  98 H :    0.041936
  99 H :    0.032212
 100 H :    0.029014
 101 H :    0.043847
Sum of atomic charges:   -0.0000000

LOEWDIN ATOMIC CHARGES
----------------------
   0 C :   -0.171087
   1 S :    0.478426
   2 C :   -0.154165
   3 C :   -0.069977
   4 C :   -0.079736
   5 C :    0.020806
   6 N :    0.275289
   7 O :   -0.188823
   8 O :   -0.197810
   9 C :   -0.033109
  10 C :   -0.026589
  11 C :    0.013427
  12 N :    0.269913
  13 O :   -0.180165
  14 O :   -0.185627
  15 C :   -0.040892
  16 C :    0.002757
  17 C :   -0.023975
  18 N :    0.288235
  19 O :   -0.193347
  20 O :   -0.198579
  21 C :   -0.004380
  22 C :    0.000426
  23 C :    0.002147
  24 C :   -0.019006
  25 C :   -0.014356
  26 C :    0.067156
  27 N :   -0.000154
  28 C :    0.036101
  29 C :   -0.061068
  30 C :    0.082563
  31 O :   -0.201327
  32 C :   -0.123761
  33 C :   -0.108485
  34 C :    0.079586
  35 O :   -0.198065
  36 N :   -0.000450
  37 C :    0.037426
  38 C :   -0.058529
  39 C :    0.080847
  40 C :   -0.023181
  41 C :   -0.002653
  42 C :   -0.133960
  43 C :   -0.089096
  44 C :    0.095310
  45 O :   -0.167195
  46 N :   -0.033197
  47 C :    0.037599
  48 C :    0.085377
  49 O :   -0.169142
  50 C :   -0.104873
  51 C :   -0.136170
  52 S :    0.482897
  53 C :   -0.186004
  54 S :    0.535347
  55 C :   -0.166223
  56 C :   -0.083761
  57 C :   -0.066277
  58 C :   -0.000804
  59 N :    0.262830
  60 O :   -0.190221
  61 O :   -0.188864
  62 C :   -0.025411
  63 C :   -0.030984
  64 C :    0.019346
  65 N :    0.274454
  66 O :   -0.188796
  67 O :   -0.195655
  68 H :    0.030607
  69 H :    0.047256
  70 H :    0.034157
  71 H :    0.040477
  72 H :    0.037757
  73 H :    0.037119
  74 H :    0.054328
  75 H :    0.029591
  76 H :    0.040116
  77 H :    0.029622
  78 H :    0.026972
  79 H :    0.042319
  80 H :    0.025411
  81 H :    0.037389
  82 H :    0.022370
  83 H :    0.033942
  84 H :    0.029721
  85 H :    0.036140
  86 H :    0.028429
  87 H :    0.029234
  88 H :    0.031579
  89 H :    0.023950
  90 H :    0.031864
  91 H :    0.035999
  92 H :    0.033630
  93 H :    0.038726
  94 H :    0.033349
  95 H :    0.030675
  96 H :    0.035561
  97 H :    0.035948
  98 H :    0.038389
  99 H :    0.040038
 100 H :    0.036779
 101 H :    0.048216

  Mayer bond orders larger than 0.100000
B(  0-C ,  1-S ) :   1.1746 B(  0-C ,  4-C ) :   1.5824 B(  0-C , 68-H ) :   0.9622
B(  1-S ,  2-C ) :   1.1646 B(  2-C ,  3-C ) :   1.5490 B(  2-C , 15-C ) :   1.0181
B(  3-C ,  4-C ) :   1.2961 B(  3-C , 11-C ) :   0.9982 B(  4-C ,  5-C ) :   0.9877
B(  5-C ,  6-N ) :   0.8310 B(  5-C ,  9-C ) :   1.0545 B(  5-C , 69-H ) :   0.9067
B(  6-N ,  7-O ) :   1.5943 B(  6-N ,  8-O ) :   1.5646 B(  7-O ,  8-O ) :   0.2657
B(  9-C , 10-C ) :   1.0436 B(  9-C , 70-H ) :   0.9262 B(  9-C , 71-H ) :   0.9280
B( 10-C , 11-C ) :   1.0805 B( 10-C , 72-H ) :   0.9113 B( 10-C , 73-H ) :   0.9353
B( 11-C , 12-N ) :   0.8190 B( 11-C , 74-H ) :   0.8815 B( 12-N , 13-O ) :   1.5780
B( 12-N , 14-O ) :   1.5773 B( 13-O , 14-O ) :   0.2624 B( 15-C , 16-C ) :   1.3455
B( 15-C , 23-C ) :   1.3126 B( 16-C , 17-C ) :   1.3514 B( 16-C , 75-H ) :   0.9803
B( 17-C , 18-N ) :   0.8804 B( 17-C , 21-C ) :   1.3577 B( 18-N , 19-O ) :   1.5565
B( 18-N , 20-O ) :   1.5153 B( 19-O , 20-O ) :   0.2640 B( 21-C , 22-C ) :   1.3195
B( 21-C , 24-C ) :   1.0718 B( 22-C , 23-C ) :   1.4260 B( 22-C , 76-H ) :   0.9898
B( 23-C , 77-H ) :   0.9881 B( 24-C , 25-C ) :   1.5926 B( 24-C , 78-H ) :   0.9711
B( 25-C , 26-C ) :   1.1711 B( 25-C , 79-H ) :   0.9454 B( 26-C , 27-N ) :   1.1684
B( 26-C , 33-C ) :   1.3542 B( 27-N , 28-C ) :   0.9363 B( 27-N , 30-C ) :   1.0639
B( 28-C , 29-C ) :   1.1169 B( 28-C , 80-H ) :   0.9508 B( 28-C , 81-H ) :   0.9236
B( 29-C , 82-H ) :   0.9681 B( 29-C , 83-H ) :   0.9683 B( 29-C , 84-H ) :   0.9617
B( 30-C , 31-O ) :   2.0143 B( 30-C , 32-C ) :   0.9893 B( 31-O , 91-H ) :   0.1147
B( 32-C , 33-C ) :   1.2468 B( 32-C , 39-C ) :   1.3208 B( 33-C , 34-C ) :   0.9717
B( 34-C , 35-O ) :   2.1211 B( 34-C , 36-N ) :   1.0425 B( 36-N , 37-C ) :   0.9392
B( 36-N , 39-C ) :   1.1700 B( 37-C , 38-C ) :   1.1240 B( 37-C , 85-H ) :   0.9282
B( 37-C , 86-H ) :   0.9479 B( 38-C , 87-H ) :   0.9642 B( 38-C , 88-H ) :   0.9676
B( 38-C , 89-H ) :   0.9672 B( 39-C , 40-C ) :   1.1641 B( 40-C , 41-C ) :   1.6029
B( 40-C , 90-H ) :   0.9426 B( 41-C , 42-C ) :   1.1434 B( 41-C , 91-H ) :   0.9336
B( 42-C , 43-C ) :   1.4784 B( 42-C , 52-S ) :   1.1272 B( 43-C , 44-C ) :   0.9083
B( 43-C , 50-C ) :   1.2660 B( 44-C , 45-O ) :   2.0948 B( 44-C , 46-N ) :   1.0949
B( 46-N , 47-C ) :   0.9395 B( 46-N , 48-C ) :   1.0826 B( 47-C , 92-H ) :   0.9748
B( 47-C , 93-H ) :   0.9599 B( 47-C , 94-H ) :   0.9762 B( 48-C , 49-O ) :   2.1388
B( 48-C , 50-C ) :   0.9042 B( 50-C , 51-C ) :   1.5141 B( 51-C , 52-S ) :   1.1249
B( 51-C , 53-C ) :   1.1655 B( 53-C , 54-S ) :   1.1734 B( 53-C , 57-C ) :   1.4703
B( 54-S , 55-C ) :   1.1813 B( 55-C , 56-C ) :   1.5452 B( 55-C , 95-H ) :   0.9630
B( 56-C , 57-C ) :   1.3445 B( 56-C , 64-C ) :   0.9801 B( 57-C , 58-C ) :   0.9789
B( 58-C , 59-N ) :   0.8188 B( 58-C , 62-C ) :   1.0784 B( 58-C , 96-H ) :   0.8832
B( 59-N , 60-O ) :   1.5654 B( 59-N , 61-O ) :   1.6126 B( 60-O , 61-O ) :   0.2721
B( 62-C , 63-C ) :   1.0396 B( 62-C , 97-H ) :   0.9362 B( 62-C , 98-H ) :   0.9164
B( 63-C , 64-C ) :   1.0608 B( 63-C , 99-H ) :   0.9264 B( 63-C ,100-H ) :   0.9289
B( 64-C , 65-N ) :   0.8296 B( 64-C ,101-H ) :   0.9107 B( 65-N , 66-O ) :   1.5911
B( 65-N , 67-O ) :   1.5727 B( 66-O , 67-O ) :   0.2669

-----------------------------------------------------------------------------
         ABSORPTION SPECTRUM VIA TRANSITION ELECTRIC DIPOLE MOMENTS
-----------------------------------------------------------------------------
State   Energy  Wavelength   fosc         T2         TX        TY        TZ
        (cm-1)    (nm)                  (au**2)     (au)      (au)      (au)
-----------------------------------------------------------------------------
   0   14752.8    677.8   0.986791908  22.02041  -1.01466  -4.08027   2.08380
   1   22893.1    436.8   0.038009879   0.54660   0.00458  -0.47849   0.56358
   2   25265.5    395.8   0.336844443   4.38911   1.22439   1.69605   0.11575
   3   26049.0    383.9   0.028154792   0.35583   0.34841   0.47697  -0.08328
   4   26241.7    381.1   0.193576983   2.42850  -1.17241  -0.77829  -0.66949
   5   27841.2    359.2   0.045625350   0.53950  -0.48887  -0.52800   0.14739
   6   28246.5    354.0   0.001186973   0.01383   0.09284  -0.07221  -0.00135
   7   29211.3    342.3   0.382672989   4.31273  -0.76741  -1.82782   0.61876
   8   31932.6    313.2   0.000201186   0.00207  -0.01873  -0.03781   0.01713
   9   32117.8    311.4   0.012892627   0.13215  -0.24900  -0.20953  -0.16201
  10   32960.1    303.4   0.026569601   0.26538  -0.12340  -0.45852   0.19978
  11   33021.5    302.8   0.625837165   6.23937   1.76128   1.61617   0.72474
  12   34271.6    291.8   0.121597763   1.16806   0.67148   0.84644   0.02657
  13   34605.9    289.0   0.014464999   0.13761  -0.17908   0.15924  -0.28316
  14   34660.4    288.5   0.025365764   0.24093   0.13576   0.40215  -0.24652
  15   35435.7    282.2   0.053294965   0.49513   0.07331  -0.54459   0.43952
  16   35748.4    279.7   0.001139290   0.01049  -0.07451  -0.02681   0.06497
  17   36305.0    275.4   0.062147058   0.56355  -0.39888  -0.60862  -0.18445
  18   36496.5    274.0   0.059988597   0.54112  -0.47500  -0.54704   0.12745
  19   37004.0    270.2   0.067544110   0.60092  -0.40625  -0.56180  -0.34679
  20   37056.6    269.9   0.121183390   1.07660  -0.46318  -0.21594  -0.90301
  21   37379.0    267.5   0.026378631   0.23233   0.14852   0.45701  -0.03754
  22   37407.2    267.3   0.090295982   0.79467  -0.58944  -0.14065  -0.65380
  23   37983.9    263.3   0.000620999   0.00538   0.00220  -0.05232   0.05139
  24   38379.0    260.6   0.002397090   0.02056  -0.09054   0.05535   0.09644
  25   38819.4    257.6   0.058992126   0.50029   0.53656   0.18534   0.42195
  26   39203.3    255.1   0.036699614   0.30819  -0.26919  -0.44926  -0.18410
  27   39821.0    251.1   0.010735859   0.08876   0.14765   0.25003  -0.06662
  28   40114.7    249.3   0.011463441   0.09408  -0.25885  -0.12717  -0.10442

FINAL SINGLE POINT ENERGY     -4340.234638820043

DIPOLE MOMENT
-------------
                                X             Y             Z
Electronic contribution:     10.91281       8.61738      -1.21958
Nuclear contribution   :    -11.17696      -8.42532      -0.04116
                        -----------------------------------------
Total Dipole Moment    :     -0.26415       0.19206      -1.26075
                        -----------------------------------------
Magnitude (a.u.)       :      1.30236
Magnitude (Debye)      :      3.31034

Rotational constants in cm-1:     0.002423     0.000252     0.000234
Rotational constants in MHz :    72.648302     7.542054     7.008413

                             ****ORCA TERMINATED NORMALLY****
TOTAL RUN TIME: 0 days 0 hours 8 minutes 15 seconds 639 msec
