                         Program Version 4.2.0 -  RELEASE  -
|  1> # ORCA input file
|  2> # SCF done       -217.887661595866          0.000413332786
|  3> ! CAM-B3LYP def2-SVP def2/J RIJCOSX Grid4 TightSCF
|  4> %maxcore 5000
|  5> %tddft
|  6>     Mode sTDDFT
|  7>     Ethresh 5.0
|  8>     maxcore 5000
|  9> end
| 10>
| 11> %pal
| 12>   nprocs 6
| 13>   end
| 14> * xyz 0 1
| 15>    C       -3.33592         2.86771         2.73759
| 16>    C       -3.29306         3.57388         3.90681
| 17>    F       -3.12196         4.90183         3.88527
| 18>    C       -3.42795         2.91764         5.14721
| 19>    F       -3.38316         3.63615         6.27664
| 20>    C       -3.60337         1.56328         5.20098
| 21>    C       -3.65202         0.80775         4.01332
| 22>    C       -3.51546         1.46973         2.75841
| 23>    C       -3.55801         0.73232         1.55317
| 24>    C       -3.73066        -0.62649         1.60138
| 25>    C       -3.87223        -1.27609         2.85769
| 26>    C       -3.83559        -0.59226         4.03862
| 27>    C       -4.05732        -2.72461         2.65013
| 28>    O       -4.22548        -3.54892         3.52234
| 29>    C       -4.05494        -2.92196         1.17915
| 30>    C       -3.80055        -1.63607         0.54951
| 31>    C       -3.58138        -1.39978        -0.78287
| 32>    C       -3.54603        -2.37549        -1.80199
| 33>    N       -3.47908        -3.10658        -2.68537
| 34>    C       -3.32070        -0.12243        -1.32414
| 35>    N       -3.11134         0.88677        -1.82917
| 36>    C       -4.36969        -4.06080         0.48806
| 37>    C       -4.54025        -5.38781         0.92923
| 38>    C       -4.24848        -6.02193         2.13203
| 39>    C       -4.53147        -7.37914         2.08851
| 40>    C       -5.05392        -7.80050         0.84405
| 41>    S       -5.17153        -6.52649        -0.27126
| 42>    C       -5.32008        -9.19024         0.91068
| 43>    C       -4.95958        -9.64957         2.19475
| 44>    C       -4.44690        -8.53270         2.97143
| 45>    C       -3.96917        -8.57115         4.24748
| 46>    C       -3.94421        -9.76605         4.99976
| 47>    N       -3.92149       -10.73102         5.61828
| 48>    C       -3.44347        -7.43922         4.90894
| 49>    N       -2.99316        -6.54527         5.46694
| 50>    C       -5.17343       -11.01631         2.35502
| 51>    C       -5.69265       -11.58244         1.20556
| 52>    S       -5.92521       -10.43364        -0.09114
| 53>    C       -6.03170       -12.94827         0.97421
| 54>    N       -6.53607       -13.25901        -0.21105
| 55>    N       -6.86906       -14.46469        -0.54422
| 56>    C       -6.72861       -15.50437         0.26532
| 57>    C       -6.20019       -15.30744         1.57324
| 58>    C       -5.84204       -13.97276         1.94522
| 59>    N       -5.36692       -13.91064         3.18577
| 60>    S       -5.37281       -15.38783         3.81849
| 61>    N       -5.97473       -16.17658         2.55424
| 62>    C       -7.11939       -16.78224        -0.23249
| 63>    C       -7.01409       -18.00952         0.39552
| 64>    C       -7.49281       -19.03566        -0.41479
| 65>    C       -7.96738       -18.57015        -1.65855
| 66>    S       -7.81545       -16.87926        -1.83321
| 67>    C       -8.44238       -19.68356        -2.39554
| 68>    C       -8.25365       -20.85103        -1.62906
| 69>    C       -7.65125       -20.47947        -0.35831
| 70>    C       -7.30384       -21.30863         0.66662
| 71>    C       -7.48930       -22.70633         0.59858
| 72>    N       -7.62777       -23.84288         0.54481
| 73>    C       -6.72454       -20.82665         1.86039
| 74>    N       -6.25000       -20.44284         2.83064
| 75>    C       -8.68211       -22.00049        -2.28317
| 76>    C       -9.24076       -21.72257        -3.52188
| 77>    S       -9.16920       -20.00214        -3.89965
| 78>    C       -9.73426       -22.68360        -4.43538
| 79>    C      -10.58023       -22.52538        -5.48856
| 80>    C      -10.59736       -23.54883        -6.57295
| 81>    O      -10.09795       -24.64802        -6.53664
| 82>    C      -11.29264       -22.89940        -7.70275
| 83>    C      -11.47568       -23.35872        -8.97525
| 84>    C      -12.16303       -22.54755        -9.90584
| 85>    C      -12.64143       -21.26738        -9.50016
| 86>    C      -13.32062       -20.46137       -10.43580
| 87>    C      -13.51997       -20.90685       -11.71232
| 88>    C      -13.04859       -22.17398       -12.11189
| 89>    C      -12.38398       -22.97795       -11.22873
| 90>    F      -13.25760       -22.58405       -13.36936
| 91>    F      -14.16727       -20.14086       -12.59906
| 92>    C      -12.44235       -20.82038        -8.17399
| 93>    C      -11.78488       -21.62907        -7.28636
| 94>    C      -11.48403       -21.45979        -5.86764
| 95>    C      -12.16441       -20.63488        -5.01086
| 96>    C      -12.05345       -20.71548        -3.60750
| 97>    N      -12.01519       -20.78469        -2.46232
| 98>    C      -13.11805       -19.68533        -5.43086
| 99>    N      -13.88930       -18.88890        -5.72691
|100>    H       -3.22952         3.38561         1.79716
|101>    H       -3.70476         1.07532         6.15769
|102>    H       -3.45658         1.26488         0.62166
|103>    H       -3.94320        -1.11477         4.97694
|104>    H       -4.52604        -3.94579        -0.57838
|105>    H       -3.85865        -5.49639         2.98464
|106>    H       -4.97261       -11.59168         3.24059
|107>    H       -6.60906       -18.11764         1.38544
|108>    H       -8.63243       -22.99717        -1.88320
|109>    H       -9.32268       -23.68283        -4.32233
|110>    H      -11.10357       -24.32875        -9.26767
|111>    H      -13.69170       -19.49096       -10.14526
|112>    H      -12.02967       -23.94482       -11.55016
|113>    H      -12.80713       -19.84493        -7.89383
|114> *
|115>
|116>                          ****END OF INPUT****

CARTESIAN COORDINATES (ANGSTROEM)
---------------------------------
  C     -3.335920    2.867710    2.737590
  C     -3.293060    3.573880    3.906810
  F     -3.121960    4.901830    3.885270
  C     -3.427950    2.917640    5.147210
  F     -3.383160    3.636150    6.276640
  C     -3.603370    1.563280    5.200980
  C     -3.652020    0.807750    4.013320
  C     -3.515460    1.469730    2.758410
  C     -3.558010    0.732320    1.553170
  C     -3.730660   -0.626490    1.601380
  C     -3.872230   -1.276090    2.857690
  C     -3.835590   -0.592260    4.038620
  C     -4.057320   -2.724610    2.650130
  O     -4.225480   -3.548920    3.522340
  C     -4.054940   -2.921960    1.179150
  C     -3.800550   -1.636070    0.549510
  C     -3.581380   -1.399780   -0.782870
  C     -3.546030   -2.375490   -1.801990
  N     -3.479080   -3.106580   -2.685370
  C     -3.320700   -0.122430   -1.324140
  N     -3.111340    0.886770   -1.829170
  C     -4.369690   -4.060800    0.488060
  C     -4.540250   -5.387810    0.929230
  C     -4.248480   -6.021930    2.132030
  C     -4.531470   -7.379140    2.088510
  C     -5.053920   -7.800500    0.844050
  S     -5.171530   -6.526490   -0.271260
  C     -5.320080   -9.190240    0.910680
  C     -4.959580   -9.649570    2.194750
  C     -4.446900   -8.532700    2.971430
  C     -3.969170   -8.571150    4.247480
  C     -3.944210   -9.766050    4.999760
  N     -3.921490  -10.731020    5.618280
  C     -3.443470   -7.439220    4.908940
  N     -2.993160   -6.545270    5.466940
  C     -5.173430  -11.016310    2.355020
  C     -5.692650  -11.582440    1.205560
  S     -5.925210  -10.433640   -0.091140
  C     -6.031700  -12.948270    0.974210
  N     -6.536070  -13.259010   -0.211050
  N     -6.869060  -14.464690   -0.544220
  C     -6.728610  -15.504370    0.265320
  C     -6.200190  -15.307440    1.573240
  C     -5.842040  -13.972760    1.945220
  N     -5.366920  -13.910640    3.185770
  S     -5.372810  -15.387830    3.818490
  N     -5.974730  -16.176580    2.554240
  C     -7.119390  -16.782240   -0.232490
  C     -7.014090  -18.009520    0.395520
  C     -7.492810  -19.035660   -0.414790
  C     -7.967380  -18.570150   -1.658550
  S     -7.815450  -16.879260   -1.833210
  C     -8.442380  -19.683560   -2.395540
  C     -8.253650  -20.851030   -1.629060
  C     -7.651250  -20.479470   -0.358310
  C     -7.303840  -21.308630    0.666620
  C     -7.489300  -22.706330    0.598580
  N     -7.627770  -23.842880    0.544810
  C     -6.724540  -20.826650    1.860390
  N     -6.250000  -20.442840    2.830640
  C     -8.682110  -22.000490   -2.283170
  C     -9.240760  -21.722570   -3.521880
  S     -9.169200  -20.002140   -3.899650
  C     -9.734260  -22.683600   -4.435380
  C    -10.580230  -22.525380   -5.488560
  C    -10.597360  -23.548830   -6.572950
  O    -10.097950  -24.648020   -6.536640
  C    -11.292640  -22.899400   -7.702750
  C    -11.475680  -23.358720   -8.975250
  C    -12.163030  -22.547550   -9.905840
  C    -12.641430  -21.267380   -9.500160
  C    -13.320620  -20.461370  -10.435800
  C    -13.519970  -20.906850  -11.712320
  C    -13.048590  -22.173980  -12.111890
  C    -12.383980  -22.977950  -11.228730
  F    -13.257600  -22.584050  -13.369360
  F    -14.167270  -20.140860  -12.599060
  C    -12.442350  -20.820380   -8.173990
  C    -11.784880  -21.629070   -7.286360
  C    -11.484030  -21.459790   -5.867640
  C    -12.164410  -20.634880   -5.010860
  C    -12.053450  -20.715480   -3.607500
  N    -12.015190  -20.784690   -2.462320
  C    -13.118050  -19.685330   -5.430860
  N    -13.889300  -18.888900   -5.726910
  H     -3.229520    3.385610    1.797160
  H     -3.704760    1.075320    6.157690
  H     -3.456580    1.264880    0.621660
  H     -3.943200   -1.114770    4.976940
  H     -4.526040   -3.945790   -0.578380
  H     -3.858650   -5.496390    2.984640
  H     -4.972610  -11.591680    3.240590
  H     -6.609060  -18.117640    1.385440
  H     -8.632430  -22.997170   -1.883200
  H     -9.322680  -23.682830   -4.322330
  H    -11.103570  -24.328750   -9.267670
  H    -13.691700  -19.490960  -10.145260
  H    -12.029670  -23.944820  -11.550160
  H    -12.807130  -19.844930   -7.893830

 Total Charge           Charge          ....    0
 Multiplicity           Mult            ....    1
 Number of Electrons    NEL             ....  602
 Basis Dimension        Dim             .... 1280

ORBITAL ENERGIES
----------------

  NO   OCC          E(Eh)            E(eV)
   0   2.0000     -89.063347     -2423.5369
   1   2.0000     -89.004150     -2421.9260
   2   2.0000     -89.003374     -2421.9049
   3   2.0000     -89.000582     -2421.8290
   4   2.0000     -89.000331     -2421.8221
   5   2.0000     -24.803145      -674.9279
   6   2.0000     -24.802666      -674.9149
   7   2.0000     -24.800303      -674.8506
   8   2.0000     -24.799610      -674.8317
   9   2.0000     -19.224890      -523.1359
  10   2.0000     -19.223820      -523.1067
  11   2.0000     -14.477837      -393.9620
  12   2.0000     -14.477753      -393.9597
  13   2.0000     -14.465938      -393.6382
  14   2.0000     -14.465485      -393.6259
  15   2.0000     -14.437949      -392.8766
  16   2.0000     -14.437880      -392.8747
  17   2.0000     -14.437522      -392.8650
  18   2.0000     -14.434515      -392.7831
  19   2.0000     -14.425306      -392.5325
  20   2.0000     -14.424449      -392.5092
  21   2.0000     -14.422919      -392.4676
  22   2.0000     -14.419743      -392.3811
  23   2.0000     -10.386780      -282.6386
  24   2.0000     -10.386437      -282.6293
  25   2.0000     -10.383859      -282.5592
  26   2.0000     -10.383157      -282.5401
  27   2.0000     -10.376423      -282.3568
  28   2.0000     -10.375787      -282.3395
  29   2.0000     -10.374338      -282.3001
  30   2.0000     -10.373893      -282.2880
  31   2.0000     -10.362252      -281.9712
  32   2.0000     -10.361942      -281.9628
  33   2.0000     -10.361516      -281.9512
  34   2.0000     -10.360479      -281.9230
  35   2.0000     -10.359945      -281.9084
  36   2.0000     -10.359683      -281.9013
  37   2.0000     -10.354115      -281.7498
  38   2.0000     -10.352951      -281.7181
  39   2.0000     -10.352678      -281.7107
  40   2.0000     -10.351727      -281.6848
  41   2.0000     -10.348297      -281.5915
  42   2.0000     -10.347638      -281.5735
  43   2.0000     -10.344689      -281.4933
  44   2.0000     -10.344679      -281.4930
  45   2.0000     -10.337822      -281.3064
  46   2.0000     -10.337790      -281.3056
  47   2.0000     -10.337770      -281.3050
  48   2.0000     -10.337386      -281.2946
  49   2.0000     -10.336677      -281.2753
  50   2.0000     -10.335760      -281.2503
  51   2.0000     -10.335234      -281.2360
  52   2.0000     -10.334654      -281.2202
  53   2.0000     -10.334105      -281.2053
  54   2.0000     -10.333639      -281.1926
  55   2.0000     -10.327486      -281.0252
  56   2.0000     -10.326196      -280.9901
  57   2.0000     -10.325771      -280.9785
  58   2.0000     -10.322711      -280.8952
  59   2.0000     -10.321370      -280.8588
  60   2.0000     -10.317363      -280.7497
  61   2.0000     -10.317225      -280.7460
  62   2.0000     -10.317042      -280.7410
  63   2.0000     -10.316619      -280.7295
  64   2.0000     -10.316568      -280.7281
  65   2.0000     -10.316249      -280.7194
  66   2.0000     -10.315641      -280.7028
  67   2.0000     -10.313917      -280.6560
  68   2.0000     -10.313260      -280.6381
  69   2.0000     -10.313006      -280.6312
  70   2.0000     -10.312935      -280.6292
  71   2.0000     -10.312882      -280.6278
  72   2.0000     -10.310887      -280.5735
  73   2.0000     -10.309730      -280.5420
  74   2.0000     -10.309565      -280.5375
  75   2.0000     -10.309156      -280.5264
  76   2.0000     -10.309147      -280.5261
  77   2.0000     -10.306536      -280.4551
  78   2.0000     -10.305972      -280.4398
  79   2.0000     -10.305667      -280.4315
  80   2.0000     -10.305172      -280.4180
  81   2.0000     -10.303246      -280.3656
  82   2.0000     -10.302716      -280.3512
  83   2.0000     -10.301266      -280.3117
  84   2.0000     -10.296387      -280.1789
  85   2.0000      -8.154744      -221.9019
  86   2.0000      -8.098365      -220.3677
  87   2.0000      -8.098106      -220.3607
  88   2.0000      -8.094423      -220.2604
  89   2.0000      -8.094196      -220.2543
  90   2.0000      -6.125879      -166.6936
  91   2.0000      -6.117927      -166.4773
  92   2.0000      -6.117425      -166.4636
  93   2.0000      -6.067626      -165.1085
  94   2.0000      -6.067168      -165.0960
  95   2.0000      -6.063723      -165.0023
  96   2.0000      -6.063479      -164.9956
  97   2.0000      -6.063368      -164.9926
  98   2.0000      -6.063072      -164.9846
  99   2.0000      -6.060787      -164.9224
 100   2.0000      -6.060704      -164.9201
 101   2.0000      -6.059322      -164.8825
 102   2.0000      -6.059085      -164.8761
 103   2.0000      -6.056929      -164.8174
 104   2.0000      -6.056721      -164.8118
 105   2.0000      -1.326113       -36.0854
 106   2.0000      -1.323037       -36.0017
 107   2.0000      -1.311218       -35.6800
 108   2.0000      -1.308149       -35.5965
 109   2.0000      -1.167753       -31.7762
 110   2.0000      -1.142784       -31.0967
 111   2.0000      -1.140886       -31.0451
 112   2.0000      -1.139865       -31.0173
 113   2.0000      -1.057789       -28.7839
 114   2.0000      -1.056869       -28.7589
 115   2.0000      -1.031213       -28.0607
 116   2.0000      -1.029775       -28.0216
 117   2.0000      -1.028816       -27.9955
 118   2.0000      -1.025772       -27.9127
 119   2.0000      -1.024208       -27.8701
 120   2.0000      -1.015443       -27.6316
 121   2.0000      -1.013084       -27.5674
 122   2.0000      -1.011708       -27.5300
 123   2.0000      -1.010559       -27.4987
 124   2.0000      -1.008862       -27.4525
 125   2.0000      -1.008263       -27.4362
 126   2.0000      -1.002602       -27.2822
 127   2.0000      -0.999822       -27.2066
 128   2.0000      -0.989292       -26.9200
 129   2.0000      -0.985897       -26.8276
 130   2.0000      -0.977120       -26.5888
 131   2.0000      -0.970567       -26.4105
 132   2.0000      -0.952427       -25.9169
 133   2.0000      -0.943094       -25.6629
 134   2.0000      -0.940109       -25.5817
 135   2.0000      -0.937512       -25.5110
 136   2.0000      -0.925116       -25.1737
 137   2.0000      -0.922063       -25.0906
 138   2.0000      -0.908033       -24.7088
 139   2.0000      -0.904114       -24.6022
 140   2.0000      -0.899218       -24.4690
 141   2.0000      -0.895245       -24.3609
 142   2.0000      -0.886915       -24.1342
 143   2.0000      -0.885284       -24.0898
 144   2.0000      -0.878130       -23.8951
 145   2.0000      -0.873562       -23.7708
 146   2.0000      -0.867787       -23.6137
 147   2.0000      -0.866996       -23.5922
 148   2.0000      -0.847338       -23.0572
 149   2.0000      -0.844925       -22.9916
 150   2.0000      -0.843325       -22.9480
 151   2.0000      -0.827531       -22.5183
 152   2.0000      -0.819389       -22.2967
 153   2.0000      -0.794177       -21.6106
 154   2.0000      -0.788917       -21.4675
 155   2.0000      -0.788195       -21.4479
 156   2.0000      -0.785095       -21.3635
 157   2.0000      -0.774270       -21.0690
 158   2.0000      -0.772287       -21.0150
 159   2.0000      -0.764548       -20.8044
 160   2.0000      -0.757571       -20.6146
 161   2.0000      -0.745499       -20.2861
 162   2.0000      -0.737728       -20.0746
 163   2.0000      -0.726807       -19.7774
 164   2.0000      -0.724865       -19.7246
 165   2.0000      -0.720759       -19.6129
 166   2.0000      -0.716728       -19.5032
 167   2.0000      -0.712476       -19.3875
 168   2.0000      -0.702405       -19.1134
 169   2.0000      -0.699148       -19.0248
 170   2.0000      -0.695871       -18.9356
 171   2.0000      -0.693699       -18.8765
 172   2.0000      -0.690150       -18.7799
 173   2.0000      -0.688200       -18.7269
 174   2.0000      -0.679111       -18.4795
 175   2.0000      -0.668737       -18.1972
 176   2.0000      -0.663739       -18.0613
 177   2.0000      -0.661262       -17.9939
 178   2.0000      -0.658435       -17.9169
 179   2.0000      -0.655136       -17.8272
 180   2.0000      -0.648972       -17.6594
 181   2.0000      -0.645456       -17.5638
 182   2.0000      -0.643693       -17.5158
 183   2.0000      -0.636415       -17.3177
 184   2.0000      -0.635278       -17.2868
 185   2.0000      -0.627588       -17.0775
 186   2.0000      -0.625918       -17.0321
 187   2.0000      -0.624538       -16.9945
 188   2.0000      -0.623750       -16.9731
 189   2.0000      -0.621592       -16.9144
 190   2.0000      -0.613742       -16.7008
 191   2.0000      -0.600180       -16.3317
 192   2.0000      -0.599472       -16.3125
 193   2.0000      -0.594831       -16.1862
 194   2.0000      -0.594098       -16.1662
 195   2.0000      -0.590536       -16.0693
 196   2.0000      -0.588052       -16.0017
 197   2.0000      -0.587467       -15.9858
 198   2.0000      -0.585206       -15.9243
 199   2.0000      -0.581688       -15.8285
 200   2.0000      -0.574259       -15.6264
 201   2.0000      -0.570179       -15.5154
 202   2.0000      -0.560987       -15.2652
 203   2.0000      -0.559252       -15.2180
 204   2.0000      -0.558734       -15.2039
 205   2.0000      -0.556473       -15.1424
 206   2.0000      -0.554737       -15.0952
 207   2.0000      -0.552024       -15.0213
 208   2.0000      -0.549014       -14.9394
 209   2.0000      -0.547821       -14.9070
 210   2.0000      -0.545268       -14.8375
 211   2.0000      -0.543994       -14.8028
 212   2.0000      -0.542696       -14.7675
 213   2.0000      -0.539359       -14.6767
 214   2.0000      -0.535901       -14.5826
 215   2.0000      -0.535554       -14.5732
 216   2.0000      -0.534766       -14.5517
 217   2.0000      -0.531896       -14.4736
 218   2.0000      -0.530790       -14.4435
 219   2.0000      -0.524274       -14.2662
 220   2.0000      -0.521966       -14.2034
 221   2.0000      -0.518893       -14.1198
 222   2.0000      -0.518447       -14.1077
 223   2.0000      -0.517487       -14.0815
 224   2.0000      -0.514093       -13.9892
 225   2.0000      -0.513188       -13.9646
 226   2.0000      -0.511388       -13.9156
 227   2.0000      -0.509931       -13.8759
 228   2.0000      -0.509491       -13.8640
 229   2.0000      -0.506490       -13.7823
 230   2.0000      -0.505328       -13.7507
 231   2.0000      -0.503203       -13.6928
 232   2.0000      -0.500703       -13.6248
 233   2.0000      -0.500386       -13.6162
 234   2.0000      -0.497638       -13.5414
 235   2.0000      -0.494087       -13.4448
 236   2.0000      -0.489741       -13.3265
 237   2.0000      -0.487583       -13.2678
 238   2.0000      -0.485289       -13.2054
 239   2.0000      -0.481195       -13.0940
 240   2.0000      -0.475074       -12.9274
 241   2.0000      -0.472747       -12.8641
 242   2.0000      -0.469982       -12.7889
 243   2.0000      -0.468550       -12.7499
 244   2.0000      -0.467391       -12.7183
 245   2.0000      -0.466262       -12.6876
 246   2.0000      -0.465509       -12.6671
 247   2.0000      -0.464342       -12.6354
 248   2.0000      -0.463363       -12.6088
 249   2.0000      -0.460863       -12.5407
 250   2.0000      -0.460039       -12.5183
 251   2.0000      -0.458455       -12.4752
 252   2.0000      -0.456610       -12.4250
 253   2.0000      -0.454930       -12.3793
 254   2.0000      -0.453078       -12.3289
 255   2.0000      -0.452808       -12.3215
 256   2.0000      -0.451131       -12.2759
 257   2.0000      -0.450150       -12.2492
 258   2.0000      -0.449820       -12.2402
 259   2.0000      -0.448285       -12.1985
 260   2.0000      -0.447810       -12.1855
 261   2.0000      -0.446371       -12.1464
 262   2.0000      -0.445465       -12.1217
 263   2.0000      -0.444100       -12.0846
 264   2.0000      -0.439162       -11.9502
 265   2.0000      -0.437162       -11.8958
 266   2.0000      -0.435970       -11.8633
 267   2.0000      -0.434684       -11.8283
 268   2.0000      -0.434282       -11.8174
 269   2.0000      -0.433722       -11.8022
 270   2.0000      -0.431934       -11.7535
 271   2.0000      -0.428446       -11.6586
 272   2.0000      -0.427588       -11.6352
 273   2.0000      -0.426797       -11.6137
 274   2.0000      -0.415870       -11.3164
 275   2.0000      -0.414259       -11.2726
 276   2.0000      -0.414005       -11.2657
 277   2.0000      -0.409322       -11.1382
 278   2.0000      -0.406611       -11.0645
 279   2.0000      -0.405195       -11.0259
 280   2.0000      -0.397301       -10.8111
 281   2.0000      -0.396213       -10.7815
 282   2.0000      -0.391618       -10.6565
 283   2.0000      -0.389101       -10.5880
 284   2.0000      -0.380857       -10.3636
 285   2.0000      -0.370303       -10.0764
 286   2.0000      -0.360409        -9.8072
 287   2.0000      -0.358568        -9.7571
 288   2.0000      -0.351867        -9.5748
 289   2.0000      -0.347128        -9.4458
 290   2.0000      -0.342080        -9.3085
 291   2.0000      -0.334197        -9.0939
 292   2.0000      -0.330566        -8.9952
 293   2.0000      -0.328371        -8.9354
 294   2.0000      -0.324915        -8.8414
 295   2.0000      -0.322486        -8.7753
 296   2.0000      -0.320289        -8.7155
 297   2.0000      -0.308116        -8.3843
 298   2.0000      -0.304126        -8.2757
 299   2.0000      -0.286037        -7.7835
 300   2.0000      -0.266077        -7.2403
 301   0.0000      -0.130477        -3.5505
 302   0.0000      -0.118765        -3.2317
 303   0.0000      -0.101772        -2.7693
 304   0.0000      -0.097217        -2.6454
 305   0.0000      -0.094497        -2.5714

MULLIKEN ATOMIC CHARGES
-----------------------
   0 C :   -0.106370
   1 C :    0.242349
   2 F :   -0.170355
   3 C :    0.239122
   4 F :   -0.170694
   5 C :   -0.102724
   6 C :    0.114196
   7 C :    0.112686
   8 C :   -0.081361
   9 C :    0.049191
  10 C :   -0.004743
  11 C :   -0.076902
  12 C :    0.155839
  13 O :   -0.147818
  14 C :   -0.087085
  15 C :    0.311466
  16 C :   -0.350321
  17 C :   -0.199863
  18 N :    0.158669
  19 C :   -0.182562
  20 N :    0.148463
  21 C :    0.033239
  22 C :   -0.112385
  23 C :    0.002968
  24 C :   -0.007374
  25 C :   -0.088848
  26 S :    0.215449
  27 C :   -0.087326
  28 C :    0.016590
  29 C :    0.313751
  30 C :   -0.300121
  31 C :   -0.190662
  32 N :    0.175310
  33 C :   -0.189992
  34 N :    0.195656
  35 C :   -0.056741
  36 C :   -0.123443
  37 S :    0.256480
  38 C :    0.014498
  39 N :   -0.058507
  40 N :   -0.059741
  41 C :    0.010578
  42 C :    0.032766
  43 C :    0.030057
  44 N :   -0.254376
  45 S :    0.578328
  46 N :   -0.254320
  47 C :   -0.124760
  48 C :   -0.052160
  49 C :    0.015574
  50 C :   -0.087395
  51 S :    0.257256
  52 C :   -0.088085
  53 C :    0.031654
  54 C :    0.304498
  55 C :   -0.293045
  56 C :   -0.191503
  57 N :    0.178791
  58 C :   -0.187152
  59 N :    0.180125
  60 C :    0.004389
  61 C :   -0.092873
  62 S :    0.214851
  63 C :    0.047345
  64 C :   -0.138127
  65 C :    0.142097
  66 O :   -0.136243
  67 C :    0.012024
  68 C :   -0.080806
  69 C :    0.112279
  70 C :    0.112972
  71 C :   -0.104488
  72 C :    0.240691
  73 C :    0.240082
  74 C :   -0.102706
  75 F :   -0.169926
  76 F :   -0.169458
  77 C :   -0.079260
  78 C :    0.037547
  79 C :    0.246530
  80 C :   -0.321537
  81 C :   -0.206150
  82 N :    0.173356
  83 C :   -0.170194
  84 N :    0.154790
  85 H :    0.007009
  86 H :    0.001723
  87 H :   -0.005605
  88 H :   -0.006129
  89 H :    0.014847
  90 H :    0.038801
  91 H :    0.020499
  92 H :    0.020151
  93 H :    0.020344
  94 H :    0.036441
  95 H :   -0.007094
  96 H :    0.005757
  97 H :    0.001359
  98 H :   -0.002108
Sum of atomic charges:   -0.0000000

LOEWDIN ATOMIC CHARGES
----------------------
   0 C :   -0.028964
   1 C :    0.067235
   2 F :   -0.048043
   3 C :    0.068335
   4 F :   -0.048224
   5 C :   -0.032341
   6 C :   -0.008230
   7 C :   -0.006333
   8 C :    0.018305
   9 C :   -0.024031
  10 C :   -0.052595
  11 C :    0.032528
  12 C :    0.085971
  13 O :   -0.135327
  14 C :   -0.094549
  15 C :    0.075890
  16 C :   -0.140472
  17 C :   -0.024990
  18 N :   -0.051413
  19 C :   -0.017383
  20 N :   -0.051876
  21 C :    0.044139
  22 C :   -0.174115
  23 C :    0.019695
  24 C :   -0.069932
  25 C :   -0.161174
  26 S :    0.503074
  27 C :   -0.179698
  28 C :   -0.060357
  29 C :    0.074399
  30 C :   -0.092861
  31 C :   -0.016093
  32 N :   -0.028595
  33 C :   -0.022387
  34 N :   -0.015662
  35 C :   -0.011794
  36 C :   -0.172857
  37 S :    0.526206
  38 C :   -0.027118
  39 N :   -0.061663
  40 N :   -0.063023
  41 C :   -0.025377
  42 C :   -0.053914
  43 C :   -0.053871
  44 N :   -0.262286
  45 S :    0.700189
  46 N :   -0.261868
  47 C :   -0.175071
  48 C :   -0.009267
  49 C :   -0.062344
  50 C :   -0.175984
  51 S :    0.527601
  52 C :   -0.154550
  53 C :   -0.066025
  54 C :    0.078610
  55 C :   -0.095336
  56 C :   -0.017572
  57 N :   -0.026116
  58 C :   -0.016827
  59 N :   -0.027322
  60 C :    0.014272
  61 C :   -0.175839
  62 S :    0.512858
  63 C :    0.053038
  64 C :   -0.098580
  65 C :    0.083310
  66 O :   -0.137852
  67 C :   -0.054525
  68 C :    0.032492
  69 C :   -0.008887
  70 C :   -0.005333
  71 C :   -0.029827
  72 C :    0.068036
  73 C :    0.068034
  74 C :   -0.031985
  75 F :   -0.047687
  76 F :   -0.047034
  77 C :    0.014933
  78 C :   -0.021003
  79 C :    0.060464
  80 C :   -0.141328
  81 C :   -0.036032
  82 N :   -0.046117
  83 C :   -0.019972
  84 N :   -0.047275
  85 H :    0.047750
  86 H :    0.045661
  87 H :    0.040011
  88 H :    0.041895
  89 H :    0.043450
  90 H :    0.044315
  91 H :    0.041872
  92 H :    0.041902
  93 H :    0.048045
  94 H :    0.056192
  95 H :    0.041597
  96 H :    0.047417
  97 H :    0.045486
  98 H :    0.039901

  Mayer bond orders larger than 0.100000
B(  0-C ,  1-C ) :   1.4413 B(  0-C ,  5-C ) :   0.1080 B(  0-C ,  7-C ) :   1.1882
B(  0-C , 85-H ) :   1.0075 B(  1-C ,  2-F ) :   1.1352 B(  1-C ,  3-C ) :   1.1897
B(  3-C ,  4-F ) :   1.1349 B(  3-C ,  5-C ) :   1.4425 B(  5-C ,  6-C ) :   1.1914
B(  5-C , 86-H ) :   1.0081 B(  6-C ,  7-C ) :   1.2557 B(  6-C , 11-C ) :   1.1873
B(  7-C ,  8-C ) :   1.2177 B(  8-C ,  9-C ) :   1.4480 B(  8-C , 87-H ) :   0.9903
B(  9-C , 10-C ) :   1.2210 B(  9-C , 15-C ) :   0.9851 B( 10-C , 11-C ) :   1.4706
B( 10-C , 12-C ) :   0.9472 B( 11-C , 88-H ) :   1.0178 B( 12-C , 13-O ) :   2.1827
B( 12-C , 14-C ) :   0.9412 B( 14-C , 15-C ) :   1.0804 B( 14-C , 21-C ) :   1.5885
B( 15-C , 16-C ) :   1.6264 B( 16-C , 17-C ) :   1.1394 B( 16-C , 19-C ) :   1.1486
B( 17-C , 18-N ) :   2.9822 B( 19-C , 20-N ) :   2.9621 B( 21-C , 22-C ) :   1.2129
B( 21-C , 89-H ) :   0.9161 B( 22-C , 23-C ) :   1.3961 B( 22-C , 26-S ) :   1.0804
B( 23-C , 24-C ) :   1.3248 B( 23-C , 90-H ) :   0.9703 B( 24-C , 25-C ) :   1.3846
B( 24-C , 29-C ) :   0.9927 B( 25-C , 26-S ) :   1.1688 B( 25-C , 27-C ) :   1.2012
B( 27-C , 28-C ) :   1.4244 B( 27-C , 37-S ) :   1.1186 B( 28-C , 29-C ) :   0.9970
B( 28-C , 35-C ) :   1.2686 B( 29-C , 30-C ) :   1.7163 B( 30-C , 31-C ) :   1.1402
B( 30-C , 33-C ) :   1.1345 B( 31-C , 32-N ) :   2.9867 B( 33-C , 34-N ) :   2.9962
B( 35-C , 36-C ) :   1.4817 B( 35-C , 91-H ) :   0.9814 B( 36-C , 37-S ) :   1.0961
B( 36-C , 38-C ) :   1.1621 B( 38-C , 39-N ) :   1.7133 B( 38-C , 41-C ) :   0.1205
B( 38-C , 43-C ) :   1.1243 B( 39-N , 40-N ) :   1.2366 B( 40-N , 41-C ) :   1.7117
B( 41-C , 42-C ) :   1.1240 B( 41-C , 47-C ) :   1.1639 B( 42-C , 43-C ) :   1.1925
B( 42-C , 46-N ) :   1.5463 B( 43-C , 44-N ) :   1.5471 B( 44-N , 45-S ) :   1.2803
B( 44-N , 46-N ) :   0.1412 B( 45-S , 46-N ) :   1.2813 B( 47-C , 48-C ) :   1.4810
B( 47-C , 51-S ) :   1.0936 B( 48-C , 49-C ) :   1.2728 B( 48-C , 92-H ) :   0.9805
B( 49-C , 50-C ) :   1.4227 B( 49-C , 54-C ) :   0.9976 B( 50-C , 51-S ) :   1.1224
B( 50-C , 52-C ) :   1.2073 B( 52-C , 53-C ) :   1.4085 B( 52-C , 62-S ) :   1.1556
B( 53-C , 54-C ) :   0.9881 B( 53-C , 60-C ) :   1.3031 B( 54-C , 55-C ) :   1.7184
B( 55-C , 56-C ) :   1.1305 B( 55-C , 58-C ) :   1.1392 B( 56-C , 57-N ) :   2.9937
B( 58-C , 59-N ) :   2.9889 B( 60-C , 61-C ) :   1.3977 B( 60-C , 93-H ) :   1.0016
B( 61-C , 62-S ) :   1.0913 B( 61-C , 63-C ) :   1.1348 B( 63-C , 64-C ) :   1.6434
B( 63-C , 94-H ) :   0.9455 B( 64-C , 65-C ) :   0.9366 B( 64-C , 79-C ) :   1.0362
B( 65-C , 66-O ) :   2.2771 B( 65-C , 67-C ) :   0.9182 B( 67-C , 68-C ) :   1.4763
B( 67-C , 78-C ) :   1.2223 B( 68-C , 69-C ) :   1.1945 B( 68-C , 95-H ) :   1.0160
B( 69-C , 70-C ) :   1.2571 B( 69-C , 74-C ) :   1.1933 B( 70-C , 71-C ) :   1.1889
B( 70-C , 77-C ) :   1.2169 B( 71-C , 72-C ) :   1.4433 B( 71-C , 74-C ) :   0.1084
B( 71-C , 96-H ) :   1.0063 B( 72-C , 73-C ) :   1.1915 B( 72-C , 76-F ) :   1.1359
B( 73-C , 74-C ) :   1.4432 B( 73-C , 75-F ) :   1.1350 B( 74-C , 97-H ) :   1.0069
B( 77-C , 78-C ) :   1.4565 B( 77-C , 98-H ) :   0.9932 B( 78-C , 79-C ) :   1.0016
B( 79-C , 80-C ) :   1.6566 B( 80-C , 81-C ) :   1.1549 B( 80-C , 83-C ) :   1.1313
B( 81-C , 82-N ) :   3.0182 B( 83-C , 84-N ) :   2.9880

-----------------------------------------------------------------------------
         ABSORPTION SPECTRUM VIA TRANSITION ELECTRIC DIPOLE MOMENTS
-----------------------------------------------------------------------------
State   Energy  Wavelength   fosc         T2         TX        TY        TZ
        (cm-1)    (nm)                  (au**2)     (au)      (au)      (au)
-----------------------------------------------------------------------------
   0   13647.5    732.7   1.095161477  26.41802   1.77413   4.51183   1.70701
   1   15212.5    657.4   0.138161381   2.98994  -0.12994   1.57447  -0.70292
   2   18417.2    543.0   0.861763688  15.40422  -1.31415  -3.47665  -1.26102
   3   20628.9    484.8   0.000504803   0.00806  -0.04981  -0.05529  -0.05018
   4   21112.3    473.7   0.508255069   7.92542  -1.13506   1.72159  -1.91655
   5   22022.4    454.1   0.043587944   0.65159   0.65262   0.28853   0.37740
   6   22801.4    438.6   0.319954854   4.61959   0.57516   2.02691  -0.42475
   7   24434.2    409.3   0.027716050   0.37343   0.20183  -0.12693  -0.56266
   8   25570.2    391.1   0.044162824   0.56859  -0.07013   0.14218  -0.73720
   9   25874.5    386.5   0.049824334   0.63393   0.08533   0.63452   0.47332
  10   27167.2    368.1   0.014867274   0.18016  -0.05918   0.41455   0.06931
  11   27523.9    363.3   0.013819969   0.16530  -0.09580   0.37260   0.13149
  12   27665.0    361.5   0.006750445   0.08033   0.20652   0.19206   0.02819
  13   28346.5    352.8   0.013133104   0.15253   0.10636   0.34572  -0.14729
  14   28720.0    348.2   0.150067881   1.72020   0.27390  -0.49651   1.18265
  15   28845.0    346.7   0.073980644   0.84435  -0.44801   0.38148  -0.70577
  16   28937.8    345.6   0.001507908   0.01715  -0.12862   0.00945  -0.02285
  17   28988.8    345.0   0.075160325   0.85356   0.34375   0.06805   0.85485
  18   29055.0    344.2   0.012918279   0.14637   0.06152  -0.37242   0.06237
  19   29492.4    339.1   0.024629607   0.27493   0.01257  -0.10085  -0.51439
  20   29950.0    333.9   0.713069243   7.83810  -0.40988  -1.71389  -2.17547
  21   30593.5    326.9   0.045083655   0.48514   0.03485   0.55396   0.42078
  22   30664.4    326.1   0.000389502   0.00418   0.01492   0.05095   0.03692
  23   30873.7    323.9   0.131176617   1.39876   0.57365  -0.90103   0.50777
  24   31145.0    321.1   0.256659705   2.71297  -0.48225  -0.48983  -1.49682
  25   31621.4    316.2   0.461646945   4.80623   0.38295   1.69671   1.33445
  26   31682.6    315.6   0.173447277   1.80228  -0.54579   0.60544  -1.06670
  27   32125.9    311.3   0.195519699   2.00360  -0.39377   0.64331  -1.19779
  28   32203.8    310.5   0.177951808   1.81916  -0.19477  -0.96396   0.92304
  29   32678.1    306.0   0.036224679   0.36494   0.21020  -0.55497   0.11299
  30   32846.6    304.4   0.021471252   0.21520   0.00771  -0.18230   0.42651
  31   32974.1    303.3   0.500364731   4.99562  -0.57026  -1.56276  -1.49272
  32   33352.3    299.8   0.049303519   0.48666  -0.07218  -0.63607  -0.27725
  33   33554.1    298.0   0.140726050   1.38072  -0.45053  -0.29243  -1.04509
  34   33590.7    297.7   0.052429597   0.51385   0.01984   0.43133  -0.57219
  35   33918.6    294.8   0.022337990   0.21681   0.02661   0.45314   0.10377
  36   34291.1    291.6   0.111582726   1.07125   0.15906  -0.85231  -0.56526
  37   34443.5    290.3   0.050578350   0.48343  -0.13310  -0.65169   0.20253
  38   34584.8    289.1   0.283267957   2.69642  -0.01848   1.59518  -0.38923
  39   34864.2    286.8   0.492797358   4.65333  -0.56711  -0.59033  -1.99580
  40   35039.9    285.4   0.275449534   2.58794   0.13574  -0.25373  -1.58276
  41   35308.7    283.2   0.044498787   0.41490   0.44608  -0.28513   0.36690
  42   35529.4    281.5   0.032212820   0.29848   0.22836  -0.40398  -0.28832
  43   35814.3    279.2   0.039107231   0.35948   0.19568   0.32003  -0.46773
  44   36001.9    277.8   0.407475926   3.72608   0.01989  -0.03188  -1.92994
  45   36636.3    273.0   0.056889651   0.51121   0.05755   0.58237   0.41078
  46   36847.7    271.4   0.082331728   0.73558   0.12690   0.56838   0.62962
  47   37090.4    269.6   0.071220804   0.63215   0.19663  -0.29173   0.71301
  48   37237.3    268.5   0.018269318   0.16152   0.05383  -0.35550  -0.17955
  49   37369.7    267.6   0.018258723   0.16085  -0.00104  -0.25071   0.31304
  50   37377.3    267.5   0.006842684   0.06027  -0.22912  -0.05397   0.06972
  51   37419.1    267.2   0.017523285   0.15417  -0.09720  -0.36455   0.10873
  52   37715.7    265.1   0.008262946   0.07213  -0.11221  -0.21561  -0.11422
  53   38004.4    263.1   0.038289283   0.33168  -0.19646  -0.13607  -0.52399
  54   38050.1    262.8   0.050795729   0.43949   0.02983  -0.53116  -0.39556
  55   38075.9    262.6   0.004807807   0.04157   0.00231   0.15694   0.13013
  56   38325.0    260.9   0.034260077   0.29429  -0.04924  -0.21227   0.49680
  57   38394.9    260.5   0.059677676   0.51170  -0.23998   0.38670  -0.55188
  58   38469.5    259.9   0.002667455   0.02283   0.09927  -0.06109   0.09613
  59   38578.0    259.2   0.050353049   0.42970  -0.19931  -0.49572   0.37978
  60   38825.2    257.6   0.023276308   0.19737   0.02272  -0.27764   0.34607
  61   38952.2    256.7   0.010342082   0.08741   0.11791   0.09067  -0.25551
  62   39084.5    255.9   0.024592128   0.20714  -0.18415  -0.02414   0.41551
  63   39287.4    254.5   0.039891557   0.33427   0.02380   0.45779  -0.35233
  64   39403.8    253.8   0.091927496   0.76804   0.38399  -0.13310   0.77645
  65   39717.4    251.8   0.124011879   1.02792   0.04419  -1.00510   0.12545
  66   39733.4    251.7   0.059567722   0.49355  -0.43204   0.34399   0.43424
  67   39764.9    251.5   0.061906224   0.51252   0.20009   0.64018  -0.25032
  68   40191.0    248.8   0.012197245   0.09991   0.01088  -0.30825   0.06908

FINAL SINGLE POINT ENERGY     -5563.560627883991

DIPOLE MOMENT
-------------
                                X             Y             Z
Electronic contribution:     -2.19424       7.06802      -1.98662
Nuclear contribution   :      2.29422      -7.74272       1.39104
                        -----------------------------------------
Total Dipole Moment    :      0.09998      -0.67470      -0.59558
                        -----------------------------------------
Magnitude (a.u.)       :      0.90550
Magnitude (Debye)      :      2.30160

Rotational constants in cm-1:     0.001046     0.000141     0.000126
Rotational constants in MHz :    31.346950     4.228975     3.785436

                             ****ORCA TERMINATED NORMALLY****
TOTAL RUN TIME: 0 days 0 hours 11 minutes 30 seconds 701 msec
