                         Program Version 4.2.0 -  RELEASE  -
|  1> # ORCA input file
|  2> # SCF done       -158.703106047927          0.000912848298
|  3> ! CAM-B3LYP def2-SVP def2/J RIJCOSX Grid4 TightSCF
|  4> %maxcore 5000
|  5> %tddft
|  6>     Mode sTDDFT
|  7>     Ethresh 5.0
|  8>     maxcore 5000
|  9> end
| 10>
| 11> %pal
| 12>   nprocs 6
| 13>   end
| 14> * xyz 0 1
| 15>    C       -1.02197         1.32669         1.63536
| 16>    N        0.15923         1.84266         1.47686
| 17>    O        0.53155         1.64055         0.20856
| 18>    C       -0.44078         0.97560        -0.45857
| 19>    C       -0.18442         0.69531        -1.85852
| 20>    O       -0.92443         0.11582        -2.61344
| 21>    C       -1.49504         0.73656         0.42639
| 22>    C       -2.75057         0.08508         0.25373
| 23>    C       -3.25973        -0.56189        -0.85423
| 24>    C       -4.53379        -1.07904        -0.61402
| 25>    C       -4.99720        -0.81111         0.68895
| 26>    S       -3.86635         0.06230         1.61631
| 27>    C       -6.29182        -1.35944         0.83537
| 28>    C       -6.65229        -1.98664        -0.37374
| 29>    C       -5.56897        -1.80374        -1.33312
| 30>    C       -5.56881        -2.18104        -2.64175
| 31>    C       -6.69821        -2.76239        -3.26234
| 32>    N       -7.62105        -3.18181        -3.79662
| 33>    C       -4.46880        -1.97561        -3.50460
| 34>    N       -3.58912        -1.83964        -4.22589
| 35>    C       -7.90025        -2.59401        -0.32242
| 36>    C       -8.50957        -2.41000         0.91388
| 37>    S       -7.51067        -1.48245         2.02530
| 38>    C       -9.78142        -2.88047         1.29027
| 39>    C      -10.58859        -3.77690         0.57493
| 40>    C      -11.85523        -4.02430         1.20908
| 41>    N      -12.78242        -4.78025         0.61611
| 42>    C      -12.45824        -5.34194        -0.52625
| 43>    C      -13.52210        -6.09984        -1.23680
| 44>    O      -14.67735        -6.09484        -0.87431
| 45>    C      -13.06897        -6.82057        -2.44046
| 46>    C      -11.81982        -6.76469        -2.91358
| 47>    C      -10.73703        -5.99088        -2.27916
| 48>    O       -9.59399        -6.01911        -2.67748
| 49>    C      -11.14818        -5.20653        -1.08461
| 50>    N      -10.24977        -4.41102        -0.55021
| 51>    C      -11.99956        -3.35037         2.43054
| 52>    S      -10.58500        -2.39702         2.75078
| 53>    C      -13.10950        -3.40379         3.29400
| 54>    C      -14.18978        -4.27303         3.18864
| 55>    C      -15.11680        -4.06273         4.20111
| 56>    C      -14.75831        -3.01392         5.07109
| 57>    S      -13.25557        -2.31152         4.66494
| 58>    C      -15.78608        -2.85234         6.02802
| 59>    C      -16.79805        -3.79871         5.77375
| 60>    C      -16.39392        -4.61402         4.63977
| 61>    C      -17.02415        -5.70945         4.13238
| 62>    C      -18.25972        -6.18649         4.62509
| 63>    N      -19.26052        -6.60039         4.99902
| 64>    C      -16.45652        -6.50324         3.10939
| 65>    N      -15.99150        -7.19115         2.31970
| 66>    C      -17.86460        -3.70731         6.66941
| 67>    C      -17.67238        -2.70268         7.59638
| 68>    S      -16.14463        -1.85768         7.36362
| 69>    C      -18.51333        -2.28434         8.66794
| 70>    C      -19.77062        -2.72299         9.09071
| 71>    O      -20.13511        -1.99142        10.16990
| 72>    N      -19.17928        -1.10378        10.46418
| 73>    C      -18.21762        -1.24961         9.60367
| 74>    C      -20.71809        -3.72675         8.64465
| 75>    O      -20.57755        -4.46739         7.70388
| 76>    H       -1.51704         1.37398         2.58451
| 77>    H        0.79744         1.08328        -2.18074
| 78>    H       -2.71623        -0.64148        -1.77923
| 79>    H       -8.37164        -3.15432        -1.10961
| 80>    H      -13.83291        -7.40441        -2.93595
| 81>    H      -11.53047        -7.30664        -3.80384
| 82>    H      -14.26256        -4.99416         2.39456
| 83>    H      -18.74484        -4.32578         6.65964
| 84>    H      -17.34161        -0.63446         9.65243
| 85>    H      -21.62144        -3.74734         9.27857
| 86> *
| 87>
| 88>                          ****END OF INPUT****

CARTESIAN COORDINATES (ANGSTROEM)
---------------------------------
  C     -1.021970    1.326690    1.635360
  N      0.159230    1.842660    1.476860
  O      0.531550    1.640550    0.208560
  C     -0.440780    0.975600   -0.458570
  C     -0.184420    0.695310   -1.858520
  O     -0.924430    0.115820   -2.613440
  C     -1.495040    0.736560    0.426390
  C     -2.750570    0.085080    0.253730
  C     -3.259730   -0.561890   -0.854230
  C     -4.533790   -1.079040   -0.614020
  C     -4.997200   -0.811110    0.688950
  S     -3.866350    0.062300    1.616310
  C     -6.291820   -1.359440    0.835370
  C     -6.652290   -1.986640   -0.373740
  C     -5.568970   -1.803740   -1.333120
  C     -5.568810   -2.181040   -2.641750
  C     -6.698210   -2.762390   -3.262340
  N     -7.621050   -3.181810   -3.796620
  C     -4.468800   -1.975610   -3.504600
  N     -3.589120   -1.839640   -4.225890
  C     -7.900250   -2.594010   -0.322420
  C     -8.509570   -2.410000    0.913880
  S     -7.510670   -1.482450    2.025300
  C     -9.781420   -2.880470    1.290270
  C    -10.588590   -3.776900    0.574930
  C    -11.855230   -4.024300    1.209080
  N    -12.782420   -4.780250    0.616110
  C    -12.458240   -5.341940   -0.526250
  C    -13.522100   -6.099840   -1.236800
  O    -14.677350   -6.094840   -0.874310
  C    -13.068970   -6.820570   -2.440460
  C    -11.819820   -6.764690   -2.913580
  C    -10.737030   -5.990880   -2.279160
  O     -9.593990   -6.019110   -2.677480
  C    -11.148180   -5.206530   -1.084610
  N    -10.249770   -4.411020   -0.550210
  C    -11.999560   -3.350370    2.430540
  S    -10.585000   -2.397020    2.750780
  C    -13.109500   -3.403790    3.294000
  C    -14.189780   -4.273030    3.188640
  C    -15.116800   -4.062730    4.201110
  C    -14.758310   -3.013920    5.071090
  S    -13.255570   -2.311520    4.664940
  C    -15.786080   -2.852340    6.028020
  C    -16.798050   -3.798710    5.773750
  C    -16.393920   -4.614020    4.639770
  C    -17.024150   -5.709450    4.132380
  C    -18.259720   -6.186490    4.625090
  N    -19.260520   -6.600390    4.999020
  C    -16.456520   -6.503240    3.109390
  N    -15.991500   -7.191150    2.319700
  C    -17.864600   -3.707310    6.669410
  C    -17.672380   -2.702680    7.596380
  S    -16.144630   -1.857680    7.363620
  C    -18.513330   -2.284340    8.667940
  C    -19.770620   -2.722990    9.090710
  O    -20.135110   -1.991420   10.169900
  N    -19.179280   -1.103780   10.464180
  C    -18.217620   -1.249610    9.603670
  C    -20.718090   -3.726750    8.644650
  O    -20.577550   -4.467390    7.703880
  H     -1.517040    1.373980    2.584510
  H      0.797440    1.083280   -2.180740
  H     -2.716230   -0.641480   -1.779230
  H     -8.371640   -3.154320   -1.109610
  H    -13.832910   -7.404410   -2.935950
  H    -11.530470   -7.306640   -3.803840
  H    -14.262560   -4.994160    2.394560
  H    -18.744840   -4.325780    6.659640
  H    -17.341610   -0.634460    9.652430
  H    -21.621440   -3.747340    9.278570

 Total Charge           Charge          ....    0
 Multiplicity           Mult            ....    1
 Number of Electrons    NEL             ....  446
 Basis Dimension        Dim             ....  924

ORBITAL ENERGIES
----------------

  NO   OCC          E(Eh)            E(eV)
   0   2.0000     -89.006495     -2421.9899
   1   2.0000     -88.997988     -2421.7584
   2   2.0000     -88.997758     -2421.7521
   3   2.0000     -88.996682     -2421.7228
   4   2.0000     -88.996465     -2421.7169
   5   2.0000     -19.334034      -526.1058
   6   2.0000     -19.333860      -526.1011
   7   2.0000     -19.235799      -523.4327
   8   2.0000     -19.235740      -523.4311
   9   2.0000     -19.226864      -523.1896
  10   2.0000     -19.226809      -523.1881
  11   2.0000     -14.484445      -394.1418
  12   2.0000     -14.484399      -394.1405
  13   2.0000     -14.452645      -393.2765
  14   2.0000     -14.452513      -393.2729
  15   2.0000     -14.426875      -392.5752
  16   2.0000     -14.426804      -392.5733
  17   2.0000     -14.426792      -392.5730
  18   2.0000     -14.426667      -392.5696
  19   2.0000     -10.381465      -282.4940
  20   2.0000     -10.381428      -282.4930
  21   2.0000     -10.375724      -282.3378
  22   2.0000     -10.375632      -282.3353
  23   2.0000     -10.366822      -282.0956
  24   2.0000     -10.366734      -282.0932
  25   2.0000     -10.357032      -281.8292
  26   2.0000     -10.357012      -281.8286
  27   2.0000     -10.351392      -281.6757
  28   2.0000     -10.351250      -281.6718
  29   2.0000     -10.344280      -281.4822
  30   2.0000     -10.344009      -281.4748
  31   2.0000     -10.342945      -281.4458
  32   2.0000     -10.342852      -281.4433
  33   2.0000     -10.340171      -281.3704
  34   2.0000     -10.340066      -281.3675
  35   2.0000     -10.339701      -281.3576
  36   2.0000     -10.339428      -281.3501
  37   2.0000     -10.337810      -281.3061
  38   2.0000     -10.337677      -281.3025
  39   2.0000     -10.336841      -281.2797
  40   2.0000     -10.336749      -281.2772
  41   2.0000     -10.332951      -281.1739
  42   2.0000     -10.332858      -281.1714
  43   2.0000     -10.329618      -281.0832
  44   2.0000     -10.329560      -281.0816
  45   2.0000     -10.327929      -281.0372
  46   2.0000     -10.327830      -281.0345
  47   2.0000     -10.325718      -280.9771
  48   2.0000     -10.325573      -280.9731
  49   2.0000     -10.325561      -280.9728
  50   2.0000     -10.325520      -280.9717
  51   2.0000     -10.308706      -280.5141
  52   2.0000     -10.308532      -280.5094
  53   2.0000     -10.308473      -280.5078
  54   2.0000     -10.307770      -280.4887
  55   2.0000     -10.306711      -280.4599
  56   2.0000     -10.306625      -280.4575
  57   2.0000     -10.302489      -280.3450
  58   2.0000     -10.302340      -280.3409
  59   2.0000     -10.301521      -280.3186
  60   2.0000     -10.301464      -280.3171
  61   2.0000      -8.101320      -220.4481
  62   2.0000      -8.092605      -220.2110
  63   2.0000      -8.092449      -220.2067
  64   2.0000      -8.091302      -220.1755
  65   2.0000      -8.091159      -220.1716
  66   2.0000      -6.070385      -165.1836
  67   2.0000      -6.066295      -165.0723
  68   2.0000      -6.063952      -165.0085
  69   2.0000      -6.061919      -164.9532
  70   2.0000      -6.061766      -164.9490
  71   2.0000      -6.060568      -164.9164
  72   2.0000      -6.060414      -164.9122
  73   2.0000      -6.057782      -164.8406
  74   2.0000      -6.057612      -164.8360
  75   2.0000      -6.056408      -164.8033
  76   2.0000      -6.056273      -164.7996
  77   2.0000      -6.054867      -164.7613
  78   2.0000      -6.054689      -164.7565
  79   2.0000      -6.053670      -164.7287
  80   2.0000      -6.053492      -164.7239
  81   2.0000      -1.275867       -34.7181
  82   2.0000      -1.275797       -34.7162
  83   2.0000      -1.148446       -31.2508
  84   2.0000      -1.148401       -31.2496
  85   2.0000      -1.144742       -31.1500
  86   2.0000      -1.139938       -31.0193
  87   2.0000      -1.104658       -30.0593
  88   2.0000      -1.049021       -28.5453
  89   2.0000      -1.048752       -28.5380
  90   2.0000      -1.031455       -28.0673
  91   2.0000      -1.021921       -27.8079
  92   2.0000      -1.019644       -27.7459
  93   2.0000      -1.018057       -27.7027
  94   2.0000      -1.006024       -27.3753
  95   2.0000      -1.003543       -27.3078
  96   2.0000      -1.002976       -27.2924
  97   2.0000      -0.996961       -27.1287
  98   2.0000      -0.982276       -26.7291
  99   2.0000      -0.981164       -26.6988
 100   2.0000      -0.964064       -26.2335
 101   2.0000      -0.959743       -26.1159
 102   2.0000      -0.939632       -25.5687
 103   2.0000      -0.933523       -25.4024
 104   2.0000      -0.932701       -25.3801
 105   2.0000      -0.913673       -24.8623
 106   2.0000      -0.903201       -24.5774
 107   2.0000      -0.882940       -24.0260
 108   2.0000      -0.879762       -23.9396
 109   2.0000      -0.871687       -23.7198
 110   2.0000      -0.862516       -23.4702
 111   2.0000      -0.860323       -23.4106
 112   2.0000      -0.858525       -23.3616
 113   2.0000      -0.826770       -22.4975
 114   2.0000      -0.811196       -22.0738
 115   2.0000      -0.798665       -21.7328
 116   2.0000      -0.795879       -21.6570
 117   2.0000      -0.788976       -21.4691
 118   2.0000      -0.780440       -21.2369
 119   2.0000      -0.777180       -21.1482
 120   2.0000      -0.765844       -20.8397
 121   2.0000      -0.749333       -20.3904
 122   2.0000      -0.748641       -20.3716
 123   2.0000      -0.726445       -19.7676
 124   2.0000      -0.722570       -19.6621
 125   2.0000      -0.715982       -19.4829
 126   2.0000      -0.708857       -19.2890
 127   2.0000      -0.695939       -18.9375
 128   2.0000      -0.692957       -18.8563
 129   2.0000      -0.682678       -18.5766
 130   2.0000      -0.682626       -18.5752
 131   2.0000      -0.678146       -18.4533
 132   2.0000      -0.670591       -18.2477
 133   2.0000      -0.669910       -18.2292
 134   2.0000      -0.645137       -17.5551
 135   2.0000      -0.643801       -17.5187
 136   2.0000      -0.635147       -17.2832
 137   2.0000      -0.629944       -17.1416
 138   2.0000      -0.628432       -17.1005
 139   2.0000      -0.624903       -17.0045
 140   2.0000      -0.620485       -16.8843
 141   2.0000      -0.612730       -16.6732
 142   2.0000      -0.608229       -16.5507
 143   2.0000      -0.608177       -16.5493
 144   2.0000      -0.599257       -16.3066
 145   2.0000      -0.596950       -16.2438
 146   2.0000      -0.596918       -16.2430
 147   2.0000      -0.582986       -15.8638
 148   2.0000      -0.573624       -15.6091
 149   2.0000      -0.572896       -15.5893
 150   2.0000      -0.566532       -15.4161
 151   2.0000      -0.564190       -15.3524
 152   2.0000      -0.559304       -15.2194
 153   2.0000      -0.550158       -14.9706
 154   2.0000      -0.550057       -14.9678
 155   2.0000      -0.546622       -14.8743
 156   2.0000      -0.546393       -14.8681
 157   2.0000      -0.540851       -14.7173
 158   2.0000      -0.535810       -14.5801
 159   2.0000      -0.532876       -14.5003
 160   2.0000      -0.527554       -14.3555
 161   2.0000      -0.525587       -14.3019
 162   2.0000      -0.525220       -14.2920
 163   2.0000      -0.517434       -14.0801
 164   2.0000      -0.512800       -13.9540
 165   2.0000      -0.505746       -13.7621
 166   2.0000      -0.505707       -13.7610
 167   2.0000      -0.504948       -13.7403
 168   2.0000      -0.503968       -13.7137
 169   2.0000      -0.500460       -13.6182
 170   2.0000      -0.498431       -13.5630
 171   2.0000      -0.498416       -13.5626
 172   2.0000      -0.495863       -13.4931
 173   2.0000      -0.495624       -13.4866
 174   2.0000      -0.495092       -13.4721
 175   2.0000      -0.492609       -13.4046
 176   2.0000      -0.491998       -13.3879
 177   2.0000      -0.489962       -13.3325
 178   2.0000      -0.484956       -13.1963
 179   2.0000      -0.481954       -13.1146
 180   2.0000      -0.472049       -12.8451
 181   2.0000      -0.470758       -12.8100
 182   2.0000      -0.460778       -12.5384
 183   2.0000      -0.458182       -12.4678
 184   2.0000      -0.456623       -12.4253
 185   2.0000      -0.455425       -12.3927
 186   2.0000      -0.454036       -12.3550
 187   2.0000      -0.453868       -12.3504
 188   2.0000      -0.451764       -12.2931
 189   2.0000      -0.449157       -12.2222
 190   2.0000      -0.446010       -12.1365
 191   2.0000      -0.441072       -12.0022
 192   2.0000      -0.436592       -11.8803
 193   2.0000      -0.436327       -11.8731
 194   2.0000      -0.435058       -11.8385
 195   2.0000      -0.435035       -11.8379
 196   2.0000      -0.427464       -11.6319
 197   2.0000      -0.424658       -11.5555
 198   2.0000      -0.422507       -11.4970
 199   2.0000      -0.422222       -11.4893
 200   2.0000      -0.410131       -11.1602
 201   2.0000      -0.403672       -10.9845
 202   2.0000      -0.403445       -10.9783
 203   2.0000      -0.398053       -10.8316
 204   2.0000      -0.398050       -10.8315
 205   2.0000      -0.388776       -10.5791
 206   2.0000      -0.382255       -10.4017
 207   2.0000      -0.372067       -10.1245
 208   2.0000      -0.369960       -10.0671
 209   2.0000      -0.365561        -9.9474
 210   2.0000      -0.358559        -9.7569
 211   2.0000      -0.355804        -9.6819
 212   2.0000      -0.355679        -9.6785
 213   2.0000      -0.354198        -9.6382
 214   2.0000      -0.351244        -9.5578
 215   2.0000      -0.349394        -9.5075
 216   2.0000      -0.346248        -9.4219
 217   2.0000      -0.338312        -9.2059
 218   2.0000      -0.325478        -8.8567
 219   2.0000      -0.323860        -8.8127
 220   2.0000      -0.312429        -8.5016
 221   2.0000      -0.280777        -7.6403
 222   2.0000      -0.241029        -6.5587
 223   0.0000      -0.120185        -3.2704
 224   0.0000      -0.105399        -2.8681
 225   0.0000      -0.092347        -2.5129
 226   0.0000      -0.086510        -2.3540
 227   0.0000      -0.062681        -1.7056

MULLIKEN ATOMIC CHARGES
-----------------------
   0 C :   -0.010439
   1 N :    0.047008
   2 O :   -0.166563
   3 C :    0.056857
   4 C :    0.163795
   5 O :   -0.151702
   6 C :    0.006426
   7 C :   -0.055309
   8 C :   -0.053141
   9 C :    0.012807
  10 C :   -0.090109
  11 S :    0.165014
  12 C :   -0.094989
  13 C :    0.029596
  14 C :    0.306983
  15 C :   -0.295568
  16 C :   -0.193776
  17 N :    0.191734
  18 C :   -0.197290
  19 N :    0.196790
  20 C :   -0.060410
  21 C :   -0.088015
  22 S :    0.177437
  23 C :   -0.116776
  24 C :    0.028225
  25 C :    0.021553
  26 N :    0.061620
  27 C :   -0.118938
  28 C :    0.144682
  29 O :   -0.097809
  30 C :   -0.012386
  31 C :   -0.010576
  32 C :    0.144798
  33 O :   -0.097690
  34 C :   -0.117447
  35 N :    0.060117
  36 C :   -0.114050
  37 S :    0.199548
  38 C :   -0.088975
  39 C :   -0.058295
  40 C :    0.028410
  41 C :   -0.094259
  42 S :    0.176542
  43 C :   -0.089840
  44 C :    0.008977
  45 C :    0.303958
  46 C :   -0.293229
  47 C :   -0.196902
  48 N :    0.201212
  49 C :   -0.195255
  50 N :    0.191021
  51 C :   -0.049440
  52 C :   -0.057811
  53 S :    0.164526
  54 C :    0.004894
  55 C :    0.057236
  56 O :   -0.167297
  57 N :    0.047787
  58 C :   -0.010852
  59 C :    0.163592
  60 O :   -0.151696
  61 H :    0.026335
  62 H :    0.012686
  63 H :    0.023397
  64 H :    0.030728
  65 H :    0.022179
  66 H :    0.021434
  67 H :    0.031693
  68 H :    0.024477
  69 H :    0.026959
  70 H :    0.013800
Sum of atomic charges:   -0.0000000

LOEWDIN ATOMIC CHARGES
----------------------
   0 C :   -0.032925
   1 N :    0.000896
   2 O :    0.036616
   3 C :   -0.024780
   4 C :    0.100181
   5 O :   -0.109572
   6 C :   -0.064882
   7 C :   -0.170273
   8 C :   -0.008882
   9 C :   -0.068677
  10 C :   -0.174007
  11 S :    0.468012
  12 C :   -0.183593
  13 C :   -0.059394
  14 C :    0.072767
  15 C :   -0.085884
  16 C :   -0.020577
  17 N :   -0.015820
  18 C :   -0.023320
  19 N :   -0.013242
  20 C :   -0.007580
  21 C :   -0.182637
  22 S :    0.458242
  23 C :   -0.192463
  24 C :   -0.042615
  25 C :   -0.042769
  26 N :    0.008721
  27 C :   -0.037031
  28 C :    0.055668
  29 O :   -0.090523
  30 C :   -0.011661
  31 C :   -0.011517
  32 C :    0.055656
  33 O :   -0.090455
  34 C :   -0.036840
  35 N :    0.008501
  36 C :   -0.192389
  37 S :    0.487387
  38 C :   -0.182679
  39 C :   -0.007748
  40 C :   -0.059326
  41 C :   -0.183493
  42 S :    0.458000
  43 C :   -0.174028
  44 C :   -0.068517
  45 C :    0.072695
  46 C :   -0.085681
  47 C :   -0.023398
  48 N :   -0.013186
  49 C :   -0.020655
  50 N :   -0.015632
  51 C :   -0.008935
  52 C :   -0.170402
  53 S :    0.467881
  54 C :   -0.064888
  55 C :   -0.024701
  56 O :    0.036434
  57 N :    0.001148
  58 C :   -0.033025
  59 C :    0.100144
  60 O :   -0.109728
  61 H :    0.030689
  62 H :    0.013039
  63 H :    0.040398
  64 H :    0.044480
  65 H :    0.046991
  66 H :    0.046881
  67 H :    0.044546
  68 H :    0.040428
  69 H :    0.030675
  70 H :    0.013252

  Mayer bond orders larger than 0.100000
B(  0-C ,  1-N ) :   1.7321 B(  0-C ,  6-C ) :   1.1953 B(  0-C , 61-H ) :   0.9832
B(  1-N ,  2-O ) :   1.0516 B(  2-O ,  3-C ) :   1.1150 B(  3-C ,  4-C ) :   1.0188
B(  3-C ,  6-C ) :   1.4610 B(  4-C ,  5-O ) :   2.1242 B(  4-C , 62-H ) :   0.9471
B(  6-C ,  7-C ) :   1.1115 B(  7-C ,  8-C ) :   1.4822 B(  7-C , 11-S ) :   1.0868
B(  8-C ,  9-C ) :   1.2613 B(  8-C , 63-H ) :   0.9762 B(  9-C , 10-C ) :   1.4298
B(  9-C , 14-C ) :   0.9938 B( 10-C , 11-S ) :   1.1279 B( 10-C , 12-C ) :   1.2011
B( 12-C , 13-C ) :   1.4278 B( 12-C , 22-S ) :   1.1147 B( 13-C , 14-C ) :   0.9848
B( 13-C , 20-C ) :   1.2764 B( 14-C , 15-C ) :   1.7212 B( 15-C , 16-C ) :   1.1346
B( 15-C , 18-C ) :   1.1354 B( 16-C , 17-N ) :   2.9965 B( 18-C , 19-N ) :   3.0013
B( 20-C , 21-C ) :   1.4497 B( 20-C , 64-H ) :   0.9867 B( 21-C , 22-S ) :   1.0840
B( 21-C , 23-C ) :   1.1866 B( 23-C , 24-C ) :   1.3690 B( 23-C , 36-C ) :   0.1504
B( 23-C , 37-S ) :   1.1507 B( 24-C , 25-C ) :   1.1844 B( 24-C , 35-N ) :   1.4347
B( 25-C , 26-N ) :   1.4363 B( 25-C , 36-C ) :   1.3691 B( 26-N , 27-C ) :   1.7183
B( 27-C , 28-C ) :   0.8874 B( 27-C , 34-C ) :   1.0916 B( 28-C , 29-O ) :   2.2411
B( 28-C , 30-C ) :   1.0216 B( 30-C , 31-C ) :   1.6893 B( 30-C , 65-H ) :   0.9949
B( 31-C , 32-C ) :   1.0214 B( 31-C , 66-H ) :   0.9949 B( 32-C , 33-O ) :   2.2416
B( 32-C , 34-C ) :   0.8876 B( 34-C , 35-N ) :   1.7177 B( 36-C , 37-S ) :   1.1492
B( 36-C , 38-C ) :   1.1865 B( 38-C , 39-C ) :   1.4518 B( 38-C , 42-S ) :   1.0833
B( 39-C , 40-C ) :   1.2773 B( 39-C , 67-H ) :   0.9859 B( 40-C , 41-C ) :   1.4263
B( 40-C , 45-C ) :   0.9843 B( 41-C , 42-S ) :   1.1148 B( 41-C , 43-C ) :   1.2028
B( 43-C , 44-C ) :   1.4291 B( 43-C , 53-S ) :   1.1274 B( 44-C , 45-C ) :   0.9945
B( 44-C , 51-C ) :   1.2633 B( 45-C , 46-C ) :   1.7242 B( 46-C , 47-C ) :   1.1350
B( 46-C , 49-C ) :   1.1344 B( 47-C , 48-N ) :   3.0032 B( 49-C , 50-N ) :   2.9968
B( 51-C , 52-C ) :   1.4823 B( 51-C , 68-H ) :   0.9745 B( 52-C , 53-S ) :   1.0865
B( 52-C , 54-C ) :   1.1137 B( 54-C , 55-C ) :   1.4604 B( 54-C , 58-C ) :   1.1939
B( 55-C , 56-O ) :   1.1146 B( 55-C , 59-C ) :   1.0194 B( 56-O , 57-N ) :   1.0506
B( 57-N , 58-C ) :   1.7338 B( 58-C , 69-H ) :   0.9833 B( 59-C , 60-O ) :   2.1235
B( 59-C , 70-H ) :   0.9465

-----------------------------------------------------------------------------
         ABSORPTION SPECTRUM VIA TRANSITION ELECTRIC DIPOLE MOMENTS
-----------------------------------------------------------------------------
State   Energy  Wavelength   fosc         T2         TX        TY        TZ
        (cm-1)    (nm)                  (au**2)     (au)      (au)      (au)
-----------------------------------------------------------------------------
   0   10819.8    924.2   0.734144012  22.33764   4.12880   0.88515  -2.12301
   1   12915.1    774.3   0.034538539   0.88041  -0.20061  -0.59032  -0.70120
   2   14880.1    672.0   0.127779166   2.82702   1.44899   0.35208  -0.77685
   3   18343.6    545.1   0.121448019   2.17962  -0.37219  -0.91589  -1.09647
   4   20361.3    491.1   0.035566521   0.57506   0.17436   0.48841   0.55328
   5   22658.9    441.3   0.237130133   3.44527   1.62196   0.35475  -0.82986
   6   24596.7    406.6   0.002902195   0.03884  -0.08568   0.14746  -0.09878
   7   25062.4    399.0   1.078055861  14.16101   3.32114   0.58091  -1.67140
   8   25299.9    395.3   0.205855827   2.67867  -0.50069  -1.08960  -1.11389
   9   25803.0    387.6   0.000185738   0.00237  -0.01784  -0.03541  -0.02824
  10   26539.3    376.8   0.008493017   0.10535   0.05368   0.24049   0.21128
  11   26574.8    376.3   0.001963841   0.02433  -0.02204   0.11875  -0.09870
  12   28094.1    355.9   0.081440143   0.95433  -0.82265  -0.23142   0.47331
  13   29294.9    341.4   0.063990924   0.71912  -0.63953  -0.31082   0.46207
  14   29590.3    337.9   0.281622460   3.13324   0.44959   1.07230   1.33465
  15   29765.9    336.0   0.081531444   0.90174   0.48461   0.52316  -0.62706
  16   30583.4    327.0   0.122499473   1.31863   0.88634   0.39530  -0.61382
  17   30621.1    326.6   0.000119531   0.00129   0.00524  -0.01400  -0.03258
  18   31541.6    317.0   0.016417710   0.17136  -0.11483  -0.22976  -0.32462
  19   32546.5    307.3   0.005290532   0.05351  -0.13629  -0.16706   0.08385
  20   32722.1    305.6   0.363662459   3.65875   0.69549   1.20155   1.31579
  21   32833.0    304.6   0.090384981   0.90628  -0.61782   0.19879   0.69646
  22   32905.5    303.9   0.086822749   0.86864  -0.12073  -0.57664  -0.72218
  23   33048.5    302.6   0.190980187   1.90245   1.27366   0.13621  -0.51154
  24   33397.7    299.4   0.024410251   0.24062  -0.13871  -0.30398  -0.35914
  25   33585.2    297.8   0.033828288   0.33160   0.10580  -0.47265   0.31145
  26   33831.0    295.6   0.005785953   0.05630  -0.05063  -0.15035  -0.17645
  27   33926.3    294.8   0.000292557   0.00284  -0.00757  -0.04870  -0.02023
  28   34239.7    292.1   0.010342874   0.09945  -0.18854  -0.16078   0.19506
  29   34682.2    288.3   0.285771698   2.71261   1.31899   0.49193  -0.85492
  30   35021.9    285.5   0.086813217   0.81606  -0.29958  -0.50409  -0.68717
  31   35066.8    285.2   0.066605102   0.62530  -0.56065  -0.28220   0.48097
  32   35544.4    281.3   0.401439703   3.71813   0.47241   1.17394   1.45493
  33   35673.0    280.3   0.094699815   0.87395   0.83277   0.23559  -0.35345
  34   35738.0    279.8   0.119067985   1.09683  -0.25945  -0.62942  -0.79583
  35   36516.6    273.8   0.000196094   0.00177  -0.01691  -0.03188  -0.02158
  36   36886.1    271.1   0.243367299   2.17208   0.38450   0.89655   1.10474
  37   37063.0    269.8   0.018289779   0.16246  -0.30360  -0.15736   0.21337
  38   37613.6    265.9   0.030638018   0.26816  -0.07737  -0.29529  -0.41830
  39   37651.8    265.6   0.058835986   0.51444   0.26284   0.44203   0.49996
  40   37684.5    265.4   0.017709970   0.15471  -0.04852  -0.23875  -0.30880
  41   37954.5    263.5   0.006807460   0.05905  -0.19822  -0.03731   0.13551
  42   38191.1    261.8   0.002884339   0.02486   0.07075   0.08840   0.10974
  43   38243.0    261.5   0.001736580   0.01495   0.10321  -0.05720  -0.03202
  44   38335.4    260.9   0.001626272   0.01397   0.10735   0.01322  -0.04761
  45   38704.8    258.4   0.072571211   0.61727  -0.20133  -0.48375  -0.58542
  46   39024.1    256.3   0.012485394   0.10533   0.31434  -0.06939  -0.04130
  47   39219.5    255.0   0.006058250   0.05085  -0.17997   0.11977   0.06420
  48   39538.0    252.9   0.164084467   1.36624  -0.31086  -0.71163  -0.87361
  49   39657.4    252.2   0.018922943   0.15709  -0.10258  -0.24852  -0.29121
  50   39802.3    251.2   0.008137647   0.06731   0.23920  -0.10041  -0.00278
  51   39892.3    250.7   0.003301891   0.02725   0.02309   0.10449   0.12569
  52   39998.9    250.0   0.019338525   0.15917   0.36858   0.03178  -0.14935

FINAL SINGLE POINT ENERGY     -4482.856414875338

DIPOLE MOMENT
-------------
                                X             Y             Z
Electronic contribution:      1.93241       3.86482       5.31888
Nuclear contribution   :     -1.08315      -1.97616      -2.92219
                        -----------------------------------------
Total Dipole Moment    :      0.84926       1.88865       2.39668
                        -----------------------------------------
Magnitude (a.u.)       :      3.16739
Magnitude (Debye)      :      8.05086

Rotational constants in cm-1:     0.002094     0.000400     0.000339
Rotational constants in MHz :    62.764781    11.999748    10.149495

                             ****ORCA TERMINATED NORMALLY****
TOTAL RUN TIME: 0 days 0 hours 6 minutes 25 seconds 408 msec
