                         Program Version 4.2.0 -  RELEASE  -
|  1> # ORCA input file
|  2> # SCF done       -176.933805943457          0.000883728218
|  3> ! CAM-B3LYP def2-SVP def2/J RIJCOSX Grid4 TightSCF
|  4> %maxcore 5000
|  5> %tddft
|  6>     Mode sTDDFT
|  7>     Ethresh 5.0
|  8>     maxcore 5000
|  9> end
| 10>
| 11> %pal
| 12>   nprocs 6
| 13>   end
| 14> * xyz 0 1
| 15>    C        1.70009        -0.95044        -0.71330
| 16>    O        0.52841        -1.20113        -0.53919
| 17>    C        2.27128         0.36791        -1.07544
| 18>    C        3.67532         0.29980        -1.05572
| 19>    C        4.42288         1.43135        -1.33449
| 20>    C        3.75395         2.61296        -1.63493
| 21>    C        2.35958         2.67007        -1.65669
| 22>    C        1.60582         1.53899        -1.36948
| 23>   Br        1.47596         4.28772        -2.07572
| 24>   Br        4.77178         4.16107        -2.01289
| 25>    C        4.07395        -1.06525        -0.71903
| 26>    C        5.35377        -1.55531        -0.73718
| 27>    C        6.49344        -0.77280        -1.01664
| 28>    N        7.44960        -0.17714        -1.23494
| 29>    C        5.68985        -2.91008        -0.52865
| 30>    N        6.02911        -3.99888        -0.39967
| 31>    C        2.86901        -1.82621        -0.47994
| 32>    C        2.79648        -3.07722         0.07870
| 33>    C        1.66571        -3.90781         0.11210
| 34>    C        0.61482        -4.02271        -0.82235
| 35>    O        0.64434        -3.32640        -1.95997
| 36>    C       -0.43448        -3.48534        -2.85744
| 37>    C       -0.31715        -4.99390        -0.45356
| 38>    C       -0.00653        -5.63829         0.73480
| 39>    S        1.48290        -5.06307         1.40653
| 40>    C       -0.76005        -6.66175         1.36772
| 41>    C       -0.34331        -7.20832         2.60601
| 42>    C       -1.07532        -8.23808         3.29579
| 43>    N       -0.54860        -8.80050         4.39051
| 44>    C        0.57131        -8.33569         4.88027
| 45>    C        1.24363        -7.22912         4.26179
| 46>    N        0.78468        -6.72894         3.14305
| 47>    C        2.41280        -6.68314         4.84729
| 48>    N        3.35054        -6.27247         5.36021
| 49>    C        1.10556        -8.94603         6.04354
| 50>    N        1.53897        -9.41403         6.99447
| 51>    C       -2.30843        -8.72046         2.80050
| 52>    C       -2.68220        -8.23846         1.52682
| 53>    C       -1.94260        -7.21530         0.82681
| 54>    N       -2.52597        -6.90744        -0.33464
| 55>    S       -3.84755        -7.79654        -0.52502
| 56>    N       -3.76095        -8.62437         0.84287
| 57>    C       -3.16023        -9.61736         3.50232
| 58>    C       -3.35057        -9.78968         4.88530
| 59>    O       -2.67532        -9.04206         5.76708
| 60>    C       -2.92495        -9.25247         7.14160
| 61>    C       -4.34617       -10.73041         5.17159
| 62>    C       -4.95996       -11.25408         4.04573
| 63>    S       -4.25537       -10.60030         2.59847
| 64>    C       -5.98341       -12.22919         4.02609
| 65>    C       -6.80880       -12.56596         2.99589
| 66>    C       -7.46927       -13.89824         2.98271
| 67>    O       -7.60313       -14.65870         3.91040
| 68>    C       -7.85801       -14.10899         1.56862
| 69>    C       -7.58281       -12.94616         0.82365
| 70>    C       -7.08344       -11.91598         1.72968
| 71>    C       -7.13659       -10.56681         1.50393
| 72>    C       -6.98276        -9.61077         2.53219
| 73>    N       -6.93589        -8.80972         3.35211
| 74>    C       -7.39403        -9.98238         0.24902
| 75>    N       -7.54451        -9.45731        -0.76044
| 76>    C       -7.83734       -12.91950        -0.53642
| 77>    C       -8.36497       -14.05800        -1.13494
| 78>    C       -8.64762       -15.20437        -0.38798
| 79>    C       -8.39333       -15.23463         0.97784
| 80>   Br       -9.37709       -16.73203        -1.22698
| 81>   Br       -8.69514       -14.03510        -2.99535
| 82>    H        5.50083         1.42547        -1.31922
| 83>    H        0.52747         1.57407        -1.37733
| 84>    H        3.66956        -3.46366         0.59199
| 85>    H       -0.21788        -2.82868        -3.69780
| 86>    H       -1.37613        -3.18371        -2.39220
| 87>    H       -0.50952        -4.51900        -3.20778
| 88>    H       -1.20332        -5.24495        -1.00568
| 89>    H       -3.96543        -9.02885         7.39488
| 90>    H       -2.26554        -8.56520         7.66811
| 91>    H       -2.68345       -10.27764         7.43449
| 92>    H       -4.65721       -11.00144         6.16385
| 93>    H       -6.07435       -12.84399         4.91622
| 94>    H       -7.62753       -12.05044        -1.13943
| 95>    H       -8.60865       -16.11549         1.56251
| 96> *
| 97>
| 98>                          ****END OF INPUT****

CARTESIAN COORDINATES (ANGSTROEM)
---------------------------------
  C      1.700090   -0.950440   -0.713300
  O      0.528410   -1.201130   -0.539190
  C      2.271280    0.367910   -1.075440
  C      3.675320    0.299800   -1.055720
  C      4.422880    1.431350   -1.334490
  C      3.753950    2.612960   -1.634930
  C      2.359580    2.670070   -1.656690
  C      1.605820    1.538990   -1.369480
  Br     1.475960    4.287720   -2.075720
  Br     4.771780    4.161070   -2.012890
  C      4.073950   -1.065250   -0.719030
  C      5.353770   -1.555310   -0.737180
  C      6.493440   -0.772800   -1.016640
  N      7.449600   -0.177140   -1.234940
  C      5.689850   -2.910080   -0.528650
  N      6.029110   -3.998880   -0.399670
  C      2.869010   -1.826210   -0.479940
  C      2.796480   -3.077220    0.078700
  C      1.665710   -3.907810    0.112100
  C      0.614820   -4.022710   -0.822350
  O      0.644340   -3.326400   -1.959970
  C     -0.434480   -3.485340   -2.857440
  C     -0.317150   -4.993900   -0.453560
  C     -0.006530   -5.638290    0.734800
  S      1.482900   -5.063070    1.406530
  C     -0.760050   -6.661750    1.367720
  C     -0.343310   -7.208320    2.606010
  C     -1.075320   -8.238080    3.295790
  N     -0.548600   -8.800500    4.390510
  C      0.571310   -8.335690    4.880270
  C      1.243630   -7.229120    4.261790
  N      0.784680   -6.728940    3.143050
  C      2.412800   -6.683140    4.847290
  N      3.350540   -6.272470    5.360210
  C      1.105560   -8.946030    6.043540
  N      1.538970   -9.414030    6.994470
  C     -2.308430   -8.720460    2.800500
  C     -2.682200   -8.238460    1.526820
  C     -1.942600   -7.215300    0.826810
  N     -2.525970   -6.907440   -0.334640
  S     -3.847550   -7.796540   -0.525020
  N     -3.760950   -8.624370    0.842870
  C     -3.160230   -9.617360    3.502320
  C     -3.350570   -9.789680    4.885300
  O     -2.675320   -9.042060    5.767080
  C     -2.924950   -9.252470    7.141600
  C     -4.346170  -10.730410    5.171590
  C     -4.959960  -11.254080    4.045730
  S     -4.255370  -10.600300    2.598470
  C     -5.983410  -12.229190    4.026090
  C     -6.808800  -12.565960    2.995890
  C     -7.469270  -13.898240    2.982710
  O     -7.603130  -14.658700    3.910400
  C     -7.858010  -14.108990    1.568620
  C     -7.582810  -12.946160    0.823650
  C     -7.083440  -11.915980    1.729680
  C     -7.136590  -10.566810    1.503930
  C     -6.982760   -9.610770    2.532190
  N     -6.935890   -8.809720    3.352110
  C     -7.394030   -9.982380    0.249020
  N     -7.544510   -9.457310   -0.760440
  C     -7.837340  -12.919500   -0.536420
  C     -8.364970  -14.058000   -1.134940
  C     -8.647620  -15.204370   -0.387980
  C     -8.393330  -15.234630    0.977840
  Br    -9.377090  -16.732030   -1.226980
  Br    -8.695140  -14.035100   -2.995350
  H      5.500830    1.425470   -1.319220
  H      0.527470    1.574070   -1.377330
  H      3.669560   -3.463660    0.591990
  H     -0.217880   -2.828680   -3.697800
  H     -1.376130   -3.183710   -2.392200
  H     -0.509520   -4.519000   -3.207780
  H     -1.203320   -5.244950   -1.005680
  H     -3.965430   -9.028850    7.394880
  H     -2.265540   -8.565200    7.668110
  H     -2.683450  -10.277640    7.434490
  H     -4.657210  -11.001440    6.163850
  H     -6.074350  -12.843990    4.916220
  H     -7.627530  -12.050440   -1.139430
  H     -8.608650  -16.115490    1.562510

 Total Charge           Charge          ....    0
 Multiplicity           Mult            ....    1
 Number of Electrons    NEL             ....  580
 Basis Dimension        Dim             .... 1092

ORBITAL ENERGIES
----------------

  NO   OCC          E(Eh)            E(eV)
   0   2.0000    -482.885607    -13139.9854
   1   2.0000    -482.885551    -13139.9839
   2   2.0000    -482.872725    -13139.6349
   3   2.0000    -482.870271    -13139.5681
   4   2.0000     -89.064254     -2423.5616
   5   2.0000     -88.983829     -2421.3731
   6   2.0000     -88.969980     -2420.9962
   7   2.0000     -62.563212     -1702.4316
   8   2.0000     -62.563167     -1702.4303
   9   2.0000     -62.550338     -1702.0812
  10   2.0000     -62.547891     -1702.0146
  11   2.0000     -56.397174     -1534.6451
  12   2.0000     -56.397132     -1534.6440
  13   2.0000     -56.394501     -1534.5724
  14   2.0000     -56.394456     -1534.5712
  15   2.0000     -56.394411     -1534.5699
  16   2.0000     -56.394359     -1534.5685
  17   2.0000     -56.384274     -1534.2941
  18   2.0000     -56.381845     -1534.2280
  19   2.0000     -56.381643     -1534.2225
  20   2.0000     -56.381549     -1534.2199
  21   2.0000     -56.379185     -1534.1556
  22   2.0000     -56.379094     -1534.1531
  23   2.0000     -19.274348      -524.4817
  24   2.0000     -19.266024      -524.2552
  25   2.0000     -19.233258      -523.3636
  26   2.0000     -19.212462      -522.7977
  27   2.0000     -14.477270      -393.9466
  28   2.0000     -14.473045      -393.8316
  29   2.0000     -14.472192      -393.8084
  30   2.0000     -14.471796      -393.7976
  31   2.0000     -14.441326      -392.9685
  32   2.0000     -14.439254      -392.9121
  33   2.0000     -14.435316      -392.8049
  34   2.0000     -14.428398      -392.6167
  35   2.0000     -14.411983      -392.1700
  36   2.0000     -14.411742      -392.1634
  37   2.0000     -10.398313      -282.9525
  38   2.0000     -10.392003      -282.7808
  39   2.0000     -10.385158      -282.5945
  40   2.0000     -10.370598      -282.1983
  41   2.0000     -10.364749      -282.0392
  42   2.0000     -10.363619      -282.0084
  43   2.0000     -10.363358      -282.0013
  44   2.0000     -10.362936      -281.9898
  45   2.0000     -10.362930      -281.9897
  46   2.0000     -10.362849      -281.9875
  47   2.0000     -10.362411      -281.9755
  48   2.0000     -10.361716      -281.9566
  49   2.0000     -10.360274      -281.9174
  50   2.0000     -10.357702      -281.8474
  51   2.0000     -10.348122      -281.5867
  52   2.0000     -10.347366      -281.5661
  53   2.0000     -10.343507      -281.4611
  54   2.0000     -10.340529      -281.3801
  55   2.0000     -10.340231      -281.3720
  56   2.0000     -10.338892      -281.3356
  57   2.0000     -10.338113      -281.3144
  58   2.0000     -10.337626      -281.3011
  59   2.0000     -10.336752      -281.2773
  60   2.0000     -10.335237      -281.2361
  61   2.0000     -10.334569      -281.2179
  62   2.0000     -10.334364      -281.2123
  63   2.0000     -10.333822      -281.1976
  64   2.0000     -10.333521      -281.1894
  65   2.0000     -10.332875      -281.1718
  66   2.0000     -10.330560      -281.1088
  67   2.0000     -10.330243      -281.1002
  68   2.0000     -10.323007      -280.9033
  69   2.0000     -10.322414      -280.8872
  70   2.0000     -10.317946      -280.7656
  71   2.0000     -10.316501      -280.7263
  72   2.0000     -10.315538      -280.7000
  73   2.0000     -10.314583      -280.6741
  74   2.0000     -10.314340      -280.6675
  75   2.0000     -10.310422      -280.5609
  76   2.0000     -10.310045      -280.5506
  77   2.0000     -10.305450      -280.4255
  78   2.0000     -10.305344      -280.4227
  79   2.0000     -10.305164      -280.4178
  80   2.0000     -10.296432      -280.1802
  81   2.0000     -10.293082      -280.0890
  82   2.0000     -10.289840      -280.0008
  83   2.0000      -8.792534      -239.2570
  84   2.0000      -8.792490      -239.2558
  85   2.0000      -8.779652      -238.9065
  86   2.0000      -8.777210      -238.8400
  87   2.0000      -8.155204      -221.9144
  88   2.0000      -8.078012      -219.8139
  89   2.0000      -8.063620      -219.4222
  90   2.0000      -6.628690      -180.3758
  91   2.0000      -6.628677      -180.3755
  92   2.0000      -6.615723      -180.0230
  93   2.0000      -6.614644      -179.9936
  94   2.0000      -6.614584      -179.9920
  95   2.0000      -6.613843      -179.9718
  96   2.0000      -6.613806      -179.9708
  97   2.0000      -6.613357      -179.9586
  98   2.0000      -6.601806      -179.6443
  99   2.0000      -6.601032      -179.6232
 100   2.0000      -6.599311      -179.5764
 101   2.0000      -6.598558      -179.5559
 102   2.0000      -6.126233      -166.7033
 103   2.0000      -6.118336      -166.4884
 104   2.0000      -6.118168      -166.4838
 105   2.0000      -6.047407      -164.5583
 106   2.0000      -6.043098      -164.4411
 107   2.0000      -6.040038      -164.3578
 108   2.0000      -6.033178      -164.1711
 109   2.0000      -6.028709      -164.0495
 110   2.0000      -6.025554      -163.9637
 111   2.0000      -2.744590       -74.6841
 112   2.0000      -2.744560       -74.6833
 113   2.0000      -2.740810       -74.5812
 114   2.0000      -2.740773       -74.5802
 115   2.0000      -2.740211       -74.5649
 116   2.0000      -2.740205       -74.5648
 117   2.0000      -2.731637       -74.3316
 118   2.0000      -2.729243       -74.2665
 119   2.0000      -2.729025       -74.2606
 120   2.0000      -2.729006       -74.2600
 121   2.0000      -2.728965       -74.2589
 122   2.0000      -2.728961       -74.2588
 123   2.0000      -2.727879       -74.2294
 124   2.0000      -2.727323       -74.2142
 125   2.0000      -2.725462       -74.1636
 126   2.0000      -2.724921       -74.1489
 127   2.0000      -2.716229       -73.9124
 128   2.0000      -2.716214       -73.9119
 129   2.0000      -2.713729       -73.8443
 130   2.0000      -2.713716       -73.8440
 131   2.0000      -1.183356       -32.2008
 132   2.0000      -1.174817       -31.9684
 133   2.0000      -1.161369       -31.6025
 134   2.0000      -1.149151       -31.2700
 135   2.0000      -1.136478       -30.9251
 136   2.0000      -1.126536       -30.6546
 137   2.0000      -1.063082       -28.9279
 138   2.0000      -1.039594       -28.2888
 139   2.0000      -1.027041       -27.9472
 140   2.0000      -1.023576       -27.8529
 141   2.0000      -1.021328       -27.7918
 142   2.0000      -1.018362       -27.7110
 143   2.0000      -1.014622       -27.6093
 144   2.0000      -1.012557       -27.5531
 145   2.0000      -1.008579       -27.4448
 146   2.0000      -1.002605       -27.2823
 147   2.0000      -1.000106       -27.2143
 148   2.0000      -0.990733       -26.9592
 149   2.0000      -0.989108       -26.9150
 150   2.0000      -0.983402       -26.7597
 151   2.0000      -0.970301       -26.4032
 152   2.0000      -0.934485       -25.4286
 153   2.0000      -0.929659       -25.2973
 154   2.0000      -0.923613       -25.1328
 155   2.0000      -0.922086       -25.0912
 156   2.0000      -0.916716       -24.9451
 157   2.0000      -0.912712       -24.8362
 158   2.0000      -0.907272       -24.6881
 159   2.0000      -0.897682       -24.4272
 160   2.0000      -0.882117       -24.0036
 161   2.0000      -0.868500       -23.6331
 162   2.0000      -0.864159       -23.5150
 163   2.0000      -0.863036       -23.4844
 164   2.0000      -0.856474       -23.3058
 165   2.0000      -0.848577       -23.0910
 166   2.0000      -0.847136       -23.0517
 167   2.0000      -0.842605       -22.9285
 168   2.0000      -0.828626       -22.5481
 169   2.0000      -0.812091       -22.0981
 170   2.0000      -0.804339       -21.8872
 171   2.0000      -0.798113       -21.7177
 172   2.0000      -0.784645       -21.3513
 173   2.0000      -0.779123       -21.2010
 174   2.0000      -0.762264       -20.7422
 175   2.0000      -0.758470       -20.6390
 176   2.0000      -0.752344       -20.4723
 177   2.0000      -0.737292       -20.0627
 178   2.0000      -0.724080       -19.7032
 179   2.0000      -0.719572       -19.5805
 180   2.0000      -0.713970       -19.4281
 181   2.0000      -0.704771       -19.1778
 182   2.0000      -0.701010       -19.0754
 183   2.0000      -0.695253       -18.9188
 184   2.0000      -0.689627       -18.7657
 185   2.0000      -0.677999       -18.4493
 186   2.0000      -0.677248       -18.4289
 187   2.0000      -0.674196       -18.3458
 188   2.0000      -0.664787       -18.0898
 189   2.0000      -0.656739       -17.8708
 190   2.0000      -0.650399       -17.6983
 191   2.0000      -0.646957       -17.6046
 192   2.0000      -0.640493       -17.4287
 193   2.0000      -0.634249       -17.2588
 194   2.0000      -0.625259       -17.0142
 195   2.0000      -0.620438       -16.8830
 196   2.0000      -0.612983       -16.6801
 197   2.0000      -0.610356       -16.6086
 198   2.0000      -0.603534       -16.4230
 199   2.0000      -0.600865       -16.3504
 200   2.0000      -0.595866       -16.2143
 201   2.0000      -0.588947       -16.0261
 202   2.0000      -0.581468       -15.8226
 203   2.0000      -0.577522       -15.7152
 204   2.0000      -0.574686       -15.6380
 205   2.0000      -0.571800       -15.5595
 206   2.0000      -0.567071       -15.4308
 207   2.0000      -0.566702       -15.4208
 208   2.0000      -0.561089       -15.2680
 209   2.0000      -0.557559       -15.1719
 210   2.0000      -0.554754       -15.0956
 211   2.0000      -0.553391       -15.0585
 212   2.0000      -0.549171       -14.9437
 213   2.0000      -0.544190       -14.8082
 214   2.0000      -0.541994       -14.7484
 215   2.0000      -0.537851       -14.6357
 216   2.0000      -0.535663       -14.5761
 217   2.0000      -0.532231       -14.4828
 218   2.0000      -0.527413       -14.3516
 219   2.0000      -0.525398       -14.2968
 220   2.0000      -0.522478       -14.2174
 221   2.0000      -0.517823       -14.0907
 222   2.0000      -0.514466       -13.9993
 223   2.0000      -0.512463       -13.9448
 224   2.0000      -0.509910       -13.8753
 225   2.0000      -0.508066       -13.8252
 226   2.0000      -0.502847       -13.6832
 227   2.0000      -0.498819       -13.5736
 228   2.0000      -0.496092       -13.4994
 229   2.0000      -0.495871       -13.4933
 230   2.0000      -0.491056       -13.3623
 231   2.0000      -0.488409       -13.2903
 232   2.0000      -0.487111       -13.2550
 233   2.0000      -0.481931       -13.1140
 234   2.0000      -0.478568       -13.0225
 235   2.0000      -0.474415       -12.9095
 236   2.0000      -0.472901       -12.8683
 237   2.0000      -0.471480       -12.8296
 238   2.0000      -0.466011       -12.6808
 239   2.0000      -0.464862       -12.6495
 240   2.0000      -0.463671       -12.6171
 241   2.0000      -0.460039       -12.5183
 242   2.0000      -0.459167       -12.4946
 243   2.0000      -0.457493       -12.4490
 244   2.0000      -0.456942       -12.4340
 245   2.0000      -0.454947       -12.3797
 246   2.0000      -0.453958       -12.3528
 247   2.0000      -0.451424       -12.2839
 248   2.0000      -0.445492       -12.1225
 249   2.0000      -0.444971       -12.1083
 250   2.0000      -0.443847       -12.0777
 251   2.0000      -0.441708       -12.0195
 252   2.0000      -0.439869       -11.9695
 253   2.0000      -0.439370       -11.9559
 254   2.0000      -0.434470       -11.8225
 255   2.0000      -0.433523       -11.7968
 256   2.0000      -0.432152       -11.7595
 257   2.0000      -0.427592       -11.6354
 258   2.0000      -0.424370       -11.5477
 259   2.0000      -0.424103       -11.5404
 260   2.0000      -0.422564       -11.4986
 261   2.0000      -0.420980       -11.4554
 262   2.0000      -0.420284       -11.4365
 263   2.0000      -0.411677       -11.2023
 264   2.0000      -0.409997       -11.1566
 265   2.0000      -0.408057       -11.1038
 266   2.0000      -0.401898       -10.9362
 267   2.0000      -0.399357       -10.8671
 268   2.0000      -0.397608       -10.8195
 269   2.0000      -0.394088       -10.7237
 270   2.0000      -0.393712       -10.7134
 271   2.0000      -0.389843       -10.6082
 272   2.0000      -0.385519       -10.4905
 273   2.0000      -0.374105       -10.1799
 274   2.0000      -0.363347        -9.8872
 275   2.0000      -0.362327        -9.8594
 276   2.0000      -0.359271        -9.7763
 277   2.0000      -0.357317        -9.7231
 278   2.0000      -0.352657        -9.5963
 279   2.0000      -0.347476        -9.4553
 280   2.0000      -0.343833        -9.3562
 281   2.0000      -0.337186        -9.1753
 282   2.0000      -0.333620        -9.0783
 283   2.0000      -0.330200        -8.9852
 284   2.0000      -0.325613        -8.8604
 285   2.0000      -0.320858        -8.7310
 286   2.0000      -0.316447        -8.6110
 287   2.0000      -0.305533        -8.3140
 288   2.0000      -0.291287        -7.9263
 289   2.0000      -0.256386        -6.9766
 290   0.0000      -0.145087        -3.9480
 291   0.0000      -0.104528        -2.8444
 292   0.0000      -0.083854        -2.2818
 293   0.0000      -0.077327        -2.1042
 294   0.0000      -0.063846        -1.7373

MULLIKEN ATOMIC CHARGES
-----------------------
   0 C :    0.146406
   1 O :   -0.145047
   2 C :   -0.015508
   3 C :    0.037783
   4 C :   -0.015126
   5 C :   -0.023891
   6 C :   -0.013964
   7 C :   -0.028728
   8 Br:    0.007013
   9 Br:    0.015996
  10 C :    0.291980
  11 C :   -0.331964
  12 C :   -0.188513
  13 N :    0.153877
  14 C :   -0.205847
  15 N :    0.163235
  16 C :   -0.096013
  17 C :    0.016474
  18 C :   -0.128309
  19 C :    0.293750
  20 O :   -0.278288
  21 C :    0.178155
  22 C :   -0.124089
  23 C :   -0.146500
  24 S :    0.185638
  25 C :    0.206882
  26 C :   -0.050140
  27 C :   -0.086210
  28 N :    0.091684
  29 C :   -0.160800
  30 C :   -0.082710
  31 N :    0.001560
  32 C :   -0.228052
  33 N :    0.252505
  34 C :   -0.214079
  35 N :    0.242303
  36 C :    0.168413
  37 C :   -0.003402
  38 C :   -0.005885
  39 N :   -0.287270
  40 S :    0.585422
  41 N :   -0.306688
  42 C :   -0.239210
  43 C :    0.278384
  44 O :   -0.283404
  45 C :    0.167729
  46 C :   -0.067666
  47 C :   -0.062448
  48 S :    0.197042
  49 C :    0.071092
  50 C :   -0.133331
  51 C :    0.144200
  52 O :   -0.130644
  53 C :   -0.003334
  54 C :    0.027868
  55 C :    0.239426
  56 C :   -0.302483
  57 C :   -0.209370
  58 N :    0.177584
  59 C :   -0.173378
  60 N :    0.151278
  61 C :   -0.013512
  62 C :   -0.022789
  63 C :   -0.014766
  64 C :   -0.020701
  65 Br:    0.020465
  66 Br:    0.024255
  67 H :    0.007420
  68 H :    0.001267
  69 H :    0.034074
  70 H :    0.044493
  71 H :    0.036300
  72 H :    0.027639
  73 H :   -0.008089
  74 H :    0.034782
  75 H :    0.050792
  76 H :    0.036233
  77 H :   -0.007943
  78 H :    0.028594
  79 H :    0.009333
  80 H :    0.010769
Sum of atomic charges:   -0.0000000

LOEWDIN ATOMIC CHARGES
----------------------
   0 C :    0.076867
   1 O :   -0.138774
   2 C :   -0.038210
   3 C :   -0.012430
   4 C :   -0.008044
   5 C :   -0.121784
   6 C :   -0.124017
   7 C :    0.000964
   8 Br:    0.132080
   9 Br:    0.136606
  10 C :    0.072277
  11 C :   -0.136123
  12 C :   -0.020147
  13 N :   -0.049443
  14 C :   -0.024447
  15 N :   -0.048400
  16 C :   -0.097436
  17 C :    0.052998
  18 C :   -0.209924
  19 C :    0.053308
  20 O :   -0.061773
  21 C :    0.084395
  22 C :   -0.079713
  23 C :   -0.143832
  24 S :    0.491839
  25 C :   -0.035728
  26 C :   -0.007127
  27 C :   -0.008240
  28 N :    0.024021
  29 C :   -0.030988
  30 C :   -0.012426
  31 N :   -0.016505
  32 C :   -0.038560
  33 N :    0.008327
  34 C :   -0.036723
  35 N :   -0.006371
  36 C :   -0.029214
  37 C :   -0.043046
  38 C :   -0.033347
  39 N :   -0.277598
  40 S :    0.706192
  41 N :   -0.294663
  42 C :   -0.180437
  43 C :    0.040602
  44 O :   -0.074052
  45 C :    0.083225
  46 C :   -0.058988
  47 C :   -0.171258
  48 S :    0.528277
  49 C :    0.055529
  50 C :   -0.092021
  51 C :    0.083669
  52 O :   -0.131382
  53 C :   -0.043380
  54 C :   -0.008728
  55 C :    0.059372
  56 C :   -0.134854
  57 C :   -0.037690
  58 N :   -0.042145
  59 C :   -0.019601
  60 N :   -0.051867
  61 C :   -0.010863
  62 C :   -0.117393
  63 C :   -0.122742
  64 C :    0.008642
  65 Br:    0.142112
  66 Br:    0.144198
  67 H :    0.044381
  68 H :    0.043815
  69 H :    0.045815
  70 H :    0.032639
  71 H :    0.023096
  72 H :    0.018481
  73 H :    0.029253
  74 H :    0.020490
  75 H :    0.034760
  76 H :    0.021879
  77 H :    0.036604
  78 H :    0.053675
  79 H :    0.044139
  80 H :    0.047905

  Mayer bond orders larger than 0.100000
B(  0-C ,  1-O ) :   2.2242 B(  0-C ,  2-C ) :   0.9338 B(  0-C , 16-C ) :   0.9681
B(  2-C ,  3-C ) :   1.3316 B(  2-C ,  7-C ) :   1.3758 B(  3-C ,  4-C ) :   1.3675
B(  3-C , 10-C ) :   0.9892 B(  4-C ,  5-C ) :   1.3653 B(  4-C , 67-H ) :   0.9814
B(  5-C ,  6-C ) :   1.4281 B(  5-C ,  9-Br) :   1.0529 B(  6-C ,  7-C ) :   1.3464
B(  6-C ,  8-Br) :   1.0295 B(  7-C , 68-H ) :   1.0089 B( 10-C , 11-C ) :   1.6430
B( 10-C , 16-C ) :   1.0904 B( 11-C , 12-C ) :   1.1389 B( 11-C , 14-C ) :   1.1406
B( 12-C , 13-N ) :   2.9729 B( 14-C , 15-N ) :   2.9995 B( 16-C , 17-C ) :   1.5548
B( 17-C , 18-C ) :   1.2192 B( 17-C , 69-H ) :   0.9318 B( 18-C , 19-C ) :   1.3689
B( 18-C , 24-S ) :   1.0448 B( 19-C , 20-O ) :   1.2146 B( 19-C , 22-C ) :   1.2156
B( 20-O , 21-C ) :   0.9435 B( 21-C , 70-H ) :   0.9787 B( 21-C , 71-H ) :   0.9709
B( 21-C , 72-H ) :   0.9698 B( 22-C , 23-C ) :   1.4019 B( 22-C , 73-H ) :   0.9871
B( 23-C , 24-S ) :   1.1513 B( 23-C , 25-C ) :   1.1926 B( 25-C , 26-C ) :   1.2457
B( 25-C , 36-C ) :   0.1216 B( 25-C , 38-C ) :   1.2040 B( 26-C , 27-C ) :   1.1059
B( 26-C , 31-N ) :   1.3902 B( 27-C , 28-N ) :   1.4610 B( 27-C , 36-C ) :   1.2721
B( 28-N , 29-C ) :   1.7317 B( 29-C , 30-C ) :   1.2013 B( 29-C , 34-C ) :   1.1604
B( 30-C , 31-N ) :   1.7139 B( 30-C , 32-C ) :   1.1538 B( 32-C , 33-N ) :   3.0392
B( 34-C , 35-N ) :   3.0526 B( 36-C , 37-C ) :   1.2179 B( 36-C , 42-C ) :   1.1236
B( 37-C , 38-C ) :   1.1175 B( 37-C , 41-N ) :   1.4753 B( 38-C , 39-N ) :   1.5055
B( 39-N , 40-S ) :   1.2850 B( 39-N , 41-N ) :   0.1499 B( 40-S , 41-N ) :   1.2882
B( 42-C , 43-C ) :   1.3846 B( 42-C , 47-C ) :   0.1051 B( 42-C , 48-S ) :   1.1549
B( 43-C , 44-O ) :   1.2139 B( 43-C , 46-C ) :   1.2399 B( 44-O , 45-C ) :   0.9404
B( 45-C , 74-H ) :   0.9701 B( 45-C , 75-H ) :   0.9788 B( 45-C , 76-H ) :   0.9705
B( 46-C , 47-C ) :   1.3828 B( 46-C , 77-H ) :   1.0069 B( 47-C , 48-S ) :   1.1191
B( 47-C , 49-C ) :   1.1379 B( 49-C , 50-C ) :   1.6489 B( 49-C , 78-H ) :   0.9494
B( 50-C , 51-C ) :   0.9421 B( 50-C , 55-C ) :   1.0250 B( 51-C , 52-O ) :   2.2794
B( 51-C , 53-C ) :   0.9191 B( 53-C , 54-C ) :   1.3256 B( 53-C , 64-C ) :   1.3773
B( 54-C , 55-C ) :   1.0186 B( 54-C , 61-C ) :   1.3681 B( 55-C , 56-C ) :   1.6681
B( 56-C , 57-C ) :   1.1441 B( 56-C , 59-C ) :   1.1349 B( 57-C , 58-N ) :   3.0285
B( 59-C , 60-N ) :   2.9829 B( 61-C , 62-C ) :   1.3693 B( 61-C , 79-H ) :   0.9839
B( 62-C , 63-C ) :   1.4201 B( 62-C , 66-Br) :   1.0539 B( 63-C , 64-C ) :   1.3558
B( 63-C , 65-Br) :   1.0380 B( 64-C , 80-H ) :   1.0073

-----------------------------------------------------------------------------
         ABSORPTION SPECTRUM VIA TRANSITION ELECTRIC DIPOLE MOMENTS
-----------------------------------------------------------------------------
State   Energy  Wavelength   fosc         T2         TX        TY        TZ
        (cm-1)    (nm)                  (au**2)     (au)      (au)      (au)
-----------------------------------------------------------------------------
   0    8774.4   1139.7   0.583983914  21.91073   3.03543   3.29873  -1.34733
   1   15746.3    635.1   0.013397772   0.28011  -0.32162   0.33188  -0.25793
   2   18099.9    552.5   0.222620829   4.04917  -1.69412  -0.89921  -0.60874
   3   19829.1    504.3   0.077737324   1.29063   0.43053   0.89967  -0.54394
   4   21389.6    467.5   0.456429532   7.02500   1.67692   1.92491  -0.71252
   5   21878.3    457.1   0.026416770   0.39750  -0.02351  -0.15032   0.61185
   6   23355.1    428.2   0.026012363   0.36667  -0.59443   0.11510  -0.00874
   7   24070.4    415.4   0.006739731   0.09218   0.26146  -0.11986   0.09722
   8   24270.6    412.0   0.030509120   0.41383   0.36969   0.43958  -0.28971
   9   24853.6    402.4   0.131125988   1.73690  -1.09809  -0.71454  -0.14331
  10   25318.5    395.0   0.135859592   1.76656   0.12293   1.27940  -0.33851
  11   25623.5    390.3   0.081835151   1.05142   0.25381   0.87967  -0.46172
  12   26022.8    384.3   0.016071052   0.20331  -0.01988  -0.45044  -0.00489
  13   26112.3    383.0   0.018717465   0.23598   0.33120   0.33044   0.13076
  14   26816.0    372.9   0.026864786   0.32981  -0.29920   0.32884  -0.36353
  15   27396.0    365.0   0.197464071   2.37289  -0.83171  -1.08229  -0.71400
  16   28570.6    350.0   0.003977000   0.04583   0.08842   0.05385  -0.18737
  17   29406.1    340.1   0.035794508   0.40073   0.22358   0.56774   0.16857
  18   30059.6    332.7   0.001999640   0.02190   0.12745   0.02657  -0.07036
  19   30186.0    331.3   0.028883946   0.31501  -0.40202  -0.18479  -0.34532
  20   30513.5    327.7   0.180386866   1.94620   0.39762  -0.36481   1.28647
  21   30991.2    322.7   0.541094589   5.74791  -1.77131  -0.66664  -1.47172
  22   31218.6    320.3   0.081359604   0.85797  -0.66600   0.11837  -0.63277
  23   31565.2    316.8   0.139110048   1.45086  -0.36830   1.14484   0.06751
  24   31639.1    316.1   0.011042504   0.11490  -0.20408  -0.15013   0.22520
  25   32056.3    312.0   0.144304565   1.48198   0.04743  -1.18962   0.25405
  26   32167.6    310.9   0.027483332   0.28127  -0.33773   0.40771   0.03135
  27   32351.4    309.1   0.143197470   1.45719   0.83175   0.09430   0.86977
  28   32965.8    303.3   0.069847892   0.69753  -0.08948  -0.82263   0.11317
  29   33084.5    302.3   0.120649675   1.20054  -0.99897   0.29382  -0.34097
  30   33753.9    296.3   0.076414527   0.74529   0.40437   0.69671  -0.31044
  31   33906.9    294.9   0.009109505   0.08845  -0.21222  -0.11223   0.17555
  32   34088.6    293.4   0.054831638   0.52954  -0.30523   0.53558   0.38668
  33   34346.8    291.1   0.000545528   0.00523  -0.04650   0.03575   0.04229
  34   34461.1    290.2   0.022571048   0.21562  -0.30907   0.33003  -0.10572
  35   34618.5    288.9   0.117506208   1.11745   0.86032   0.49283   0.36664
  36   34760.1    287.7   0.219616533   2.07998   0.40953   1.35422   0.27994
  37   34944.9    286.2   0.078951585   0.74379   0.26985  -0.81182   0.10917
  38   35094.4    284.9   0.002614396   0.02452   0.11340   0.08867   0.06166
  39   35482.2    281.8   0.347397440   3.22323   0.87366  -1.38035   0.74471
  40   35529.4    281.5   0.166881251   1.54630   0.84334  -0.90942  -0.08967
  41   35944.0    278.2   0.123570600   1.13179   0.55622  -0.07029  -0.90414
  42   36481.9    274.1   0.024311455   0.21939  -0.15782   0.40509  -0.17431
  43   36808.0    271.7   0.040176118   0.35934  -0.57698  -0.15838  -0.03669
  44   37136.2    269.3   0.120460109   1.06788   0.79841   0.60932  -0.24318
  45   37377.3    267.5   0.029635781   0.26103  -0.13092   0.11353   0.48062
  46   37470.5    266.9   0.160061446   1.40628  -0.43101   0.21055  -1.08452
  47   37714.7    265.1   0.086582467   0.75578   0.48010   0.41109   0.59690
  48   37960.0    263.4   0.118546654   1.02811   0.40856  -0.12252   0.91988
  49   38382.3    260.5   0.056841723   0.48754   0.21714   0.54533   0.37816
  50   38702.0    258.4   0.028659789   0.24379   0.17135  -0.42446   0.18509
  51   38839.6    257.5   0.018745226   0.15889  -0.29512  -0.21009  -0.16631
  52   38984.3    256.5   0.003858329   0.03258   0.01534   0.10040  -0.14922
  53   39096.5    255.8   0.151349015   1.27443   0.53284   0.99354   0.05829
  54   39346.1    254.2   0.002060571   0.01724   0.00686  -0.12956  -0.02021
  55   39412.0    253.7   0.007929865   0.06624  -0.10578   0.22538  -0.06523
  56   39481.2    253.3   0.171243256   1.42790  -0.98250  -0.36823  -0.57184
  57   39958.5    250.3   0.010753205   0.08859   0.08732  -0.07028  -0.27574
  58   40191.6    248.8   0.011275638   0.09236   0.11741   0.12158   0.25257

FINAL SINGLE POINT ENERGY    -14096.347112708114

DIPOLE MOMENT
-------------
                                X             Y             Z
Electronic contribution:    -41.31803      40.24649    -110.05416
Nuclear contribution   :     37.27748     -42.33306     109.51063
                        -----------------------------------------
Total Dipole Moment    :     -4.04055      -2.08657      -0.54354
                        -----------------------------------------
Magnitude (a.u.)       :      4.57987
Magnitude (Debye)      :     11.64111

Rotational constants in cm-1:     0.001375     0.000217     0.000199
Rotational constants in MHz :    41.213644     6.520448     5.974203

                             ****ORCA TERMINATED NORMALLY****
TOTAL RUN TIME: 0 days 0 hours 9 minutes 45 seconds 714 msec
