                         Program Version 4.2.0 -  RELEASE  -
|  1> # ORCA input file
|  2> # SCF done       -205.469423876268          0.000858622171
|  3> ! CAM-B3LYP def2-SVP def2/J RIJCOSX Grid4 TightSCF
|  4> %maxcore 5000
|  5> %tddft
|  6>     Mode sTDDFT
|  7>     Ethresh 5.0
|  8>     maxcore 5000
|  9> end
| 10>
| 11> %pal
| 12>   nprocs 6
| 13>   end
| 14> * xyz 0 1
| 15>    C        1.55995         4.19986        -4.52959
| 16>    C        2.09318         5.41367        -4.18400
| 17>    C        2.64613         6.31893        -5.11256
| 18>    N        3.09399         7.09458        -5.82985
| 19>    C        2.23217         5.84617        -2.84948
| 20>    N        2.38912         6.21440        -1.77343
| 21>    C        1.65125         3.58333        -5.84720
| 22>    C        1.50657         2.17223        -5.69698
| 23>    C        1.59881         1.32600        -6.76445
| 24>    C        1.83225         1.86232        -8.05084
| 25>    C        1.95715         3.27345        -8.20928
| 26>    C        1.86426         4.12606        -7.08548
| 27>    C        2.18193         3.79480        -9.49955
| 28>    C        2.28429         2.96406       -10.58200
| 29>    C        2.16392         1.57513       -10.42494
| 30>    C        1.94262         1.03607        -9.18665
| 31>    C        1.24875         1.85472        -4.28186
| 32>    O        1.12811         0.76965        -3.76422
| 33>    C        1.09283         3.18114        -3.60997
| 34>    C        0.49693         3.24477        -2.39250
| 35>    C       -0.11404         4.35066        -1.74740
| 36>    C       -0.36883         4.45647        -0.38994
| 37>    C       -1.01439         5.64762        -0.06746
| 38>    C       -1.29211         6.43599        -1.19891
| 39>    S       -0.74516         5.72752        -2.64441
| 40>    C       -1.94903         7.61876        -0.77703
| 41>    C       -2.08035         7.58466         0.62336
| 42>    C       -1.50020         6.34266         1.11459
| 43>    C       -1.42748         5.92062         2.40839
| 44>    C       -1.93518         6.69042         3.47730
| 45>    N       -2.35016         7.31424         4.34458
| 46>    C       -0.85003         4.68264         2.76465
| 47>    N       -0.39197         3.67358         3.05708
| 48>    C       -2.70608         8.72158         1.13646
| 49>    C       -3.04399         9.60608         0.13109
| 50>    S       -2.59021         9.03581        -1.46521
| 51>    C       -3.68145        10.88706         0.19465
| 52>    C       -4.09653        11.53345         1.31572
| 53>    C       -4.70894        12.82345         1.21479
| 54>    C       -5.14391        13.52254         2.32677
| 55>    C       -5.73715        14.79019         2.21090
| 56>    N       -6.21833        15.82753         2.10083
| 57>    C       -5.01504        13.00743         3.62710
| 58>    N       -4.91250        12.58206         4.68898
| 59>    C       -4.84222        13.35500        -0.10777
| 60>    C       -4.40363        12.64586        -1.17974
| 61>    O       -3.83034        11.42208        -1.04759
| 62>    C       -4.47172        13.06810        -2.54925
| 63>    C       -4.02212        12.33471        -3.63102
| 64>    C       -4.21009        13.01841        -4.82995
| 65>    C       -4.80812        14.27813        -4.65068
| 66>    S       -5.14081        14.61712        -3.00995
| 67>    C       -4.94019        14.89717        -5.92074
| 68>    C       -4.41699        14.02633        -6.89939
| 69>    C       -3.96318        12.80876        -6.24792
| 70>    C       -3.44194        11.69150        -6.82994
| 71>    C       -3.29118        11.55475        -8.22750
| 72>    N       -3.18461        11.40902        -9.35901
| 73>    C       -3.04762        10.57227        -6.06502
| 74>    N       -2.73100         9.66438        -5.43994
| 75>    C       -4.45500        14.56066        -8.18242
| 76>    C       -5.00491        15.83366        -8.19900
| 77>    S       -5.51365        16.35075        -6.58954
| 78>    C       -5.25652        16.72153        -9.27074
| 79>    C       -4.65409        16.76349       -10.49374
| 80>    C       -5.04283        17.65237       -11.57638
| 81>    C       -6.25646        18.27356       -11.71295
| 82>    C       -6.59759        19.10395       -12.80129
| 83>    N       -6.92868        19.79385       -13.65671
| 84>    C       -7.33741        18.13297       -10.81705
| 85>    N       -8.26095        18.04195       -10.14075
| 86>    C       -3.95425        17.68244       -12.54272
| 87>    C       -2.95361        16.76011       -12.12298
| 88>    C       -3.36288        16.11923       -10.86331
| 89>    O       -2.73413        15.29394       -10.23702
| 90>    C       -1.80766        16.56264       -12.83862
| 91>    C       -1.60566        17.29536       -14.02928
| 92>    C       -2.59832        18.22680       -14.45204
| 93>    C       -3.77551        18.40864       -13.69055
| 94>    C       -2.38227        18.95708       -15.63835
| 95>    C       -1.24253        18.77619       -16.37387
| 96>    C       -0.26676        17.85820       -15.95742
| 97>    C       -0.44465        17.13301       -14.81040
| 98>    H        1.49662         0.25948        -6.62986
| 99>    H        1.95219         5.19146        -7.23199
|100>    H        2.27722         4.86444        -9.61479
|101>    H        2.45942         3.37282       -11.56579
|102>    H        2.24705         0.93447       -11.28998
|103>    H        1.84881        -0.03249        -9.05992
|104>    H        0.41353         2.29743        -1.86725
|105>    H       -0.06012         3.70705         0.31624
|106>    H       -2.90323         8.89974         2.17741
|107>    H       -3.96450        11.08353         2.28538
|108>    H       -5.29253        14.32502        -0.24804
|109>    H       -3.58104        11.36015        -3.53007
|110>    H       -4.10800        14.06015        -9.06639
|111>    H       -5.99920        17.48081        -9.05327
|112>    H       -1.06574        15.85487       -12.49993
|113>    H       -4.50480        19.12621       -14.03177
|114>    H       -3.13689        19.66154       -15.95592
|115>    H       -1.08666        19.33987       -17.28136
|116>    H        0.62664        17.72880       -16.54968
|117>    H        0.30298        16.42484       -14.48451
|118> *
|119>
|120>                          ****END OF INPUT****

CARTESIAN COORDINATES (ANGSTROEM)
---------------------------------
  C      1.559950    4.199860   -4.529590
  C      2.093180    5.413670   -4.184000
  C      2.646130    6.318930   -5.112560
  N      3.093990    7.094580   -5.829850
  C      2.232170    5.846170   -2.849480
  N      2.389120    6.214400   -1.773430
  C      1.651250    3.583330   -5.847200
  C      1.506570    2.172230   -5.696980
  C      1.598810    1.326000   -6.764450
  C      1.832250    1.862320   -8.050840
  C      1.957150    3.273450   -8.209280
  C      1.864260    4.126060   -7.085480
  C      2.181930    3.794800   -9.499550
  C      2.284290    2.964060  -10.582000
  C      2.163920    1.575130  -10.424940
  C      1.942620    1.036070   -9.186650
  C      1.248750    1.854720   -4.281860
  O      1.128110    0.769650   -3.764220
  C      1.092830    3.181140   -3.609970
  C      0.496930    3.244770   -2.392500
  C     -0.114040    4.350660   -1.747400
  C     -0.368830    4.456470   -0.389940
  C     -1.014390    5.647620   -0.067460
  C     -1.292110    6.435990   -1.198910
  S     -0.745160    5.727520   -2.644410
  C     -1.949030    7.618760   -0.777030
  C     -2.080350    7.584660    0.623360
  C     -1.500200    6.342660    1.114590
  C     -1.427480    5.920620    2.408390
  C     -1.935180    6.690420    3.477300
  N     -2.350160    7.314240    4.344580
  C     -0.850030    4.682640    2.764650
  N     -0.391970    3.673580    3.057080
  C     -2.706080    8.721580    1.136460
  C     -3.043990    9.606080    0.131090
  S     -2.590210    9.035810   -1.465210
  C     -3.681450   10.887060    0.194650
  C     -4.096530   11.533450    1.315720
  C     -4.708940   12.823450    1.214790
  C     -5.143910   13.522540    2.326770
  C     -5.737150   14.790190    2.210900
  N     -6.218330   15.827530    2.100830
  C     -5.015040   13.007430    3.627100
  N     -4.912500   12.582060    4.688980
  C     -4.842220   13.355000   -0.107770
  C     -4.403630   12.645860   -1.179740
  O     -3.830340   11.422080   -1.047590
  C     -4.471720   13.068100   -2.549250
  C     -4.022120   12.334710   -3.631020
  C     -4.210090   13.018410   -4.829950
  C     -4.808120   14.278130   -4.650680
  S     -5.140810   14.617120   -3.009950
  C     -4.940190   14.897170   -5.920740
  C     -4.416990   14.026330   -6.899390
  C     -3.963180   12.808760   -6.247920
  C     -3.441940   11.691500   -6.829940
  C     -3.291180   11.554750   -8.227500
  N     -3.184610   11.409020   -9.359010
  C     -3.047620   10.572270   -6.065020
  N     -2.731000    9.664380   -5.439940
  C     -4.455000   14.560660   -8.182420
  C     -5.004910   15.833660   -8.199000
  S     -5.513650   16.350750   -6.589540
  C     -5.256520   16.721530   -9.270740
  C     -4.654090   16.763490  -10.493740
  C     -5.042830   17.652370  -11.576380
  C     -6.256460   18.273560  -11.712950
  C     -6.597590   19.103950  -12.801290
  N     -6.928680   19.793850  -13.656710
  C     -7.337410   18.132970  -10.817050
  N     -8.260950   18.041950  -10.140750
  C     -3.954250   17.682440  -12.542720
  C     -2.953610   16.760110  -12.122980
  C     -3.362880   16.119230  -10.863310
  O     -2.734130   15.293940  -10.237020
  C     -1.807660   16.562640  -12.838620
  C     -1.605660   17.295360  -14.029280
  C     -2.598320   18.226800  -14.452040
  C     -3.775510   18.408640  -13.690550
  C     -2.382270   18.957080  -15.638350
  C     -1.242530   18.776190  -16.373870
  C     -0.266760   17.858200  -15.957420
  C     -0.444650   17.133010  -14.810400
  H      1.496620    0.259480   -6.629860
  H      1.952190    5.191460   -7.231990
  H      2.277220    4.864440   -9.614790
  H      2.459420    3.372820  -11.565790
  H      2.247050    0.934470  -11.289980
  H      1.848810   -0.032490   -9.059920
  H      0.413530    2.297430   -1.867250
  H     -0.060120    3.707050    0.316240
  H     -2.903230    8.899740    2.177410
  H     -3.964500   11.083530    2.285380
  H     -5.292530   14.325020   -0.248040
  H     -3.581040   11.360150   -3.530070
  H     -4.108000   14.060150   -9.066390
  H     -5.999200   17.480810   -9.053270
  H     -1.065740   15.854870  -12.499930
  H     -4.504800   19.126210  -14.031770
  H     -3.136890   19.661540  -15.955920
  H     -1.086660   19.339870  -17.281360
  H      0.626640   17.728800  -16.549680
  H      0.302980   16.424840  -14.484510

 Total Charge           Charge          ....    0
 Multiplicity           Mult            ....    1
 Number of Electrons    NEL             ....  574
 Basis Dimension        Dim             .... 1278

ORBITAL ENERGIES
----------------

  NO   OCC          E(Eh)            E(eV)
   0   2.0000     -89.019245     -2422.3368
   1   2.0000     -89.011065     -2422.1142
   2   2.0000     -89.010869     -2422.1089
   3   2.0000     -89.004680     -2421.9405
   4   2.0000     -19.339193      -526.2462
   5   2.0000     -19.227759      -523.2139
   6   2.0000     -19.221987      -523.0569
   7   2.0000     -14.450405      -393.2155
   8   2.0000     -14.444133      -393.0448
   9   2.0000     -14.440064      -392.9341
  10   2.0000     -14.439799      -392.9269
  11   2.0000     -14.424294      -392.5050
  12   2.0000     -14.423639      -392.4872
  13   2.0000     -14.423456      -392.4822
  14   2.0000     -14.422445      -392.4547
  15   2.0000     -14.404706      -391.9720
  16   2.0000     -14.402759      -391.9190
  17   2.0000     -10.404937      -283.1327
  18   2.0000     -10.402904      -283.0774
  19   2.0000     -10.384643      -282.5805
  20   2.0000     -10.379677      -282.4454
  21   2.0000     -10.377779      -282.3937
  22   2.0000     -10.373765      -282.2845
  23   2.0000     -10.371018      -282.2098
  24   2.0000     -10.364806      -282.0407
  25   2.0000     -10.360723      -281.9296
  26   2.0000     -10.359461      -281.8953
  27   2.0000     -10.352669      -281.7104
  28   2.0000     -10.352452      -281.7045
  29   2.0000     -10.351895      -281.6894
  30   2.0000     -10.351455      -281.6774
  31   2.0000     -10.351455      -281.6774
  32   2.0000     -10.350879      -281.6617
  33   2.0000     -10.350649      -281.6555
  34   2.0000     -10.349443      -281.6227
  35   2.0000     -10.347518      -281.5703
  36   2.0000     -10.346876      -281.5528
  37   2.0000     -10.343263      -281.4545
  38   2.0000     -10.342695      -281.4390
  39   2.0000     -10.339468      -281.3512
  40   2.0000     -10.339318      -281.3471
  41   2.0000     -10.338895      -281.3356
  42   2.0000     -10.338649      -281.3290
  43   2.0000     -10.332611      -281.1646
  44   2.0000     -10.329842      -281.0893
  45   2.0000     -10.329346      -281.0758
  46   2.0000     -10.327488      -281.0252
  47   2.0000     -10.327263      -281.0191
  48   2.0000     -10.326963      -281.0110
  49   2.0000     -10.325645      -280.9751
  50   2.0000     -10.325420      -280.9690
  51   2.0000     -10.324873      -280.9541
  52   2.0000     -10.324626      -280.9473
  53   2.0000     -10.323779      -280.9243
  54   2.0000     -10.321875      -280.8725
  55   2.0000     -10.321049      -280.8500
  56   2.0000     -10.319868      -280.8179
  57   2.0000     -10.319123      -280.7976
  58   2.0000     -10.317213      -280.7456
  59   2.0000     -10.314110      -280.6612
  60   2.0000     -10.310893      -280.5737
  61   2.0000     -10.310676      -280.5678
  62   2.0000     -10.309233      -280.5285
  63   2.0000     -10.308091      -280.4974
  64   2.0000     -10.305746      -280.4336
  65   2.0000     -10.304868      -280.4097
  66   2.0000     -10.304684      -280.4047
  67   2.0000     -10.304375      -280.3963
  68   2.0000     -10.304277      -280.3936
  69   2.0000     -10.304273      -280.3935
  70   2.0000     -10.304010      -280.3864
  71   2.0000     -10.303820      -280.3812
  72   2.0000     -10.303631      -280.3761
  73   2.0000     -10.296831      -280.1910
  74   2.0000     -10.296549      -280.1833
  75   2.0000     -10.292957      -280.0856
  76   2.0000     -10.292455      -280.0720
  77   2.0000     -10.292254      -280.0665
  78   2.0000     -10.292082      -280.0618
  79   2.0000     -10.291790      -280.0538
  80   2.0000     -10.291661      -280.0503
  81   2.0000     -10.291429      -280.0440
  82   2.0000     -10.290972      -280.0316
  83   2.0000      -8.113363      -220.7758
  84   2.0000      -8.105533      -220.5628
  85   2.0000      -8.104909      -220.5458
  86   2.0000      -8.098830      -220.3804
  87   2.0000      -6.082664      -165.5177
  88   2.0000      -6.078450      -165.4030
  89   2.0000      -6.075714      -165.3286
  90   2.0000      -6.074642      -165.2994
  91   2.0000      -6.074169      -165.2865
  92   2.0000      -6.070491      -165.1865
  93   2.0000      -6.069815      -165.1681
  94   2.0000      -6.068127      -165.1221
  95   2.0000      -6.068058      -165.1203
  96   2.0000      -6.067467      -165.1042
  97   2.0000      -6.063827      -165.0051
  98   2.0000      -6.061294      -164.9362
  99   2.0000      -1.251523       -34.0557
 100   2.0000      -1.143455       -31.1150
 101   2.0000      -1.137664       -30.9574
 102   2.0000      -1.068351       -29.0713
 103   2.0000      -1.062079       -28.9007
 104   2.0000      -1.040269       -28.3072
 105   2.0000      -1.032958       -28.1082
 106   2.0000      -1.028635       -27.9906
 107   2.0000      -1.027538       -27.9607
 108   2.0000      -1.024901       -27.8890
 109   2.0000      -1.022545       -27.8249
 110   2.0000      -1.017992       -27.7010
 111   2.0000      -1.015703       -27.6387
 112   2.0000      -1.006670       -27.3929
 113   2.0000      -1.005818       -27.3697
 114   2.0000      -1.005335       -27.3566
 115   2.0000      -1.001743       -27.2588
 116   2.0000      -1.001634       -27.2558
 117   2.0000      -0.985972       -26.8296
 118   2.0000      -0.982675       -26.7400
 119   2.0000      -0.980614       -26.6839
 120   2.0000      -0.978049       -26.6141
 121   2.0000      -0.974218       -26.5098
 122   2.0000      -0.968500       -26.3542
 123   2.0000      -0.954053       -25.9611
 124   2.0000      -0.938826       -25.5467
 125   2.0000      -0.933982       -25.4149
 126   2.0000      -0.929100       -25.2821
 127   2.0000      -0.922625       -25.1059
 128   2.0000      -0.909618       -24.7520
 129   2.0000      -0.905182       -24.6313
 130   2.0000      -0.893244       -24.3064
 131   2.0000      -0.892749       -24.2929
 132   2.0000      -0.888479       -24.1768
 133   2.0000      -0.888154       -24.1679
 134   2.0000      -0.885601       -24.0984
 135   2.0000      -0.879590       -23.9348
 136   2.0000      -0.876745       -23.8575
 137   2.0000      -0.872897       -23.7527
 138   2.0000      -0.871902       -23.7257
 139   2.0000      -0.837649       -22.7936
 140   2.0000      -0.835421       -22.7330
 141   2.0000      -0.834794       -22.7159
 142   2.0000      -0.828704       -22.5502
 143   2.0000      -0.813903       -22.1474
 144   2.0000      -0.811015       -22.0688
 145   2.0000      -0.797216       -21.6933
 146   2.0000      -0.790171       -21.5016
 147   2.0000      -0.778882       -21.1945
 148   2.0000      -0.770225       -20.9589
 149   2.0000      -0.770120       -20.9560
 150   2.0000      -0.764481       -20.8026
 151   2.0000      -0.741577       -20.1793
 152   2.0000      -0.735144       -20.0043
 153   2.0000      -0.724303       -19.7093
 154   2.0000      -0.716908       -19.5081
 155   2.0000      -0.715844       -19.4791
 156   2.0000      -0.712677       -19.3929
 157   2.0000      -0.708355       -19.2753
 158   2.0000      -0.707969       -19.2648
 159   2.0000      -0.702771       -19.1234
 160   2.0000      -0.700767       -19.0689
 161   2.0000      -0.696871       -18.9628
 162   2.0000      -0.689868       -18.7723
 163   2.0000      -0.686772       -18.6880
 164   2.0000      -0.684294       -18.6206
 165   2.0000      -0.680069       -18.5056
 166   2.0000      -0.665798       -18.1173
 167   2.0000      -0.660950       -17.9854
 168   2.0000      -0.653286       -17.7768
 169   2.0000      -0.648254       -17.6399
 170   2.0000      -0.641701       -17.4616
 171   2.0000      -0.640882       -17.4393
 172   2.0000      -0.638642       -17.3783
 173   2.0000      -0.634348       -17.2615
 174   2.0000      -0.630035       -17.1441
 175   2.0000      -0.623359       -16.9625
 176   2.0000      -0.617202       -16.7949
 177   2.0000      -0.614069       -16.7097
 178   2.0000      -0.613755       -16.7011
 179   2.0000      -0.609160       -16.5761
 180   2.0000      -0.606985       -16.5169
 181   2.0000      -0.606004       -16.4902
 182   2.0000      -0.601980       -16.3807
 183   2.0000      -0.599854       -16.3229
 184   2.0000      -0.584518       -15.9055
 185   2.0000      -0.582687       -15.8557
 186   2.0000      -0.569741       -15.5035
 187   2.0000      -0.568694       -15.4749
 188   2.0000      -0.566817       -15.4239
 189   2.0000      -0.562871       -15.3165
 190   2.0000      -0.560216       -15.2442
 191   2.0000      -0.555723       -15.1220
 192   2.0000      -0.554152       -15.0792
 193   2.0000      -0.552943       -15.0463
 194   2.0000      -0.548619       -14.9287
 195   2.0000      -0.547381       -14.8950
 196   2.0000      -0.546221       -14.8634
 197   2.0000      -0.543584       -14.7917
 198   2.0000      -0.540321       -14.7029
 199   2.0000      -0.532554       -14.4915
 200   2.0000      -0.530828       -14.4446
 201   2.0000      -0.528430       -14.3793
 202   2.0000      -0.525402       -14.2969
 203   2.0000      -0.524102       -14.2615
 204   2.0000      -0.522526       -14.2187
 205   2.0000      -0.521264       -14.1843
 206   2.0000      -0.519281       -14.1304
 207   2.0000      -0.519179       -14.1276
 208   2.0000      -0.518355       -14.1052
 209   2.0000      -0.516575       -14.0567
 210   2.0000      -0.516255       -14.0480
 211   2.0000      -0.512624       -13.9492
 212   2.0000      -0.507798       -13.8179
 213   2.0000      -0.506145       -13.7729
 214   2.0000      -0.504873       -13.7383
 215   2.0000      -0.503854       -13.7106
 216   2.0000      -0.502791       -13.6817
 217   2.0000      -0.502099       -13.6628
 218   2.0000      -0.500991       -13.6327
 219   2.0000      -0.497254       -13.5310
 220   2.0000      -0.493496       -13.4287
 221   2.0000      -0.492650       -13.4057
 222   2.0000      -0.490440       -13.3456
 223   2.0000      -0.489296       -13.3144
 224   2.0000      -0.482610       -13.1325
 225   2.0000      -0.480737       -13.0815
 226   2.0000      -0.474427       -12.9098
 227   2.0000      -0.473102       -12.8738
 228   2.0000      -0.472280       -12.8514
 229   2.0000      -0.470546       -12.8042
 230   2.0000      -0.469494       -12.7756
 231   2.0000      -0.466784       -12.7018
 232   2.0000      -0.463124       -12.6022
 233   2.0000      -0.461557       -12.5596
 234   2.0000      -0.458316       -12.4714
 235   2.0000      -0.456764       -12.4292
 236   2.0000      -0.456483       -12.4215
 237   2.0000      -0.455931       -12.4065
 238   2.0000      -0.455357       -12.3909
 239   2.0000      -0.453125       -12.3301
 240   2.0000      -0.451812       -12.2944
 241   2.0000      -0.451325       -12.2812
 242   2.0000      -0.449443       -12.2300
 243   2.0000      -0.449129       -12.2214
 244   2.0000      -0.447417       -12.1748
 245   2.0000      -0.446035       -12.1372
 246   2.0000      -0.443373       -12.0648
 247   2.0000      -0.441929       -12.0255
 248   2.0000      -0.440977       -11.9996
 249   2.0000      -0.440450       -11.9853
 250   2.0000      -0.439677       -11.9642
 251   2.0000      -0.438150       -11.9227
 252   2.0000      -0.436472       -11.8770
 253   2.0000      -0.435914       -11.8618
 254   2.0000      -0.434385       -11.8202
 255   2.0000      -0.433897       -11.8069
 256   2.0000      -0.433478       -11.7955
 257   2.0000      -0.428033       -11.6474
 258   2.0000      -0.426431       -11.6038
 259   2.0000      -0.424667       -11.5558
 260   2.0000      -0.420937       -11.4543
 261   2.0000      -0.419975       -11.4281
 262   2.0000      -0.418633       -11.3916
 263   2.0000      -0.416969       -11.3463
 264   2.0000      -0.415091       -11.2952
 265   2.0000      -0.412749       -11.2315
 266   2.0000      -0.408475       -11.1152
 267   2.0000      -0.404956       -11.0194
 268   2.0000      -0.394894       -10.7456
 269   2.0000      -0.387561       -10.5461
 270   2.0000      -0.381754       -10.3881
 271   2.0000      -0.376110       -10.2345
 272   2.0000      -0.372328       -10.1316
 273   2.0000      -0.364664        -9.9230
 274   2.0000      -0.357357        -9.7242
 275   2.0000      -0.351631        -9.5684
 276   2.0000      -0.343330        -9.3425
 277   2.0000      -0.340578        -9.2676
 278   2.0000      -0.337581        -9.1860
 279   2.0000      -0.332349        -9.0437
 280   2.0000      -0.324659        -8.8344
 281   2.0000      -0.322721        -8.7817
 282   2.0000      -0.306402        -8.3376
 283   2.0000      -0.301759        -8.2113
 284   2.0000      -0.298668        -8.1272
 285   2.0000      -0.281222        -7.6525
 286   2.0000      -0.275227        -7.4893
 287   0.0000      -0.130380        -3.5478
 288   0.0000      -0.124092        -3.3767
 289   0.0000      -0.101143        -2.7523
 290   0.0000      -0.097241        -2.6461
 291   0.0000      -0.078471        -2.1353

MULLIKEN ATOMIC CHARGES
-----------------------
   0 C :    0.246134
   1 C :   -0.321822
   2 C :   -0.175372
   3 N :    0.159978
   4 C :   -0.205029
   5 N :    0.173408
   6 C :    0.035118
   7 C :    0.011096
   8 C :   -0.078904
   9 C :    0.094382
  10 C :    0.093653
  11 C :   -0.075654
  12 C :   -0.018109
  13 C :    0.037516
  14 C :    0.036176
  15 C :   -0.016472
  16 C :    0.143068
  17 O :   -0.137628
  18 C :   -0.136569
  19 C :    0.045587
  20 C :   -0.097619
  21 C :    0.010588
  22 C :    0.030648
  23 C :   -0.083828
  24 S :    0.224076
  25 C :   -0.083795
  26 C :    0.004647
  27 C :    0.297533
  28 C :   -0.285639
  29 C :   -0.191113
  30 N :    0.184652
  31 C :   -0.188222
  32 N :    0.185280
  33 C :   -0.020920
  34 C :   -0.107491
  35 S :    0.237437
  36 C :    0.281015
  37 C :   -0.171084
  38 C :    0.290983
  39 C :   -0.351310
  40 C :   -0.173777
  41 N :    0.130043
  42 C :   -0.170137
  43 N :    0.139255
  44 C :   -0.173917
  45 C :    0.266112
  46 O :   -0.256364
  47 C :   -0.097858
  48 C :   -0.023322
  49 C :    0.022064
  50 C :   -0.088905
  51 S :    0.230259
  52 C :   -0.090266
  53 C :   -0.020463
  54 C :    0.304548
  55 C :   -0.285210
  56 C :   -0.187346
  57 N :    0.192091
  58 C :   -0.184372
  59 N :    0.163774
  60 C :    0.046790
  61 C :   -0.112905
  62 S :    0.221581
  63 C :    0.023343
  64 C :   -0.089977
  65 C :    0.297454
  66 C :   -0.339460
  67 C :   -0.178842
  68 N :    0.150693
  69 C :   -0.203927
  70 N :    0.161774
  71 C :    0.051211
  72 C :   -0.006104
  73 C :    0.154200
  74 O :   -0.151523
  75 C :   -0.077801
  76 C :    0.098569
  77 C :    0.096789
  78 C :   -0.083270
  79 C :   -0.019696
  80 C :    0.037600
  81 C :    0.038474
  82 C :   -0.016199
  83 H :   -0.008120
  84 H :   -0.002865
  85 H :   -0.007960
  86 H :   -0.003638
  87 H :   -0.002529
  88 H :   -0.014475
  89 H :    0.036819
  90 H :    0.020331
  91 H :    0.022182
  92 H :    0.031882
  93 H :    0.030269
  94 H :    0.011045
  95 H :    0.031182
  96 H :    0.027867
  97 H :   -0.009389
  98 H :   -0.005528
  99 H :   -0.007836
 100 H :   -0.002812
 101 H :   -0.002891
 102 H :   -0.014916
Sum of atomic charges:   -0.0000000

LOEWDIN ATOMIC CHARGES
----------------------
   0 C :    0.060831
   1 C :   -0.140787
   2 C :   -0.019782
   3 N :   -0.046637
   4 C :   -0.035659
   5 N :   -0.047823
   6 C :   -0.023845
   7 C :   -0.057937
   8 C :    0.034744
   9 C :   -0.008324
  10 C :   -0.004848
  11 C :    0.017693
  12 C :   -0.005891
  13 C :   -0.010922
  14 C :   -0.011108
  15 C :   -0.008433
  16 C :    0.084328
  17 O :   -0.138052
  18 C :   -0.091008
  19 C :    0.048248
  20 C :   -0.172200
  21 C :    0.010785
  22 C :   -0.063575
  23 C :   -0.161517
  24 S :    0.520972
  25 C :   -0.171973
  26 C :   -0.060114
  27 C :    0.076804
  28 C :   -0.090847
  29 C :   -0.019190
  30 N :   -0.019964
  31 C :   -0.017309
  32 N :   -0.021486
  33 C :   -0.003197
  34 C :   -0.187183
  35 S :    0.518305
  36 C :    0.074478
  37 C :   -0.046826
  38 C :    0.054274
  39 C :   -0.171214
  40 C :   -0.029911
  41 N :   -0.066663
  42 C :   -0.032116
  43 N :   -0.059127
  44 C :   -0.055840
  45 C :    0.073999
  46 O :   -0.016744
  47 C :   -0.187293
  48 C :   -0.008157
  49 C :   -0.060805
  50 C :   -0.169562
  51 S :    0.510072
  52 C :   -0.168964
  53 C :   -0.068148
  54 C :    0.077126
  55 C :   -0.091015
  56 C :   -0.020347
  57 N :   -0.014101
  58 C :   -0.011042
  59 N :   -0.036864
  60 C :    0.022967
  61 C :   -0.171432
  62 S :    0.504514
  63 C :    0.040934
  64 C :   -0.084470
  65 C :    0.074306
  66 C :   -0.136510
  67 C :   -0.017680
  68 N :   -0.048538
  69 C :   -0.025579
  70 N :   -0.049723
  71 C :   -0.026723
  72 C :   -0.056483
  73 C :    0.085526
  74 O :   -0.137429
  75 C :    0.035413
  76 C :   -0.007751
  77 C :   -0.005288
  78 C :    0.020822
  79 C :   -0.004972
  80 C :   -0.010866
  81 C :   -0.010207
  82 C :   -0.008417
  83 H :    0.040613
  84 H :    0.039343
  85 H :    0.035016
  86 H :    0.033804
  87 H :    0.033726
  88 H :    0.032800
  89 H :    0.056035
  90 H :    0.047932
  91 H :    0.047313
  92 H :    0.051876
  93 H :    0.043383
  94 H :    0.040085
  95 H :    0.046038
  96 H :    0.045267
  97 H :    0.040396
  98 H :    0.039648
  99 H :    0.035286
 100 H :    0.034141
 101 H :    0.033748
 102 H :    0.032832

  Mayer bond orders larger than 0.100000
B(  0-C ,  1-C ) :   1.6594 B(  0-C ,  6-C ) :   1.0055 B(  0-C , 18-C ) :   1.0248
B(  1-C ,  2-C ) :   1.1352 B(  1-C ,  4-C ) :   1.1546 B(  2-C ,  3-N ) :   2.9935
B(  4-C ,  5-N ) :   3.0186 B(  6-C ,  7-C ) :   1.2134 B(  6-C , 11-C ) :   1.4565
B(  7-C ,  8-C ) :   1.4740 B(  7-C , 16-C ) :   0.9236 B(  8-C ,  9-C ) :   1.1875
B(  8-C , 83-H ) :   1.0161 B(  9-C , 10-C ) :   1.2547 B(  9-C , 15-C ) :   1.2437
B( 10-C , 11-C ) :   1.2059 B( 10-C , 12-C ) :   1.2411 B( 11-C , 84-H ) :   0.9943
B( 12-C , 13-C ) :   1.4893 B( 12-C , 85-H ) :   0.9980 B( 13-C , 14-C ) :   1.2599
B( 13-C , 86-H ) :   0.9892 B( 14-C , 15-C ) :   1.4897 B( 14-C , 87-H ) :   0.9892
B( 15-C , 88-H ) :   0.9981 B( 16-C , 17-O ) :   2.2761 B( 16-C , 18-C ) :   0.9293
B( 18-C , 19-C ) :   1.6735 B( 19-C , 20-C ) :   1.1158 B( 19-C , 89-H ) :   0.9451
B( 20-C , 21-C ) :   1.4140 B( 20-C , 24-S ) :   1.0997 B( 21-C , 22-C ) :   1.2961
B( 21-C , 90-H ) :   1.0007 B( 22-C , 23-C ) :   1.4163 B( 22-C , 27-C ) :   0.9928
B( 23-C , 24-S ) :   1.1543 B( 23-C , 25-C ) :   1.1957 B( 25-C , 26-C ) :   1.4291
B( 25-C , 35-S ) :   1.1399 B( 26-C , 27-C ) :   0.9924 B( 26-C , 33-C ) :   1.3121
B( 27-C , 28-C ) :   1.7248 B( 28-C , 29-C ) :   1.1326 B( 28-C , 31-C ) :   1.1330
B( 29-C , 30-N ) :   2.9897 B( 31-C , 32-N ) :   2.9940 B( 33-C , 34-C ) :   1.4897
B( 33-C , 91-H ) :   0.9859 B( 34-C , 35-S ) :   1.1048 B( 34-C , 36-C ) :   1.0470
B( 36-C , 37-C ) :   1.5916 B( 36-C , 46-O ) :   1.1030 B( 37-C , 38-C ) :   1.1191
B( 37-C , 92-H ) :   0.9666 B( 38-C , 39-C ) :   1.5485 B( 38-C , 44-C ) :   1.1298
B( 39-C , 40-C ) :   1.1314 B( 39-C , 42-C ) :   1.1292 B( 40-C , 41-N ) :   3.0039
B( 42-C , 43-N ) :   3.0075 B( 44-C , 45-C ) :   1.5691 B( 44-C , 93-H ) :   0.9604
B( 45-C , 46-O ) :   1.1268 B( 45-C , 47-C ) :   1.0941 B( 47-C , 48-C ) :   1.4438
B( 47-C , 51-S ) :   1.1155 B( 48-C , 49-C ) :   1.2765 B( 48-C , 94-H ) :   1.0033
B( 49-C , 50-C ) :   1.4351 B( 49-C , 54-C ) :   0.9937 B( 50-C , 51-S ) :   1.1367
B( 50-C , 52-C ) :   1.1945 B( 52-C , 53-C ) :   1.3992 B( 52-C , 62-S ) :   1.1612
B( 53-C , 54-C ) :   0.9945 B( 53-C , 60-C ) :   1.3306 B( 54-C , 55-C ) :   1.7222
B( 55-C , 56-C ) :   1.1320 B( 55-C , 58-C ) :   1.1355 B( 56-C , 57-N ) :   2.9960
B( 58-C , 59-N ) :   2.9877 B( 60-C , 61-C ) :   1.4272 B( 60-C , 95-H ) :   0.9747
B( 61-C , 62-S ) :   1.0888 B( 61-C , 63-C ) :   1.1654 B( 63-C , 64-C ) :   1.6284
B( 63-C , 96-H ) :   0.9308 B( 64-C , 65-C ) :   1.0583 B( 64-C , 73-C ) :   0.9362
B( 65-C , 66-C ) :   1.6477 B( 65-C , 71-C ) :   0.9940 B( 66-C , 67-C ) :   1.1423
B( 66-C , 69-C ) :   1.1369 B( 67-C , 68-N ) :   2.9695 B( 69-C , 70-N ) :   2.9974
B( 71-C , 72-C ) :   1.2114 B( 71-C , 78-C ) :   1.4487 B( 72-C , 73-C ) :   0.9495
B( 72-C , 75-C ) :   1.4702 B( 73-C , 74-O ) :   2.1989 B( 75-C , 76-C ) :   1.1798
B( 75-C , 97-H ) :   1.0166 B( 76-C , 77-C ) :   1.2548 B( 76-C , 82-C ) :   1.2436
B( 77-C , 78-C ) :   1.2062 B( 77-C , 79-C ) :   1.2403 B( 78-C , 98-H ) :   0.9911
B( 79-C , 80-C ) :   1.4887 B( 79-C , 99-H ) :   0.9975 B( 80-C , 81-C ) :   1.2609
B( 80-C ,100-H ) :   0.9888 B( 81-C , 82-C ) :   1.4872 B( 81-C ,101-H ) :   0.9890
B( 82-C ,102-H ) :   0.9983

-----------------------------------------------------------------------------
         ABSORPTION SPECTRUM VIA TRANSITION ELECTRIC DIPOLE MOMENTS
-----------------------------------------------------------------------------
State   Energy  Wavelength   fosc         T2         TX        TY        TZ
        (cm-1)    (nm)                  (au**2)     (au)      (au)      (au)
-----------------------------------------------------------------------------
   0   14891.0    671.5   0.253067852   5.59486  -0.76930   1.80827  -1.31651
   1   15282.5    654.3   0.258222408   5.56258  -0.98828   0.88015   1.95224
   2   19660.1    508.6   0.023189204   0.38831  -0.29086   0.48924   0.25367
   3   21599.7    463.0   0.415217411   6.32853  -1.43056   2.00118  -0.52659
   4   21772.0    459.3   0.509355403   7.70192  -1.16893   0.88878   2.35491
   5   22595.8    442.6   1.009069714  14.70173  -0.26420  -1.47870   3.52780
   6   23564.6    424.4   0.022369655   0.31252   0.33659  -0.17538  -0.41045
   7   24339.0    410.9   0.057183353   0.77347  -0.07797  -0.46753  -0.74081
   8   24683.3    405.1   0.106304214   1.41783   0.27348   0.46670  -1.06077
   9   25839.5    387.0   0.044350151   0.56505   0.12030   0.15230  -0.72621
  10   26570.1    376.4   0.126312012   1.56505  -0.21573   1.02795  -0.67958
  11   26813.7    372.9   0.294403870   3.61462   0.69267  -1.57773  -0.80350
  12   27290.3    366.4   0.055330303   0.66747  -0.05001   0.57639   0.57684
  13   27870.1    358.8   0.093006476   1.09863  -0.07152  -0.34582   0.98687
  14   28422.5    351.8   0.086369827   1.00040   0.07027   0.84704  -0.52725
  15   28627.8    349.3   0.084433916   0.97097   0.00450   0.92545  -0.33838
  16   28783.4    347.4   0.051866393   0.59322   0.29665  -0.04963  -0.70906
  17   28897.4    346.1   0.222113432   2.53041   0.60046  -1.02651  -1.05647
  18   29063.1    344.1   0.002320575   0.02629   0.02448  -0.10593  -0.12027
  19   29702.9    336.7   0.132129220   1.46445   0.56438  -0.42326   0.98325
  20   29710.8    336.6   0.121989692   1.35171  -0.78664   0.24439   0.82047
  21   30003.4    333.3   0.163956922   1.79902  -0.13775   0.76610  -1.09230
  22   30292.3    330.1   0.472346415   5.13338   0.97538   0.16260  -2.03852
  23   30773.5    325.0   0.714008074   7.63840  -0.55754   1.96607   1.86067
  24   31064.4    321.9   0.146523481   1.55282   0.12627  -0.81845  -0.93114
  25   31617.5    316.3   0.139936700   1.45707  -0.48669  -0.11854  -1.09825
  26   31721.7    315.2   0.063064666   0.65449   0.16039  -0.59379  -0.52553
  27   32050.9    312.0   0.216761175   2.22647   0.82640  -0.35489  -1.19063
  28   32145.2    311.1   0.100248733   1.02669   0.40581  -0.87344  -0.31482
  29   32320.0    309.4   0.022965365   0.23393  -0.21207  -0.21379   0.37848
  30   32390.9    308.7   0.078503162   0.79788   0.59039   0.09668  -0.66331
  31   32616.2    306.6   0.199670558   2.01538   0.52314  -0.88906  -0.97533
  32   32679.6    306.0   0.332457933   3.34915  -0.24598  -0.47489   1.75018
  33   33094.3    302.2   0.060701593   0.60384   0.19429  -0.58641  -0.47139
  34   33396.9    299.4   0.025920963   0.25552   0.06297   0.24716  -0.43642
  35   33599.6    297.6   0.079893672   0.78281   0.50424  -0.70819   0.16436
  36   33606.9    297.6   0.175336970   1.71759   0.00422   0.58742  -1.17154
  37   33759.4    296.2   0.122265645   1.19230   0.68319  -0.84195   0.12911
  38   34331.6    291.3   0.175734012   1.68514   0.68080   0.87133   0.68003
  39   34395.9    290.7   0.599649669   5.73940  -1.90960   0.44360   1.37697
  40   34800.1    287.4   0.066388145   0.62804   0.29081  -0.72317  -0.14318
  41   34893.7    286.6   0.017214179   0.16241   0.14050  -0.35841   0.11923
  42   35110.0    284.8   0.375671779   3.52252   0.06136   0.79203   1.70043
  43   35539.9    281.4   0.087024698   0.80612  -0.01229  -0.26764   0.85694
  44   35656.3    280.5   0.123073225   1.13633   0.16105  -0.71628  -0.77288
  45   35901.5    278.5   0.073995947   0.67853   0.24204  -0.46928  -0.63224
  46   36253.0    275.8   0.012359827   0.11224   0.06800   0.30368  -0.12406
  47   36505.0    273.9   0.117515362   1.05978   0.06077   0.37988   0.95487
  48   36640.4    272.9   0.009801552   0.08807  -0.15974  -0.23638   0.08170
  49   36979.2    270.4   0.175243114   1.56012  -0.40676   0.71876   0.93705
  50   37077.4    269.7   0.003849099   0.03418  -0.04263  -0.16388   0.07417
  51   37951.2    263.5   0.011676656   0.10129  -0.06964  -0.03376   0.30871
  52   38189.8    261.9   0.006635369   0.05720  -0.02844   0.20478  -0.12024
  53   38288.7    261.2   0.003397483   0.02921   0.13631   0.09886   0.02929
  54   38407.5    260.4   0.018376016   0.15751  -0.08656   0.19307  -0.33577
  55   38458.2    260.0   0.085827420   0.73471  -0.56162   0.61169  -0.21243
  56   38610.1    259.0   0.074687633   0.63683  -0.34529   0.54649  -0.46793
  57   38685.9    258.5   0.060175138   0.51208   0.59587  -0.39412   0.04109
  58   38952.8    256.7   0.002773984   0.02344   0.12156  -0.07602  -0.05375
  59   39387.4    253.9   0.032290708   0.26990  -0.09706   0.45945  -0.22221
  60   39484.3    253.3   0.052835199   0.44053   0.29540  -0.57768   0.13985
  61   39811.0    251.2   0.001055127   0.00873  -0.05230  -0.06584  -0.04068
  62   39977.1    250.1   0.038282392   0.31526  -0.54837   0.12059  -0.00305
  63   40122.4    249.2   0.147187575   1.20770  -0.90822   0.59205  -0.17977
  64   40253.7    248.4   0.253285459   2.07148   0.39598  -1.23368   0.62666

FINAL SINGLE POINT ENERGY     -4888.120643456426

DIPOLE MOMENT
-------------
                                X             Y             Z
Electronic contribution:    -20.96100       5.78523      51.44678
Nuclear contribution   :     22.52190      -6.82211     -57.00479
                        -----------------------------------------
Total Dipole Moment    :      1.56090      -1.03688      -5.55801
                        -----------------------------------------
Magnitude (a.u.)       :      5.86540
Magnitude (Debye)      :     14.90867

Rotational constants in cm-1:     0.000669     0.000314     0.000221
Rotational constants in MHz :    20.061750     9.411942     6.627591

                             ****ORCA TERMINATED NORMALLY****
TOTAL RUN TIME: 0 days 0 hours 23 minutes 28 seconds 423 msec
