                         Program Version 4.2.0 -  RELEASE  -
|  1> # ORCA input file
|  2> # SCF done       -148.210512045432          0.000836395361
|  3> ! CAM-B3LYP def2-SVP def2/J RIJCOSX Grid4 TightSCF
|  4> %maxcore 5000
|  5> %tddft
|  6>     Mode sTDDFT
|  7>     Ethresh 5.0
|  8>     maxcore 5000
|  9> end
| 10>
| 11> %pal
| 12>   nprocs 6
| 13>   end
| 14> * xyz 0 1
| 15>    O        0.26590        -0.00581         2.06814
| 16>    C       -0.82981         0.35054         1.71195
| 17>    C       -1.89668        -0.51786         1.08076
| 18>    C       -1.65317        -1.87527         0.83765
| 19>    C       -2.53191        -2.75880         0.26587
| 20>    C       -2.24367        -4.09999         0.00378
| 21>    S       -0.69560        -4.85078         0.36183
| 22>    C       -1.15889        -6.41382        -0.28154
| 23>    C       -0.27265        -7.49225        -0.29333
| 24>    C        1.04410        -7.51892         0.18915
| 25>    C        1.63345        -8.74840         0.00316
| 26>    C        0.79997        -9.69060        -0.62135
| 27>    S       -0.74731        -9.03888        -0.97974
| 28>    C        1.46228       -10.92262        -0.78827
| 29>    C        2.74081       -10.81611        -0.27013
| 30>    C        3.77127       -11.77612        -0.18758
| 31>    C        3.70640       -13.02040        -0.73518
| 32>    C        4.74282       -13.99673        -0.70448
| 33>    C        5.71838       -14.11565         0.31438
| 34>    C        5.81331       -13.48073         1.65096
| 35>    O        5.08752       -12.72334         2.21557
| 36>    O        6.94562       -13.98325         2.26624
| 37>    C        7.56548       -14.91741         1.48241
| 38>    O        8.55844       -15.49044         1.80277
| 39>    C        6.75647       -15.04180         0.24407
| 40>    C        6.91103       -15.93157        -0.80520
| 41>    C        5.92439       -15.87955        -1.77940
| 42>    C        5.92065       -16.79987        -2.93750
| 43>    O        6.71755       -17.65295        -3.18589
| 44>    S        4.49846       -16.43262        -3.95384
| 45>    C        3.94245       -15.09578        -2.87191
| 46>    O        2.95456       -14.46761        -3.12085
| 47>    C        4.87047       -14.96592        -1.73958
| 48>    C        2.93660        -9.42132         0.25372
| 49>    O        3.93576        -8.95672         0.74003
| 50>    C       -2.47812        -6.34870        -0.74944
| 51>    C       -3.49575        -7.12318        -1.35828
| 52>    N       -4.57049        -6.39615        -1.53912
| 53>    N       -4.32038        -5.16118        -1.07840
| 54>    C       -3.06381        -5.06831        -0.58424
| 55>    C       -3.00629         0.26670         0.82353
| 56>    C       -2.72924         1.58755         1.23919
| 57>    S       -3.54156         3.09499         1.24797
| 58>    C       -2.14691         3.87880         1.97859
| 59>    C       -2.21393         5.26659         2.24855
| 60>    C       -1.22614         5.99879         2.82451
| 61>    C       -1.27063         7.39850         3.09643
| 62>    C       -2.27097         8.24571         2.76909
| 63>    C       -2.27872         9.64880         3.06084
| 64>    C       -1.30771        10.43890         3.75290
| 65>    C       -1.78899        11.70619         3.76231
| 66>    O       -2.97718        11.77376         3.13407
| 67>    C       -3.27030        10.53882         2.71449
| 68>    C       -1.11135         2.97273         2.19442
| 69>    C       -1.43990         1.69274         1.77854
| 70>    H       -0.67219        -2.23294         1.12774
| 71>    H       -3.51892        -2.41896        -0.01947
| 72>    H        1.50737        -6.66252         0.64547
| 73>    H        1.03159       -11.79484        -1.24515
| 74>    H        4.66407       -11.43677         0.31769
| 75>    H        2.84045       -13.27539        -1.32712
| 76>    H        7.72276       -16.63837        -0.85383
| 77>    H       -3.47508        -8.15077        -1.65747
| 78>    H       -5.03686        -4.45663        -1.13060
| 79>    H       -3.93016        -0.05475         0.37870
| 80>    H       -3.13871         5.74854         1.96351
| 81>    H       -0.31575         5.49406         3.11604
| 82>    H       -0.40630         7.79967         3.60800
| 83>    H       -3.14438         7.88529         2.24403
| 84>    H       -0.38737        10.10346         4.18131
| 85>    H       -1.39747        12.61756         4.16878
| 86>    H       -4.19253        10.39885         2.18538
| 87>    H       -0.16826         3.24576         2.63008
| 88> *
| 89>
| 90>                          ****END OF INPUT****

CARTESIAN COORDINATES (ANGSTROEM)
---------------------------------
  O      0.265900   -0.005810    2.068140
  C     -0.829810    0.350540    1.711950
  C     -1.896680   -0.517860    1.080760
  C     -1.653170   -1.875270    0.837650
  C     -2.531910   -2.758800    0.265870
  C     -2.243670   -4.099990    0.003780
  S     -0.695600   -4.850780    0.361830
  C     -1.158890   -6.413820   -0.281540
  C     -0.272650   -7.492250   -0.293330
  C      1.044100   -7.518920    0.189150
  C      1.633450   -8.748400    0.003160
  C      0.799970   -9.690600   -0.621350
  S     -0.747310   -9.038880   -0.979740
  C      1.462280  -10.922620   -0.788270
  C      2.740810  -10.816110   -0.270130
  C      3.771270  -11.776120   -0.187580
  C      3.706400  -13.020400   -0.735180
  C      4.742820  -13.996730   -0.704480
  C      5.718380  -14.115650    0.314380
  C      5.813310  -13.480730    1.650960
  O      5.087520  -12.723340    2.215570
  O      6.945620  -13.983250    2.266240
  C      7.565480  -14.917410    1.482410
  O      8.558440  -15.490440    1.802770
  C      6.756470  -15.041800    0.244070
  C      6.911030  -15.931570   -0.805200
  C      5.924390  -15.879550   -1.779400
  C      5.920650  -16.799870   -2.937500
  O      6.717550  -17.652950   -3.185890
  S      4.498460  -16.432620   -3.953840
  C      3.942450  -15.095780   -2.871910
  O      2.954560  -14.467610   -3.120850
  C      4.870470  -14.965920   -1.739580
  C      2.936600   -9.421320    0.253720
  O      3.935760   -8.956720    0.740030
  C     -2.478120   -6.348700   -0.749440
  C     -3.495750   -7.123180   -1.358280
  N     -4.570490   -6.396150   -1.539120
  N     -4.320380   -5.161180   -1.078400
  C     -3.063810   -5.068310   -0.584240
  C     -3.006290    0.266700    0.823530
  C     -2.729240    1.587550    1.239190
  S     -3.541560    3.094990    1.247970
  C     -2.146910    3.878800    1.978590
  C     -2.213930    5.266590    2.248550
  C     -1.226140    5.998790    2.824510
  C     -1.270630    7.398500    3.096430
  C     -2.270970    8.245710    2.769090
  C     -2.278720    9.648800    3.060840
  C     -1.307710   10.438900    3.752900
  C     -1.788990   11.706190    3.762310
  O     -2.977180   11.773760    3.134070
  C     -3.270300   10.538820    2.714490
  C     -1.111350    2.972730    2.194420
  C     -1.439900    1.692740    1.778540
  H     -0.672190   -2.232940    1.127740
  H     -3.518920   -2.418960   -0.019470
  H      1.507370   -6.662520    0.645470
  H      1.031590  -11.794840   -1.245150
  H      4.664070  -11.436770    0.317690
  H      2.840450  -13.275390   -1.327120
  H      7.722760  -16.638370   -0.853830
  H     -3.475080   -8.150770   -1.657470
  H     -5.036860   -4.456630   -1.130600
  H     -3.930160   -0.054750    0.378700
  H     -3.138710    5.748540    1.963510
  H     -0.315750    5.494060    3.116040
  H     -0.406300    7.799670    3.608000
  H     -3.144380    7.885290    2.244030
  H     -0.387370   10.103460    4.181310
  H     -1.397470   12.617560    4.168780
  H     -4.192530   10.398850    2.185380
  H     -0.168260    3.245760    2.630080

 Total Charge           Charge          ....    0
 Multiplicity           Mult            ....    1
 Number of Electrons    NEL             ....  406
 Basis Dimension        Dim             ....  876

ORBITAL ENERGIES
----------------

  NO   OCC          E(Eh)            E(eV)
   0   2.0000     -88.986679     -2421.4506
   1   2.0000     -88.974169     -2421.1102
   2   2.0000     -88.972012     -2421.0515
   3   2.0000     -88.952425     -2420.5185
   4   2.0000     -19.289059      -524.8820
   5   2.0000     -19.286939      -524.8243
   6   2.0000     -19.246562      -523.7256
   7   2.0000     -19.244214      -523.6617
   8   2.0000     -19.236575      -523.4538
   9   2.0000     -19.236455      -523.4506
  10   2.0000     -19.232287      -523.3371
  11   2.0000     -19.225584      -523.1547
  12   2.0000     -14.493549      -394.3895
  13   2.0000     -14.447762      -393.1436
  14   2.0000     -10.431688      -283.8607
  15   2.0000     -10.429349      -283.7970
  16   2.0000     -10.409139      -283.2471
  17   2.0000     -10.405531      -283.1489
  18   2.0000     -10.373639      -282.2811
  19   2.0000     -10.366559      -282.0884
  20   2.0000     -10.338835      -281.3340
  21   2.0000     -10.331306      -281.1291
  22   2.0000     -10.328878      -281.0631
  23   2.0000     -10.328162      -281.0436
  24   2.0000     -10.327017      -281.0124
  25   2.0000     -10.326460      -280.9973
  26   2.0000     -10.325669      -280.9757
  27   2.0000     -10.325248      -280.9643
  28   2.0000     -10.320015      -280.8219
  29   2.0000     -10.319232      -280.8006
  30   2.0000     -10.318414      -280.7783
  31   2.0000     -10.318036      -280.7680
  32   2.0000     -10.317894      -280.7642
  33   2.0000     -10.317134      -280.7435
  34   2.0000     -10.308416      -280.5062
  35   2.0000     -10.308312      -280.5034
  36   2.0000     -10.305685      -280.4320
  37   2.0000     -10.300395      -280.2880
  38   2.0000     -10.299935      -280.2755
  39   2.0000     -10.296237      -280.1748
  40   2.0000     -10.295780      -280.1624
  41   2.0000     -10.291084      -280.0346
  42   2.0000     -10.289433      -279.9897
  43   2.0000     -10.288876      -279.9746
  44   2.0000     -10.285572      -279.8846
  45   2.0000     -10.285415      -279.8804
  46   2.0000     -10.283032      -279.8155
  47   2.0000     -10.281994      -279.7873
  48   2.0000     -10.281593      -279.7764
  49   2.0000     -10.277458      -279.6639
  50   2.0000     -10.276201      -279.6297
  51   2.0000     -10.273774      -279.5636
  52   2.0000     -10.272282      -279.5230
  53   2.0000     -10.270866      -279.4845
  54   2.0000     -10.265082      -279.3271
  55   2.0000      -8.081079      -219.8973
  56   2.0000      -8.068413      -219.5527
  57   2.0000      -8.067113      -219.5173
  58   2.0000      -8.051632      -219.0960
  59   2.0000      -6.050311      -164.6373
  60   2.0000      -6.046281      -164.5277
  61   2.0000      -6.043408      -164.4495
  62   2.0000      -6.037878      -164.2990
  63   2.0000      -6.036150      -164.2520
  64   2.0000      -6.033726      -164.1860
  65   2.0000      -6.032244      -164.1457
  66   2.0000      -6.030391      -164.0953
  67   2.0000      -6.029620      -164.0743
  68   2.0000      -6.020494      -163.8260
  69   2.0000      -6.017239      -163.7374
  70   2.0000      -6.012691      -163.6136
  71   2.0000      -1.238364       -33.6976
  72   2.0000      -1.206653       -32.8347
  73   2.0000      -1.170325       -31.8462
  74   2.0000      -1.165654       -31.7191
  75   2.0000      -1.164614       -31.6908
  76   2.0000      -1.154670       -31.4202
  77   2.0000      -1.142846       -31.0984
  78   2.0000      -1.135787       -30.9063
  79   2.0000      -1.126392       -30.6507
  80   2.0000      -1.018804       -27.7231
  81   2.0000      -1.013606       -27.5816
  82   2.0000      -1.003465       -27.3057
  83   2.0000      -0.993135       -27.0246
  84   2.0000      -0.954388       -25.9702
  85   2.0000      -0.950680       -25.8693
  86   2.0000      -0.943042       -25.6615
  87   2.0000      -0.929764       -25.3002
  88   2.0000      -0.919341       -25.0165
  89   2.0000      -0.918823       -25.0024
  90   2.0000      -0.900143       -24.4941
  91   2.0000      -0.885385       -24.0925
  92   2.0000      -0.879445       -23.9309
  93   2.0000      -0.872722       -23.7480
  94   2.0000      -0.866551       -23.5801
  95   2.0000      -0.852386       -23.1946
  96   2.0000      -0.847753       -23.0685
  97   2.0000      -0.846868       -23.0444
  98   2.0000      -0.837569       -22.7914
  99   2.0000      -0.823334       -22.4041
 100   2.0000      -0.800176       -21.7739
 101   2.0000      -0.796976       -21.6868
 102   2.0000      -0.783115       -21.3096
 103   2.0000      -0.766983       -20.8707
 104   2.0000      -0.763418       -20.7736
 105   2.0000      -0.758889       -20.6504
 106   2.0000      -0.754101       -20.5201
 107   2.0000      -0.746885       -20.3238
 108   2.0000      -0.725284       -19.7360
 109   2.0000      -0.715487       -19.4694
 110   2.0000      -0.708924       -19.2908
 111   2.0000      -0.695419       -18.9233
 112   2.0000      -0.691325       -18.8119
 113   2.0000      -0.686473       -18.6799
 114   2.0000      -0.669397       -18.2152
 115   2.0000      -0.662395       -18.0247
 116   2.0000      -0.654120       -17.7995
 117   2.0000      -0.650548       -17.7023
 118   2.0000      -0.641817       -17.4647
 119   2.0000      -0.639041       -17.3892
 120   2.0000      -0.636377       -17.3167
 121   2.0000      -0.632454       -17.2099
 122   2.0000      -0.625845       -17.0301
 123   2.0000      -0.625377       -17.0174
 124   2.0000      -0.624005       -16.9800
 125   2.0000      -0.617248       -16.7962
 126   2.0000      -0.608647       -16.5621
 127   2.0000      -0.599262       -16.3068
 128   2.0000      -0.590726       -16.0745
 129   2.0000      -0.585900       -15.9432
 130   2.0000      -0.578168       -15.7328
 131   2.0000      -0.574103       -15.6221
 132   2.0000      -0.569679       -15.5017
 133   2.0000      -0.568419       -15.4675
 134   2.0000      -0.562771       -15.3138
 135   2.0000      -0.556567       -15.1450
 136   2.0000      -0.556231       -15.1358
 137   2.0000      -0.551183       -14.9984
 138   2.0000      -0.549161       -14.9434
 139   2.0000      -0.547397       -14.8954
 140   2.0000      -0.545330       -14.8392
 141   2.0000      -0.545070       -14.8321
 142   2.0000      -0.541984       -14.7481
 143   2.0000      -0.539118       -14.6701
 144   2.0000      -0.532336       -14.4856
 145   2.0000      -0.531766       -14.4701
 146   2.0000      -0.527785       -14.3618
 147   2.0000      -0.524688       -14.2775
 148   2.0000      -0.523420       -14.2430
 149   2.0000      -0.520122       -14.1532
 150   2.0000      -0.516328       -14.0500
 151   2.0000      -0.512048       -13.9335
 152   2.0000      -0.508790       -13.8449
 153   2.0000      -0.508237       -13.8298
 154   2.0000      -0.504787       -13.7360
 155   2.0000      -0.498568       -13.5667
 156   2.0000      -0.495500       -13.4832
 157   2.0000      -0.491271       -13.3682
 158   2.0000      -0.489373       -13.3165
 159   2.0000      -0.487820       -13.2743
 160   2.0000      -0.487054       -13.2534
 161   2.0000      -0.483829       -13.1657
 162   2.0000      -0.480487       -13.0747
 163   2.0000      -0.478727       -13.0268
 164   2.0000      -0.471329       -12.8255
 165   2.0000      -0.470502       -12.8030
 166   2.0000      -0.469941       -12.7877
 167   2.0000      -0.464282       -12.6338
 168   2.0000      -0.462901       -12.5962
 169   2.0000      -0.460939       -12.5428
 170   2.0000      -0.452602       -12.3159
 171   2.0000      -0.450478       -12.2581
 172   2.0000      -0.443660       -12.0726
 173   2.0000      -0.441637       -12.0175
 174   2.0000      -0.433785       -11.8039
 175   2.0000      -0.433219       -11.7885
 176   2.0000      -0.432005       -11.7555
 177   2.0000      -0.427181       -11.6242
 178   2.0000      -0.421450       -11.4682
 179   2.0000      -0.419783       -11.4229
 180   2.0000      -0.411200       -11.1893
 181   2.0000      -0.403882       -10.9902
 182   2.0000      -0.393461       -10.7066
 183   2.0000      -0.385589       -10.4924
 184   2.0000      -0.375389       -10.2149
 185   2.0000      -0.374770       -10.1980
 186   2.0000      -0.373440       -10.1618
 187   2.0000      -0.370359       -10.0780
 188   2.0000      -0.369385       -10.0515
 189   2.0000      -0.351880        -9.5751
 190   2.0000      -0.349215        -9.5026
 191   2.0000      -0.347113        -9.4454
 192   2.0000      -0.346781        -9.4364
 193   2.0000      -0.344252        -9.3676
 194   2.0000      -0.340453        -9.2642
 195   2.0000      -0.337564        -9.1856
 196   2.0000      -0.335910        -9.1406
 197   2.0000      -0.326670        -8.8892
 198   2.0000      -0.318740        -8.6734
 199   2.0000      -0.300490        -8.1767
 200   2.0000      -0.278934        -7.5902
 201   2.0000      -0.248273        -6.7558
 202   2.0000      -0.213278        -5.8036
 203   0.0000      -0.110569        -3.0087
 204   0.0000      -0.093798        -2.5524
 205   0.0000      -0.082669        -2.2495
 206   0.0000      -0.050564        -1.3759
 207   0.0000      -0.042004        -1.1430

MULLIKEN ATOMIC CHARGES
-----------------------
   0 O :   -0.112752
   1 C :    0.157975
   2 C :   -0.036298
   3 C :   -0.009839
   4 C :   -0.009116
   5 C :   -0.129239
   6 S :    0.145015
   7 C :   -0.075067
   8 C :   -0.079306
   9 C :   -0.051650
  10 C :    0.027713
  11 C :   -0.052989
  12 S :    0.171610
  13 C :    0.002142
  14 C :   -0.091837
  15 C :    0.086420
  16 C :   -0.076846
  17 C :    0.096987
  18 C :   -0.092928
  19 C :    0.228918
  20 O :   -0.097043
  21 O :   -0.230431
  22 C :    0.231582
  23 O :   -0.097849
  24 C :   -0.020799
  25 C :   -0.071949
  26 C :    0.039625
  27 C :    0.053265
  28 O :   -0.118131
  29 S :    0.012244
  30 C :    0.033820
  31 O :   -0.134996
  32 C :    0.040213
  33 C :    0.171049
  34 O :   -0.099920
  35 C :   -0.010636
  36 C :   -0.010786
  37 N :   -0.054901
  38 N :   -0.039776
  39 C :    0.152137
  40 C :   -0.036789
  41 C :   -0.049035
  42 S :    0.156784
  43 C :   -0.093288
  44 C :    0.063568
  45 C :    0.005150
  46 C :    0.005155
  47 C :    0.040026
  48 C :    0.044292
  49 C :   -0.048054
  50 C :    0.138311
  51 O :   -0.177835
  52 C :    0.071787
  53 C :   -0.009100
  54 C :   -0.008524
  55 H :    0.001450
  56 H :   -0.029625
  57 H :    0.008691
  58 H :    0.009662
  59 H :    0.006173
  60 H :    0.008562
  61 H :    0.021985
  62 H :    0.002772
  63 H :    0.137540
  64 H :   -0.017102
  65 H :   -0.024066
  66 H :   -0.017015
  67 H :   -0.023059
  68 H :   -0.025628
  69 H :   -0.011907
  70 H :    0.009291
  71 H :    0.002638
  72 H :   -0.008435
Sum of atomic charges:   -0.0000000

LOEWDIN ATOMIC CHARGES
----------------------
   0 O :   -0.104784
   1 C :    0.100201
   2 C :   -0.065909
   3 C :   -0.029220
   4 C :   -0.036806
   5 C :   -0.192180
   6 S :    0.459866
   7 C :   -0.181633
   8 C :   -0.169431
   9 C :   -0.024010
  10 C :   -0.080751
  11 C :   -0.189262
  12 S :    0.471979
  13 C :    0.041420
  14 C :   -0.084041
  15 C :    0.040784
  16 C :   -0.052864
  17 C :    0.041854
  18 C :   -0.058151
  19 C :    0.108555
  20 O :   -0.092663
  21 O :   -0.058198
  22 C :    0.099687
  23 O :   -0.096966
  24 C :   -0.037922
  25 C :    0.028066
  26 C :   -0.046873
  27 C :   -0.049220
  28 O :   -0.110634
  29 S :    0.300823
  30 C :   -0.037215
  31 O :   -0.118953
  32 C :   -0.066772
  33 C :    0.099687
  34 O :   -0.092171
  35 C :   -0.097341
  36 C :   -0.043230
  37 N :   -0.048568
  38 N :    0.092359
  39 C :   -0.018244
  40 C :   -0.009516
  41 C :   -0.178176
  42 S :    0.455143
  43 C :   -0.164208
  44 C :   -0.045278
  45 C :   -0.023293
  46 C :   -0.040659
  47 C :   -0.005114
  48 C :   -0.076330
  49 C :   -0.068801
  50 C :    0.034941
  51 O :    0.024216
  52 C :    0.030061
  53 C :   -0.021574
  54 C :   -0.103954
  55 H :    0.028410
  56 H :    0.027038
  57 H :    0.038169
  58 H :    0.038352
  59 H :    0.034983
  60 H :    0.028613
  61 H :    0.051855
  62 H :    0.018749
  63 H :    0.087805
  64 H :    0.026117
  65 H :    0.023554
  66 H :    0.027459
  67 H :    0.026739
  68 H :    0.025411
  69 H :    0.028275
  70 H :    0.022368
  71 H :    0.020816
  72 H :    0.036561

  Mayer bond orders larger than 0.100000
B(  0-O ,  1-C ) :   2.2750 B(  1-C ,  2-C ) :   0.9137 B(  1-C , 54-C ) :   0.9212
B(  2-C ,  3-C ) :   1.1930 B(  2-C , 40-C ) :   1.5652 B(  3-C ,  4-C ) :   1.5258
B(  3-C , 55-H ) :   0.9705 B(  4-C ,  5-C ) :   1.2430 B(  4-C , 56-H ) :   0.9778
B(  5-C ,  6-S ) :   1.0813 B(  5-C ,  7-C ) :   0.1035 B(  5-C , 39-C ) :   1.3280
B(  6-S ,  7-C ) :   1.1369 B(  7-C ,  8-C ) :   1.2656 B(  7-C , 35-C ) :   1.3027
B(  8-C ,  9-C ) :   1.3611 B(  8-C , 12-S ) :   1.1258 B(  9-C , 10-C ) :   1.3741
B(  9-C , 57-H ) :   0.9992 B( 10-C , 11-C ) :   1.4105 B( 10-C , 33-C ) :   0.8983
B( 11-C , 12-S ) :   1.1041 B( 11-C , 13-C ) :   1.1114 B( 13-C , 14-C ) :   1.5594
B( 13-C , 58-H ) :   1.0104 B( 14-C , 15-C ) :   1.1911 B( 14-C , 33-C ) :   0.9257
B( 15-C , 16-C ) :   1.5839 B( 15-C , 59-H ) :   0.9602 B( 16-C , 17-C ) :   1.1677
B( 16-C , 60-H ) :   0.9457 B( 17-C , 18-C ) :   1.2822 B( 17-C , 32-C ) :   1.3266
B( 18-C , 19-C ) :   0.9203 B( 18-C , 24-C ) :   1.3857 B( 19-C , 20-O ) :   2.2558
B( 19-C , 21-O ) :   1.0407 B( 21-O , 22-C ) :   1.0562 B( 22-C , 23-O ) :   2.3042
B( 22-C , 24-C ) :   0.8851 B( 24-C , 25-C ) :   1.3146 B( 25-C , 26-C ) :   1.3540
B( 25-C , 61-H ) :   1.0267 B( 26-C , 27-C ) :   0.8401 B( 26-C , 32-C ) :   1.3384
B( 27-C , 28-O ) :   2.2218 B( 27-C , 29-S ) :   1.0305 B( 28-O , 29-S ) :   0.1095
B( 29-S , 30-C ) :   1.0259 B( 29-S , 31-O ) :   0.1013 B( 30-C , 31-O ) :   2.1443
B( 30-C , 32-C ) :   0.8742 B( 33-C , 34-O ) :   2.2841 B( 35-C , 36-C ) :   1.1607
B( 35-C , 39-C ) :   1.2647 B( 36-C , 37-N ) :   1.7332 B( 36-C , 62-H ) :   0.9965
B( 37-N , 38-N ) :   1.1420 B( 38-N , 39-C ) :   1.1578 B( 38-N , 63-H ) :   0.9489
B( 40-C , 41-C ) :   1.0956 B( 40-C , 64-H ) :   1.0117 B( 41-C , 42-S ) :   1.1228
B( 41-C , 54-C ) :   1.4310 B( 42-S , 43-C ) :   1.1124 B( 43-C , 44-C ) :   1.1365
B( 43-C , 53-C ) :   1.4361 B( 44-C , 45-C ) :   1.7046 B( 44-C , 65-H ) :   0.9496
B( 45-C , 46-C ) :   1.1363 B( 45-C , 66-H ) :   0.9737 B( 46-C , 47-C ) :   1.7179
B( 46-C , 67-H ) :   0.9732 B( 47-C , 48-C ) :   1.1011 B( 47-C , 68-H ) :   0.9648
B( 48-C , 49-C ) :   1.2103 B( 48-C , 52-C ) :   1.4914 B( 49-C , 50-C ) :   1.5932
B( 49-C , 69-H ) :   1.0038 B( 50-C , 51-O ) :   1.1418 B( 50-C , 70-H ) :   0.9999
B( 51-O , 52-C ) :   1.1695 B( 52-C , 71-H ) :   1.0053 B( 53-C , 54-C ) :   1.3286
B( 53-C , 72-H ) :   1.0008

-----------------------------------------------------------------------------
         ABSORPTION SPECTRUM VIA TRANSITION ELECTRIC DIPOLE MOMENTS
-----------------------------------------------------------------------------
State   Energy  Wavelength   fosc         T2         TX        TY        TZ
        (cm-1)    (nm)                  (au**2)     (au)      (au)      (au)
-----------------------------------------------------------------------------
   0    9069.3   1102.6   1.294204126  46.97921   2.28623  -6.38160  -1.01368
   1   13235.8    755.5   0.110274999   2.74285  -1.21949  -0.99528  -0.51489
   2   15484.1    645.8   0.015286133   0.32500   0.16986   0.22158   0.49704
   3   17459.2    572.8   0.059607490   1.12396  -0.98757   0.36834  -0.11399
   4   20886.0    478.8   0.592097964   9.33286   1.03354  -2.84337  -0.42416
   5   22253.3    449.4   0.130724058   1.93391  -0.68959   1.20017   0.13406
   6   23468.6    426.1   0.019899002   0.27914   0.01561   0.25996   0.45969
   7   23732.5    421.4   0.135473862   1.87926   1.26540  -0.50522   0.15092
   8   25013.8    399.8   0.021389096   0.28151   0.17652  -0.49103  -0.09609
   9   25365.5    394.2   0.000107686   0.00140   0.02810  -0.02152   0.01204
  10   25891.8    386.2   0.721574761   9.17476  -0.22722  -2.94702  -0.66199
  11   26174.9    382.0   0.000106158   0.00134  -0.00198   0.02725   0.02426
  12   28235.5    354.2   0.026482649   0.30877  -0.22298   0.50859  -0.01959
  13   28482.3    351.1   0.000577315   0.00667   0.02960  -0.01041   0.07542
  14   29700.0    336.7   0.019481575   0.21595  -0.15456  -0.18143  -0.39892
  15   30318.5    329.8   0.036741189   0.39895  -0.58835   0.20737  -0.09898
  16   31272.6    319.8   0.047853415   0.50376   0.35271  -0.60388  -0.12116
  17   31628.9    316.2   0.023660024   0.24627  -0.10491  -0.44481  -0.19342
  18   32149.1    311.1   0.019986632   0.20467  -0.13972   0.40932   0.13267
  19   32293.5    309.7   0.044600306   0.45467  -0.52928  -0.35848  -0.21453
  20   32892.7    304.0   0.009056160   0.09064  -0.15083   0.26029   0.01178
  21   33137.4    301.8   0.181993264   1.80806  -0.70960   1.13613   0.11727
  22   33453.0    298.9   0.001542741   0.01518   0.11030   0.03428   0.04290
  23   33908.7    294.9   0.062419572   0.60602  -0.11252  -0.77000  -0.02135
  24   34177.7    292.6   0.011889464   0.11452  -0.28007  -0.03585  -0.18655
  25   34620.3    288.8   0.181163950   1.72273  -0.48196   1.21834   0.07803
  26   35022.2    285.5   0.067826326   0.63757   0.74434  -0.16126   0.23984
  27   35592.6    281.0   0.114037808   1.05479   0.95934   0.03373   0.36514
  28   35669.5    280.4   0.006273834   0.05790  -0.11704  -0.00253  -0.21024
  29   35999.9    277.8   0.046145115   0.42199  -0.59837   0.15330  -0.20111
  30   36095.9    277.0   0.005031546   0.04589  -0.08047   0.11336   0.16299
  31   36462.5    274.3   0.027325311   0.24671   0.14658  -0.46819  -0.07767
  32   37016.1    270.2   0.006246228   0.05555  -0.20943  -0.08612  -0.06538
  33   37191.6    268.9   0.017976351   0.15912   0.31047   0.19778   0.15367
  34   38251.8    261.4   0.017023645   0.14651  -0.22215  -0.24708  -0.19003
  35   38424.9    260.2   0.017576086   0.15059   0.01498   0.27980   0.26847
  36   38431.1    260.2   0.036266329   0.31067  -0.04866  -0.39352  -0.39172
  37   38494.0    259.8   0.028173507   0.24095  -0.26695   0.02200  -0.41134
  38   38898.9    257.1   0.010592066   0.08964  -0.19399   0.03957  -0.22460
  39   39272.9    254.6   0.012336798   0.10342  -0.31118   0.00772  -0.08077
  40   39463.6    253.4   0.073597144   0.61396  -0.27578  -0.64171  -0.35512
  41   39780.8    251.4   0.015193072   0.12573  -0.08881  -0.09407  -0.33014
  42   39975.3    250.2   0.007700751   0.06342   0.19113  -0.06948   0.14852
  43   40222.5    248.6   0.006237072   0.05105  -0.01306  -0.22402  -0.02632

FINAL SINGLE POINT ENERGY     -3873.862225722066

DIPOLE MOMENT
-------------
                                X             Y             Z
Electronic contribution:     23.04469     -80.14376     -14.60836
Nuclear contribution   :    -26.12745      82.82429      13.82050
                        -----------------------------------------
Total Dipole Moment    :     -3.08276       2.68053      -0.78786
                        -----------------------------------------
Magnitude (a.u.)       :      4.16045
Magnitude (Debye)      :     10.57504

Rotational constants in cm-1:     0.003340     0.000247     0.000234
Rotational constants in MHz :   100.118735     7.407457     7.010852

                             ****ORCA TERMINATED NORMALLY****
TOTAL RUN TIME: 0 days 0 hours 5 minutes 26 seconds 966 msec
