                         Program Version 4.2.0 -  RELEASE  -
|  1> # ORCA input file
|  2> # SCF done       -157.333722697305          0.000427823374
|  3> ! CAM-B3LYP def2-SVP def2/J RIJCOSX Grid4 TightSCF
|  4> %maxcore 5000
|  5> %tddft
|  6>     Mode sTDDFT
|  7>     Ethresh 5.0
|  8>     maxcore 5000
|  9> end
| 10>
| 11> %pal
| 12>   nprocs 6
| 13>   end
| 14> * xyz 0 1
| 15>    O       -6.44136        10.93498         2.38801
| 16>    C       -5.75018         9.83872         1.99094
| 17>    N       -5.43036         9.86218         0.72821
| 18>    C       -5.93351        11.03945         0.24960
| 19>    C       -6.55540        11.68839         1.29223
| 20>    C       -5.78124        11.44676        -1.14104
| 21>    O       -6.20537        12.47290        -1.60603
| 22>    C       -5.42530         8.79886         2.90530
| 23>    S       -4.51721         7.39923         2.31358
| 24>    C       -4.57736         6.79093         3.91392
| 25>    C       -5.26838         7.67626         4.75365
| 26>    N       -5.72723         8.77762         4.17222
| 27>    C       -5.31447         7.15755         6.15594
| 28>    C       -4.55187         5.87279         6.01297
| 29>    C       -4.14375         5.69243         4.68767
| 30>    S       -3.25434         4.24637         4.46867
| 31>    C       -3.40963         3.87563         6.17816
| 32>    C       -4.13843         4.84521         6.85130
| 33>    C       -2.76310         2.70763         6.65694
| 34>    C       -2.68381         2.32492         7.95611
| 35>    C       -1.94996         1.20324         8.42467
| 36>    S       -1.40534         1.19974        10.07797
| 37>    C       -0.46271        -0.25028         9.82688
| 38>    C       -0.63337        -0.72744         8.52583
| 39>    C       -1.48962         0.07303         7.75819
| 40>    C       -1.95515        -0.37961         6.41061
| 41>    C       -2.01182        -1.91180         6.42355
| 42>    C       -2.98199        -2.44339         7.47410
| 43>    O       -2.68941        -3.33690         8.22606
| 44>    C       -4.34300        -1.79367         7.49405
| 45>    C       -0.59981        -2.44468         6.65589
| 46>    C       -0.03703        -2.00001         8.01337
| 47>    C        0.31293        -0.71965        10.90746
| 48>    C        1.39884        -1.54548        10.81532
| 49>    C        2.17191        -1.97085        11.90112
| 50>    C        3.37329        -2.62600        11.73993
| 51>    C        4.24595        -3.11728        12.73505
| 52>    C        5.40151        -3.66004        12.24899
| 53>    C        5.50623        -3.61070        10.84374
| 54>    S        4.07630        -2.89764        10.15108
| 55>    C        6.56812        -3.99491        10.03732
| 56>    C        7.79178        -4.58078        10.40957
| 57>    C        8.64240        -4.77993         9.35888
| 58>    C        8.13365        -4.35254         8.11190
| 59>    S        6.52275        -3.71621         8.30804
| 60>    C        8.81357        -4.39749         6.90896
| 61>    C        8.37152        -3.94498         5.67330
| 62>    S        6.78522        -3.23885         5.37736
| 63>    C        7.12643        -2.94684         3.60051
| 64>    O        6.31197        -2.44483         2.87683
| 65>    C        8.46204        -3.42174         3.35443
| 66>    C        9.11540        -3.96331         4.48987
| 67>    C       10.44277        -4.42942         4.25334
| 68>    O       11.26176        -4.93280         4.97716
| 69>    S       10.78541        -4.11765         2.46940
| 70>    C        9.20840        -3.42187         2.19071
| 71>    C        8.78700        -2.92461         0.91895
| 72>    C        9.54882        -2.92014        -0.17653
| 73>    H       -7.07181        12.62426         1.35423
| 74>    H       -5.22551        10.70761        -1.74386
| 75>    H       -6.33955         6.99575         6.49385
| 76>    H       -4.83916         7.84536         6.85732
| 77>    H       -4.34549         4.79627         7.90438
| 78>    H       -2.24742         2.13368         5.90234
| 79>    H       -3.12598         2.94810         8.72106
| 80>    H       -1.25356        -0.06312         5.63315
| 81>    H       -2.92962         0.05121         6.18093
| 82>    H       -2.38002        -2.26581         5.45324
| 83>    H       -4.27133        -0.83564         8.00689
| 84>    H       -5.03794        -2.42419         8.04272
| 85>    H       -4.71300        -1.62069         6.48730
| 86>    H        0.04150        -2.08435         5.84973
| 87>    H       -0.60629        -3.53388         6.61851
| 88>    H        1.04473        -1.88333         7.91247
| 89>    H       -0.21795        -2.77791         8.75918
| 90>    H        0.05222        -0.32214        11.88093
| 91>    H        1.74418        -1.85876         9.84259
| 92>    H        1.83476        -1.76587        12.90827
| 93>    H        3.99855        -3.05359        13.78013
| 94>    H        6.17988        -4.07630        12.86279
| 95>    H        8.01851        -4.83879        11.42852
| 96>    H        9.62414        -5.21086         9.44217
| 97>    H        9.81417        -4.81180         6.92154
| 98>    H        7.77757        -2.53450         0.90119
| 99>    H       10.55524        -3.30535        -0.15785
|100>    H        9.18771        -2.53225        -1.11229
|101> *
|102>
|103>                          ****END OF INPUT****

CARTESIAN COORDINATES (ANGSTROEM)
---------------------------------
  O     -6.441360   10.934980    2.388010
  C     -5.750180    9.838720    1.990940
  N     -5.430360    9.862180    0.728210
  C     -5.933510   11.039450    0.249600
  C     -6.555400   11.688390    1.292230
  C     -5.781240   11.446760   -1.141040
  O     -6.205370   12.472900   -1.606030
  C     -5.425300    8.798860    2.905300
  S     -4.517210    7.399230    2.313580
  C     -4.577360    6.790930    3.913920
  C     -5.268380    7.676260    4.753650
  N     -5.727230    8.777620    4.172220
  C     -5.314470    7.157550    6.155940
  C     -4.551870    5.872790    6.012970
  C     -4.143750    5.692430    4.687670
  S     -3.254340    4.246370    4.468670
  C     -3.409630    3.875630    6.178160
  C     -4.138430    4.845210    6.851300
  C     -2.763100    2.707630    6.656940
  C     -2.683810    2.324920    7.956110
  C     -1.949960    1.203240    8.424670
  S     -1.405340    1.199740   10.077970
  C     -0.462710   -0.250280    9.826880
  C     -0.633370   -0.727440    8.525830
  C     -1.489620    0.073030    7.758190
  C     -1.955150   -0.379610    6.410610
  C     -2.011820   -1.911800    6.423550
  C     -2.981990   -2.443390    7.474100
  O     -2.689410   -3.336900    8.226060
  C     -4.343000   -1.793670    7.494050
  C     -0.599810   -2.444680    6.655890
  C     -0.037030   -2.000010    8.013370
  C      0.312930   -0.719650   10.907460
  C      1.398840   -1.545480   10.815320
  C      2.171910   -1.970850   11.901120
  C      3.373290   -2.626000   11.739930
  C      4.245950   -3.117280   12.735050
  C      5.401510   -3.660040   12.248990
  C      5.506230   -3.610700   10.843740
  S      4.076300   -2.897640   10.151080
  C      6.568120   -3.994910   10.037320
  C      7.791780   -4.580780   10.409570
  C      8.642400   -4.779930    9.358880
  C      8.133650   -4.352540    8.111900
  S      6.522750   -3.716210    8.308040
  C      8.813570   -4.397490    6.908960
  C      8.371520   -3.944980    5.673300
  S      6.785220   -3.238850    5.377360
  C      7.126430   -2.946840    3.600510
  O      6.311970   -2.444830    2.876830
  C      8.462040   -3.421740    3.354430
  C      9.115400   -3.963310    4.489870
  C     10.442770   -4.429420    4.253340
  O     11.261760   -4.932800    4.977160
  S     10.785410   -4.117650    2.469400
  C      9.208400   -3.421870    2.190710
  C      8.787000   -2.924610    0.918950
  C      9.548820   -2.920140   -0.176530
  H     -7.071810   12.624260    1.354230
  H     -5.225510   10.707610   -1.743860
  H     -6.339550    6.995750    6.493850
  H     -4.839160    7.845360    6.857320
  H     -4.345490    4.796270    7.904380
  H     -2.247420    2.133680    5.902340
  H     -3.125980    2.948100    8.721060
  H     -1.253560   -0.063120    5.633150
  H     -2.929620    0.051210    6.180930
  H     -2.380020   -2.265810    5.453240
  H     -4.271330   -0.835640    8.006890
  H     -5.037940   -2.424190    8.042720
  H     -4.713000   -1.620690    6.487300
  H      0.041500   -2.084350    5.849730
  H     -0.606290   -3.533880    6.618510
  H      1.044730   -1.883330    7.912470
  H     -0.217950   -2.777910    8.759180
  H      0.052220   -0.322140   11.880930
  H      1.744180   -1.858760    9.842590
  H      1.834760   -1.765870   12.908270
  H      3.998550   -3.053590   13.780130
  H      6.179880   -4.076300   12.862790
  H      8.018510   -4.838790   11.428520
  H      9.624140   -5.210860    9.442170
  H      9.814170   -4.811800    6.921540
  H      7.777570   -2.534500    0.901190
  H     10.555240   -3.305350   -0.157850
  H      9.187710   -2.532250   -1.112290

 Total Charge           Charge          ....    0
 Multiplicity           Mult            ....    1
 Number of Electrons    NEL             ....  458
 Basis Dimension        Dim             ....  980

ORBITAL ENERGIES
----------------

  NO   OCC          E(Eh)            E(eV)
   0   2.0000     -88.979209     -2421.2474
   1   2.0000     -88.971130     -2421.0275
   2   2.0000     -88.957713     -2420.6624
   3   2.0000     -88.956427     -2420.6274
   4   2.0000     -88.953192     -2420.5394
   5   2.0000     -88.932853     -2419.9860
   6   2.0000     -88.924759     -2419.7657
   7   2.0000     -19.320647      -525.7415
   8   2.0000     -19.213328      -522.8212
   9   2.0000     -19.207374      -522.6592
  10   2.0000     -19.206949      -522.6477
  11   2.0000     -19.192775      -522.2620
  12   2.0000     -14.425266      -392.5314
  13   2.0000     -14.422712      -392.4619
  14   2.0000     -10.379215      -282.4328
  15   2.0000     -10.372723      -282.2561
  16   2.0000     -10.360343      -281.9193
  17   2.0000     -10.358348      -281.8650
  18   2.0000     -10.356332      -281.8101
  19   2.0000     -10.351986      -281.6919
  20   2.0000     -10.347363      -281.5660
  21   2.0000     -10.327937      -281.0375
  22   2.0000     -10.319400      -280.8052
  23   2.0000     -10.318309      -280.7755
  24   2.0000     -10.315895      -280.7098
  25   2.0000     -10.315303      -280.6937
  26   2.0000     -10.313343      -280.6403
  27   2.0000     -10.313276      -280.6385
  28   2.0000     -10.312596      -280.6200
  29   2.0000     -10.312556      -280.6189
  30   2.0000     -10.310561      -280.5646
  31   2.0000     -10.309611      -280.5388
  32   2.0000     -10.308835      -280.5177
  33   2.0000     -10.304521      -280.4003
  34   2.0000     -10.299938      -280.2756
  35   2.0000     -10.298133      -280.2265
  36   2.0000     -10.298066      -280.2246
  37   2.0000     -10.296686      -280.1871
  38   2.0000     -10.296168      -280.1730
  39   2.0000     -10.295754      -280.1617
  40   2.0000     -10.295523      -280.1554
  41   2.0000     -10.293875      -280.1106
  42   2.0000     -10.290992      -280.0321
  43   2.0000     -10.287305      -279.9318
  44   2.0000     -10.286270      -279.9036
  45   2.0000     -10.285540      -279.8838
  46   2.0000     -10.284944      -279.8676
  47   2.0000     -10.284533      -279.8564
  48   2.0000     -10.284417      -279.8532
  49   2.0000     -10.282100      -279.7902
  50   2.0000     -10.275083      -279.5992
  51   2.0000     -10.272953      -279.5413
  52   2.0000     -10.271138      -279.4919
  53   2.0000     -10.270787      -279.4823
  54   2.0000     -10.269113      -279.4368
  55   2.0000     -10.268741      -279.4267
  56   2.0000     -10.266799      -279.3738
  57   2.0000     -10.263176      -279.2752
  58   2.0000      -8.073946      -219.7032
  59   2.0000      -8.066406      -219.4981
  60   2.0000      -8.053717      -219.1528
  61   2.0000      -8.052661      -219.1241
  62   2.0000      -8.049178      -219.0293
  63   2.0000      -8.030090      -218.5099
  64   2.0000      -8.022149      -218.2938
  65   2.0000      -6.043236      -164.4448
  66   2.0000      -6.039124      -164.3329
  67   2.0000      -6.036065      -164.2497
  68   2.0000      -6.035696      -164.2396
  69   2.0000      -6.031678      -164.1303
  70   2.0000      -6.028463      -164.0428
  71   2.0000      -6.022889      -163.8911
  72   2.0000      -6.022317      -163.8756
  73   2.0000      -6.019012      -163.7857
  74   2.0000      -6.018858      -163.7815
  75   2.0000      -6.018306      -163.7664
  76   2.0000      -6.015745      -163.6967
  77   2.0000      -6.014673      -163.6676
  78   2.0000      -6.013700      -163.6411
  79   2.0000      -6.010315      -163.5490
  80   2.0000      -5.999512      -163.2550
  81   2.0000      -5.995488      -163.1455
  82   2.0000      -5.991407      -163.0345
  83   2.0000      -5.991260      -163.0305
  84   2.0000      -5.987524      -162.9288
  85   2.0000      -5.983553      -162.8208
  86   2.0000      -1.250466       -34.0269
  87   2.0000      -1.128685       -30.7131
  88   2.0000      -1.126806       -30.6620
  89   2.0000      -1.126275       -30.6475
  90   2.0000      -1.113751       -30.3067
  91   2.0000      -1.079391       -29.3717
  92   2.0000      -1.030736       -28.0477
  93   2.0000      -1.005926       -27.3726
  94   2.0000      -1.005807       -27.3694
  95   2.0000      -0.996296       -27.1106
  96   2.0000      -0.985144       -26.8071
  97   2.0000      -0.974859       -26.5272
  98   2.0000      -0.941219       -25.6119
  99   2.0000      -0.931408       -25.3449
 100   2.0000      -0.929436       -25.2912
 101   2.0000      -0.921196       -25.0670
 102   2.0000      -0.910507       -24.7762
 103   2.0000      -0.902113       -24.5477
 104   2.0000      -0.889362       -24.2008
 105   2.0000      -0.881728       -23.9930
 106   2.0000      -0.865618       -23.5547
 107   2.0000      -0.860962       -23.4280
 108   2.0000      -0.854139       -23.2423
 109   2.0000      -0.853845       -23.2343
 110   2.0000      -0.844417       -22.9778
 111   2.0000      -0.835414       -22.7328
 112   2.0000      -0.830776       -22.6066
 113   2.0000      -0.826149       -22.4807
 114   2.0000      -0.815955       -22.2033
 115   2.0000      -0.808777       -22.0080
 116   2.0000      -0.804268       -21.8852
 117   2.0000      -0.792970       -21.5778
 118   2.0000      -0.789464       -21.4824
 119   2.0000      -0.778213       -21.1762
 120   2.0000      -0.767343       -20.8805
 121   2.0000      -0.754944       -20.5431
 122   2.0000      -0.735821       -20.0227
 123   2.0000      -0.732581       -19.9346
 124   2.0000      -0.717198       -19.5159
 125   2.0000      -0.707469       -19.2512
 126   2.0000      -0.699516       -19.0348
 127   2.0000      -0.696593       -18.9553
 128   2.0000      -0.686443       -18.6791
 129   2.0000      -0.675038       -18.3687
 130   2.0000      -0.667461       -18.1625
 131   2.0000      -0.664889       -18.0925
 132   2.0000      -0.656142       -17.8545
 133   2.0000      -0.648574       -17.6486
 134   2.0000      -0.645647       -17.5689
 135   2.0000      -0.641634       -17.4597
 136   2.0000      -0.632204       -17.2032
 137   2.0000      -0.629297       -17.1240
 138   2.0000      -0.620714       -16.8905
 139   2.0000      -0.615119       -16.7382
 140   2.0000      -0.612887       -16.6775
 141   2.0000      -0.609078       -16.5739
 142   2.0000      -0.607644       -16.5348
 143   2.0000      -0.596331       -16.2270
 144   2.0000      -0.592373       -16.1193
 145   2.0000      -0.584239       -15.8979
 146   2.0000      -0.581615       -15.8265
 147   2.0000      -0.579682       -15.7739
 148   2.0000      -0.576945       -15.6995
 149   2.0000      -0.567588       -15.4448
 150   2.0000      -0.566244       -15.4083
 151   2.0000      -0.562820       -15.3151
 152   2.0000      -0.558242       -15.1905
 153   2.0000      -0.550642       -14.9837
 154   2.0000      -0.544486       -14.8162
 155   2.0000      -0.542428       -14.7602
 156   2.0000      -0.540750       -14.7145
 157   2.0000      -0.538562       -14.6550
 158   2.0000      -0.530439       -14.4340
 159   2.0000      -0.526513       -14.3271
 160   2.0000      -0.520739       -14.1700
 161   2.0000      -0.519186       -14.1278
 162   2.0000      -0.517123       -14.0716
 163   2.0000      -0.515780       -14.0351
 164   2.0000      -0.512238       -13.9387
 165   2.0000      -0.508276       -13.8309
 166   2.0000      -0.507570       -13.8117
 167   2.0000      -0.505386       -13.7522
 168   2.0000      -0.504431       -13.7263
 169   2.0000      -0.501481       -13.6460
 170   2.0000      -0.499284       -13.5862
 171   2.0000      -0.497116       -13.5272
 172   2.0000      -0.496719       -13.5164
 173   2.0000      -0.495785       -13.4910
 174   2.0000      -0.492349       -13.3975
 175   2.0000      -0.487746       -13.2722
 176   2.0000      -0.484308       -13.1787
 177   2.0000      -0.481320       -13.0974
 178   2.0000      -0.481137       -13.0924
 179   2.0000      -0.480223       -13.0675
 180   2.0000      -0.478069       -13.0089
 181   2.0000      -0.477006       -12.9800
 182   2.0000      -0.474535       -12.9128
 183   2.0000      -0.472726       -12.8635
 184   2.0000      -0.469839       -12.7850
 185   2.0000      -0.463702       -12.6180
 186   2.0000      -0.462080       -12.5738
 187   2.0000      -0.457216       -12.4415
 188   2.0000      -0.453315       -12.3353
 189   2.0000      -0.452224       -12.3056
 190   2.0000      -0.448989       -12.2176
 191   2.0000      -0.445390       -12.1197
 192   2.0000      -0.438362       -11.9284
 193   2.0000      -0.434864       -11.8333
 194   2.0000      -0.432402       -11.7663
 195   2.0000      -0.431026       -11.7288
 196   2.0000      -0.428700       -11.6655
 197   2.0000      -0.424633       -11.5548
 198   2.0000      -0.422463       -11.4958
 199   2.0000      -0.420065       -11.4306
 200   2.0000      -0.418299       -11.3825
 201   2.0000      -0.415023       -11.2934
 202   2.0000      -0.413333       -11.2474
 203   2.0000      -0.408963       -11.1285
 204   2.0000      -0.404889       -11.0176
 205   2.0000      -0.403267       -10.9735
 206   2.0000      -0.400389       -10.8951
 207   2.0000      -0.393596       -10.7103
 208   2.0000      -0.385916       -10.5013
 209   2.0000      -0.380118       -10.3435
 210   2.0000      -0.363590        -9.8938
 211   2.0000      -0.362532        -9.8650
 212   2.0000      -0.356141        -9.6911
 213   2.0000      -0.345752        -9.4084
 214   2.0000      -0.340112        -9.2549
 215   2.0000      -0.334448        -9.1008
 216   2.0000      -0.333098        -9.0641
 217   2.0000      -0.329453        -8.9649
 218   2.0000      -0.328508        -8.9392
 219   2.0000      -0.320956        -8.7336
 220   2.0000      -0.320907        -8.7323
 221   2.0000      -0.316205        -8.6044
 222   2.0000      -0.313871        -8.5409
 223   2.0000      -0.313495        -8.5306
 224   2.0000      -0.305907        -8.3242
 225   2.0000      -0.287229        -7.8159
 226   2.0000      -0.262980        -7.1561
 227   2.0000      -0.239978        -6.5301
 228   2.0000      -0.208671        -5.6782
 229   0.0000      -0.104667        -2.8481
 230   0.0000      -0.066905        -1.8206
 231   0.0000      -0.047699        -1.2980
 232   0.0000      -0.025590        -0.6963
 233   0.0000      -0.017817        -0.4848

MULLIKEN ATOMIC CHARGES
-----------------------
   0 O :   -0.147815
   1 C :    0.120433
   2 N :   -0.091183
   3 C :   -0.048810
   4 C :    0.137475
   5 C :    0.168282
   6 O :   -0.175593
   7 C :   -0.150376
   8 S :    0.193836
   9 C :   -0.043411
  10 C :   -0.239328
  11 N :    0.004454
  12 C :    0.399731
  13 C :   -0.164906
  14 C :   -0.106831
  15 S :    0.153013
  16 C :   -0.085918
  17 C :   -0.014821
  18 C :    0.043339
  19 C :    0.037205
  20 C :   -0.134296
  21 S :    0.120158
  22 C :   -0.140086
  23 C :   -0.045924
  24 C :   -0.117557
  25 C :    0.153875
  26 C :   -0.122219
  27 C :   -0.006704
  28 O :   -0.177800
  29 C :    0.062360
  30 C :    0.111122
  31 C :    0.077753
  32 C :    0.054337
  33 C :   -0.023871
  34 C :    0.020026
  35 C :   -0.035395
  36 C :    0.047319
  37 C :    0.020878
  38 C :   -0.025426
  39 S :    0.077203
  40 C :   -0.050080
  41 C :    0.041455
  42 C :    0.024246
  43 C :   -0.007923
  44 S :    0.095041
  45 C :   -0.052307
  46 C :   -0.064916
  47 S :   -0.001315
  48 C :    0.039985
  49 O :   -0.155861
  50 C :    0.079713
  51 C :    0.066938
  52 C :    0.010377
  53 O :   -0.176644
  54 S :    0.015361
  55 C :   -0.109501
  56 C :   -0.010526
  57 C :   -0.000382
  58 H :    0.035687
  59 H :   -0.010092
  60 H :    0.037882
  61 H :    0.037424
  62 H :   -0.021113
  63 H :   -0.016301
  64 H :   -0.018745
  65 H :    0.025608
  66 H :    0.011807
  67 H :    0.021751
  68 H :    0.046925
  69 H :    0.032230
  70 H :    0.026851
  71 H :   -0.000471
  72 H :    0.014746
  73 H :    0.040968
  74 H :    0.041468
  75 H :   -0.013397
  76 H :    0.005617
  77 H :   -0.008298
  78 H :   -0.005205
  79 H :   -0.008744
  80 H :   -0.009651
  81 H :   -0.003184
  82 H :    0.009996
  83 H :    0.015912
  84 H :    0.031546
  85 H :    0.030598
Sum of atomic charges:   -0.0000000

LOEWDIN ATOMIC CHARGES
----------------------
   0 O :    0.046052
   1 C :    0.016986
   2 N :   -0.103141
   3 C :   -0.108082
   4 C :    0.076452
   5 C :    0.104028
   6 O :   -0.131509
   7 C :   -0.162897
   8 S :    0.459838
   9 C :   -0.206473
  10 C :   -0.043726
  11 N :   -0.067508
  12 C :   -0.011485
  13 C :   -0.042550
  14 C :   -0.204548
  15 S :    0.441927
  16 C :   -0.164127
  17 C :   -0.052239
  18 C :   -0.041285
  19 C :   -0.045805
  20 C :   -0.168850
  21 S :    0.428663
  22 C :   -0.176039
  23 C :   -0.036215
  24 C :   -0.065299
  25 C :   -0.019725
  26 C :   -0.059869
  27 C :    0.089294
  28 O :   -0.137391
  29 C :   -0.078072
  30 C :   -0.017047
  31 C :   -0.029170
  32 C :   -0.016142
  33 C :   -0.045222
  34 C :   -0.022037
  35 C :   -0.156614
  36 C :   -0.016059
  37 C :   -0.040990
  38 C :   -0.151161
  39 S :    0.390469
  40 C :   -0.197838
  41 C :   -0.016106
  42 C :   -0.042791
  43 C :   -0.119016
  44 S :    0.396467
  45 C :   -0.092307
  46 C :   -0.095325
  47 S :    0.307852
  48 C :   -0.035503
  49 O :   -0.151554
  50 C :   -0.133289
  51 C :   -0.154899
  52 C :   -0.045324
  53 O :   -0.173358
  54 S :    0.319883
  55 C :   -0.107381
  56 C :   -0.041982
  57 C :   -0.015857
  58 H :    0.037209
  59 H :    0.002339
  60 H :    0.057140
  61 H :    0.056863
  62 H :    0.030780
  63 H :    0.028550
  64 H :    0.026872
  65 H :    0.035042
  66 H :    0.027246
  67 H :    0.040205
  68 H :    0.048934
  69 H :    0.039644
  70 H :    0.035071
  71 H :    0.024060
  72 H :    0.032982
  73 H :    0.035547
  74 H :    0.041300
  75 H :    0.029772
  76 H :    0.021973
  77 H :    0.035847
  78 H :    0.036638
  79 H :    0.033653
  80 H :    0.033825
  81 H :    0.037400
  82 H :    0.045837
  83 H :    0.040222
  84 H :    0.021535
  85 H :    0.029411

  Mayer bond orders larger than 0.100000
B(  0-O ,  1-C ) :   1.2049 B(  0-O ,  4-C ) :   1.1772 B(  1-C ,  2-N ) :   1.7829
B(  1-C ,  7-C ) :   1.0484 B(  2-N ,  3-C ) :   1.3046 B(  3-C ,  4-C ) :   1.5044
B(  3-C ,  5-C ) :   0.9687 B(  4-C , 58-H ) :   0.9911 B(  5-C ,  6-O ) :   2.2056
B(  5-C , 59-H ) :   0.9520 B(  7-C ,  8-S ) :   1.1077 B(  7-C , 11-N ) :   1.6743
B(  8-S ,  9-C ) :   1.0950 B(  8-S , 11-N ) :   0.1101 B(  9-C , 10-C ) :   1.4760
B(  9-C , 14-C ) :   1.1870 B( 10-C , 11-N ) :   1.4433 B( 10-C , 12-C ) :   1.0448
B( 12-C , 13-C ) :   0.9809 B( 12-C , 60-H ) :   0.8579 B( 12-C , 61-H ) :   0.8604
B( 13-C , 14-C ) :   1.5169 B( 13-C , 17-C ) :   1.3173 B( 14-C , 15-S ) :   1.0865
B( 15-S , 16-C ) :   1.1102 B( 16-C , 17-C ) :   1.4606 B( 16-C , 18-C ) :   1.1353
B( 17-C , 62-H ) :   0.9962 B( 18-C , 19-C ) :   1.6861 B( 18-C , 63-H ) :   0.9516
B( 19-C , 20-C ) :   1.1324 B( 19-C , 64-H ) :   0.9505 B( 20-C , 21-S ) :   1.1224
B( 20-C , 24-C ) :   1.4656 B( 21-S , 22-C ) :   1.0991 B( 22-C , 23-C ) :   1.4541
B( 22-C , 32-C ) :   1.1585 B( 23-C , 24-C ) :   1.3371 B( 23-C , 31-C ) :   1.0734
B( 24-C , 25-C ) :   1.0572 B( 25-C , 26-C ) :   1.0387 B( 25-C , 65-H ) :   0.8937
B( 25-C , 66-H ) :   0.9122 B( 26-C , 27-C ) :   0.8975 B( 26-C , 30-C ) :   1.0705
B( 26-C , 67-H ) :   0.8907 B( 27-C , 28-O ) :   2.2022 B( 27-C , 29-C ) :   1.0458
B( 29-C , 68-H ) :   0.9372 B( 29-C , 69-H ) :   0.9468 B( 29-C , 70-H ) :   0.9512
B( 30-C , 31-C ) :   1.0771 B( 30-C , 71-H ) :   0.9334 B( 30-C , 72-H ) :   0.9203
B( 31-C , 73-H ) :   0.9030 B( 31-C , 74-H ) :   0.9049 B( 32-C , 33-C ) :   1.6048
B( 32-C , 75-H ) :   0.9578 B( 33-C , 34-C ) :   1.1863 B( 33-C , 76-H ) :   0.9649
B( 34-C , 35-C ) :   1.5267 B( 34-C , 77-H ) :   0.9865 B( 35-C , 36-C ) :   1.1641
B( 35-C , 39-S ) :   1.0292 B( 36-C , 37-C ) :   1.5590 B( 36-C , 78-H ) :   1.0000
B( 37-C , 38-C ) :   1.2115 B( 37-C , 79-H ) :   0.9949 B( 38-C , 39-S ) :   1.0839
B( 38-C , 40-C ) :   1.4505 B( 40-C , 41-C ) :   1.2246 B( 40-C , 44-S ) :   1.0392
B( 41-C , 42-C ) :   1.5379 B( 41-C , 80-H ) :   0.9942 B( 42-C , 43-C ) :   1.1854
B( 42-C , 81-H ) :   1.0020 B( 43-C , 44-S ) :   1.0813 B( 43-C , 45-C ) :   1.4345
B( 45-C , 46-C ) :   1.3205 B( 45-C , 82-H ) :   0.9594 B( 46-C , 47-S ) :   1.0469
B( 46-C , 51-C ) :   1.3815 B( 47-S , 48-C ) :   0.9823 B( 47-S , 49-O ) :   0.1063
B( 48-C , 49-O ) :   2.1532 B( 48-C , 50-C ) :   0.9538 B( 50-C , 51-C ) :   1.1586
B( 50-C , 55-C ) :   1.4788 B( 51-C , 52-C ) :   1.0039 B( 52-C , 53-O ) :   2.1102
B( 52-C , 54-S ) :   0.9814 B( 53-O , 54-S ) :   0.1088 B( 54-S , 55-C ) :   1.0822
B( 55-C , 56-C ) :   1.1648 B( 56-C , 57-C ) :   1.8704 B( 56-C , 83-H ) :   0.9546
B( 57-C , 84-H ) :   0.9541 B( 57-C , 85-H ) :   0.9504

-----------------------------------------------------------------------------
         ABSORPTION SPECTRUM VIA TRANSITION ELECTRIC DIPOLE MOMENTS
-----------------------------------------------------------------------------
State   Energy  Wavelength   fosc         T2         TX        TY        TZ
        (cm-1)    (nm)                  (au**2)     (au)      (au)      (au)
-----------------------------------------------------------------------------
   0   10230.4    977.5   1.307935625  42.08921  -5.38535   2.70462   2.40255
   1   17461.3    572.7   0.241094425   4.54554  -0.58145   1.06328  -1.75411
   2   19245.5    519.6   1.798744079  30.76925  -1.53961   3.13548  -4.30901
   3   21739.4    460.0   0.013192470   0.19978  -0.22875   0.06862   0.37782
   4   23154.0    431.9   0.234993617   3.34123   0.13976  -1.52038   1.00505
   5   25909.0    386.0   0.277560238   3.52681  -0.66400   1.46124  -0.97503
   6   26156.4    382.3   0.056125561   0.70641  -0.21040   0.79557  -0.17090
   7   27117.8    368.8   0.006542618   0.07943  -0.06256  -0.02436  -0.27372
   8   27195.1    367.7   0.000193805   0.00235   0.00152  -0.01323   0.04657
   9   28194.6    354.7   0.167855141   1.95995   0.74031  -0.12019   1.18213
  10   29156.5    343.0   0.000007672   0.00009   0.00436   0.00246  -0.00785
  11   29745.9    336.2   0.023645512   0.26170   0.35228   0.37068   0.01361
  12   30378.2    329.2   0.020477408   0.22192   0.08454  -0.40882   0.21825
  13   30883.3    323.8   0.007836004   0.08353  -0.03540   0.22861  -0.17325
  14   31557.4    316.9   0.014620157   0.15252   0.05386  -0.31291  -0.22739
  15   31711.1    315.3   0.000805691   0.00836  -0.00150   0.09137   0.00380
  16   32116.3    311.4   0.039662966   0.40657  -0.36437   0.52326  -0.00070
  17   33023.7    302.8   0.192977084   1.92378   0.40987  -0.63663   1.16211
  18   33334.1    300.0   0.036970503   0.36513   0.23414  -0.28882   0.47633
  19   33547.4    298.1   0.086566147   0.84950  -0.71364   0.53131  -0.24069
  20   34382.2    290.8   0.022224299   0.21280   0.27701  -0.36029  -0.07909
  21   34475.9    290.1   0.000763401   0.00729  -0.03230   0.01222   0.07809
  22   34483.8    290.0   0.047138189   0.45002  -0.31658   0.14806   0.57260
  23   35234.5    283.8   0.011528597   0.10772   0.01568  -0.24256  -0.22053
  24   35540.2    281.4   0.021137567   0.19580  -0.28108   0.11054  -0.32338
  25   36746.6    272.1   0.007851482   0.07034  -0.06468   0.12876  -0.22266
  26   37251.0    268.4   0.021319036   0.18841   0.38575  -0.19858  -0.01309
  27   37415.8    267.3   0.004805165   0.04228   0.12652   0.14880  -0.06428
  28   37858.2    264.1   0.030254835   0.26309   0.00472  -0.18803   0.47719
  29   38023.4    263.0   0.043351896   0.37535   0.51961  -0.16172  -0.28143
  30   38264.4    261.3   0.039057931   0.33604  -0.18314  -0.09670   0.54143
  31   38553.2    259.4   0.018766086   0.16025  -0.16996   0.15303   0.32855
  32   38593.4    259.1   0.003206425   0.02735  -0.10088   0.06539   0.11358
  33   39216.3    255.0   0.080464377   0.67548  -0.22557   0.04600   0.78898
  34   39649.3    252.2   0.000188058   0.00156  -0.00672  -0.00692  -0.03832
  35   39895.4    250.7   0.005499199   0.04538   0.02035  -0.14009   0.15919
  36   40175.0    248.9   0.039218955   0.32138   0.06150   0.07453   0.55861

FINAL SINGLE POINT ENERGY     -4962.846282386857

DIPOLE MOMENT
-------------
                                X             Y             Z
Electronic contribution:     16.53539      23.71106     -19.56601
Nuclear contribution   :    -18.96886     -23.31146      22.87400
                        -----------------------------------------
Total Dipole Moment    :     -2.43347       0.39959       3.30798
                        -----------------------------------------
Magnitude (a.u.)       :      4.12604
Magnitude (Debye)      :     10.48756

Rotational constants in cm-1:     0.001238     0.000313     0.000263
Rotational constants in MHz :    37.105226     9.383207     7.888491

                             ****ORCA TERMINATED NORMALLY****
TOTAL RUN TIME: 0 days 0 hours 6 minutes 32 seconds 721 msec
