                         Program Version 4.2.0 -  RELEASE  -
|  1> # ORCA input file
|  2> # SCF done       -156.307328838500          0.000369069007
|  3> ! CAM-B3LYP def2-SVP def2/J RIJCOSX Grid4 TightSCF
|  4> %maxcore 5000
|  5> %tddft
|  6>     Mode sTDDFT
|  7>     Ethresh 5.0
|  8>     maxcore 5000
|  9> end
| 10>
| 11> %pal
| 12>   nprocs 6
| 13>   end
| 14> * xyz 0 1
| 15>    C       -0.41517         4.77263         1.83820
| 16>    S       -1.45373         4.13385         3.06552
| 17>    C       -2.64190         3.77465         1.88937
| 18>    C       -2.23649         4.13925         0.61342
| 19>    C       -0.95589         4.71299         0.58622
| 20>    C       -3.32318         3.78877        -0.32038
| 21>    O       -3.36225         3.94907        -1.51425
| 22>    C       -4.39484         3.17504         0.56864
| 23>    C       -3.94873         3.19170         1.86173
| 24>    C       -5.63715         2.66299         0.12195
| 25>    C       -6.05377         2.64350        -1.17054
| 26>    C       -7.30087         2.09358        -1.56231
| 27>    O       -8.14610         1.56346        -0.65451
| 28>    C       -9.24125         1.09919        -1.30327
| 29>    C       -9.10898         1.33350        -2.66229
| 30>    C       -7.87143         1.96948        -2.82921
| 31>    C       -7.27349         2.42593        -4.11003
| 32>    F       -7.04069         3.75153        -4.13045
| 33>    F       -6.09136         1.83709        -4.37004
| 34>    F       -8.06649         2.16386        -5.15872
| 35>    C      -10.29734         0.47815        -0.58575
| 36>    C      -10.29167         0.34248         0.76399
| 37>    C      -11.30379        -0.27829         1.53445
| 38>    S      -11.13291        -0.30717         3.28368
| 39>    C      -12.60718        -1.15498         3.44189
| 40>    C      -13.19899        -1.40492         2.20177
| 41>    C      -12.47276        -0.91271         1.12733
| 42>    C      -14.45562        -2.14691         2.45056
| 43>    O      -15.25310        -2.54504         1.63971
| 44>    C      -14.51123        -2.28787         3.95794
| 45>    C      -13.40007        -1.68349         4.49565
| 46>    C      -15.53607        -2.93440         4.68476
| 47>    C      -16.60999        -3.55998         4.13244
| 48>    C      -17.60768        -4.19289         4.91370
| 49>    O      -17.55647        -4.17962         6.26132
| 50>    C      -18.62863        -4.85235         6.74482
| 51>    C      -19.39609        -5.31796         5.68815
| 52>    C      -18.74662        -4.89797         4.52074
| 53>    C      -19.18411        -5.15126         3.12405
| 54>    F      -18.24230        -5.76977         2.38880
| 55>    F      -20.27720        -5.92638         3.07082
| 56>    F      -19.48859        -4.01909         2.46221
| 57>    C      -18.77554        -4.95109         8.15341
| 58>    C      -19.79411        -5.59270         8.77589
| 59>    C      -19.95110        -5.68396        10.18182
| 60>    S      -21.32952        -6.56259        10.82822
| 61>    C      -20.83340        -6.22361        12.42434
| 62>    C      -19.66320        -5.47074        12.45713
| 63>    C      -19.16064        -5.16383        11.19954
| 64>    C      -19.32658        -5.23242        13.88112
| 65>    O      -18.38628        -4.62098        14.32216
| 66>    C      -20.43136        -5.93144        14.64629
| 67>    C      -21.29129        -6.49862        13.75291
| 68>    C      -20.54773        -5.98288        16.07516
| 69>    C      -19.69633        -5.41662        16.93265
| 70>    H        0.54329         5.15667         2.12600
| 71>    H       -0.45862         5.06161        -0.30008
| 72>    H       -4.47911         2.82803         2.72327
| 73>    H       -6.28695         2.25238         0.88577
| 74>    H       -5.43077         3.04631        -1.95385
| 75>    H       -9.80901         1.08071        -3.43162
| 76>    H      -11.11792         0.11420        -1.18357
| 77>    H       -9.44875         0.73848         1.31406
| 78>    H      -12.76588        -1.00885         0.09860
| 79>    H      -13.15994        -1.61950         5.54161
| 80>    H      -15.43791        -2.92536         5.76379
| 81>    H      -16.73294        -3.59520         3.06120
| 82>    H      -20.30256        -5.88392         5.74140
| 83>    H      -18.00116        -4.46471         8.72742
| 84>    H      -20.55575        -6.07619         8.18071
| 85>    H      -18.26899        -4.59142        11.02502
| 86>    H      -22.17465        -7.06335        13.99142
| 87>    H      -21.40695        -6.53187        16.44353
| 88>    H      -18.83733        -4.86531        16.59330
| 89>    H      -19.84243        -5.49135        17.99645
| 90> *
| 91>
| 92>                          ****END OF INPUT****

CARTESIAN COORDINATES (ANGSTROEM)
---------------------------------
  C     -0.415170    4.772630    1.838200
  S     -1.453730    4.133850    3.065520
  C     -2.641900    3.774650    1.889370
  C     -2.236490    4.139250    0.613420
  C     -0.955890    4.712990    0.586220
  C     -3.323180    3.788770   -0.320380
  O     -3.362250    3.949070   -1.514250
  C     -4.394840    3.175040    0.568640
  C     -3.948730    3.191700    1.861730
  C     -5.637150    2.662990    0.121950
  C     -6.053770    2.643500   -1.170540
  C     -7.300870    2.093580   -1.562310
  O     -8.146100    1.563460   -0.654510
  C     -9.241250    1.099190   -1.303270
  C     -9.108980    1.333500   -2.662290
  C     -7.871430    1.969480   -2.829210
  C     -7.273490    2.425930   -4.110030
  F     -7.040690    3.751530   -4.130450
  F     -6.091360    1.837090   -4.370040
  F     -8.066490    2.163860   -5.158720
  C    -10.297340    0.478150   -0.585750
  C    -10.291670    0.342480    0.763990
  C    -11.303790   -0.278290    1.534450
  S    -11.132910   -0.307170    3.283680
  C    -12.607180   -1.154980    3.441890
  C    -13.198990   -1.404920    2.201770
  C    -12.472760   -0.912710    1.127330
  C    -14.455620   -2.146910    2.450560
  O    -15.253100   -2.545040    1.639710
  C    -14.511230   -2.287870    3.957940
  C    -13.400070   -1.683490    4.495650
  C    -15.536070   -2.934400    4.684760
  C    -16.609990   -3.559980    4.132440
  C    -17.607680   -4.192890    4.913700
  O    -17.556470   -4.179620    6.261320
  C    -18.628630   -4.852350    6.744820
  C    -19.396090   -5.317960    5.688150
  C    -18.746620   -4.897970    4.520740
  C    -19.184110   -5.151260    3.124050
  F    -18.242300   -5.769770    2.388800
  F    -20.277200   -5.926380    3.070820
  F    -19.488590   -4.019090    2.462210
  C    -18.775540   -4.951090    8.153410
  C    -19.794110   -5.592700    8.775890
  C    -19.951100   -5.683960   10.181820
  S    -21.329520   -6.562590   10.828220
  C    -20.833400   -6.223610   12.424340
  C    -19.663200   -5.470740   12.457130
  C    -19.160640   -5.163830   11.199540
  C    -19.326580   -5.232420   13.881120
  O    -18.386280   -4.620980   14.322160
  C    -20.431360   -5.931440   14.646290
  C    -21.291290   -6.498620   13.752910
  C    -20.547730   -5.982880   16.075160
  C    -19.696330   -5.416620   16.932650
  H      0.543290    5.156670    2.126000
  H     -0.458620    5.061610   -0.300080
  H     -4.479110    2.828030    2.723270
  H     -6.286950    2.252380    0.885770
  H     -5.430770    3.046310   -1.953850
  H     -9.809010    1.080710   -3.431620
  H    -11.117920    0.114200   -1.183570
  H     -9.448750    0.738480    1.314060
  H    -12.765880   -1.008850    0.098600
  H    -13.159940   -1.619500    5.541610
  H    -15.437910   -2.925360    5.763790
  H    -16.732940   -3.595200    3.061200
  H    -20.302560   -5.883920    5.741400
  H    -18.001160   -4.464710    8.727420
  H    -20.555750   -6.076190    8.180710
  H    -18.268990   -4.591420   11.025020
  H    -22.174650   -7.063350   13.991420
  H    -21.406950   -6.531870   16.443530
  H    -18.837330   -4.865310   16.593300
  H    -19.842430   -5.491350   17.996450

 Total Charge           Charge          ....    0
 Multiplicity           Mult            ....    1
 Number of Electrons    NEL             ....  408
 Basis Dimension        Dim             ....  882

ORBITAL ENERGIES
----------------

  NO   OCC          E(Eh)            E(eV)
   0   2.0000     -88.976801     -2421.1819
   1   2.0000     -88.976044     -2421.1613
   2   2.0000     -88.973031     -2421.0793
   3   2.0000     -24.793472      -674.6647
   4   2.0000     -24.791917      -674.6224
   5   2.0000     -24.787457      -674.5010
   6   2.0000     -24.786308      -674.4697
   7   2.0000     -24.785306      -674.4425
   8   2.0000     -24.785151      -674.4382
   9   2.0000     -19.299804      -525.1744
  10   2.0000     -19.299047      -525.1538
  11   2.0000     -19.228599      -523.2368
  12   2.0000     -19.227021      -523.1938
  13   2.0000     -19.224816      -523.1338
  14   2.0000     -10.512260      -286.0531
  15   2.0000     -10.510754      -286.0121
  16   2.0000     -10.371919      -282.2343
  17   2.0000     -10.370548      -282.1970
  18   2.0000     -10.368545      -282.1425
  19   2.0000     -10.343615      -281.4641
  20   2.0000     -10.342799      -281.4419
  21   2.0000     -10.340629      -281.3828
  22   2.0000     -10.338942      -281.3369
  23   2.0000     -10.312057      -280.6053
  24   2.0000     -10.311892      -280.6008
  25   2.0000     -10.311490      -280.5899
  26   2.0000     -10.311132      -280.5802
  27   2.0000     -10.307768      -280.4886
  28   2.0000     -10.302200      -280.3371
  29   2.0000     -10.300680      -280.2958
  30   2.0000     -10.299930      -280.2753
  31   2.0000     -10.299591      -280.2661
  32   2.0000     -10.295406      -280.1522
  33   2.0000     -10.291215      -280.0382
  34   2.0000     -10.290976      -280.0317
  35   2.0000     -10.290222      -280.0112
  36   2.0000     -10.289944      -280.0036
  37   2.0000     -10.289424      -279.9894
  38   2.0000     -10.289405      -279.9889
  39   2.0000     -10.288750      -279.9711
  40   2.0000     -10.288745      -279.9710
  41   2.0000     -10.286758      -279.9169
  42   2.0000     -10.286423      -279.9078
  43   2.0000     -10.285560      -279.8843
  44   2.0000     -10.284354      -279.8515
  45   2.0000     -10.284024      -279.8425
  46   2.0000     -10.283977      -279.8412
  47   2.0000     -10.283628      -279.8317
  48   2.0000     -10.281759      -279.7809
  49   2.0000     -10.280782      -279.7543
  50   2.0000     -10.277028      -279.6522
  51   2.0000     -10.275628      -279.6140
  52   2.0000     -10.275213      -279.6028
  53   2.0000     -10.270839      -279.4837
  54   2.0000     -10.262273      -279.2506
  55   2.0000      -8.071771      -219.6441
  56   2.0000      -8.071141      -219.6269
  57   2.0000      -8.068410      -219.5526
  58   2.0000      -6.040793      -164.3783
  59   2.0000      -6.040184      -164.3618
  60   2.0000      -6.037552      -164.2902
  61   2.0000      -6.036875      -164.2717
  62   2.0000      -6.036231      -164.2542
  63   2.0000      -6.034372      -164.2036
  64   2.0000      -6.033683      -164.1849
  65   2.0000      -6.033261      -164.1734
  66   2.0000      -6.031062      -164.1135
  67   2.0000      -1.378934       -37.5227
  68   2.0000      -1.377331       -37.4791
  69   2.0000      -1.283400       -34.9231
  70   2.0000      -1.281813       -34.8799
  71   2.0000      -1.277834       -34.7716
  72   2.0000      -1.276201       -34.7272
  73   2.0000      -1.218940       -33.1690
  74   2.0000      -1.218411       -33.1546
  75   2.0000      -1.140228       -31.0272
  76   2.0000      -1.138323       -30.9753
  77   2.0000      -1.136498       -30.9257
  78   2.0000      -1.007529       -27.4163
  79   2.0000      -1.007394       -27.4126
  80   2.0000      -1.003057       -27.2946
  81   2.0000      -0.947828       -25.7917
  82   2.0000      -0.945605       -25.7312
  83   2.0000      -0.938659       -25.5422
  84   2.0000      -0.924037       -25.1443
  85   2.0000      -0.922060       -25.0905
  86   2.0000      -0.919792       -25.0288
  87   2.0000      -0.914946       -24.8969
  88   2.0000      -0.892987       -24.2994
  89   2.0000      -0.882925       -24.0256
  90   2.0000      -0.866265       -23.5723
  91   2.0000      -0.851291       -23.1648
  92   2.0000      -0.849845       -23.1254
  93   2.0000      -0.845762       -23.0143
  94   2.0000      -0.842274       -22.9194
  95   2.0000      -0.831612       -22.6293
  96   2.0000      -0.803379       -21.8610
  97   2.0000      -0.796809       -21.6823
  98   2.0000      -0.794656       -21.6237
  99   2.0000      -0.781582       -21.2679
 100   2.0000      -0.765257       -20.8237
 101   2.0000      -0.752746       -20.4832
 102   2.0000      -0.751951       -20.4616
 103   2.0000      -0.745196       -20.2778
 104   2.0000      -0.737994       -20.0818
 105   2.0000      -0.723821       -19.6962
 106   2.0000      -0.712774       -19.3956
 107   2.0000      -0.710625       -19.3371
 108   2.0000      -0.702176       -19.1072
 109   2.0000      -0.692015       -18.8307
 110   2.0000      -0.684980       -18.6392
 111   2.0000      -0.673579       -18.3290
 112   2.0000      -0.664053       -18.0698
 113   2.0000      -0.661263       -17.9939
 114   2.0000      -0.659667       -17.9505
 115   2.0000      -0.658357       -17.9148
 116   2.0000      -0.656499       -17.8643
 117   2.0000      -0.647857       -17.6291
 118   2.0000      -0.644647       -17.5417
 119   2.0000      -0.643803       -17.5188
 120   2.0000      -0.636127       -17.3099
 121   2.0000      -0.631526       -17.1847
 122   2.0000      -0.628508       -17.1026
 123   2.0000      -0.619486       -16.8571
 124   2.0000      -0.616108       -16.7651
 125   2.0000      -0.615200       -16.7404
 126   2.0000      -0.600038       -16.3279
 127   2.0000      -0.591595       -16.0981
 128   2.0000      -0.580246       -15.7893
 129   2.0000      -0.578242       -15.7348
 130   2.0000      -0.570092       -15.5130
 131   2.0000      -0.569175       -15.4880
 132   2.0000      -0.566511       -15.4156
 133   2.0000      -0.565970       -15.4008
 134   2.0000      -0.565481       -15.3875
 135   2.0000      -0.555440       -15.1143
 136   2.0000      -0.553419       -15.0593
 137   2.0000      -0.549565       -14.9544
 138   2.0000      -0.547809       -14.9066
 139   2.0000      -0.538354       -14.6494
 140   2.0000      -0.537853       -14.6357
 141   2.0000      -0.536812       -14.6074
 142   2.0000      -0.536233       -14.5916
 143   2.0000      -0.535107       -14.5610
 144   2.0000      -0.526513       -14.3271
 145   2.0000      -0.525261       -14.2931
 146   2.0000      -0.522234       -14.2107
 147   2.0000      -0.522035       -14.2053
 148   2.0000      -0.519858       -14.1461
 149   2.0000      -0.515856       -14.0372
 150   2.0000      -0.508068       -13.8252
 151   2.0000      -0.503766       -13.7082
 152   2.0000      -0.502876       -13.6839
 153   2.0000      -0.500969       -13.6321
 154   2.0000      -0.499561       -13.5938
 155   2.0000      -0.499348       -13.5879
 156   2.0000      -0.497542       -13.5388
 157   2.0000      -0.496984       -13.5236
 158   2.0000      -0.496247       -13.5036
 159   2.0000      -0.494797       -13.4641
 160   2.0000      -0.483856       -13.1664
 161   2.0000      -0.477715       -12.9993
 162   2.0000      -0.477213       -12.9856
 163   2.0000      -0.474716       -12.9177
 164   2.0000      -0.474037       -12.8992
 165   2.0000      -0.473473       -12.8839
 166   2.0000      -0.473276       -12.8785
 167   2.0000      -0.473061       -12.8727
 168   2.0000      -0.473034       -12.8719
 169   2.0000      -0.470757       -12.8100
 170   2.0000      -0.468984       -12.7617
 171   2.0000      -0.464604       -12.6425
 172   2.0000      -0.462467       -12.5844
 173   2.0000      -0.461542       -12.5592
 174   2.0000      -0.456024       -12.4090
 175   2.0000      -0.454648       -12.3716
 176   2.0000      -0.454498       -12.3675
 177   2.0000      -0.450399       -12.2560
 178   2.0000      -0.449945       -12.2436
 179   2.0000      -0.441470       -12.0130
 180   2.0000      -0.434325       -11.8186
 181   2.0000      -0.432610       -11.7719
 182   2.0000      -0.432099       -11.7580
 183   2.0000      -0.430196       -11.7062
 184   2.0000      -0.425713       -11.5842
 185   2.0000      -0.419737       -11.4216
 186   2.0000      -0.408491       -11.1156
 187   2.0000      -0.396999       -10.8029
 188   2.0000      -0.379485       -10.3263
 189   2.0000      -0.376755       -10.2520
 190   2.0000      -0.370944       -10.0939
 191   2.0000      -0.356153        -9.6914
 192   2.0000      -0.339078        -9.2268
 193   2.0000      -0.338912        -9.2223
 194   2.0000      -0.336930        -9.1683
 195   2.0000      -0.336879        -9.1669
 196   2.0000      -0.334214        -9.0944
 197   2.0000      -0.333711        -9.0807
 198   2.0000      -0.333101        -9.0641
 199   2.0000      -0.312431        -8.5017
 200   2.0000      -0.288926        -7.8621
 201   2.0000      -0.264786        -7.2052
 202   2.0000      -0.240967        -6.5570
 203   2.0000      -0.221157        -6.0180
 204   0.0000      -0.090699        -2.4681
 205   0.0000      -0.077844        -2.1182
 206   0.0000      -0.072833        -1.9819
 207   0.0000      -0.035214        -0.9582
 208   0.0000      -0.033102        -0.9008

MULLIKEN ATOMIC CHARGES
-----------------------
   0 C :   -0.095014
   1 S :    0.160578
   2 C :   -0.074343
   3 C :   -0.033014
   4 C :    0.047611
   5 C :    0.169305
   6 O :   -0.116442
   7 C :   -0.001132
   8 C :   -0.031323
   9 C :   -0.022192
  10 C :   -0.026331
  11 C :    0.144842
  12 O :   -0.206049
  13 C :    0.188385
  14 C :   -0.063157
  15 C :   -0.107995
  16 C :    0.525009
  17 F :   -0.165744
  18 F :   -0.165195
  19 F :   -0.158509
  20 C :   -0.023072
  21 C :    0.053905
  22 C :   -0.097202
  23 S :    0.167729
  24 C :   -0.043641
  25 C :   -0.006451
  26 C :   -0.005731
  27 C :    0.172600
  28 O :   -0.113446
  29 C :    0.001075
  30 C :   -0.039889
  31 C :   -0.029712
  32 C :   -0.028442
  33 C :    0.138065
  34 O :   -0.196887
  35 C :    0.195795
  36 C :   -0.084731
  37 C :   -0.101083
  38 C :    0.524546
  39 F :   -0.165548
  40 F :   -0.159465
  41 F :   -0.165383
  42 C :    0.003293
  43 C :    0.051678
  44 C :   -0.103248
  45 S :    0.168524
  46 C :   -0.052510
  47 C :   -0.018174
  48 C :   -0.003047
  49 C :    0.167531
  50 O :   -0.114140
  51 C :   -0.019162
  52 C :   -0.035152
  53 C :   -0.029111
  54 C :   -0.001124
  55 H :    0.031512
  56 H :   -0.001131
  57 H :   -0.010272
  58 H :   -0.016209
  59 H :    0.029984
  60 H :   -0.005883
  61 H :   -0.004025
  62 H :   -0.006126
  63 H :   -0.005887
  64 H :   -0.007343
  65 H :   -0.012633
  66 H :    0.030361
  67 H :   -0.006656
  68 H :   -0.004984
  69 H :   -0.016349
  70 H :   -0.007325
  71 H :   -0.008389
  72 H :   -0.019483
  73 H :    0.042035
  74 H :    0.021120
Sum of atomic charges:   -0.0000000

LOEWDIN ATOMIC CHARGES
----------------------
   0 C :   -0.186233
   1 S :    0.464706
   2 C :   -0.178207
   3 C :   -0.110871
   4 C :   -0.028347
   5 C :    0.104332
   6 O :   -0.100926
   7 C :   -0.057042
   8 C :   -0.001701
   9 C :   -0.011786
  10 C :   -0.031860
  11 C :    0.051847
  12 O :    0.019286
  13 C :    0.036784
  14 C :   -0.043208
  15 C :   -0.121911
  16 C :    0.168933
  17 F :   -0.064893
  18 F :   -0.064620
  19 F :   -0.058137
  20 C :   -0.038906
  21 C :   -0.037997
  22 C :   -0.170019
  23 S :    0.464998
  24 C :   -0.178585
  25 C :   -0.100759
  26 C :   -0.018020
  27 C :    0.104982
  28 O :   -0.098448
  29 C :   -0.058228
  30 C :   -0.001996
  31 C :   -0.014053
  32 C :   -0.031310
  33 C :    0.046579
  34 O :    0.022363
  35 C :    0.035408
  36 C :   -0.045088
  37 C :   -0.118680
  38 C :    0.169264
  39 F :   -0.063627
  40 F :   -0.058906
  41 F :   -0.065460
  42 C :   -0.038476
  43 C :   -0.032169
  44 C :   -0.173037
  45 S :    0.466475
  46 C :   -0.178636
  47 C :   -0.102869
  48 C :   -0.018631
  49 C :    0.104371
  50 O :   -0.100647
  51 C :   -0.053088
  52 C :   -0.002495
  53 C :   -0.034693
  54 C :   -0.022708
  55 H :    0.023827
  56 H :    0.039357
  57 H :    0.030727
  58 H :    0.030409
  59 H :    0.040199
  60 H :    0.036612
  61 H :    0.037367
  62 H :    0.029983
  63 H :    0.037241
  64 H :    0.032231
  65 H :    0.031582
  66 H :    0.039837
  67 H :    0.033920
  68 H :    0.036119
  69 H :    0.028736
  70 H :    0.036575
  71 H :    0.031642
  72 H :    0.028976
  73 H :    0.027252
  74 H :    0.024351

  Mayer bond orders larger than 0.100000
B(  0-C ,  1-S ) :   1.1575 B(  0-C ,  4-C ) :   1.5448 B(  0-C , 55-H ) :   0.9681
B(  1-S ,  2-C ) :   1.1459 B(  2-C ,  3-C ) :   1.4868 B(  2-C ,  8-C ) :   1.0399
B(  3-C ,  4-C ) :   1.2862 B(  3-C ,  5-C ) :   0.9514 B(  4-C , 56-H ) :   1.0048
B(  5-C ,  6-O ) :   2.2249 B(  5-C ,  7-C ) :   0.9074 B(  7-C ,  8-C ) :   1.6205
B(  7-C ,  9-C ) :   1.1315 B(  8-C , 57-H ) :   1.0238 B(  9-C , 10-C ) :   1.6156
B(  9-C , 58-H ) :   0.9899 B( 10-C , 11-C ) :   1.1635 B( 10-C , 59-H ) :   0.9413
B( 11-C , 12-O ) :   1.1587 B( 11-C , 15-C ) :   1.4234 B( 12-O , 13-C ) :   1.1315
B( 13-C , 14-C ) :   1.4089 B( 13-C , 20-C ) :   1.1678 B( 14-C , 15-C ) :   1.2584
B( 14-C , 60-H ) :   1.0212 B( 15-C , 16-C ) :   0.9476 B( 16-C , 17-F ) :   1.1666
B( 16-C , 18-F ) :   1.1667 B( 16-C , 19-F ) :   1.1775 B( 20-C , 21-C ) :   1.6615
B( 20-C , 61-H ) :   0.9616 B( 21-C , 22-C ) :   1.1241 B( 21-C , 62-H ) :   0.9646
B( 22-C , 23-S ) :   1.1108 B( 22-C , 26-C ) :   1.4403 B( 23-S , 24-C ) :   1.1326
B( 24-C , 25-C ) :   1.4507 B( 24-C , 30-C ) :   1.0556 B( 25-C , 26-C ) :   1.3232
B( 25-C , 27-C ) :   0.9314 B( 26-C , 63-H ) :   1.0005 B( 27-C , 28-O ) :   2.2339
B( 27-C , 29-C ) :   0.9108 B( 29-C , 30-C ) :   1.5870 B( 29-C , 31-C ) :   1.1407
B( 30-C , 64-H ) :   1.0251 B( 31-C , 32-C ) :   1.6018 B( 31-C , 65-H ) :   0.9908
B( 32-C , 33-C ) :   1.1700 B( 32-C , 66-H ) :   0.9422 B( 33-C , 34-O ) :   1.1633
B( 33-C , 37-C ) :   1.4119 B( 34-O , 35-C ) :   1.1224 B( 35-C , 36-C ) :   1.4389
B( 35-C , 42-C ) :   1.1296 B( 36-C , 37-C ) :   1.2730 B( 36-C , 67-H ) :   1.0127
B( 37-C , 38-C ) :   0.9475 B( 38-C , 39-F ) :   1.1614 B( 38-C , 40-F ) :   1.1749
B( 38-C , 41-F ) :   1.1710 B( 42-C , 43-C ) :   1.6827 B( 42-C , 68-H ) :   0.9606
B( 43-C , 44-C ) :   1.1374 B( 43-C , 69-H ) :   0.9598 B( 44-C , 45-S ) :   1.1111
B( 44-C , 48-C ) :   1.4471 B( 45-S , 46-C ) :   1.1406 B( 46-C , 47-C ) :   1.4670
B( 46-C , 52-C ) :   1.0364 B( 47-C , 48-C ) :   1.3204 B( 47-C , 49-C ) :   0.9283
B( 48-C , 70-H ) :   0.9999 B( 49-C , 50-O ) :   2.2446 B( 49-C , 51-C ) :   0.9164
B( 51-C , 52-C ) :   1.6475 B( 51-C , 53-C ) :   1.1253 B( 52-C , 71-H ) :   1.0212
B( 53-C , 54-C ) :   1.9014 B( 53-C , 72-H ) :   0.9679 B( 54-C , 73-H ) :   0.9416
B( 54-C , 74-H ) :   0.9478

-----------------------------------------------------------------------------
         ABSORPTION SPECTRUM VIA TRANSITION ELECTRIC DIPOLE MOMENTS
-----------------------------------------------------------------------------
State   Energy  Wavelength   fosc         T2         TX        TY        TZ
        (cm-1)    (nm)                  (au**2)     (au)      (au)      (au)
-----------------------------------------------------------------------------
   0   13178.5    758.8   1.179365960  29.46172  -4.00337  -2.32097   2.83687
   1   16856.8    593.2   0.345052318   6.73883   1.98221   0.78940   1.47869
   2   17172.6    582.3   0.173618969   3.32841   0.74543   0.34817  -1.62835
   3   20441.6    489.2   0.085536282   1.37756  -0.57583  -0.39713   0.94248
   4   23140.6    432.1   0.500494903   7.12034   1.74302   1.09800  -1.69606
   5   24028.1    416.2   0.474041934   6.49490  -1.53948  -0.88807   1.82653
   6   24793.1    403.3   0.066909438   0.88845  -0.78232  -0.38273   0.36047
   7   26285.6    380.4   0.000124271   0.00156  -0.02824   0.00761  -0.02648
   8   26287.0    380.4   0.000222920   0.00279   0.03062   0.04054  -0.01451
   9   26668.5    375.0   0.000086623   0.00107   0.00565  -0.02323  -0.02231
  10   26838.2    372.6   0.267185409   3.27744  -0.69067  -0.31942  -1.64268
  11   27163.1    368.1   0.291002685   3.52690  -1.39370  -0.80823   0.96502
  12   28674.2    348.7   0.027701101   0.31804   0.41968   0.16222   0.33999
  13   30052.1    332.8   0.009131856   0.10004  -0.19138  -0.09773   0.23207
  14   31262.7    319.9   0.004000113   0.04212  -0.02285  -0.05841   0.19542
  15   32095.8    311.6   0.005954171   0.06107   0.19212  -0.14979   0.04151
  16   32820.9    304.7   0.203493409   2.04115   0.72661   0.33057   1.18486
  17   33719.0    296.6   0.004191612   0.04092  -0.11458  -0.03759   0.16243
  18   34859.9    286.9   0.112119279   1.05884   0.83578   0.49670  -0.33704
  19   35327.7    283.1   0.016506525   0.15382   0.34186   0.08856   0.17063
  20   35525.2    281.5   0.071129103   0.65915   0.43592   0.39407  -0.56021
  21   36393.0    274.8   0.489483220   4.42787   1.10407   0.42931   1.73914
  22   37672.6    265.4   0.036943831   0.32284   0.25698   0.07299   0.50147
  23   38292.6    261.1   0.083145349   0.71482  -0.50497  -0.28922  -0.61334
  24   38502.3    259.7   0.131815842   1.12708  -0.63394  -0.54065   0.65795
  25   39646.1    252.2   0.218158680   1.81154  -0.54714  -0.31456  -1.18880
  26   39860.9    250.9   0.032023538   0.26448   0.04334  -0.09575   0.50343
  27   40049.4    249.7   0.226254486   1.85985   0.77263   0.44433   1.03221

FINAL SINGLE POINT ENERGY     -3740.632905626227

DIPOLE MOMENT
-------------
                                X             Y             Z
Electronic contribution:      6.60649       6.12070     -57.59722
Nuclear contribution   :     -6.52589      -6.44947      60.49196
                        -----------------------------------------
Total Dipole Moment    :      0.08060      -0.32877       2.89474
                        -----------------------------------------
Magnitude (a.u.)       :      2.91446
Magnitude (Debye)      :      7.40797

Rotational constants in cm-1:     0.001931     0.000266     0.000234
Rotational constants in MHz :    57.878751     7.960028     7.024615

                             ****ORCA TERMINATED NORMALLY****
TOTAL RUN TIME: 0 days 0 hours 6 minutes 7 seconds 95 msec
