                         Program Version 4.2.0 -  RELEASE  -
|  1> # ORCA input file
|  2> # SCF done       -148.006198713090          0.000980887342
|  3> ! CAM-B3LYP def2-SVP def2/J RIJCOSX Grid4 TightSCF
|  4> %maxcore 5000
|  5> %tddft
|  6>     Mode sTDDFT
|  7>     Ethresh 5.0
|  8>     maxcore 5000
|  9> end
| 10>
| 11> %pal
| 12>   nprocs 6
| 13>   end
| 14> * xyz 0 1
| 15>    C        6.03592        -3.11484         0.92058
| 16>    C        4.72869        -3.31216         1.35448
| 17>    N        4.41077        -4.33777         2.11530
| 18>    C        5.37287        -5.17270         2.51312
| 19>    C        6.70451        -4.90704         2.13561
| 20>    N        7.00720        -3.90931         1.34016
| 21>    C        5.02521        -6.31816         3.31422
| 22>    C        5.66827        -7.52175         3.32553
| 23>    C        4.88783        -8.44657         4.11300
| 24>    C        5.26488        -9.76445         4.39965
| 25>    N        5.57744       -10.84460         4.63190
| 26>    C        3.73267        -7.82121         4.52100
| 27>    C        3.78094        -6.46337         4.08260
| 28>    C        2.89194        -5.45397         4.38751
| 29>    C        1.46184        -5.60923         4.75228
| 30>    C        1.00183        -4.35817         5.11765
| 31>    C        2.07315        -3.42366         4.99243
| 32>    C        3.20250        -4.07500         4.52803
| 33>    C        1.98777        -2.05712         5.29440
| 34>    N        1.91983        -0.93731         5.53664
| 35>    C        0.72262        -6.79379         4.57855
| 36>    C       -0.57377        -6.97013         4.99316
| 37>    C       -1.31655        -8.14677         4.79433
| 38>    C       -0.87148        -9.36628         4.31545
| 39>    C       -1.92067       -10.31482         4.44924
| 40>    C       -1.85535       -11.65175         4.03329
| 41>    N       -1.80536       -12.74722         3.69452
| 42>    C       -3.02209        -9.70892         5.04494
| 43>    C       -2.72280        -8.34477         5.24203
| 44>    C       -3.60765        -7.36027         5.65404
| 45>    C       -4.83947        -7.56817         6.45627
| 46>    C       -5.51554        -6.36306         6.47858
| 47>    C       -4.76454        -5.40836         5.73575
| 48>    C       -3.59664        -5.99955         5.27172
| 49>    C       -5.15520        -4.08225         5.50663
| 50>    N       -5.47498        -2.99592         5.31875
| 51>    C       -5.13411        -8.74209         7.17795
| 52>    C       -6.30478        -8.96465         7.85229
| 53>    C       -6.60204       -10.14874         8.55851
| 54>    C       -5.94180       -11.35710         8.50579
| 55>    C       -6.70876       -12.32812         9.22202
| 56>    C       -6.33277       -13.66719         9.40387
| 57>    N       -6.02519       -14.76246         9.55352
| 58>    C       -7.86529       -11.74377         9.70177
| 59>    C       -7.83189       -10.36113         9.37046
| 60>    C       -8.68587        -9.39349         9.84759
| 61>    C      -10.03384        -9.60814        10.41171
| 62>    C      -10.45058        -8.42006        10.93802
| 63>    C       -9.40790        -7.43594        10.74467
| 64>    C       -8.37130        -8.01000        10.05419
| 65>    C       -9.46967        -6.11458        11.20556
| 66>    N       -9.52545        -5.03162        11.58231
| 67>    C      -10.80184       -10.80961        10.26935
| 68>    C      -11.87212       -11.11304        11.02772
| 69>    C      -12.68571       -12.29802        10.90427
| 70>    C      -12.47208       -13.33462         9.97643
| 71>    N      -13.25815       -14.38623         9.91905
| 72>    C      -14.27268       -14.46218        10.76543
| 73>    C      -14.49424       -13.45031        11.69490
| 74>    N      -13.71258       -12.39434        11.75502
| 75>    H        6.30967        -2.32230         0.24096
| 76>    H        3.92050        -2.65295         1.07136
| 77>    H        7.52467        -5.50450         2.50703
| 78>    H        6.57110        -7.78592         2.80740
| 79>    H        3.00365        -8.23549         5.19144
| 80>    H        0.00553        -4.09133         5.41605
| 81>    H        4.17317        -3.63207         4.42592
| 82>    H        1.21157        -7.60229         4.05552
| 83>    H       -1.05118        -6.16955         5.53826
| 84>    H        0.10263        -9.59938         3.92996
| 85>    H       -3.97729       -10.17687         5.18697
| 86>    H       -6.43152        -6.13805         6.99100
| 87>    H       -2.89085        -5.52998         4.61370
| 88>    H       -4.36396        -9.49805         7.22041
| 89>    H       -7.07462        -8.20840         7.81326
| 90>    H       -5.02991       -11.58219         7.98623
| 91>    H       -8.58438       -12.22305        10.33763
| 92>    H      -11.40092        -8.20398        11.38786
| 93>    H       -7.43044        -7.54120         9.83924
| 94>    H      -10.48691       -11.48288         9.48426
| 95>    H      -12.18019       -10.45127        11.82469
| 96>    H      -11.65449       -13.31739         9.27009
| 97>    H      -14.90295       -15.33616        10.69504
| 98>    H      -15.31173       -13.48797        12.40140
| 99> *
|100>
|101>                          ****END OF INPUT****

CARTESIAN COORDINATES (ANGSTROEM)
---------------------------------
  C      6.035920   -3.114840    0.920580
  C      4.728690   -3.312160    1.354480
  N      4.410770   -4.337770    2.115300
  C      5.372870   -5.172700    2.513120
  C      6.704510   -4.907040    2.135610
  N      7.007200   -3.909310    1.340160
  C      5.025210   -6.318160    3.314220
  C      5.668270   -7.521750    3.325530
  C      4.887830   -8.446570    4.113000
  C      5.264880   -9.764450    4.399650
  N      5.577440  -10.844600    4.631900
  C      3.732670   -7.821210    4.521000
  C      3.780940   -6.463370    4.082600
  C      2.891940   -5.453970    4.387510
  C      1.461840   -5.609230    4.752280
  C      1.001830   -4.358170    5.117650
  C      2.073150   -3.423660    4.992430
  C      3.202500   -4.075000    4.528030
  C      1.987770   -2.057120    5.294400
  N      1.919830   -0.937310    5.536640
  C      0.722620   -6.793790    4.578550
  C     -0.573770   -6.970130    4.993160
  C     -1.316550   -8.146770    4.794330
  C     -0.871480   -9.366280    4.315450
  C     -1.920670  -10.314820    4.449240
  C     -1.855350  -11.651750    4.033290
  N     -1.805360  -12.747220    3.694520
  C     -3.022090   -9.708920    5.044940
  C     -2.722800   -8.344770    5.242030
  C     -3.607650   -7.360270    5.654040
  C     -4.839470   -7.568170    6.456270
  C     -5.515540   -6.363060    6.478580
  C     -4.764540   -5.408360    5.735750
  C     -3.596640   -5.999550    5.271720
  C     -5.155200   -4.082250    5.506630
  N     -5.474980   -2.995920    5.318750
  C     -5.134110   -8.742090    7.177950
  C     -6.304780   -8.964650    7.852290
  C     -6.602040  -10.148740    8.558510
  C     -5.941800  -11.357100    8.505790
  C     -6.708760  -12.328120    9.222020
  C     -6.332770  -13.667190    9.403870
  N     -6.025190  -14.762460    9.553520
  C     -7.865290  -11.743770    9.701770
  C     -7.831890  -10.361130    9.370460
  C     -8.685870   -9.393490    9.847590
  C    -10.033840   -9.608140   10.411710
  C    -10.450580   -8.420060   10.938020
  C     -9.407900   -7.435940   10.744670
  C     -8.371300   -8.010000   10.054190
  C     -9.469670   -6.114580   11.205560
  N     -9.525450   -5.031620   11.582310
  C    -10.801840  -10.809610   10.269350
  C    -11.872120  -11.113040   11.027720
  C    -12.685710  -12.298020   10.904270
  C    -12.472080  -13.334620    9.976430
  N    -13.258150  -14.386230    9.919050
  C    -14.272680  -14.462180   10.765430
  C    -14.494240  -13.450310   11.694900
  N    -13.712580  -12.394340   11.755020
  H      6.309670   -2.322300    0.240960
  H      3.920500   -2.652950    1.071360
  H      7.524670   -5.504500    2.507030
  H      6.571100   -7.785920    2.807400
  H      3.003650   -8.235490    5.191440
  H      0.005530   -4.091330    5.416050
  H      4.173170   -3.632070    4.425920
  H      1.211570   -7.602290    4.055520
  H     -1.051180   -6.169550    5.538260
  H      0.102630   -9.599380    3.929960
  H     -3.977290  -10.176870    5.186970
  H     -6.431520   -6.138050    6.991000
  H     -2.890850   -5.529980    4.613700
  H     -4.363960   -9.498050    7.220410
  H     -7.074620   -8.208400    7.813260
  H     -5.029910  -11.582190    7.986230
  H     -8.584380  -12.223050   10.337630
  H    -11.400920   -8.203980   11.387860
  H     -7.430440   -7.541200    9.839240
  H    -10.486910  -11.482880    9.484260
  H    -12.180190  -10.451270   11.824690
  H    -11.654490  -13.317390    9.270090
  H    -14.902950  -15.336160   10.695040
  H    -15.311730  -13.487970   12.401400

 Total Charge           Charge          ....    0
 Multiplicity           Mult            ....    1
 Number of Electrons    NEL             ....  394
 Basis Dimension        Dim             ....  960

ORBITAL ENERGIES
----------------

  NO   OCC          E(Eh)            E(eV)
   0   2.0000     -14.441072      -392.9616
   1   2.0000     -14.437079      -392.8529
   2   2.0000     -14.425353      -392.5338
   3   2.0000     -14.424673      -392.5153
   4   2.0000     -14.424284      -392.5047
   5   2.0000     -14.424230      -392.5033
   6   2.0000     -14.423472      -392.4826
   7   2.0000     -14.422827      -392.4651
   8   2.0000     -14.422190      -392.4478
   9   2.0000     -14.420740      -392.4083
  10   2.0000     -10.345236      -281.5082
  11   2.0000     -10.341468      -281.4057
  12   2.0000     -10.338894      -281.3356
  13   2.0000     -10.338623      -281.3282
  14   2.0000     -10.338572      -281.3269
  15   2.0000     -10.338498      -281.3248
  16   2.0000     -10.337982      -281.3108
  17   2.0000     -10.337791      -281.3056
  18   2.0000     -10.337731      -281.3040
  19   2.0000     -10.337413      -281.2953
  20   2.0000     -10.337221      -281.2901
  21   2.0000     -10.336618      -281.2737
  22   2.0000     -10.333759      -281.1959
  23   2.0000     -10.332263      -281.1552
  24   2.0000     -10.331212      -281.1266
  25   2.0000     -10.328613      -281.0559
  26   2.0000     -10.328392      -281.0498
  27   2.0000     -10.322149      -280.8800
  28   2.0000     -10.321308      -280.8571
  29   2.0000     -10.320983      -280.8482
  30   2.0000     -10.320801      -280.8433
  31   2.0000     -10.320404      -280.8325
  32   2.0000     -10.319618      -280.8111
  33   2.0000     -10.318931      -280.7924
  34   2.0000     -10.317887      -280.7640
  35   2.0000     -10.316568      -280.7281
  36   2.0000     -10.315903      -280.7100
  37   2.0000     -10.315896      -280.7098
  38   2.0000     -10.315665      -280.7035
  39   2.0000     -10.314918      -280.6832
  40   2.0000     -10.314452      -280.6705
  41   2.0000     -10.313311      -280.6395
  42   2.0000     -10.313291      -280.6389
  43   2.0000     -10.312504      -280.6175
  44   2.0000     -10.312073      -280.6058
  45   2.0000     -10.311376      -280.5868
  46   2.0000     -10.310935      -280.5748
  47   2.0000     -10.310167      -280.5539
  48   2.0000     -10.309686      -280.5408
  49   2.0000     -10.309421      -280.5336
  50   2.0000     -10.309183      -280.5271
  51   2.0000     -10.308183      -280.4999
  52   2.0000     -10.308102      -280.4977
  53   2.0000     -10.307978      -280.4943
  54   2.0000     -10.306414      -280.4518
  55   2.0000     -10.306223      -280.4466
  56   2.0000     -10.305932      -280.4387
  57   2.0000     -10.303948      -280.3847
  58   2.0000     -10.302602      -280.3481
  59   2.0000     -10.294949      -280.1398
  60   2.0000      -1.098258       -29.8851
  61   2.0000      -1.083182       -29.4749
  62   2.0000      -1.031728       -28.0748
  63   2.0000      -1.028369       -27.9834
  64   2.0000      -1.027006       -27.9462
  65   2.0000      -1.016111       -27.6498
  66   2.0000      -1.014473       -27.6052
  67   2.0000      -1.013828       -27.5877
  68   2.0000      -1.013534       -27.5797
  69   2.0000      -1.002497       -27.2793
  70   2.0000      -1.001475       -27.2515
  71   2.0000      -1.000229       -27.2176
  72   2.0000      -0.999990       -27.2111
  73   2.0000      -0.992401       -27.0046
  74   2.0000      -0.991102       -26.9693
  75   2.0000      -0.989889       -26.9362
  76   2.0000      -0.927343       -25.2343
  77   2.0000      -0.924476       -25.1563
  78   2.0000      -0.921559       -25.0769
  79   2.0000      -0.907728       -24.7005
  80   2.0000      -0.895282       -24.3619
  81   2.0000      -0.893990       -24.3267
  82   2.0000      -0.892477       -24.2855
  83   2.0000      -0.876136       -23.8409
  84   2.0000      -0.867179       -23.5971
  85   2.0000      -0.858836       -23.3701
  86   2.0000      -0.843602       -22.9556
  87   2.0000      -0.825574       -22.4650
  88   2.0000      -0.819187       -22.2912
  89   2.0000      -0.816929       -22.2298
  90   2.0000      -0.813617       -22.1397
  91   2.0000      -0.809033       -22.0149
  92   2.0000      -0.808020       -21.9873
  93   2.0000      -0.772712       -21.0266
  94   2.0000      -0.768250       -20.9052
  95   2.0000      -0.759945       -20.6792
  96   2.0000      -0.757288       -20.6069
  97   2.0000      -0.756333       -20.5809
  98   2.0000      -0.745573       -20.2881
  99   2.0000      -0.737558       -20.0700
 100   2.0000      -0.736432       -20.0393
 101   2.0000      -0.734386       -19.9837
 102   2.0000      -0.714477       -19.4419
 103   2.0000      -0.705378       -19.1943
 104   2.0000      -0.692883       -18.8543
 105   2.0000      -0.679424       -18.4881
 106   2.0000      -0.670234       -18.2380
 107   2.0000      -0.661333       -17.9958
 108   2.0000      -0.656559       -17.8659
 109   2.0000      -0.652836       -17.7646
 110   2.0000      -0.644167       -17.5287
 111   2.0000      -0.639893       -17.4124
 112   2.0000      -0.638955       -17.3869
 113   2.0000      -0.629896       -17.1403
 114   2.0000      -0.629342       -17.1253
 115   2.0000      -0.625587       -17.0231
 116   2.0000      -0.613476       -16.6935
 117   2.0000      -0.612760       -16.6741
 118   2.0000      -0.609921       -16.5968
 119   2.0000      -0.609163       -16.5762
 120   2.0000      -0.608489       -16.5578
 121   2.0000      -0.605555       -16.4780
 122   2.0000      -0.574133       -15.6229
 123   2.0000      -0.571223       -15.5438
 124   2.0000      -0.569031       -15.4841
 125   2.0000      -0.568504       -15.4698
 126   2.0000      -0.549713       -14.9585
 127   2.0000      -0.547401       -14.8955
 128   2.0000      -0.546537       -14.8720
 129   2.0000      -0.541229       -14.7276
 130   2.0000      -0.540415       -14.7054
 131   2.0000      -0.539617       -14.6837
 132   2.0000      -0.534026       -14.5316
 133   2.0000      -0.532145       -14.4804
 134   2.0000      -0.528634       -14.3849
 135   2.0000      -0.525589       -14.3020
 136   2.0000      -0.524909       -14.2835
 137   2.0000      -0.523434       -14.2434
 138   2.0000      -0.522205       -14.2099
 139   2.0000      -0.521617       -14.1939
 140   2.0000      -0.518300       -14.1037
 141   2.0000      -0.517052       -14.0697
 142   2.0000      -0.514937       -14.0121
 143   2.0000      -0.512940       -13.9578
 144   2.0000      -0.510690       -13.8966
 145   2.0000      -0.509700       -13.8696
 146   2.0000      -0.506922       -13.7941
 147   2.0000      -0.505845       -13.7647
 148   2.0000      -0.504200       -13.7200
 149   2.0000      -0.501453       -13.6452
 150   2.0000      -0.499182       -13.5834
 151   2.0000      -0.491118       -13.3640
 152   2.0000      -0.481942       -13.1143
 153   2.0000      -0.480370       -13.0715
 154   2.0000      -0.477648       -12.9975
 155   2.0000      -0.471190       -12.8217
 156   2.0000      -0.468569       -12.7504
 157   2.0000      -0.459752       -12.5105
 158   2.0000      -0.459656       -12.5079
 159   2.0000      -0.457198       -12.4410
 160   2.0000      -0.452968       -12.3259
 161   2.0000      -0.451907       -12.2970
 162   2.0000      -0.450822       -12.2675
 163   2.0000      -0.450228       -12.2513
 164   2.0000      -0.449422       -12.2294
 165   2.0000      -0.448654       -12.2085
 166   2.0000      -0.447976       -12.1900
 167   2.0000      -0.447450       -12.1757
 168   2.0000      -0.445804       -12.1309
 169   2.0000      -0.439734       -11.9658
 170   2.0000      -0.433322       -11.7913
 171   2.0000      -0.424182       -11.5426
 172   2.0000      -0.423894       -11.5347
 173   2.0000      -0.423094       -11.5130
 174   2.0000      -0.422633       -11.5004
 175   2.0000      -0.420488       -11.4421
 176   2.0000      -0.420293       -11.4368
 177   2.0000      -0.419311       -11.4100
 178   2.0000      -0.419168       -11.4061
 179   2.0000      -0.408071       -11.1042
 180   2.0000      -0.401128       -10.9153
 181   2.0000      -0.394043       -10.7224
 182   2.0000      -0.390566       -10.6278
 183   2.0000      -0.384292       -10.4571
 184   2.0000      -0.378142       -10.2898
 185   2.0000      -0.353080        -9.6078
 186   2.0000      -0.350231        -9.5303
 187   2.0000      -0.345699        -9.4069
 188   2.0000      -0.339953        -9.2506
 189   2.0000      -0.333900        -9.0859
 190   2.0000      -0.331098        -9.0096
 191   2.0000      -0.327048        -8.8994
 192   2.0000      -0.322782        -8.7834
 193   2.0000      -0.309876        -8.4322
 194   2.0000      -0.288752        -7.8573
 195   2.0000      -0.274559        -7.4711
 196   2.0000      -0.264753        -7.2043
 197   0.0000      -0.155782        -4.2390
 198   0.0000      -0.142150        -3.8681
 199   0.0000      -0.134672        -3.6646
 200   0.0000      -0.050129        -1.3641
 201   0.0000      -0.044416        -1.2086

MULLIKEN ATOMIC CHARGES
-----------------------
   0 C :    0.024565
   1 C :    0.043771
   2 N :   -0.071570
   3 C :   -0.076567
   4 C :    0.014416
   5 N :   -0.036627
   6 C :    0.114986
   7 C :   -0.014178
   8 C :   -0.106620
   9 C :   -0.130317
  10 N :    0.154361
  11 C :   -0.032138
  12 C :    0.034395
  13 C :    0.082643
  14 C :    0.092284
  15 C :   -0.020184
  16 C :   -0.114034
  17 C :    0.036969
  18 C :   -0.135473
  19 N :    0.149205
  20 C :   -0.022481
  21 C :   -0.030495
  22 C :    0.103300
  23 C :   -0.043562
  24 C :   -0.084355
  25 C :   -0.130010
  26 N :    0.154760
  27 C :   -0.055863
  28 C :    0.071248
  29 C :    0.067209
  30 C :    0.097085
  31 C :   -0.036744
  32 C :   -0.091869
  33 C :   -0.046066
  34 C :   -0.128914
  35 N :    0.153571
  36 C :   -0.028247
  37 C :   -0.026217
  38 C :    0.096638
  39 C :   -0.030242
  40 C :   -0.092491
  41 C :   -0.128550
  42 N :    0.153302
  43 C :   -0.043473
  44 C :    0.059004
  45 C :    0.058709
  46 C :    0.082126
  47 C :   -0.019246
  48 C :   -0.098298
  49 C :   -0.037765
  50 C :   -0.129465
  51 N :    0.151807
  52 C :   -0.008215
  53 C :    0.042968
  54 C :   -0.024626
  55 C :   -0.001879
  56 N :   -0.044015
  57 C :    0.021786
  58 C :    0.029820
  59 N :   -0.054760
  60 H :    0.022097
  61 H :    0.019636
  62 H :    0.004750
  63 H :    0.003368
  64 H :    0.009387
  65 H :   -0.000445
  66 H :    0.001104
  67 H :   -0.004798
  68 H :   -0.009140
  69 H :   -0.004959
  70 H :    0.001677
  71 H :   -0.004055
  72 H :    0.001249
  73 H :   -0.001399
  74 H :   -0.001606
  75 H :   -0.002498
  76 H :    0.008472
  77 H :    0.001316
  78 H :    0.003938
  79 H :    0.008099
  80 H :   -0.005808
  81 H :    0.003320
  82 H :    0.016110
  83 H :    0.014808
Sum of atomic charges:   -0.0000000

LOEWDIN ATOMIC CHARGES
----------------------
   0 C :    0.005396
   1 C :    0.007625
   2 N :   -0.042441
   3 C :   -0.010346
   4 C :    0.012644
   5 N :   -0.034445
   6 C :   -0.036255
   7 C :    0.020253
   8 C :   -0.050913
   9 C :   -0.033521
  10 N :   -0.033067
  11 C :   -0.002238
  12 C :    0.036945
  13 C :    0.064042
  14 C :   -0.034368
  15 C :    0.020847
  16 C :   -0.056886
  17 C :    0.021253
  18 C :   -0.032475
  19 N :   -0.036845
  20 C :    0.000184
  21 C :   -0.014064
  22 C :   -0.016928
  23 C :   -0.010904
  24 C :   -0.032998
  25 C :   -0.030802
  26 N :   -0.029099
  27 C :   -0.032110
  28 C :    0.044896
  29 C :    0.040957
  30 C :   -0.022591
  31 C :   -0.002283
  32 C :   -0.038626
  33 C :   -0.025365
  34 C :   -0.031420
  35 N :   -0.030978
  36 C :   -0.006993
  37 C :   -0.007995
  38 C :   -0.023933
  39 C :    0.004283
  40 C :   -0.041305
  41 C :   -0.031291
  42 N :   -0.030625
  43 C :   -0.012066
  44 C :    0.038536
  45 C :    0.043632
  46 C :   -0.027387
  47 C :    0.014827
  48 C :   -0.042813
  49 C :   -0.012342
  50 C :   -0.031915
  51 N :   -0.032262
  52 C :   -0.019351
  53 C :   -0.005602
  54 C :   -0.015737
  55 C :    0.009898
  56 N :   -0.040133
  57 C :    0.000968
  58 C :    0.003252
  59 N :   -0.050158
  60 H :    0.029590
  61 H :    0.029975
  62 H :    0.025964
  63 H :    0.036723
  64 H :    0.036678
  65 H :    0.033714
  66 H :    0.033726
  67 H :    0.031522
  68 H :    0.030406
  69 H :    0.031556
  70 H :    0.033361
  71 H :    0.032184
  72 H :    0.033366
  73 H :    0.031764
  74 H :    0.031277
  75 H :    0.032908
  76 H :    0.036673
  77 H :    0.035758
  78 H :    0.034552
  79 H :    0.029888
  80 H :    0.036075
  81 H :    0.021765
  82 H :    0.026889
  83 H :    0.027126

  Mayer bond orders larger than 0.100000
B(  0-C ,  1-C ) :   1.3561 B(  0-C ,  3-C ) :   0.1003 B(  0-C ,  5-N ) :   1.5279
B(  0-C , 60-H ) :   0.9793 B(  1-C ,  2-N ) :   1.5248 B(  1-C , 61-H ) :   0.9752
B(  2-N ,  3-C ) :   1.5395 B(  3-C ,  4-C ) :   1.3158 B(  3-C ,  6-C ) :   0.9745
B(  4-C ,  5-N ) :   1.5934 B(  4-C , 62-H ) :   0.9809 B(  6-C ,  7-C ) :   1.6370
B(  6-C , 12-C ) :   1.0709 B(  7-C ,  8-C ) :   1.1038 B(  7-C , 63-H ) :   1.0126
B(  8-C ,  9-C ) :   1.0585 B(  8-C , 11-C ) :   1.6162 B(  9-C , 10-N ) :   3.0392
B( 11-C , 12-C ) :   1.0984 B( 11-C , 64-H ) :   1.0153 B( 12-C , 13-C ) :   1.4588
B( 13-C , 14-C ) :   1.0371 B( 13-C , 17-C ) :   1.1006 B( 14-C , 15-C ) :   1.5457
B( 14-C , 20-C ) :   1.1247 B( 15-C , 16-C ) :   1.1219 B( 15-C , 65-H ) :   1.0111
B( 16-C , 17-C ) :   1.6039 B( 16-C , 18-C ) :   1.0552 B( 17-C , 66-H ) :   1.0085
B( 18-C , 19-N ) :   3.0427 B( 20-C , 21-C ) :   1.6064 B( 20-C , 67-H ) :   0.9692
B( 21-C , 22-C ) :   1.1368 B( 21-C , 68-H ) :   0.9705 B( 22-C , 23-C ) :   1.5330
B( 22-C , 28-C ) :   1.0267 B( 23-C , 24-C ) :   1.1574 B( 23-C , 69-H ) :   1.0113
B( 24-C , 25-C ) :   1.0556 B( 24-C , 27-C ) :   1.5429 B( 25-C , 26-N ) :   3.0371
B( 27-C , 28-C ) :   1.1503 B( 27-C , 70-H ) :   1.0150 B( 28-C , 29-C ) :   1.4146
B( 29-C , 30-C ) :   1.0368 B( 29-C , 33-C ) :   1.1395 B( 30-C , 31-C ) :   1.5400
B( 30-C , 36-C ) :   1.1234 B( 31-C , 32-C ) :   1.1503 B( 31-C , 71-H ) :   1.0121
B( 32-C , 33-C ) :   1.5547 B( 32-C , 34-C ) :   1.0565 B( 33-C , 72-H ) :   1.0137
B( 34-C , 35-N ) :   3.0374 B( 36-C , 37-C ) :   1.6228 B( 36-C , 73-H ) :   0.9699
B( 37-C , 38-C ) :   1.1187 B( 37-C , 74-H ) :   0.9703 B( 38-C , 39-C ) :   1.5549
B( 38-C , 44-C ) :   1.0264 B( 39-C , 40-C ) :   1.1350 B( 39-C , 75-H ) :   1.0118
B( 40-C , 41-C ) :   1.0559 B( 40-C , 43-C ) :   1.5830 B( 41-C , 42-N ) :   3.0410
B( 43-C , 44-C ) :   1.1135 B( 43-C , 76-H ) :   1.0151 B( 44-C , 45-C ) :   1.4696
B( 45-C , 46-C ) :   1.0477 B( 45-C , 49-C ) :   1.0881 B( 46-C , 47-C ) :   1.6188
B( 46-C , 52-C ) :   1.0707 B( 47-C , 48-C ) :   1.0922 B( 47-C , 77-H ) :   1.0147
B( 48-C , 49-C ) :   1.6277 B( 48-C , 50-C ) :   1.0596 B( 49-C , 78-H ) :   1.0134
B( 50-C , 51-N ) :   3.0376 B( 52-C , 53-C ) :   1.7125 B( 52-C , 79-H ) :   0.9514
B( 53-C , 54-C ) :   1.0501 B( 53-C , 80-H ) :   0.9817 B( 54-C , 55-C ) :   1.3114
B( 54-C , 59-N ) :   1.5226 B( 55-C , 56-N ) :   1.6000 B( 55-C , 81-H ) :   0.9780
B( 56-N , 57-C ) :   1.5316 B( 57-C , 58-C ) :   1.3555 B( 57-C , 82-H ) :   0.9783
B( 58-C , 59-N ) :   1.5553 B( 58-C , 83-H ) :   0.9761

-----------------------------------------------------------------------------
         ABSORPTION SPECTRUM VIA TRANSITION ELECTRIC DIPOLE MOMENTS
-----------------------------------------------------------------------------
State   Energy  Wavelength   fosc         T2         TX        TY        TZ
        (cm-1)    (nm)                  (au**2)     (au)      (au)      (au)
-----------------------------------------------------------------------------
   0    6541.8   1528.6   0.229902295  11.56974   3.00335   0.97660  -1.26329
   1    8505.9   1175.7   0.019184497   0.74252   0.19657   0.17094  -0.82137
   2    8995.1   1111.7   0.002681636   0.09815   0.27314   0.11109   0.10583
   3   10255.8    975.1   0.036019928   1.15624   0.77168   0.32827  -0.67305
   4   12439.4    803.9   0.023867457   0.63166   0.74474   0.25505  -0.10943
   5   15730.5    635.7   0.022475206   0.47037   0.56795  -0.00839  -0.38435
   6   16553.0    604.1   0.001787126   0.03554  -0.16042  -0.09748  -0.01749
   7   16864.9    592.9   0.001612345   0.03147   0.05184  -0.07710   0.15114
   8   18821.1    531.3   0.001882724   0.03293   0.16431   0.06361   0.04346
   9   19960.7    501.0   0.018484487   0.30486   0.21959  -0.49052   0.12662
  10   21542.8    464.2   0.021106439   0.32254  -0.53782  -0.06103  -0.17196
  11   21753.7    459.7   0.010594281   0.16033  -0.13812   0.25625  -0.27494
  12   22499.5    444.5   0.000326265   0.00477   0.03485  -0.00224  -0.05962
  13   23605.1    423.6   0.001449925   0.02022   0.10437   0.02090  -0.09429
  14   24479.3    408.5   0.552192231   7.42619   2.49954   0.33599  -1.03229
  15   24926.9    401.2   0.019097254   0.25222  -0.44168  -0.08563   0.22317
  16   25091.1    398.5   0.212573487   2.78911  -0.76301   1.03280   1.06783
  17   25944.9    385.4   0.202087207   2.56426   1.06004  -1.20010  -0.01802
  18   26289.4    380.4   0.211044718   2.64283   0.19009  -1.61244  -0.08201
  19   26566.8    376.4   0.079433274   0.98432   0.35095  -0.92680  -0.04685
  20   27324.8    366.0   0.036783699   0.44317   0.48851   0.44970  -0.04796
  21   28433.9    351.7   0.097907992   1.13359   0.76111  -0.71585  -0.20459
  22   28662.5    348.9   0.108600780   1.24737  -0.90914   0.59471   0.25913
  23   29160.3    342.9   0.243995369   2.75464  -1.34505   0.46435   0.85431
  24   29254.6    341.8   0.014077852   0.15842  -0.28318   0.22379   0.16778
  25   29309.7    341.2   0.072083966   0.80966  -0.73616   0.25759   0.44875
  26   29691.6    336.8   0.036187315   0.40123  -0.50224   0.24679   0.29679
  27   30318.1    329.8   0.062516729   0.67884  -0.78307   0.22501   0.12257
  28   30960.8    323.0   0.049804598   0.52958   0.47658   0.46175  -0.29873
  29   31631.2    316.1   0.107520075   1.11905   0.69509   0.71954   0.34374
  30   31841.6    314.1   0.006394215   0.06611  -0.11913  -0.22531  -0.03395
  31   32057.9    311.9   0.012895445   0.13243  -0.04445   0.18689  -0.30907
  32   33066.1    302.4   0.068828385   0.68527   0.08211  -0.61661   0.54618
  33   33132.9    301.8   0.016581120   0.16475   0.40302   0.04695  -0.01087
  34   34015.7    294.0   0.045355760   0.43896   0.25316  -0.60651  -0.08380
  35   34034.7    293.8   0.074511827   0.72074  -0.33539   0.77637   0.07421
  36   34155.9    292.8   0.009391591   0.09052  -0.03997   0.28649   0.08276
  37   34498.2    289.9   0.046957122   0.44811   0.19506  -0.61676  -0.17222
  38   34843.2    287.0   0.012491806   0.11803  -0.17562   0.00888   0.29513
  39   35024.3    285.5   0.010687026   0.10045   0.22536   0.19103  -0.11478
  40   35248.6    283.7   0.086480598   0.80770  -0.52654   0.72210   0.09503
  41   35444.1    282.1   0.006269087   0.05823   0.12497  -0.09857   0.18137
  42   35678.2    280.3   0.147294971   1.35913  -0.02241   1.13344   0.27193
  43   36472.7    274.2   0.152507188   1.37657  -1.12820  -0.27952   0.16003
  44   36945.9    270.7   0.890262181   7.93281  -0.16013  -2.75520  -0.56215
  45   37083.0    269.7   0.067479893   0.59907  -0.19452  -0.74379  -0.08949
  46   37316.2    268.0   0.004567535   0.04030  -0.02546   0.17797  -0.08931
  47   37624.2    265.8   1.323982406  11.58487  -0.36497  -3.36951   0.31317
  48   37787.0    264.6   0.003634485   0.03166   0.11773   0.10601   0.08102
  49   37981.9    263.3   0.031956697   0.27699   0.39163   0.08543  -0.34104
  50   38317.9    261.0   0.027327515   0.23479  -0.15050   0.45773  -0.05116
  51   38639.1    258.8   0.162095563   1.38108  -0.04339   1.17201   0.07480
  52   38933.1    256.9   0.000967358   0.00818  -0.07217  -0.01994  -0.05074
  53   38939.1    256.8   0.020926201   0.17692   0.27243   0.31749   0.04366
  54   39320.3    254.3   0.020803110   0.17418   0.12080  -0.39668   0.04718
  55   39458.5    253.4   0.328306164   2.73914  -0.57703  -1.55092  -0.02853
  56   40052.8    249.7   0.014111185   0.11599  -0.11502  -0.27752  -0.16043
  57   40267.5    248.3   0.013206152   0.10797   0.17420  -0.03048  -0.27694

FINAL SINGLE POINT ENERGY     -2463.728017128203

DIPOLE MOMENT
-------------
                                X             Y             Z
Electronic contribution:     12.07087       4.54748      -2.66311
Nuclear contribution   :    -12.05953      -4.29703       1.91484
                        -----------------------------------------
Total Dipole Moment    :      0.01134       0.25045      -0.74827
                        -----------------------------------------
Magnitude (a.u.)       :      0.78915
Magnitude (Debye)      :      2.00586

Rotational constants in cm-1:     0.002761     0.000404     0.000365
Rotational constants in MHz :    82.779866    12.098929    10.952554

                             ****ORCA TERMINATED NORMALLY****
TOTAL RUN TIME: 0 days 0 hours 9 minutes 8 seconds 954 msec
