                         Program Version 4.2.0 -  RELEASE  -
|  1> # ORCA input file
|  2> # SCF done       -178.792156183761          0.000601445526
|  3> ! CAM-B3LYP def2-SVP def2/J RIJCOSX Grid4 TightSCF
|  4> %maxcore 5000
|  5> %tddft
|  6>     Mode sTDDFT
|  7>     Ethresh 5.0
|  8>     maxcore 5000
|  9> end
| 10>
| 11> %pal
| 12>   nprocs 6
| 13>   end
| 14> * xyz 0 1
| 15>    C        0.57339         3.70007         3.39213
| 16>    C        1.01361         4.83393         4.02724
| 17>    C        2.33772         5.02607         4.47656
| 18>    N        3.39034         5.25405         4.87435
| 19>    C        0.25233         5.98432         4.32222
| 20>    N       -0.27772         6.96634         4.59683
| 21>    C        1.41222         2.55597         3.05794
| 22>    C        0.62785         1.60796         2.35696
| 23>    C        1.13544         0.41829         1.89324
| 24>    C        2.48626         0.14952         2.13131
| 25>    C        3.26386         1.10058         2.83520
| 26>    C        2.74905         2.30281         3.30492
| 27>    S        4.90378         0.56137         3.01524
| 28>    C        4.54228        -0.90011         2.16354
| 29>    C        3.25590        -0.98884         1.76060
| 30>    C       -0.75096         2.10653         2.22520
| 31>    O       -1.66755         1.51731         1.69170
| 32>    C       -0.76935         3.42847         2.89850
| 33>    C       -1.83680         4.25822         3.10716
| 34>    C       -3.17464         4.19543         2.67019
| 35>    C       -3.85939         3.34312         1.81165
| 36>    C       -5.19003         3.70793         1.66127
| 37>    C       -5.54064         4.85151         2.41445
| 38>    S       -4.22979         5.47787         3.29148
| 39>    C       -6.91323         5.12312         2.20618
| 40>    C       -7.43728         4.16172         1.32419
| 41>    C       -6.37017         3.24671         0.94443
| 42>    C       -6.46067         2.19161         0.08717
| 43>    C       -5.36133         1.37164        -0.25179
| 44>    N       -4.49416         0.69011        -0.56289
| 45>    C       -7.67013         1.83888        -0.55166
| 46>    N       -8.64098         1.53293        -1.07882
| 47>    C       -8.79643         4.34682         1.06798
| 48>    C       -9.30649         5.43733         1.74791
| 49>    S       -8.08798         6.25147         2.71480
| 50>    C      -10.65766         5.90996         1.74675
| 51>    C      -11.08279         7.00943         2.46783
| 52>    C      -12.41425         7.45059         2.50333
| 53>    C      -13.43449         6.82694         1.81707
| 54>    C      -13.04507         5.69682         1.04578
| 55>    C      -11.67380         5.24570         1.00506
| 56>    N      -11.63203         4.19527         0.21027
| 57>    O      -12.87377         4.00047        -0.21891
| 58>    N      -13.73792         4.88617         0.26794
| 59>    C      -14.82787         7.21727         1.87628
| 60>    C      -15.87208         6.40136         1.51272
| 61>    O      -17.04866         7.00961         1.68738
| 62>    C      -16.79506         8.24084         2.13834
| 63>    C      -15.44878         8.45306         2.28277
| 64>    C      -14.87458         9.71419         2.79519
| 65>    O      -13.94650         9.76236         3.58700
| 66>    C      -15.52492        10.92524         2.33211
| 67>    C      -16.39401        11.15661         1.28638
| 68>    C      -16.77175        12.49120         1.17073
| 69>    C      -16.19068        13.30901         2.12556
| 70>    S      -15.14275        12.40059         3.16460
| 71>    C      -16.37012        14.71720         2.31404
| 72>    C      -17.35520        15.43723         1.69059
| 73>    C      -17.57285        16.80878         1.85818
| 74>    C      -16.71976        17.60335         2.75518
| 75>    C      -15.69382        17.09814         3.47252
| 76>    S      -15.22738        15.44919         3.43787
| 77>    C      -17.23217        18.92349         2.67896
| 78>    C      -18.32740        18.96137         1.80872
| 79>    C      -18.84971        20.27144         1.69461
| 80>    C      -18.16492        21.15842         2.46136
| 81>    S      -16.85735        20.45814         3.35363
| 82>    C      -18.55166        17.63640         1.29480
| 83>    C      -19.57045        17.20003         0.38321
| 84>    C      -20.61395        17.91312        -0.04149
| 85>    H        0.50702        -0.27918         1.36151
| 86>    H        3.38499         2.99033         3.83651
| 87>    H        5.32928        -1.61373         2.01490
| 88>    H        2.85044        -1.82383         1.21849
| 89>    H       -1.64273         5.13085         3.71975
| 90>    H       -3.38524         2.49986         1.34164
| 91>    H       -9.40759         3.73530         0.42939
| 92>    H      -10.35718         7.55777         3.05161
| 93>    H      -12.64293         8.30601         3.11922
| 94>    H      -15.86968         5.39901         1.13489
| 95>    H      -17.63398         8.86728         2.37024
| 96>    H      -16.72417        10.38735         0.61199
| 97>    H      -17.43413        12.84955         0.40403
| 98>    H      -18.01914        14.89396         1.03396
| 99>    H      -15.08840        17.70525         4.12722
|100>    H      -19.67870        20.56389         1.07744
|101>    H      -18.34501        22.21073         2.56510
|102>    H      -19.46388        16.18162         0.03073
|103>    H      -20.79751        18.91974         0.28580
|104>    H      -21.33270        17.49597        -0.72540
|105> *
|106>
|107>                          ****END OF INPUT****

CARTESIAN COORDINATES (ANGSTROEM)
---------------------------------
  C      0.573390    3.700070    3.392130
  C      1.013610    4.833930    4.027240
  C      2.337720    5.026070    4.476560
  N      3.390340    5.254050    4.874350
  C      0.252330    5.984320    4.322220
  N     -0.277720    6.966340    4.596830
  C      1.412220    2.555970    3.057940
  C      0.627850    1.607960    2.356960
  C      1.135440    0.418290    1.893240
  C      2.486260    0.149520    2.131310
  C      3.263860    1.100580    2.835200
  C      2.749050    2.302810    3.304920
  S      4.903780    0.561370    3.015240
  C      4.542280   -0.900110    2.163540
  C      3.255900   -0.988840    1.760600
  C     -0.750960    2.106530    2.225200
  O     -1.667550    1.517310    1.691700
  C     -0.769350    3.428470    2.898500
  C     -1.836800    4.258220    3.107160
  C     -3.174640    4.195430    2.670190
  C     -3.859390    3.343120    1.811650
  C     -5.190030    3.707930    1.661270
  C     -5.540640    4.851510    2.414450
  S     -4.229790    5.477870    3.291480
  C     -6.913230    5.123120    2.206180
  C     -7.437280    4.161720    1.324190
  C     -6.370170    3.246710    0.944430
  C     -6.460670    2.191610    0.087170
  C     -5.361330    1.371640   -0.251790
  N     -4.494160    0.690110   -0.562890
  C     -7.670130    1.838880   -0.551660
  N     -8.640980    1.532930   -1.078820
  C     -8.796430    4.346820    1.067980
  C     -9.306490    5.437330    1.747910
  S     -8.087980    6.251470    2.714800
  C    -10.657660    5.909960    1.746750
  C    -11.082790    7.009430    2.467830
  C    -12.414250    7.450590    2.503330
  C    -13.434490    6.826940    1.817070
  C    -13.045070    5.696820    1.045780
  C    -11.673800    5.245700    1.005060
  N    -11.632030    4.195270    0.210270
  O    -12.873770    4.000470   -0.218910
  N    -13.737920    4.886170    0.267940
  C    -14.827870    7.217270    1.876280
  C    -15.872080    6.401360    1.512720
  O    -17.048660    7.009610    1.687380
  C    -16.795060    8.240840    2.138340
  C    -15.448780    8.453060    2.282770
  C    -14.874580    9.714190    2.795190
  O    -13.946500    9.762360    3.587000
  C    -15.524920   10.925240    2.332110
  C    -16.394010   11.156610    1.286380
  C    -16.771750   12.491200    1.170730
  C    -16.190680   13.309010    2.125560
  S    -15.142750   12.400590    3.164600
  C    -16.370120   14.717200    2.314040
  C    -17.355200   15.437230    1.690590
  C    -17.572850   16.808780    1.858180
  C    -16.719760   17.603350    2.755180
  C    -15.693820   17.098140    3.472520
  S    -15.227380   15.449190    3.437870
  C    -17.232170   18.923490    2.678960
  C    -18.327400   18.961370    1.808720
  C    -18.849710   20.271440    1.694610
  C    -18.164920   21.158420    2.461360
  S    -16.857350   20.458140    3.353630
  C    -18.551660   17.636400    1.294800
  C    -19.570450   17.200030    0.383210
  C    -20.613950   17.913120   -0.041490
  H      0.507020   -0.279180    1.361510
  H      3.384990    2.990330    3.836510
  H      5.329280   -1.613730    2.014900
  H      2.850440   -1.823830    1.218490
  H     -1.642730    5.130850    3.719750
  H     -3.385240    2.499860    1.341640
  H     -9.407590    3.735300    0.429390
  H    -10.357180    7.557770    3.051610
  H    -12.642930    8.306010    3.119220
  H    -15.869680    5.399010    1.134890
  H    -17.633980    8.867280    2.370240
  H    -16.724170   10.387350    0.611990
  H    -17.434130   12.849550    0.404030
  H    -18.019140   14.893960    1.033960
  H    -15.088400   17.705250    4.127220
  H    -19.678700   20.563890    1.077440
  H    -18.345010   22.210730    2.565100
  H    -19.463880   16.181620    0.030730
  H    -20.797510   18.919740    0.285800
  H    -21.332700   17.495970   -0.725400

 Total Charge           Charge          ....    0
 Multiplicity           Mult            ....    1
 Number of Electrons    NEL             ....  514
 Basis Dimension        Dim             .... 1104

ORBITAL ENERGIES
----------------

  NO   OCC          E(Eh)            E(eV)
   0   2.0000     -88.993187     -2421.6277
   1   2.0000     -88.992307     -2421.6038
   2   2.0000     -88.975149     -2421.1369
   3   2.0000     -88.970488     -2421.0101
   4   2.0000     -88.963887     -2420.8304
   5   2.0000     -88.956706     -2420.6350
   6   2.0000     -19.360003      -526.8125
   7   2.0000     -19.310223      -525.4579
   8   2.0000     -19.215772      -522.8877
   9   2.0000     -19.213165      -522.8168
  10   2.0000     -14.485943      -394.1826
  11   2.0000     -14.485166      -394.1614
  12   2.0000     -14.426608      -392.5680
  13   2.0000     -14.425828      -392.5467
  14   2.0000     -14.415849      -392.2752
  15   2.0000     -14.411451      -392.1555
  16   2.0000     -10.377436      -282.3844
  17   2.0000     -10.366621      -282.0901
  18   2.0000     -10.364947      -282.0445
  19   2.0000     -10.350853      -281.6610
  20   2.0000     -10.343804      -281.4692
  21   2.0000     -10.343610      -281.4639
  22   2.0000     -10.339923      -281.3636
  23   2.0000     -10.338817      -281.3335
  24   2.0000     -10.334425      -281.2140
  25   2.0000     -10.333880      -281.1992
  26   2.0000     -10.332026      -281.1487
  27   2.0000     -10.330402      -281.1045
  28   2.0000     -10.330361      -281.1034
  29   2.0000     -10.328795      -281.0608
  30   2.0000     -10.327889      -281.0361
  31   2.0000     -10.327137      -281.0157
  32   2.0000     -10.326338      -280.9939
  33   2.0000     -10.325884      -280.9816
  34   2.0000     -10.324844      -280.9533
  35   2.0000     -10.324798      -280.9520
  36   2.0000     -10.319097      -280.7969
  37   2.0000     -10.318486      -280.7803
  38   2.0000     -10.317672      -280.7581
  39   2.0000     -10.314886      -280.6823
  40   2.0000     -10.312918      -280.6288
  41   2.0000     -10.311779      -280.5978
  42   2.0000     -10.308750      -280.5153
  43   2.0000     -10.306592      -280.4566
  44   2.0000     -10.306027      -280.4412
  45   2.0000     -10.303348      -280.3684
  46   2.0000     -10.303205      -280.3645
  47   2.0000     -10.302464      -280.3443
  48   2.0000     -10.301371      -280.3145
  49   2.0000     -10.300399      -280.2881
  50   2.0000     -10.299169      -280.2546
  51   2.0000     -10.298995      -280.2499
  52   2.0000     -10.298919      -280.2478
  53   2.0000     -10.298417      -280.2342
  54   2.0000     -10.297156      -280.1999
  55   2.0000     -10.296900      -280.1929
  56   2.0000     -10.296028      -280.1692
  57   2.0000     -10.295488      -280.1545
  58   2.0000     -10.292777      -280.0807
  59   2.0000     -10.288994      -279.9778
  60   2.0000     -10.288898      -279.9752
  61   2.0000     -10.287447      -279.9357
  62   2.0000     -10.286915      -279.9212
  63   2.0000     -10.286476      -279.9092
  64   2.0000     -10.283905      -279.8393
  65   2.0000     -10.276159      -279.6285
  66   2.0000     -10.274823      -279.5922
  67   2.0000     -10.274535      -279.5843
  68   2.0000     -10.274346      -279.5792
  69   2.0000     -10.261943      -279.2417
  70   2.0000      -8.088012      -220.0860
  71   2.0000      -8.086904      -220.0558
  72   2.0000      -8.070786      -219.6173
  73   2.0000      -8.065819      -219.4821
  74   2.0000      -8.060221      -219.3298
  75   2.0000      -8.052190      -219.1112
  76   2.0000      -6.057084      -164.8216
  77   2.0000      -6.056131      -164.7957
  78   2.0000      -6.052966      -164.7096
  79   2.0000      -6.051983      -164.6828
  80   2.0000      -6.050566      -164.6443
  81   2.0000      -6.049284      -164.6094
  82   2.0000      -6.040459      -164.3692
  83   2.0000      -6.035838      -164.2435
  84   2.0000      -6.035080      -164.2229
  85   2.0000      -6.032460      -164.1516
  86   2.0000      -6.030726      -164.1044
  87   2.0000      -6.029722      -164.0771
  88   2.0000      -6.028169      -164.0348
  89   2.0000      -6.025439      -163.9605
  90   2.0000      -6.021868      -163.8634
  91   2.0000      -6.021623      -163.8567
  92   2.0000      -6.017387      -163.7414
  93   2.0000      -6.014223      -163.6553
  94   2.0000      -1.314652       -35.7735
  95   2.0000      -1.231871       -33.5209
  96   2.0000      -1.131954       -30.8020
  97   2.0000      -1.131155       -30.7803
  98   2.0000      -1.047538       -28.5050
  99   2.0000      -1.019856       -27.7517
 100   2.0000      -1.018811       -27.7232
 101   2.0000      -1.017873       -27.6977
 102   2.0000      -1.010735       -27.5035
 103   2.0000      -1.009702       -27.4754
 104   2.0000      -1.006401       -27.3856
 105   2.0000      -1.002905       -27.2904
 106   2.0000      -0.999189       -27.1893
 107   2.0000      -0.996149       -27.1066
 108   2.0000      -0.992234       -27.0001
 109   2.0000      -0.982463       -26.7342
 110   2.0000      -0.967467       -26.3261
 111   2.0000      -0.960405       -26.1339
 112   2.0000      -0.934089       -25.4178
 113   2.0000      -0.930438       -25.3185
 114   2.0000      -0.926813       -25.2199
 115   2.0000      -0.924257       -25.1503
 116   2.0000      -0.912797       -24.8385
 117   2.0000      -0.900885       -24.5143
 118   2.0000      -0.895683       -24.3728
 119   2.0000      -0.885422       -24.0935
 120   2.0000      -0.878511       -23.9055
 121   2.0000      -0.873912       -23.7804
 122   2.0000      -0.867742       -23.6125
 123   2.0000      -0.865592       -23.5540
 124   2.0000      -0.857300       -23.3283
 125   2.0000      -0.850104       -23.1325
 126   2.0000      -0.847534       -23.0626
 127   2.0000      -0.840812       -22.8797
 128   2.0000      -0.831159       -22.6170
 129   2.0000      -0.820478       -22.3264
 130   2.0000      -0.808283       -21.9945
 131   2.0000      -0.802409       -21.8347
 132   2.0000      -0.787814       -21.4375
 133   2.0000      -0.781524       -21.2663
 134   2.0000      -0.779087       -21.2000
 135   2.0000      -0.763223       -20.7683
 136   2.0000      -0.756161       -20.5762
 137   2.0000      -0.754260       -20.5245
 138   2.0000      -0.751266       -20.4430
 139   2.0000      -0.733522       -19.9601
 140   2.0000      -0.724806       -19.7230
 141   2.0000      -0.716282       -19.4910
 142   2.0000      -0.706772       -19.2322
 143   2.0000      -0.694771       -18.9057
 144   2.0000      -0.689444       -18.7607
 145   2.0000      -0.689128       -18.7521
 146   2.0000      -0.684288       -18.6204
 147   2.0000      -0.679714       -18.4960
 148   2.0000      -0.672532       -18.3005
 149   2.0000      -0.670057       -18.2332
 150   2.0000      -0.659359       -17.9421
 151   2.0000      -0.657975       -17.9044
 152   2.0000      -0.650453       -17.6997
 153   2.0000      -0.645491       -17.5647
 154   2.0000      -0.643061       -17.4986
 155   2.0000      -0.642055       -17.4712
 156   2.0000      -0.631917       -17.1953
 157   2.0000      -0.629368       -17.1260
 158   2.0000      -0.624950       -17.0057
 159   2.0000      -0.617923       -16.8145
 160   2.0000      -0.615338       -16.7442
 161   2.0000      -0.613001       -16.6806
 162   2.0000      -0.611920       -16.6512
 163   2.0000      -0.611168       -16.6307
 164   2.0000      -0.594203       -16.1691
 165   2.0000      -0.588104       -16.0031
 166   2.0000      -0.582679       -15.8555
 167   2.0000      -0.578817       -15.7504
 168   2.0000      -0.572778       -15.5861
 169   2.0000      -0.569156       -15.4875
 170   2.0000      -0.566345       -15.4110
 171   2.0000      -0.563830       -15.3426
 172   2.0000      -0.556110       -15.1325
 173   2.0000      -0.550873       -14.9900
 174   2.0000      -0.549580       -14.9548
 175   2.0000      -0.549252       -14.9459
 176   2.0000      -0.542992       -14.7756
 177   2.0000      -0.541084       -14.7237
 178   2.0000      -0.537269       -14.6198
 179   2.0000      -0.535882       -14.5821
 180   2.0000      -0.532751       -14.4969
 181   2.0000      -0.528498       -14.3811
 182   2.0000      -0.525243       -14.2926
 183   2.0000      -0.523411       -14.2427
 184   2.0000      -0.519309       -14.1311
 185   2.0000      -0.517583       -14.0841
 186   2.0000      -0.516499       -14.0547
 187   2.0000      -0.512054       -13.9337
 188   2.0000      -0.509570       -13.8661
 189   2.0000      -0.505707       -13.7610
 190   2.0000      -0.505477       -13.7547
 191   2.0000      -0.504084       -13.7168
 192   2.0000      -0.500923       -13.6308
 193   2.0000      -0.498329       -13.5602
 194   2.0000      -0.497389       -13.5346
 195   2.0000      -0.494145       -13.4464
 196   2.0000      -0.493908       -13.4399
 197   2.0000      -0.489955       -13.3324
 198   2.0000      -0.487771       -13.2729
 199   2.0000      -0.486709       -13.2440
 200   2.0000      -0.481656       -13.1065
 201   2.0000      -0.476574       -12.9682
 202   2.0000      -0.474343       -12.9075
 203   2.0000      -0.469278       -12.7697
 204   2.0000      -0.468701       -12.7540
 205   2.0000      -0.467370       -12.7178
 206   2.0000      -0.464547       -12.6410
 207   2.0000      -0.457716       -12.4551
 208   2.0000      -0.456185       -12.4134
 209   2.0000      -0.452825       -12.3220
 210   2.0000      -0.452294       -12.3075
 211   2.0000      -0.450103       -12.2479
 212   2.0000      -0.448041       -12.1918
 213   2.0000      -0.447757       -12.1841
 214   2.0000      -0.447401       -12.1744
 215   2.0000      -0.443419       -12.0661
 216   2.0000      -0.442180       -12.0323
 217   2.0000      -0.440646       -11.9906
 218   2.0000      -0.438118       -11.9218
 219   2.0000      -0.436011       -11.8645
 220   2.0000      -0.435313       -11.8455
 221   2.0000      -0.434962       -11.8359
 222   2.0000      -0.433277       -11.7901
 223   2.0000      -0.430128       -11.7044
 224   2.0000      -0.425185       -11.5699
 225   2.0000      -0.423479       -11.5234
 226   2.0000      -0.421768       -11.4769
 227   2.0000      -0.419063       -11.4033
 228   2.0000      -0.417442       -11.3592
 229   2.0000      -0.416665       -11.3380
 230   2.0000      -0.413305       -11.2466
 231   2.0000      -0.410483       -11.1698
 232   2.0000      -0.409281       -11.1371
 233   2.0000      -0.404883       -11.0174
 234   2.0000      -0.403225       -10.9723
 235   2.0000      -0.398509       -10.8440
 236   2.0000      -0.394831       -10.7439
 237   2.0000      -0.383553       -10.4370
 238   2.0000      -0.379176       -10.3179
 239   2.0000      -0.372780       -10.1438
 240   2.0000      -0.366114        -9.9625
 241   2.0000      -0.359689        -9.7876
 242   2.0000      -0.351535        -9.5658
 243   2.0000      -0.347353        -9.4520
 244   2.0000      -0.343530        -9.3479
 245   2.0000      -0.338039        -9.1985
 246   2.0000      -0.337211        -9.1760
 247   2.0000      -0.326998        -8.8981
 248   2.0000      -0.326069        -8.8728
 249   2.0000      -0.321090        -8.7373
 250   2.0000      -0.318098        -8.6559
 251   2.0000      -0.311726        -8.4825
 252   2.0000      -0.297966        -8.1081
 253   2.0000      -0.290193        -7.8965
 254   2.0000      -0.277476        -7.5505
 255   2.0000      -0.257538        -7.0080
 256   2.0000      -0.237559        -6.4643
 257   0.0000      -0.111947        -3.0462
 258   0.0000      -0.086542        -2.3549
 259   0.0000      -0.072129        -1.9627
 260   0.0000      -0.067555        -1.8383
 261   0.0000      -0.055197        -1.5020

MULLIKEN ATOMIC CHARGES
-----------------------
   0 C :    0.321835
   1 C :   -0.367167
   2 C :   -0.186066
   3 N :    0.150620
   4 C :   -0.184080
   5 N :    0.145596
   6 C :    0.012892
   7 C :   -0.012722
   8 C :   -0.070150
   9 C :    0.116166
  10 C :   -0.094935
  11 C :   -0.023919
  12 S :    0.140561
  13 C :   -0.048793
  14 C :    0.024708
  15 C :    0.152479
  16 O :   -0.148491
  17 C :   -0.084365
  18 C :    0.035159
  19 C :   -0.111289
  20 C :   -0.016228
  21 C :   -0.002174
  22 C :   -0.080281
  23 S :    0.203284
  24 C :   -0.095346
  25 C :    0.032090
  26 C :    0.315814
  27 C :   -0.299575
  28 C :   -0.193521
  29 N :    0.192233
  30 C :   -0.195388
  31 N :    0.188053
  32 C :   -0.063655
  33 C :   -0.105918
  34 S :    0.176853
  35 C :    0.162149
  36 C :   -0.073161
  37 C :   -0.060074
  38 C :    0.102399
  39 C :   -0.043649
  40 C :   -0.055833
  41 N :    0.048594
  42 O :   -0.084980
  43 N :    0.036279
  44 C :    0.035030
  45 C :    0.065597
  46 O :   -0.153947
  47 C :    0.077817
  48 C :   -0.064485
  49 C :    0.202494
  50 O :   -0.198148
  51 C :   -0.174714
  52 C :    0.044594
  53 C :   -0.015559
  54 C :   -0.051582
  55 S :    0.178865
  56 C :   -0.018843
  57 C :   -0.053078
  58 C :    0.043392
  59 C :    0.067730
  60 C :   -0.124924
  61 S :    0.127517
  62 C :   -0.114190
  63 C :    0.052276
  64 C :   -0.002158
  65 C :   -0.069411
  66 S :    0.126835
  67 C :    0.060888
  68 C :   -0.018306
  69 C :   -0.022656
  70 H :   -0.006846
  71 H :   -0.007580
  72 H :    0.039256
  73 H :   -0.005368
  74 H :    0.000887
  75 H :    0.038989
  76 H :    0.028377
  77 H :   -0.002566
  78 H :    0.002637
  79 H :    0.028771
  80 H :    0.023996
  81 H :    0.003251
  82 H :   -0.010985
  83 H :   -0.023893
  84 H :    0.036528
  85 H :   -0.015460
  86 H :    0.025414
  87 H :   -0.033024
  88 H :    0.001835
  89 H :    0.018745
Sum of atomic charges:   -0.0000000

LOEWDIN ATOMIC CHARGES
----------------------
   0 C :    0.078630
   1 C :   -0.146101
   2 C :   -0.017829
   3 N :   -0.055803
   4 C :   -0.023275
   5 N :   -0.056473
   6 C :   -0.023834
   7 C :   -0.052823
   8 C :    0.024851
   9 C :   -0.034333
  10 C :   -0.145561
  11 C :   -0.008740
  12 S :    0.429011
  13 C :   -0.149226
  14 C :   -0.057155
  15 C :    0.086885
  16 O :   -0.137138
  17 C :   -0.096884
  18 C :    0.040117
  19 C :   -0.176341
  20 C :    0.016420
  21 C :   -0.073618
  22 C :   -0.159760
  23 S :    0.495948
  24 C :   -0.187654
  25 C :   -0.053859
  26 C :    0.073337
  27 C :   -0.089999
  28 C :   -0.022480
  29 N :   -0.015778
  30 C :   -0.020045
  31 N :   -0.020199
  32 C :   -0.022826
  33 C :   -0.150392
  34 S :    0.480793
  35 C :   -0.046616
  36 C :   -0.008646
  37 C :   -0.001278
  38 C :   -0.018105
  39 C :   -0.043078
  40 C :   -0.044207
  41 N :   -0.017853
  42 O :    0.081646
  43 N :   -0.026603
  44 C :   -0.058920
  45 C :    0.053050
  46 O :    0.045295
  47 C :    0.052693
  48 C :   -0.094295
  49 C :    0.064944
  50 O :   -0.168963
  51 C :   -0.224142
  52 C :   -0.024211
  53 C :   -0.068307
  54 C :   -0.164913
  55 S :    0.475004
  56 C :   -0.192932
  57 C :   -0.007794
  58 C :   -0.029575
  59 C :   -0.050961
  60 C :   -0.138522
  61 S :    0.437604
  62 C :   -0.198482
  63 C :   -0.037322
  64 C :   -0.063860
  65 C :   -0.166054
  66 S :    0.421740
  67 C :   -0.041377
  68 C :   -0.023670
  69 C :   -0.051272
  70 H :    0.042130
  71 H :    0.040475
  72 H :    0.029469
  73 H :    0.035889
  74 H :    0.041614
  75 H :    0.043113
  76 H :    0.042253
  77 H :    0.028415
  78 H :    0.035430
  79 H :    0.027128
  80 H :    0.028306
  81 H :    0.035427
  82 H :    0.030046
  83 H :    0.035628
  84 H :    0.036888
  85 H :    0.029314
  86 H :    0.023425
  87 H :    0.024760
  88 H :    0.018215
  89 H :    0.024191

  Mayer bond orders larger than 0.100000
B(  0-C ,  1-C ) :   1.6102 B(  0-C ,  6-C ) :   0.9970 B(  0-C , 17-C ) :   1.0849
B(  1-C ,  2-C ) :   1.1501 B(  1-C ,  4-C ) :   1.1422 B(  2-C ,  3-N ) :   2.9670
B(  4-C ,  5-N ) :   2.9581 B(  6-C ,  7-C ) :   1.2699 B(  6-C , 11-C ) :   1.4093
B(  7-C ,  8-C ) :   1.4228 B(  7-C , 15-C ) :   0.9567 B(  8-C ,  9-C ) :   1.2425
B(  8-C , 70-H ) :   1.0178 B(  9-C , 10-C ) :   1.2999 B(  9-C , 14-C ) :   1.1727
B( 10-C , 11-C ) :   1.3259 B( 10-C , 12-S ) :   1.0998 B( 11-C , 71-H ) :   0.9814
B( 12-S , 13-C ) :   1.1262 B( 13-C , 14-C ) :   1.6284 B( 13-C , 72-H ) :   0.9682
B( 14-C , 73-H ) :   0.9991 B( 15-C , 16-O ) :   2.1663 B( 15-C , 17-C ) :   0.9355
B( 17-C , 18-C ) :   1.5964 B( 18-C , 19-C ) :   1.2196 B( 18-C , 74-H ) :   0.9032
B( 19-C , 20-C ) :   1.3962 B( 19-C , 23-S ) :   1.0753 B( 20-C , 21-C ) :   1.3084
B( 20-C , 75-H ) :   0.9715 B( 21-C , 22-C ) :   1.3798 B( 21-C , 26-C ) :   0.9913
B( 22-C , 23-S ) :   1.1663 B( 22-C , 24-C ) :   1.1982 B( 24-C , 25-C ) :   1.4384
B( 24-C , 34-S ) :   1.1144 B( 25-C , 26-C ) :   0.9933 B( 25-C , 32-C ) :   1.2466
B( 26-C , 27-C ) :   1.7175 B( 27-C , 28-C ) :   1.1363 B( 27-C , 30-C ) :   1.1376
B( 28-C , 29-N ) :   2.9963 B( 30-C , 31-N ) :   2.9912 B( 32-C , 33-C ) :   1.4843
B( 32-C , 76-H ) :   0.9833 B( 33-C , 34-S ) :   1.1032 B( 33-C , 35-C ) :   1.1153
B( 35-C , 36-C ) :   1.4681 B( 35-C , 38-C ) :   0.1148 B( 35-C , 40-C ) :   1.1466
B( 36-C , 37-C ) :   1.2028 B( 36-C , 77-H ) :   0.9906 B( 37-C , 38-C ) :   1.5219
B( 37-C , 78-H ) :   0.9723 B( 38-C , 39-C ) :   1.1436 B( 38-C , 44-C ) :   1.0434
B( 39-C , 40-C ) :   1.1441 B( 39-C , 43-N ) :   1.5964 B( 40-C , 41-N ) :   1.6015
B( 41-N , 42-O ) :   1.0665 B( 41-N , 43-N ) :   0.1796 B( 42-O , 43-N ) :   1.0663
B( 44-C , 45-C ) :   1.5311 B( 44-C , 48-C ) :   1.2465 B( 45-C , 46-O ) :   1.1596
B( 45-C , 79-H ) :   0.9855 B( 46-O , 47-C ) :   1.1791 B( 47-C , 48-C ) :   1.5296
B( 47-C , 80-H ) :   1.0035 B( 48-C , 49-C ) :   0.9153 B( 49-C , 50-O ) :   2.1267
B( 49-C , 51-C ) :   1.0164 B( 50-O , 78-H ) :   0.1033 B( 51-C , 52-C ) :   1.4867
B( 51-C , 54-C ) :   0.1120 B( 51-C , 55-S ) :   1.1143 B( 52-C , 53-C ) :   1.2970
B( 52-C , 81-H ) :   0.9909 B( 53-C , 54-C ) :   1.4964 B( 53-C , 82-H ) :   0.9934
B( 54-C , 55-S ) :   1.1613 B( 54-C , 56-C ) :   1.0918 B( 56-C , 57-C ) :   1.5817
B( 56-C , 61-S ) :   1.0353 B( 57-C , 58-C ) :   1.2158 B( 57-C , 83-H ) :   0.9694
B( 58-C , 59-C ) :   1.0384 B( 58-C , 67-C ) :   1.4304 B( 59-C , 60-C ) :   1.6160
B( 59-C , 62-C ) :   1.1867 B( 60-C , 61-S ) :   1.1376 B( 60-C , 84-H ) :   0.9405
B( 62-C , 63-C ) :   1.4421 B( 62-C , 66-S ) :   1.0790 B( 63-C , 64-C ) :   1.2069
B( 63-C , 67-C ) :   1.0961 B( 64-C , 65-C ) :   1.5905 B( 64-C , 85-H ) :   1.0013
B( 65-C , 66-S ) :   1.1514 B( 65-C , 86-H ) :   0.9655 B( 67-C , 68-C ) :   1.1342
B( 68-C , 69-C ) :   1.9127 B( 68-C , 87-H ) :   0.9509 B( 69-C , 88-H ) :   0.9568
B( 69-C , 89-H ) :   0.9437

-----------------------------------------------------------------------------
         ABSORPTION SPECTRUM VIA TRANSITION ELECTRIC DIPOLE MOMENTS
-----------------------------------------------------------------------------
State   Energy  Wavelength   fosc         T2         TX        TY        TZ
        (cm-1)    (nm)                  (au**2)     (au)      (au)      (au)
-----------------------------------------------------------------------------
   0   14109.7    708.7   0.399091860   9.31172  -2.93421   0.74547  -0.38266
   1   20394.8    490.3   0.170059413   2.74509  -1.32765   0.96386  -0.23110
   2   20886.6    478.8   1.727923807  27.23537   4.86675  -1.72074   0.76757
   3   21782.2    459.1   0.468547979   7.08154  -0.02231  -2.65491   0.18021
   4   23043.9    434.0   0.036836896   0.52626   0.19412  -0.68579   0.13517
   5   24701.4    404.8   0.011531153   0.15368  -0.31457  -0.16035  -0.17034
   6   25066.4    398.9   0.114208836   1.49998  -0.64270   0.83448   0.62495
   7   26124.6    382.8   0.063007813   0.79400  -0.57894   0.66261   0.14065
   8   26438.1    378.2   0.005439673   0.06774  -0.19142   0.17592  -0.01211
   9   28048.1    356.5   0.049668889   0.58298   0.66752  -0.34379   0.13861
  10   28314.5    353.2   0.000131213   0.00153  -0.03289   0.01940   0.00820
  11   28597.5    349.7   0.030083370   0.34632  -0.53982   0.18398  -0.14515
  12   28741.6    347.9   0.123943933   1.41968   0.40081   1.01223   0.48416
  13   28948.9    345.4   0.009972821   0.11341   0.08232  -0.32638   0.01054
  14   29436.4    339.7   0.001573977   0.01760   0.12252   0.01658   0.04814
  15   29565.1    338.2   0.012293738   0.13689  -0.21622  -0.21118  -0.21342
  16   29913.9    334.3   0.160271673   1.76384  -0.11070  -0.98663  -0.88213
  17   30817.4    324.5   0.687047909   7.33951  -1.09822   2.25013   1.03458
  18   31626.9    316.2   0.006629670   0.06901  -0.08263   0.10064  -0.22815
  19   31847.4    314.0   0.274969102   2.84240  -1.60623   0.13526  -0.49410
  20   32724.0    305.6   0.094976179   0.95548  -0.67397   0.67575   0.21119
  21   33017.7    302.9   0.000763184   0.00761  -0.04781  -0.02331  -0.06914
  22   33321.1    300.1   0.367772945   3.63359  -0.43249   1.85339   0.10726
  23   33614.0    297.5   0.021966345   0.21514  -0.35968   0.08788   0.27936
  24   33854.5    295.4   0.039391263   0.38305  -0.13041  -0.55010  -0.25187
  25   34054.8    293.6   0.125537652   1.21359   0.11780   0.91262   0.60568
  26   34519.1    289.7   0.255600092   2.43769   0.36317  -1.42037  -0.53696
  27   34645.3    288.6   0.002181103   0.02073   0.03011  -0.13910  -0.02169
  28   35449.7    282.1   0.051704405   0.48017  -0.43444   0.46406  -0.27581
  29   35988.8    277.9   0.074839838   0.68461   0.26127   0.53676   0.57292
  30   36117.5    276.9   0.459802882   4.19111   0.98207  -1.78647  -0.18757
  31   36232.8    276.0   0.483826120   4.39606   1.12012  -1.59307   0.77687
  32   36591.6    273.3   0.129056480   1.16111   0.46301  -0.93312   0.27572
  33   37178.3    269.0   0.010493555   0.09292  -0.29827   0.05295  -0.03395
  34   37564.1    266.2   0.013808069   0.12101  -0.02559   0.34676   0.01085
  35   37664.7    265.5   0.026309935   0.22996  -0.46619   0.03855  -0.10556
  36   38218.7    261.7   0.056142495   0.48361   0.67425  -0.00651   0.17014
  37   38304.9    261.1   0.010311236   0.08862   0.25493  -0.01652   0.15283
  38   38439.8    260.1   0.111574027   0.95556  -0.94137  -0.16740  -0.20339
  39   38761.9    258.0   0.018937052   0.16084  -0.20736  -0.33862  -0.05634
  40   38914.9    257.0   0.231722920   1.96033  -1.04738  -0.68484  -0.62794
  41   39274.8    254.6   0.108679271   0.91098  -0.82114   0.46035   0.15741
  42   39452.6    253.5   0.062273257   0.51964   0.63317  -0.12564   0.32085
  43   39618.6    252.4   0.004210562   0.03499   0.08302  -0.16087   0.04707
  44   39940.8    250.4   0.067060624   0.55275  -0.69230  -0.02087  -0.27024
  45   40158.9    249.0   0.000667459   0.00547  -0.01278   0.03349  -0.06471
  46   40190.7    248.8   0.005118531   0.04193   0.11531  -0.12878  -0.10975

FINAL SINGLE POINT ENERGY     -5083.989025936528

DIPOLE MOMENT
-------------
                                X             Y             Z
Electronic contribution:     41.48718     -31.87574       9.92892
Nuclear contribution   :    -43.74936      33.35732      -9.82914
                        -----------------------------------------
Total Dipole Moment    :     -2.26218       1.48158       0.09978
                        -----------------------------------------
Magnitude (a.u.)       :      2.70601
Magnitude (Debye)      :      6.87813

Rotational constants in cm-1:     0.001607     0.000190     0.000173
Rotational constants in MHz :    48.171981     5.709747     5.182962

                             ****ORCA TERMINATED NORMALLY****
TOTAL RUN TIME: 0 days 0 hours 8 minutes 5 seconds 948 msec
