                         Program Version 4.2.0 -  RELEASE  -
|  1> # ORCA input file
|  2> # SCF done       -159.394203175670          0.000841768374
|  3> ! CAM-B3LYP def2-SVP def2/J RIJCOSX Grid4 TightSCF
|  4> %maxcore 5000
|  5> %tddft
|  6>     Mode sTDDFT
|  7>     Ethresh 5.0
|  8>     maxcore 5000
|  9> end
| 10>
| 11> %pal
| 12>   nprocs 6
| 13>   end
| 14> * xyz 0 1
| 15>    C       -4.78033         2.93350        -2.78875
| 16>    C       -4.93861         3.01569        -4.16383
| 17>    C       -5.53928         1.98844        -4.87915
| 18>    C       -6.00805         0.85132        -4.23855
| 19>    C       -5.85794         0.75798        -2.86472
| 20>    C       -5.23616         1.79850        -2.13543
| 21>    C       -5.19153         1.42789        -0.72853
| 22>    C       -4.82229         2.22975         0.31409
| 23>    C       -4.39863         3.56934         0.16792
| 24>    N       -4.04570         4.65953         0.11540
| 25>    C       -4.86012         1.85406         1.67539
| 26>    N       -4.87715         1.61557         2.79768
| 27>    C       -5.63364         0.03436        -0.65264
| 28>    C       -6.27732        -0.27444        -1.92977
| 29>    C       -7.26887        -1.18723        -2.13762
| 30>    C       -7.86872        -1.94937        -1.11009
| 31>    N       -8.45164        -2.52196        -0.30454
| 32>    C       -7.89597        -1.39307        -3.38553
| 33>    N       -8.42877        -1.60766        -4.37829
| 34>    C       -5.30119        -0.81462         0.35776
| 35>    C       -5.36507        -2.22826         0.34168
| 36>    N       -5.57682        -2.98209        -0.70297
| 37>    C       -5.52886        -4.26761        -0.38503
| 38>    C       -5.26395        -4.56576         0.97356
| 39>    S       -5.05899        -3.11648         1.85582
| 40>    N       -5.22851        -5.85497         1.29219
| 41>    C       -5.45778        -6.59154         0.24307
| 42>    S       -5.74187        -5.71884        -1.27534
| 43>    C       -5.48971        -8.00423         0.25926
| 44>    N       -5.71747        -8.73700        -0.79345
| 45>    C       -5.69015       -10.02781        -0.47947
| 46>    C       -5.42766       -10.33224         0.87760
| 47>    S       -5.21127        -8.88464         1.77391
| 48>    N       -5.40141       -11.62300         1.19182
| 49>    C       -5.63288       -12.35566         0.13978
| 50>    S       -5.91073       -11.47532        -1.37493
| 51>    C       -5.67420       -13.76809         0.15812
| 52>    N       -5.93692       -14.50403        -0.88349
| 53>    C       -5.90968       -15.79291        -0.56276
| 54>    C       -5.61364       -16.09162         0.78927
| 55>    S       -5.36211       -14.64117         1.67083
| 56>    N       -5.57586       -17.37689         1.10945
| 57>    C       -5.82867       -18.12974         0.07313
| 58>    S       -6.16164       -17.24109        -1.43457
| 59>    C       -5.91998       -19.54219         0.06685
| 60>    C       -5.55266       -20.39129         1.06508
| 61>    C       -6.02126       -21.77336         1.17972
| 62>    C       -6.48134       -22.57129         0.17057
| 63>    C       -6.52935       -22.20547        -1.19304
| 64>    N       -6.58700       -21.97537        -2.31572
| 65>    C       -6.92873       -23.89842         0.35500
| 66>    N       -7.30568       -24.97857         0.43886
| 67>    C       -5.89273       -22.13749         2.58325
| 68>    C       -5.20330       -21.10674         3.26395
| 69>    C       -4.96521       -21.19649         4.62559
| 70>    C       -5.41406       -22.32038         5.30267
| 71>    C       -6.08167       -23.33810         4.63462
| 72>    C       -6.32821       -23.25928         3.27239
| 73>    C       -4.82513       -20.08772         2.29763
| 74>    C       -3.80541       -19.19284         2.43647
| 75>    C       -3.09444       -18.99368         3.63972
| 76>    N       -2.49257       -18.78555         4.59362
| 77>    C       -3.26092       -18.44332         1.36980
| 78>    N       -2.72476       -17.87807         0.52761
| 79>    H       -4.30522         3.73674        -2.24986
| 80>    H       -4.58395         3.89202        -4.68421
| 81>    H       -5.64314         2.07326        -5.94994
| 82>    H       -6.46586         0.05623        -4.80430
| 83>    H       -4.86241        -0.40222         1.25565
| 84>    H       -6.41111       -19.95034        -0.80544
| 85>    H       -4.45489       -20.40841         5.15504
| 86>    H       -5.24162       -22.40231         6.36480
| 87>    H       -6.41943       -24.20427         5.18253
| 88>    H       -6.85415       -24.05514         2.77113
| 89> *
| 90>
| 91>                          ****END OF INPUT****

CARTESIAN COORDINATES (ANGSTROEM)
---------------------------------
  C     -4.780330    2.933500   -2.788750
  C     -4.938610    3.015690   -4.163830
  C     -5.539280    1.988440   -4.879150
  C     -6.008050    0.851320   -4.238550
  C     -5.857940    0.757980   -2.864720
  C     -5.236160    1.798500   -2.135430
  C     -5.191530    1.427890   -0.728530
  C     -4.822290    2.229750    0.314090
  C     -4.398630    3.569340    0.167920
  N     -4.045700    4.659530    0.115400
  C     -4.860120    1.854060    1.675390
  N     -4.877150    1.615570    2.797680
  C     -5.633640    0.034360   -0.652640
  C     -6.277320   -0.274440   -1.929770
  C     -7.268870   -1.187230   -2.137620
  C     -7.868720   -1.949370   -1.110090
  N     -8.451640   -2.521960   -0.304540
  C     -7.895970   -1.393070   -3.385530
  N     -8.428770   -1.607660   -4.378290
  C     -5.301190   -0.814620    0.357760
  C     -5.365070   -2.228260    0.341680
  N     -5.576820   -2.982090   -0.702970
  C     -5.528860   -4.267610   -0.385030
  C     -5.263950   -4.565760    0.973560
  S     -5.058990   -3.116480    1.855820
  N     -5.228510   -5.854970    1.292190
  C     -5.457780   -6.591540    0.243070
  S     -5.741870   -5.718840   -1.275340
  C     -5.489710   -8.004230    0.259260
  N     -5.717470   -8.737000   -0.793450
  C     -5.690150  -10.027810   -0.479470
  C     -5.427660  -10.332240    0.877600
  S     -5.211270   -8.884640    1.773910
  N     -5.401410  -11.623000    1.191820
  C     -5.632880  -12.355660    0.139780
  S     -5.910730  -11.475320   -1.374930
  C     -5.674200  -13.768090    0.158120
  N     -5.936920  -14.504030   -0.883490
  C     -5.909680  -15.792910   -0.562760
  C     -5.613640  -16.091620    0.789270
  S     -5.362110  -14.641170    1.670830
  N     -5.575860  -17.376890    1.109450
  C     -5.828670  -18.129740    0.073130
  S     -6.161640  -17.241090   -1.434570
  C     -5.919980  -19.542190    0.066850
  C     -5.552660  -20.391290    1.065080
  C     -6.021260  -21.773360    1.179720
  C     -6.481340  -22.571290    0.170570
  C     -6.529350  -22.205470   -1.193040
  N     -6.587000  -21.975370   -2.315720
  C     -6.928730  -23.898420    0.355000
  N     -7.305680  -24.978570    0.438860
  C     -5.892730  -22.137490    2.583250
  C     -5.203300  -21.106740    3.263950
  C     -4.965210  -21.196490    4.625590
  C     -5.414060  -22.320380    5.302670
  C     -6.081670  -23.338100    4.634620
  C     -6.328210  -23.259280    3.272390
  C     -4.825130  -20.087720    2.297630
  C     -3.805410  -19.192840    2.436470
  C     -3.094440  -18.993680    3.639720
  N     -2.492570  -18.785550    4.593620
  C     -3.260920  -18.443320    1.369800
  N     -2.724760  -17.878070    0.527610
  H     -4.305220    3.736740   -2.249860
  H     -4.583950    3.892020   -4.684210
  H     -5.643140    2.073260   -5.949940
  H     -6.465860    0.056230   -4.804300
  H     -4.862410   -0.402220    1.255650
  H     -6.411110  -19.950340   -0.805440
  H     -4.454890  -20.408410    5.155040
  H     -5.241620  -22.402310    6.364800
  H     -6.419430  -24.204270    5.182530
  H     -6.854150  -24.055140    2.771130

 Total Charge           Charge          ....    0
 Multiplicity           Mult            ....    1
 Number of Electrons    NEL             ....  468
 Basis Dimension        Dim             ....  970

ORBITAL ENERGIES
----------------

  NO   OCC          E(Eh)            E(eV)
   0   2.0000     -88.995483     -2421.6902
   1   2.0000     -88.995437     -2421.6890
   2   2.0000     -88.992562     -2421.6107
   3   2.0000     -88.992478     -2421.6084
   4   2.0000     -88.992198     -2421.6008
   5   2.0000     -88.992168     -2421.6000
   6   2.0000     -14.451730      -393.2516
   7   2.0000     -14.451527      -393.2460
   8   2.0000     -14.450117      -393.2077
   9   2.0000     -14.450051      -393.2059
  10   2.0000     -14.449867      -393.2009
  11   2.0000     -14.449819      -393.1996
  12   2.0000     -14.432542      -392.7294
  13   2.0000     -14.432387      -392.7252
  14   2.0000     -14.429617      -392.6498
  15   2.0000     -14.429600      -392.6494
  16   2.0000     -14.428940      -392.6314
  17   2.0000     -14.428935      -392.6313
  18   2.0000     -14.424646      -392.5146
  19   2.0000     -14.424206      -392.5026
  20   2.0000     -10.375414      -282.3294
  21   2.0000     -10.375336      -282.3273
  22   2.0000     -10.371976      -282.2358
  23   2.0000     -10.371965      -282.2355
  24   2.0000     -10.371508      -282.2231
  25   2.0000     -10.371417      -282.2206
  26   2.0000     -10.362687      -281.9830
  27   2.0000     -10.362645      -281.9819
  28   2.0000     -10.360418      -281.9213
  29   2.0000     -10.360407      -281.9210
  30   2.0000     -10.359362      -281.8926
  31   2.0000     -10.359279      -281.8903
  32   2.0000     -10.358542      -281.8702
  33   2.0000     -10.358439      -281.8675
  34   2.0000     -10.355470      -281.7867
  35   2.0000     -10.355379      -281.7842
  36   2.0000     -10.353857      -281.7428
  37   2.0000     -10.353372      -281.7296
  38   2.0000     -10.352825      -281.7147
  39   2.0000     -10.352732      -281.7121
  40   2.0000     -10.339437      -281.3504
  41   2.0000     -10.339434      -281.3503
  42   2.0000     -10.337430      -281.2958
  43   2.0000     -10.337393      -281.2948
  44   2.0000     -10.334013      -281.2028
  45   2.0000     -10.333862      -281.1987
  46   2.0000     -10.331476      -281.1337
  47   2.0000     -10.331443      -281.1329
  48   2.0000     -10.330080      -281.0958
  49   2.0000     -10.330037      -281.0946
  50   2.0000     -10.327248      -281.0187
  51   2.0000     -10.326968      -281.0111
  52   2.0000     -10.321693      -280.8675
  53   2.0000     -10.321673      -280.8670
  54   2.0000     -10.321377      -280.8589
  55   2.0000     -10.321355      -280.8584
  56   2.0000     -10.308978      -280.5215
  57   2.0000     -10.308945      -280.5207
  58   2.0000     -10.308051      -280.4963
  59   2.0000     -10.307976      -280.4943
  60   2.0000     -10.307530      -280.4822
  61   2.0000     -10.307480      -280.4808
  62   2.0000     -10.306261      -280.4476
  63   2.0000     -10.306208      -280.4462
  64   2.0000      -8.091250      -220.1741
  65   2.0000      -8.091205      -220.1729
  66   2.0000      -8.088117      -220.0889
  67   2.0000      -8.088039      -220.0867
  68   2.0000      -8.087647      -220.0761
  69   2.0000      -8.087612      -220.0751
  70   2.0000      -6.060137      -164.9047
  71   2.0000      -6.060096      -164.9036
  72   2.0000      -6.057287      -164.8272
  73   2.0000      -6.057212      -164.8251
  74   2.0000      -6.056790      -164.8136
  75   2.0000      -6.056774      -164.8132
  76   2.0000      -6.056571      -164.8077
  77   2.0000      -6.056520      -164.8063
  78   2.0000      -6.053532      -164.7250
  79   2.0000      -6.053453      -164.7228
  80   2.0000      -6.053382      -164.7209
  81   2.0000      -6.053340      -164.7198
  82   2.0000      -6.053027      -164.7112
  83   2.0000      -6.053011      -164.7108
  84   2.0000      -6.049837      -164.6244
  85   2.0000      -6.049757      -164.6223
  86   2.0000      -6.049444      -164.6138
  87   2.0000      -6.049428      -164.6133
  88   2.0000      -1.126486       -30.6533
  89   2.0000      -1.123005       -30.5585
  90   2.0000      -1.116236       -30.3743
  91   2.0000      -1.088717       -29.6255
  92   2.0000      -1.080705       -29.4075
  93   2.0000      -1.070978       -29.1428
  94   2.0000      -1.044619       -28.4255
  95   2.0000      -1.044574       -28.4243
  96   2.0000      -1.026166       -27.9234
  97   2.0000      -1.026010       -27.9192
  98   2.0000      -1.015641       -27.6370
  99   2.0000      -1.015497       -27.6331
 100   2.0000      -1.009106       -27.4592
 101   2.0000      -1.009022       -27.4569
 102   2.0000      -1.004730       -27.3401
 103   2.0000      -1.004448       -27.3324
 104   2.0000      -0.968835       -26.3633
 105   2.0000      -0.968790       -26.3621
 106   2.0000      -0.949296       -25.8317
 107   2.0000      -0.949202       -25.8291
 108   2.0000      -0.946351       -25.7515
 109   2.0000      -0.945274       -25.7222
 110   2.0000      -0.941472       -25.6188
 111   2.0000      -0.921750       -25.0821
 112   2.0000      -0.915310       -24.9069
 113   2.0000      -0.910631       -24.7795
 114   2.0000      -0.904259       -24.6061
 115   2.0000      -0.903276       -24.5794
 116   2.0000      -0.899207       -24.4687
 117   2.0000      -0.894402       -24.3379
 118   2.0000      -0.882837       -24.0232
 119   2.0000      -0.874040       -23.7838
 120   2.0000      -0.873987       -23.7824
 121   2.0000      -0.859011       -23.3749
 122   2.0000      -0.833261       -22.6742
 123   2.0000      -0.820805       -22.3352
 124   2.0000      -0.799776       -21.7630
 125   2.0000      -0.799635       -21.7592
 126   2.0000      -0.785477       -21.3739
 127   2.0000      -0.766648       -20.8616
 128   2.0000      -0.741352       -20.1732
 129   2.0000      -0.731934       -19.9169
 130   2.0000      -0.726461       -19.7680
 131   2.0000      -0.725780       -19.7495
 132   2.0000      -0.720876       -19.6160
 133   2.0000      -0.719905       -19.5896
 134   2.0000      -0.713436       -19.4136
 135   2.0000      -0.711526       -19.3616
 136   2.0000      -0.693991       -18.8845
 137   2.0000      -0.686211       -18.6727
 138   2.0000      -0.682219       -18.5641
 139   2.0000      -0.678920       -18.4744
 140   2.0000      -0.678481       -18.4624
 141   2.0000      -0.674523       -18.3547
 142   2.0000      -0.674433       -18.3522
 143   2.0000      -0.666517       -18.1369
 144   2.0000      -0.664099       -18.0711
 145   2.0000      -0.651659       -17.7325
 146   2.0000      -0.637947       -17.3594
 147   2.0000      -0.619222       -16.8499
 148   2.0000      -0.608012       -16.5448
 149   2.0000      -0.606476       -16.5031
 150   2.0000      -0.600528       -16.3412
 151   2.0000      -0.595616       -16.2075
 152   2.0000      -0.595552       -16.2058
 153   2.0000      -0.581398       -15.8206
 154   2.0000      -0.580276       -15.7901
 155   2.0000      -0.579367       -15.7654
 156   2.0000      -0.573316       -15.6007
 157   2.0000      -0.563794       -15.3416
 158   2.0000      -0.561708       -15.2848
 159   2.0000      -0.561065       -15.2674
 160   2.0000      -0.554347       -15.0845
 161   2.0000      -0.553979       -15.0745
 162   2.0000      -0.547308       -14.8930
 163   2.0000      -0.546553       -14.8725
 164   2.0000      -0.544018       -14.8035
 165   2.0000      -0.541022       -14.7220
 166   2.0000      -0.540817       -14.7164
 167   2.0000      -0.539003       -14.6670
 168   2.0000      -0.535963       -14.5843
 169   2.0000      -0.533633       -14.5209
 170   2.0000      -0.527658       -14.3583
 171   2.0000      -0.526058       -14.3148
 172   2.0000      -0.516199       -14.0465
 173   2.0000      -0.515843       -14.0368
 174   2.0000      -0.514250       -13.9935
 175   2.0000      -0.513130       -13.9630
 176   2.0000      -0.510815       -13.9000
 177   2.0000      -0.507490       -13.8095
 178   2.0000      -0.505121       -13.7450
 179   2.0000      -0.490140       -13.3374
 180   2.0000      -0.488306       -13.2875
 181   2.0000      -0.478381       -13.0174
 182   2.0000      -0.471700       -12.8356
 183   2.0000      -0.470153       -12.7935
 184   2.0000      -0.467085       -12.7100
 185   2.0000      -0.466921       -12.7056
 186   2.0000      -0.462517       -12.5857
 187   2.0000      -0.462397       -12.5825
 188   2.0000      -0.459329       -12.4990
 189   2.0000      -0.459106       -12.4929
 190   2.0000      -0.457161       -12.4400
 191   2.0000      -0.457089       -12.4380
 192   2.0000      -0.453411       -12.3379
 193   2.0000      -0.453175       -12.3315
 194   2.0000      -0.451200       -12.2778
 195   2.0000      -0.450319       -12.2538
 196   2.0000      -0.448274       -12.1982
 197   2.0000      -0.448219       -12.1967
 198   2.0000      -0.447190       -12.1687
 199   2.0000      -0.441619       -12.0171
 200   2.0000      -0.441534       -12.0147
 201   2.0000      -0.438517       -11.9327
 202   2.0000      -0.438439       -11.9305
 203   2.0000      -0.437173       -11.8961
 204   2.0000      -0.436665       -11.8823
 205   2.0000      -0.432543       -11.7701
 206   2.0000      -0.429505       -11.6874
 207   2.0000      -0.424055       -11.5391
 208   2.0000      -0.423733       -11.5304
 209   2.0000      -0.420886       -11.4529
 210   2.0000      -0.420812       -11.4509
 211   2.0000      -0.418549       -11.3893
 212   2.0000      -0.418120       -11.3776
 213   2.0000      -0.415516       -11.3068
 214   2.0000      -0.408997       -11.1294
 215   2.0000      -0.401044       -10.9130
 216   2.0000      -0.396728       -10.7955
 217   2.0000      -0.392942       -10.6925
 218   2.0000      -0.392686       -10.6855
 219   2.0000      -0.390789       -10.6339
 220   2.0000      -0.379204       -10.3187
 221   2.0000      -0.374351       -10.1866
 222   2.0000      -0.372813       -10.1448
 223   2.0000      -0.369603       -10.0574
 224   2.0000      -0.352714        -9.5978
 225   2.0000      -0.350088        -9.5264
 226   2.0000      -0.348670        -9.4878
 227   2.0000      -0.341627        -9.2961
 228   2.0000      -0.341270        -9.2864
 229   2.0000      -0.340613        -9.2685
 230   2.0000      -0.326183        -8.8759
 231   2.0000      -0.316604        -8.6152
 232   2.0000      -0.299032        -8.1371
 233   2.0000      -0.273269        -7.4360
 234   0.0000      -0.124479        -3.3872
 235   0.0000      -0.113228        -3.0811
 236   0.0000      -0.093233        -2.5370
 237   0.0000      -0.092987        -2.5303
 238   0.0000      -0.076580        -2.0839

MULLIKEN ATOMIC CHARGES
-----------------------
   0 C :   -0.029748
   1 C :    0.047530
   2 C :    0.047958
   3 C :   -0.029317
   4 C :    0.011358
   5 C :    0.010466
   6 C :    0.278487
   7 C :   -0.330982
   8 C :   -0.186129
   9 N :    0.169548
  10 C :   -0.187511
  11 N :    0.166886
  12 C :   -0.041136
  13 C :    0.228173
  14 C :   -0.273913
  15 C :   -0.188692
  16 N :    0.173865
  17 C :   -0.192680
  18 N :    0.167548
  19 C :    0.100407
  20 C :   -0.142872
  21 N :   -0.044755
  22 C :   -0.048727
  23 C :   -0.046614
  24 S :    0.180370
  25 N :   -0.032311
  26 C :   -0.082129
  27 S :    0.207910
  28 C :   -0.091989
  29 N :   -0.032116
  30 C :   -0.063721
  31 C :   -0.063773
  32 S :    0.205773
  33 N :   -0.032251
  34 C :   -0.091898
  35 S :    0.206100
  36 C :   -0.082152
  37 N :   -0.032185
  38 C :   -0.045991
  39 C :   -0.050282
  40 S :    0.207310
  41 N :   -0.042601
  42 C :   -0.144450
  43 S :    0.181623
  44 C :    0.098464
  45 C :   -0.041028
  46 C :    0.280740
  47 C :   -0.334217
  48 C :   -0.185917
  49 N :    0.166591
  50 C :   -0.185594
  51 N :    0.169402
  52 C :    0.011437
  53 C :    0.010105
  54 C :   -0.029335
  55 C :    0.049185
  56 C :    0.047176
  57 C :   -0.030348
  58 C :    0.231362
  59 C :   -0.275583
  60 C :   -0.192312
  61 N :    0.166353
  62 C :   -0.188953
  63 N :    0.173808
  64 H :    0.007995
  65 H :    0.006511
  66 H :    0.009105
  67 H :    0.010180
  68 H :    0.015052
  69 H :    0.015708
  70 H :    0.010216
  71 H :    0.008795
  72 H :    0.006698
  73 H :    0.008019
Sum of atomic charges:   -0.0000000

LOEWDIN ATOMIC CHARGES
----------------------
   0 C :    0.006819
   1 C :    0.002447
   2 C :    0.008642
   3 C :    0.001917
   4 C :   -0.005766
   5 C :   -0.015676
   6 C :    0.077250
   7 C :   -0.124938
   8 C :   -0.019303
   9 N :   -0.037789
  10 C :   -0.023449
  11 N :   -0.037093
  12 C :   -0.021400
  13 C :    0.066310
  14 C :   -0.103314
  15 C :   -0.020292
  16 N :   -0.042660
  17 C :   -0.018160
  18 N :   -0.037457
  19 C :    0.016490
  20 C :   -0.127815
  21 N :   -0.071211
  22 C :   -0.199563
  23 C :   -0.197164
  24 S :    0.461757
  25 N :   -0.095593
  26 C :   -0.137311
  27 S :    0.466196
  28 C :   -0.149119
  29 N :   -0.092072
  30 C :   -0.206383
  31 C :   -0.206378
  32 S :    0.465519
  33 N :   -0.092223
  34 C :   -0.149063
  35 S :    0.465740
  36 C :   -0.137351
  37 N :   -0.095394
  38 C :   -0.196963
  39 C :   -0.199876
  40 S :    0.465753
  41 N :   -0.072176
  42 C :   -0.128226
  43 S :    0.462617
  44 C :    0.016902
  45 C :   -0.021508
  46 C :    0.077167
  47 C :   -0.124970
  48 C :   -0.023140
  49 N :   -0.037158
  50 C :   -0.019191
  51 N :   -0.037880
  52 C :   -0.015520
  53 C :   -0.005906
  54 C :    0.002091
  55 C :    0.008701
  56 C :    0.002551
  57 C :    0.006802
  58 C :    0.066919
  59 C :   -0.103852
  60 C :   -0.018197
  61 N :   -0.037551
  62 C :   -0.020074
  63 N :   -0.042541
  64 H :    0.042124
  65 H :    0.038727
  66 H :    0.039299
  67 H :    0.042088
  68 H :    0.047748
  69 H :    0.047826
  70 H :    0.042093
  71 H :    0.039262
  72 H :    0.038774
  73 H :    0.042134

  Mayer bond orders larger than 0.100000
B(  0-C ,  1-C ) :   1.3756 B(  0-C ,  5-C ) :   1.3787 B(  0-C , 64-H ) :   0.9844
B(  1-C ,  2-C ) :   1.3738 B(  1-C , 65-H ) :   0.9855 B(  2-C ,  3-C ) :   1.3670
B(  2-C , 66-H ) :   0.9872 B(  3-C ,  4-C ) :   1.3830 B(  3-C , 67-H ) :   0.9863
B(  4-C ,  5-C ) :   1.3081 B(  4-C , 13-C ) :   1.0105 B(  5-C ,  6-C ) :   1.0091
B(  6-C ,  7-C ) :   1.6612 B(  6-C , 12-C ) :   1.0341 B(  7-C ,  8-C ) :   1.1408
B(  7-C , 10-C ) :   1.1305 B(  8-C ,  9-N ) :   2.9840 B( 10-C , 11-N ) :   2.9902
B( 12-C , 13-C ) :   1.0029 B( 12-C , 19-C ) :   1.6631 B( 13-C , 14-C ) :   1.7034
B( 14-C , 15-C ) :   1.1417 B( 14-C , 17-C ) :   1.1455 B( 15-C , 16-N ) :   2.9976
B( 17-C , 18-N ) :   2.9936 B( 19-C , 20-C ) :   1.1604 B( 19-C , 68-H ) :   0.9139
B( 20-C , 21-N ) :   1.5987 B( 20-C , 24-S ) :   1.0858 B( 21-N , 22-C ) :   1.4206
B( 21-N , 24-S ) :   0.1141 B( 22-C , 23-C ) :   1.2451 B( 22-C , 27-S ) :   1.1012
B( 23-C , 24-S ) :   1.1339 B( 23-C , 25-N ) :   1.4209 B( 25-N , 26-C ) :   1.7164
B( 25-N , 27-S ) :   0.1068 B( 26-C , 27-S ) :   1.1038 B( 26-C , 28-C ) :   1.1378
B( 28-C , 29-N ) :   1.7151 B( 28-C , 32-S ) :   1.1015 B( 29-N , 30-C ) :   1.4246
B( 29-N , 32-S ) :   0.1100 B( 30-C , 31-C ) :   1.2696 B( 30-C , 35-S ) :   1.1073
B( 31-C , 32-S ) :   1.1073 B( 31-C , 33-N ) :   1.4248 B( 33-N , 34-C ) :   1.7148
B( 33-N , 35-S ) :   0.1100 B( 34-C , 35-S ) :   1.1017 B( 34-C , 36-C ) :   1.1376
B( 36-C , 37-N ) :   1.7165 B( 36-C , 40-S ) :   1.1035 B( 37-N , 38-C ) :   1.4212
B( 37-N , 40-S ) :   0.1069 B( 38-C , 39-C ) :   1.2451 B( 38-C , 43-S ) :   1.1339
B( 39-C , 40-S ) :   1.1008 B( 39-C , 41-N ) :   1.4225 B( 41-N , 42-C ) :   1.5998
B( 41-N , 43-S ) :   0.1142 B( 42-C , 43-S ) :   1.0865 B( 42-C , 44-C ) :   1.1576
B( 44-C , 45-C ) :   1.6641 B( 44-C , 69-H ) :   0.9139 B( 45-C , 46-C ) :   1.0363
B( 45-C , 58-C ) :   1.0021 B( 46-C , 47-C ) :   1.6597 B( 46-C , 52-C ) :   1.0090
B( 47-C , 48-C ) :   1.1315 B( 47-C , 50-C ) :   1.1417 B( 48-C , 49-N ) :   2.9878
B( 50-C , 51-N ) :   2.9833 B( 52-C , 53-C ) :   1.3077 B( 52-C , 57-C ) :   1.3783
B( 53-C , 54-C ) :   1.3827 B( 53-C , 58-C ) :   1.0107 B( 54-C , 55-C ) :   1.3673
B( 54-C , 70-H ) :   0.9862 B( 55-C , 56-C ) :   1.3738 B( 55-C , 71-H ) :   0.9869
B( 56-C , 57-C ) :   1.3756 B( 56-C , 72-H ) :   0.9856 B( 57-C , 73-H ) :   0.9844
B( 58-C , 59-C ) :   1.7010 B( 59-C , 60-C ) :   1.1451 B( 59-C , 62-C ) :   1.1426
B( 60-C , 61-N ) :   2.9929 B( 62-C , 63-N ) :   2.9976

-----------------------------------------------------------------------------
         ABSORPTION SPECTRUM VIA TRANSITION ELECTRIC DIPOLE MOMENTS
-----------------------------------------------------------------------------
State   Energy  Wavelength   fosc         T2         TX        TY        TZ
        (cm-1)    (nm)                  (au**2)     (au)      (au)      (au)
-----------------------------------------------------------------------------
   0   17574.7    569.0   2.448369449  45.86330   0.32899  -6.69730   0.94934
   1   20632.5    484.7   0.000422415   0.00674   0.00728  -0.07899   0.02114
   2   24824.6    402.8   0.005964033   0.07909   0.15133   0.17685   0.15785
   3   24978.6    400.3   0.261739385   3.44966  -0.79331  -1.38387  -0.95143
   4   25109.9    398.2   0.284906298   3.73536  -0.73381  -1.73527   0.43097
   5   25401.2    393.7   0.001869000   0.02422  -0.04270  -0.14039  -0.05187
   6   27910.6    358.3   0.000055164   0.00065  -0.01297  -0.01173  -0.01857
   7   28130.3    355.5   0.046305621   0.54192  -0.08803  -0.51208  -0.52148
   8   29950.8    333.9   0.013987359   0.15375   0.23816  -0.31145  -0.00457
   9   30128.4    331.9   0.000838379   0.00916  -0.04953   0.07744  -0.02666
  10   30712.9    325.6   0.301393406   3.23064  -0.13888   1.49511  -0.98792
  11   31263.1    319.9   0.010171340   0.10711   0.18218   0.23217   0.14148
  12   31309.9    319.4   0.023842293   0.25069  -0.34215  -0.31336  -0.18823
  13   32399.7    308.6   0.492810278   5.00742   1.02833   1.68551   1.05309
  14   32644.7    306.3   0.011735552   0.11835  -0.10856  -0.25622  -0.20228
  15   33035.7    302.7   0.143623803   1.43126  -0.74344  -0.79753  -0.49244
  16   33065.4    302.4   0.694291836   6.91264  -1.50447  -1.77856  -1.21899
  17   33579.6    297.8   0.085873390   0.84190   0.09124   0.71720   0.56497
  18   33724.1    296.5   0.000004166   0.00004   0.00342  -0.00310   0.00440
  19   34724.8    288.0   0.065086041   0.61706  -0.47832  -0.62305  -0.00858
  20   34755.1    287.7   0.004420872   0.04188  -0.11961  -0.16462   0.02164
  21   35030.7    285.5   0.000593703   0.00558   0.03100   0.05483  -0.04016
  22   35111.4    284.8   0.018551248   0.17394   0.21192   0.33301  -0.13465
  23   35519.6    281.5   0.000415509   0.00385   0.05131  -0.00757   0.03407
  24   36058.4    277.3   0.000208530   0.00190   0.00157   0.01478  -0.04102
  25   36272.1    275.7   0.801778091   7.27707  -0.36715  -0.85434   2.53227
  26   36991.9    270.3   0.000003616   0.00003   0.00165  -0.00026  -0.00542
  27   37917.2    263.7   0.000068473   0.00059   0.01556  -0.00784   0.01706
  28   38110.1    262.4   0.069126286   0.59714   0.23065   0.67431  -0.29875
  29   38777.5    257.9   0.000789662   0.00670  -0.06265  -0.02954   0.04367
  30   38905.0    257.0   0.024248204   0.20519  -0.18100  -0.20893   0.35885
  31   38971.3    256.6   0.010557095   0.08918  -0.08574   0.01706   0.28555
  32   38995.8    256.4   0.024783547   0.20923   0.11878  -0.12924  -0.42240
  33   39822.6    251.1   0.000531400   0.00439   0.05340  -0.02373   0.03127
  34   40040.1    249.7   0.034479121   0.28349   0.06544   0.14039  -0.50941
  35   40112.8    249.3   0.371193117   3.04644   0.07490  -0.72791   1.58460
  36   40268.1    248.3   0.000324164   0.00265  -0.00601  -0.03136   0.04038

FINAL SINGLE POINT ENERGY     -4834.359284134041

DIPOLE MOMENT
-------------
                                X             Y             Z
Electronic contribution:     -0.35395      -0.09660      -0.14597
Nuclear contribution   :      0.48272       0.11113       0.20410
                        -----------------------------------------
Total Dipole Moment    :      0.12877       0.01453       0.05813
                        -----------------------------------------
Magnitude (a.u.)       :      0.14203
Magnitude (Debye)      :      0.36101

Rotational constants in cm-1:     0.003937     0.000223     0.000215
Rotational constants in MHz :   118.023650     6.677596     6.436198

                             ****ORCA TERMINATED NORMALLY****
TOTAL RUN TIME: 0 days 0 hours 6 minutes 47 seconds 977 msec
