                         Program Version 4.2.0 -  RELEASE  -
|  1> # ORCA input file
|  2> # SCF done       -196.697816038410          0.000725951301
|  3> ! CAM-B3LYP def2-SVP def2/J RIJCOSX Grid4 TightSCF
|  4> %maxcore 5000
|  5> %tddft
|  6>     Mode sTDDFT
|  7>     Ethresh 5.0
|  8>     maxcore 5000
|  9> end
| 10>
| 11> %pal
| 12>   nprocs 6
| 13>   end
| 14> * xyz 0 1
| 15>    C        1.95174        -2.38333         4.99259
| 16>    C        2.25436        -1.45792         5.94363
| 17>    C        1.79874        -0.17663         5.57602
| 18>    C        1.15328        -0.17544         4.33447
| 19>    S        1.10690        -1.72775         3.62734
| 20>    C        0.72656         1.15271         4.04516
| 21>    C        1.10646         1.98285         5.10574
| 22>    C        1.79365         1.17377         6.10653
| 23>    C        2.31508         1.60246         7.29205
| 24>    C        2.24477         2.95005         7.70308
| 25>    N        2.19432         4.04398         8.04351
| 26>    C        2.95847         0.72579         8.19048
| 27>    N        3.48121         0.01724         8.92501
| 28>    C        0.72869         3.31494         4.91831
| 29>    C        0.06295         3.49904         3.72283
| 30>    S       -0.09678         2.00370         2.81407
| 31>    C       -0.47446         4.70702         3.20395
| 32>    C       -1.16487         4.88337         2.02584
| 33>    C       -1.55570         6.21202         1.84668
| 34>    C       -1.16344         7.06086         2.88626
| 35>    S       -0.29739         6.20397         4.10678
| 36>    C       -1.57730         8.38143         2.67921
| 37>    C       -2.28654         8.53283         1.48376
| 38>    S       -2.44297         7.04086         0.59854
| 39>    C       -2.72282         9.83849         1.24774
| 40>    C       -2.34867        10.69361         2.26041
| 41>    S       -1.44403         9.87906         3.52207
| 42>    C       -2.61795        12.08953         2.36232
| 43>    C       -3.37368        12.85828         1.52259
| 44>    C       -3.43947        14.21973         1.90400
| 45>    C       -4.15465        15.26114         1.27864
| 46>    C       -4.87373        15.04500         0.03965
| 47>    C       -4.46905        14.34890        -1.06420
| 48>    C       -5.42081        14.34926        -2.10375
| 49>    C       -6.55509        15.03620        -1.79949
| 50>    S       -6.46370        15.71430        -0.20652
| 51>    C       -7.76411        15.24800        -2.63705
| 52>    C       -4.11447        16.50092         1.90459
| 53>    C       -3.38603        16.75334         3.09273
| 54>    C       -2.67651        15.71013         3.72200
| 55>    C       -2.71327        14.47120         3.09387
| 56>    S       -1.94666        13.02169         3.68254
| 57>    C       -1.96826        15.92545         4.96713
| 58>    C       -2.38316        16.62624         6.06440
| 59>    C       -1.44487        16.62293         7.11597
| 60>    C       -0.31062        15.92906         6.82765
| 61>    S       -0.38530        15.24815         5.23492
| 62>    C        0.88740        15.71493         7.68026
| 63>    C       -3.44094        18.11760         3.46609
| 64>    C       -4.19068        18.88730         2.62171
| 65>    S       -4.87453        17.95145         1.31059
| 66>    C       -4.44108        20.28780         2.70657
| 67>    C       -4.01325        21.16134         3.68163
| 68>    C       -4.44119        22.46728         3.43184
| 69>    C       -5.19932        22.59986         2.26447
| 70>    S       -5.38801        21.08481         1.46480
| 71>    C       -5.60292        23.92090         2.04149
| 72>    C       -5.15183        24.79004         3.03959
| 73>    S       -4.22343        23.97902         4.26954
| 74>    C       -5.53017        26.11976         2.84210
| 75>    C       -6.27164        26.27594         1.69247
| 76>    S       -6.51173        24.75883         0.83918
| 77>    C       -6.81579        27.47756         1.16595
| 78>    C       -7.55488        27.63484         0.01035
| 79>    C       -7.91644        28.96781        -0.20074
| 80>    C       -7.44913        29.82600         0.80099
| 81>    S       -6.56492        28.99986         2.00662
| 82>    C       -7.86506        31.15283         0.49071
| 83>    C       -8.59194        31.12495        -0.70471
| 84>    C       -8.65259        29.75651        -1.18283
| 85>    C       -9.26619        29.29728        -2.31143
| 86>    C       -9.95181        30.15587        -3.19606
| 87>    N      -10.51304        30.84833        -3.91768
| 88>    C       -9.25660        27.93387        -2.67306
| 89>    N       -9.25628        26.82693        -2.97236
| 90>    C       -9.04268        32.40291        -1.08957
| 91>    C       -8.65616        33.35453        -0.19659
| 92>    S       -7.73677        32.72821         1.13382
| 93>    H        2.17277        -3.43174         5.00069
| 94>    H        2.77517        -1.68703         6.85526
| 95>    H        0.91870         4.11911         5.60624
| 96>    H       -1.37476         4.08587         1.33668
| 97>    H       -3.27972        10.14225         0.38179
| 98>    H       -3.89595        12.46033         0.67313
| 99>    H       -3.50009        13.88928        -1.14655
|100>    H       -5.26521        13.85734        -3.04779
|101>    H       -7.65575        14.72753        -3.58560
|102>    H       -7.91289        16.30963        -2.83323
|103>    H       -8.65412        14.87630        -2.13008
|104>    H       -3.35058        17.09127         6.13333
|105>    H       -1.61007        17.11727         8.05710
|106>    H        0.75381        16.20781         8.64024
|107>    H        1.77924        16.11617         7.19936
|108>    H        1.05190        14.65123         7.84995
|109>    H       -2.91528        18.51648         4.31308
|110>    H       -3.42186        20.87086         4.52908
|111>    H       -5.27747        26.93168         3.49932
|112>    H       -7.80682        26.81150        -0.63360
|113>    H       -9.61784        32.61159        -1.97300
|114>    H       -8.85327        34.40719        -0.23004
|115> *
|116>
|117>                          ****END OF INPUT****

CARTESIAN COORDINATES (ANGSTROEM)
---------------------------------
  C      1.951740   -2.383330    4.992590
  C      2.254360   -1.457920    5.943630
  C      1.798740   -0.176630    5.576020
  C      1.153280   -0.175440    4.334470
  S      1.106900   -1.727750    3.627340
  C      0.726560    1.152710    4.045160
  C      1.106460    1.982850    5.105740
  C      1.793650    1.173770    6.106530
  C      2.315080    1.602460    7.292050
  C      2.244770    2.950050    7.703080
  N      2.194320    4.043980    8.043510
  C      2.958470    0.725790    8.190480
  N      3.481210    0.017240    8.925010
  C      0.728690    3.314940    4.918310
  C      0.062950    3.499040    3.722830
  S     -0.096780    2.003700    2.814070
  C     -0.474460    4.707020    3.203950
  C     -1.164870    4.883370    2.025840
  C     -1.555700    6.212020    1.846680
  C     -1.163440    7.060860    2.886260
  S     -0.297390    6.203970    4.106780
  C     -1.577300    8.381430    2.679210
  C     -2.286540    8.532830    1.483760
  S     -2.442970    7.040860    0.598540
  C     -2.722820    9.838490    1.247740
  C     -2.348670   10.693610    2.260410
  S     -1.444030    9.879060    3.522070
  C     -2.617950   12.089530    2.362320
  C     -3.373680   12.858280    1.522590
  C     -3.439470   14.219730    1.904000
  C     -4.154650   15.261140    1.278640
  C     -4.873730   15.045000    0.039650
  C     -4.469050   14.348900   -1.064200
  C     -5.420810   14.349260   -2.103750
  C     -6.555090   15.036200   -1.799490
  S     -6.463700   15.714300   -0.206520
  C     -7.764110   15.248000   -2.637050
  C     -4.114470   16.500920    1.904590
  C     -3.386030   16.753340    3.092730
  C     -2.676510   15.710130    3.722000
  C     -2.713270   14.471200    3.093870
  S     -1.946660   13.021690    3.682540
  C     -1.968260   15.925450    4.967130
  C     -2.383160   16.626240    6.064400
  C     -1.444870   16.622930    7.115970
  C     -0.310620   15.929060    6.827650
  S     -0.385300   15.248150    5.234920
  C      0.887400   15.714930    7.680260
  C     -3.440940   18.117600    3.466090
  C     -4.190680   18.887300    2.621710
  S     -4.874530   17.951450    1.310590
  C     -4.441080   20.287800    2.706570
  C     -4.013250   21.161340    3.681630
  C     -4.441190   22.467280    3.431840
  C     -5.199320   22.599860    2.264470
  S     -5.388010   21.084810    1.464800
  C     -5.602920   23.920900    2.041490
  C     -5.151830   24.790040    3.039590
  S     -4.223430   23.979020    4.269540
  C     -5.530170   26.119760    2.842100
  C     -6.271640   26.275940    1.692470
  S     -6.511730   24.758830    0.839180
  C     -6.815790   27.477560    1.165950
  C     -7.554880   27.634840    0.010350
  C     -7.916440   28.967810   -0.200740
  C     -7.449130   29.826000    0.800990
  S     -6.564920   28.999860    2.006620
  C     -7.865060   31.152830    0.490710
  C     -8.591940   31.124950   -0.704710
  C     -8.652590   29.756510   -1.182830
  C     -9.266190   29.297280   -2.311430
  C     -9.951810   30.155870   -3.196060
  N    -10.513040   30.848330   -3.917680
  C     -9.256600   27.933870   -2.673060
  N     -9.256280   26.826930   -2.972360
  C     -9.042680   32.402910   -1.089570
  C     -8.656160   33.354530   -0.196590
  S     -7.736770   32.728210    1.133820
  H      2.172770   -3.431740    5.000690
  H      2.775170   -1.687030    6.855260
  H      0.918700    4.119110    5.606240
  H     -1.374760    4.085870    1.336680
  H     -3.279720   10.142250    0.381790
  H     -3.895950   12.460330    0.673130
  H     -3.500090   13.889280   -1.146550
  H     -5.265210   13.857340   -3.047790
  H     -7.655750   14.727530   -3.585600
  H     -7.912890   16.309630   -2.833230
  H     -8.654120   14.876300   -2.130080
  H     -3.350580   17.091270    6.133330
  H     -1.610070   17.117270    8.057100
  H      0.753810   16.207810    8.640240
  H      1.779240   16.116170    7.199360
  H      1.051900   14.651230    7.849950
  H     -2.915280   18.516480    4.313080
  H     -3.421860   20.870860    4.529080
  H     -5.277470   26.931680    3.499320
  H     -7.806820   26.811500   -0.633600
  H     -9.617840   32.611590   -1.973000
  H     -8.853270   34.407190   -0.230040

 Total Charge           Charge          ....    0
 Multiplicity           Mult            ....    1
 Number of Electrons    NEL             ....  634
 Basis Dimension        Dim             .... 1258

ORBITAL ENERGIES
----------------

  NO   OCC          E(Eh)            E(eV)
   0   2.0000     -88.984635     -2421.3950
   1   2.0000     -88.984612     -2421.3944
   2   2.0000     -88.982996     -2421.3504
   3   2.0000     -88.982977     -2421.3499
   4   2.0000     -88.965076     -2420.8628
   5   2.0000     -88.965049     -2420.8621
   6   2.0000     -88.961874     -2420.7757
   7   2.0000     -88.961827     -2420.7744
   8   2.0000     -88.958764     -2420.6910
   9   2.0000     -88.958755     -2420.6908
  10   2.0000     -88.946220     -2420.3497
  11   2.0000     -88.946127     -2420.3472
  12   2.0000     -88.944557     -2420.3044
  13   2.0000     -88.944494     -2420.3027
  14   2.0000     -14.424789      -392.5185
  15   2.0000     -14.424769      -392.5179
  16   2.0000     -14.424625      -392.5140
  17   2.0000     -14.424613      -392.5137
  18   2.0000     -10.358228      -281.8617
  19   2.0000     -10.358201      -281.8610
  20   2.0000     -10.346032      -281.5298
  21   2.0000     -10.345990      -281.5287
  22   2.0000     -10.325302      -280.9658
  23   2.0000     -10.325285      -280.9653
  24   2.0000     -10.325150      -280.9616
  25   2.0000     -10.325132      -280.9611
  26   2.0000     -10.324945      -280.9560
  27   2.0000     -10.324944      -280.9560
  28   2.0000     -10.324288      -280.9382
  29   2.0000     -10.324280      -280.9379
  30   2.0000     -10.322352      -280.8855
  31   2.0000     -10.322321      -280.8846
  32   2.0000     -10.316924      -280.7378
  33   2.0000     -10.316889      -280.7368
  34   2.0000     -10.311555      -280.5917
  35   2.0000     -10.311551      -280.5916
  36   2.0000     -10.308653      -280.5127
  37   2.0000     -10.308600      -280.5113
  38   2.0000     -10.306815      -280.4627
  39   2.0000     -10.306813      -280.4626
  40   2.0000     -10.306470      -280.4533
  41   2.0000     -10.306394      -280.4512
  42   2.0000     -10.305903      -280.4379
  43   2.0000     -10.305889      -280.4375
  44   2.0000     -10.304464      -280.3987
  45   2.0000     -10.304448      -280.3983
  46   2.0000     -10.303110      -280.3619
  47   2.0000     -10.303099      -280.3616
  48   2.0000     -10.298277      -280.2304
  49   2.0000     -10.298144      -280.2268
  50   2.0000     -10.296643      -280.1859
  51   2.0000     -10.296643      -280.1859
  52   2.0000     -10.294338      -280.1232
  53   2.0000     -10.294299      -280.1221
  54   2.0000     -10.293666      -280.1049
  55   2.0000     -10.293652      -280.1045
  56   2.0000     -10.292945      -280.0853
  57   2.0000     -10.292936      -280.0850
  58   2.0000     -10.292688      -280.0783
  59   2.0000     -10.292668      -280.0777
  60   2.0000     -10.291941      -280.0580
  61   2.0000     -10.291921      -280.0574
  62   2.0000     -10.289686      -279.9966
  63   2.0000     -10.289675      -279.9963
  64   2.0000     -10.289224      -279.9840
  65   2.0000     -10.289085      -279.9802
  66   2.0000     -10.284526      -279.8562
  67   2.0000     -10.284524      -279.8561
  68   2.0000     -10.281196      -279.7656
  69   2.0000     -10.281097      -279.7629
  70   2.0000     -10.270895      -279.4853
  71   2.0000     -10.270835      -279.4836
  72   2.0000     -10.270213      -279.4667
  73   2.0000     -10.270134      -279.4646
  74   2.0000     -10.265483      -279.3380
  75   2.0000     -10.265420      -279.3363
  76   2.0000     -10.261163      -279.2204
  77   2.0000     -10.261162      -279.2204
  78   2.0000      -8.079183      -219.8457
  79   2.0000      -8.079174      -219.8455
  80   2.0000      -8.078066      -219.8153
  81   2.0000      -8.078060      -219.8152
  82   2.0000      -8.060004      -219.3239
  83   2.0000      -8.059974      -219.3230
  84   2.0000      -8.057104      -219.2449
  85   2.0000      -8.057051      -219.2435
  86   2.0000      -8.053987      -219.1601
  87   2.0000      -8.053965      -219.1595
  88   2.0000      -8.041781      -218.8280
  89   2.0000      -8.041698      -218.8257
  90   2.0000      -8.040524      -218.7938
  91   2.0000      -8.040471      -218.7923
  92   2.0000      -6.048502      -164.5881
  93   2.0000      -6.048482      -164.5876
  94   2.0000      -6.047325      -164.5561
  95   2.0000      -6.047314      -164.5558
  96   2.0000      -6.044321      -164.4743
  97   2.0000      -6.044318      -164.4742
  98   2.0000      -6.042890      -164.4354
  99   2.0000      -6.042883      -164.4352
 100   2.0000      -6.041436      -164.3958
 101   2.0000      -6.041426      -164.3955
 102   2.0000      -6.040644      -164.3743
 103   2.0000      -6.040640      -164.3742
 104   2.0000      -6.029657      -164.0753
 105   2.0000      -6.029632      -164.0746
 106   2.0000      -6.026728      -163.9956
 107   2.0000      -6.026683      -163.9944
 108   2.0000      -6.025560      -163.9638
 109   2.0000      -6.025525      -163.9629
 110   2.0000      -6.023739      -163.9143
 111   2.0000      -6.023726      -163.9139
 112   2.0000      -6.022535      -163.8815
 113   2.0000      -6.022480      -163.8800
 114   2.0000      -6.021407      -163.8508
 115   2.0000      -6.021378      -163.8500
 116   2.0000      -6.019886      -163.8094
 117   2.0000      -6.019862      -163.8088
 118   2.0000      -6.018614      -163.7748
 119   2.0000      -6.018560      -163.7734
 120   2.0000      -6.014931      -163.6746
 121   2.0000      -6.014908      -163.6740
 122   2.0000      -6.011511      -163.5815
 123   2.0000      -6.011431      -163.5794
 124   2.0000      -6.009785      -163.5346
 125   2.0000      -6.009731      -163.5331
 126   2.0000      -6.007261      -163.4659
 127   2.0000      -6.007180      -163.4637
 128   2.0000      -6.005495      -163.4178
 129   2.0000      -6.005441      -163.4164
 130   2.0000      -6.002988      -163.3496
 131   2.0000      -6.002904      -163.3473
 132   2.0000      -6.002795      -163.3444
 133   2.0000      -6.002741      -163.3429
 134   2.0000      -1.037754       -28.2387
 135   2.0000      -1.037744       -28.2385
 136   2.0000      -1.020721       -27.7752
 137   2.0000      -1.020569       -27.7711
 138   2.0000      -1.015974       -27.6461
 139   2.0000      -1.015941       -27.6451
 140   2.0000      -1.004369       -27.3303
 141   2.0000      -1.002347       -27.2752
 142   2.0000      -1.002318       -27.2745
 143   2.0000      -0.994298       -27.0562
 144   2.0000      -0.992813       -27.0158
 145   2.0000      -0.983238       -26.7553
 146   2.0000      -0.977828       -26.6080
 147   2.0000      -0.975936       -26.5566
 148   2.0000      -0.968124       -26.3440
 149   2.0000      -0.966441       -26.2982
 150   2.0000      -0.951158       -25.8823
 151   2.0000      -0.950435       -25.8627
 152   2.0000      -0.931273       -25.3412
 153   2.0000      -0.925147       -25.1745
 154   2.0000      -0.904841       -24.6220
 155   2.0000      -0.901017       -24.5179
 156   2.0000      -0.899182       -24.4680
 157   2.0000      -0.896555       -24.3965
 158   2.0000      -0.868351       -23.6290
 159   2.0000      -0.866115       -23.5682
 160   2.0000      -0.861786       -23.4504
 161   2.0000      -0.860753       -23.4223
 162   2.0000      -0.849778       -23.1236
 163   2.0000      -0.847695       -23.0670
 164   2.0000      -0.847393       -23.0587
 165   2.0000      -0.839118       -22.8336
 166   2.0000      -0.839002       -22.8304
 167   2.0000      -0.838415       -22.8144
 168   2.0000      -0.832184       -22.6449
 169   2.0000      -0.831755       -22.6332
 170   2.0000      -0.821054       -22.3420
 171   2.0000      -0.816667       -22.2226
 172   2.0000      -0.810873       -22.0650
 173   2.0000      -0.807796       -21.9812
 174   2.0000      -0.794123       -21.6092
 175   2.0000      -0.789561       -21.4851
 176   2.0000      -0.780642       -21.2424
 177   2.0000      -0.776175       -21.1208
 178   2.0000      -0.771432       -20.9917
 179   2.0000      -0.771407       -20.9911
 180   2.0000      -0.766695       -20.8628
 181   2.0000      -0.757806       -20.6210
 182   2.0000      -0.739759       -20.1299
 183   2.0000      -0.737887       -20.0789
 184   2.0000      -0.718062       -19.5395
 185   2.0000      -0.699127       -19.0242
 186   2.0000      -0.697615       -18.9831
 187   2.0000      -0.695940       -18.9375
 188   2.0000      -0.682837       -18.5809
 189   2.0000      -0.675658       -18.3856
 190   2.0000      -0.674630       -18.3576
 191   2.0000      -0.674324       -18.3493
 192   2.0000      -0.665974       -18.1221
 193   2.0000      -0.652844       -17.7648
 194   2.0000      -0.652615       -17.7585
 195   2.0000      -0.647569       -17.6212
 196   2.0000      -0.647150       -17.6098
 197   2.0000      -0.636606       -17.3229
 198   2.0000      -0.630400       -17.1541
 199   2.0000      -0.627407       -17.0726
 200   2.0000      -0.626535       -17.0489
 201   2.0000      -0.623286       -16.9605
 202   2.0000      -0.617453       -16.8018
 203   2.0000      -0.616520       -16.7764
 204   2.0000      -0.612675       -16.6717
 205   2.0000      -0.612378       -16.6636
 206   2.0000      -0.609755       -16.5923
 207   2.0000      -0.607908       -16.5420
 208   2.0000      -0.607244       -16.5240
 209   2.0000      -0.601948       -16.3798
 210   2.0000      -0.598746       -16.2927
 211   2.0000      -0.583238       -15.8707
 212   2.0000      -0.577371       -15.7111
 213   2.0000      -0.572111       -15.5679
 214   2.0000      -0.570766       -15.5313
 215   2.0000      -0.567925       -15.4540
 216   2.0000      -0.554044       -15.0763
 217   2.0000      -0.546541       -14.8721
 218   2.0000      -0.545170       -14.8348
 219   2.0000      -0.540569       -14.7096
 220   2.0000      -0.540326       -14.7030
 221   2.0000      -0.540321       -14.7029
 222   2.0000      -0.535254       -14.5650
 223   2.0000      -0.528551       -14.3826
 224   2.0000      -0.519987       -14.1496
 225   2.0000      -0.519572       -14.1383
 226   2.0000      -0.519213       -14.1285
 227   2.0000      -0.515967       -14.0402
 228   2.0000      -0.515170       -14.0185
 229   2.0000      -0.509949       -13.8764
 230   2.0000      -0.507416       -13.8075
 231   2.0000      -0.507023       -13.7968
 232   2.0000      -0.505106       -13.7446
 233   2.0000      -0.503858       -13.7107
 234   2.0000      -0.499370       -13.5885
 235   2.0000      -0.498575       -13.5669
 236   2.0000      -0.495953       -13.4956
 237   2.0000      -0.495875       -13.4934
 238   2.0000      -0.493992       -13.4422
 239   2.0000      -0.491518       -13.3749
 240   2.0000      -0.489906       -13.3310
 241   2.0000      -0.487369       -13.2620
 242   2.0000      -0.486045       -13.2260
 243   2.0000      -0.483787       -13.1645
 244   2.0000      -0.481279       -13.0963
 245   2.0000      -0.480385       -13.0719
 246   2.0000      -0.476880       -12.9766
 247   2.0000      -0.476435       -12.9644
 248   2.0000      -0.473527       -12.8853
 249   2.0000      -0.472260       -12.8509
 250   2.0000      -0.470911       -12.8142
 251   2.0000      -0.464084       -12.6284
 252   2.0000      -0.463594       -12.6150
 253   2.0000      -0.461340       -12.5537
 254   2.0000      -0.460682       -12.5358
 255   2.0000      -0.458733       -12.4828
 256   2.0000      -0.458166       -12.4673
 257   2.0000      -0.456343       -12.4177
 258   2.0000      -0.456213       -12.4142
 259   2.0000      -0.455781       -12.4024
 260   2.0000      -0.453613       -12.3434
 261   2.0000      -0.452161       -12.3039
 262   2.0000      -0.452127       -12.3030
 263   2.0000      -0.450558       -12.2603
 264   2.0000      -0.449332       -12.2269
 265   2.0000      -0.446617       -12.1531
 266   2.0000      -0.442433       -12.0392
 267   2.0000      -0.441829       -12.0228
 268   2.0000      -0.440242       -11.9796
 269   2.0000      -0.438059       -11.9202
 270   2.0000      -0.435900       -11.8614
 271   2.0000      -0.435060       -11.8386
 272   2.0000      -0.435045       -11.8382
 273   2.0000      -0.433948       -11.8083
 274   2.0000      -0.433876       -11.8064
 275   2.0000      -0.433709       -11.8018
 276   2.0000      -0.433539       -11.7972
 277   2.0000      -0.429166       -11.6782
 278   2.0000      -0.426306       -11.6004
 279   2.0000      -0.423381       -11.5208
 280   2.0000      -0.421161       -11.4604
 281   2.0000      -0.419944       -11.4273
 282   2.0000      -0.419730       -11.4214
 283   2.0000      -0.416472       -11.3328
 284   2.0000      -0.412162       -11.2155
 285   2.0000      -0.412074       -11.2131
 286   2.0000      -0.410188       -11.1618
 287   2.0000      -0.405104       -11.0234
 288   2.0000      -0.401949       -10.9376
 289   2.0000      -0.397625       -10.8199
 290   2.0000      -0.397517       -10.8170
 291   2.0000      -0.392058       -10.6684
 292   2.0000      -0.383550       -10.4369
 293   2.0000      -0.378370       -10.2960
 294   2.0000      -0.374024       -10.1777
 295   2.0000      -0.373079       -10.1520
 296   2.0000      -0.354354        -9.6425
 297   2.0000      -0.342642        -9.3238
 298   2.0000      -0.342560        -9.3215
 299   2.0000      -0.342116        -9.3094
 300   2.0000      -0.334936        -9.1141
 301   2.0000      -0.334511        -9.1025
 302   2.0000      -0.321729        -8.7547
 303   2.0000      -0.317342        -8.6353
 304   2.0000      -0.315799        -8.5933
 305   2.0000      -0.313451        -8.5294
 306   2.0000      -0.311304        -8.4710
 307   2.0000      -0.311205        -8.4683
 308   2.0000      -0.297907        -8.1065
 309   2.0000      -0.295353        -8.0370
 310   2.0000      -0.286117        -7.7856
 311   2.0000      -0.285856        -7.7785
 312   2.0000      -0.281427        -7.6580
 313   2.0000      -0.270803        -7.3689
 314   2.0000      -0.247064        -6.7230
 315   2.0000      -0.240145        -6.5347
 316   2.0000      -0.222389        -6.0515
 317   0.0000      -0.097253        -2.6464
 318   0.0000      -0.096991        -2.6393
 319   0.0000      -0.059061        -1.6071
 320   0.0000      -0.041914        -1.1405
 321   0.0000      -0.022545        -0.6135

MULLIKEN ATOMIC CHARGES
-----------------------
   0 C :   -0.084424
   1 C :    0.039657
   2 C :   -0.034999
   3 C :   -0.115003
   4 S :    0.176755
   5 C :   -0.105402
   6 C :    0.015928
   7 C :    0.296175
   8 C :   -0.300468
   9 C :   -0.186908
  10 N :    0.171116
  11 C :   -0.192331
  12 N :    0.173393
  13 C :   -0.068008
  14 C :   -0.041199
  15 S :    0.176795
  16 C :   -0.047469
  17 C :   -0.070321
  18 C :   -0.023900
  19 C :   -0.077320
  20 S :    0.155799
  21 C :   -0.074163
  22 C :   -0.027346
  23 S :    0.150899
  24 C :   -0.051774
  25 C :   -0.042957
  26 S :    0.156606
  27 C :   -0.002392
  28 C :   -0.091888
  29 C :    0.098017
  30 C :    0.133744
  31 C :   -0.219406
  32 C :    0.030921
  33 C :    0.013082
  34 C :   -0.210049
  35 S :    0.128092
  36 C :    0.125645
  37 C :   -0.145688
  38 C :    0.097296
  39 C :    0.134734
  40 C :   -0.145749
  41 S :    0.116115
  42 C :   -0.219222
  43 C :    0.030514
  44 C :    0.012851
  45 C :   -0.209581
  46 S :    0.127599
  47 C :    0.125233
  48 C :   -0.092186
  49 C :   -0.001946
  50 S :    0.116039
  51 C :   -0.042175
  52 C :   -0.052718
  53 C :   -0.027223
  54 C :   -0.073701
  55 S :    0.156051
  56 C :   -0.077351
  57 C :   -0.023894
  58 S :    0.150826
  59 C :   -0.070074
  60 C :   -0.047627
  61 S :    0.155649
  62 C :   -0.041410
  63 C :   -0.066795
  64 C :    0.015949
  65 C :   -0.105720
  66 S :    0.177073
  67 C :   -0.115111
  68 C :   -0.034367
  69 C :    0.294997
  70 C :   -0.299656
  71 C :   -0.192455
  72 N :    0.173933
  73 C :   -0.187537
  74 N :    0.170778
  75 C :    0.039131
  76 C :   -0.084638
  77 S :    0.176764
  78 H :    0.034723
  79 H :    0.010755
  80 H :    0.013244
  81 H :   -0.010361
  82 H :   -0.016830
  83 H :   -0.022366
  84 H :   -0.013646
  85 H :   -0.026593
  86 H :    0.017406
  87 H :    0.035758
  88 H :    0.032639
  89 H :   -0.013180
  90 H :   -0.026461
  91 H :    0.017424
  92 H :    0.033444
  93 H :    0.035018
  94 H :   -0.022545
  95 H :   -0.016539
  96 H :   -0.010505
  97 H :    0.013188
  98 H :    0.011014
  99 H :    0.034807
Sum of atomic charges:   -0.0000000

LOEWDIN ATOMIC CHARGES
----------------------
   0 C :   -0.180715
   1 C :   -0.033981
   2 C :   -0.079935
   3 C :   -0.182081
   4 S :    0.473679
   5 C :   -0.184602
   6 C :   -0.068874
   7 C :    0.084449
   8 C :   -0.104777
   9 C :   -0.016704
  10 N :   -0.034988
  11 C :   -0.016645
  12 N :   -0.035140
  13 C :   -0.040394
  14 C :   -0.175291
  15 S :    0.472046
  16 C :   -0.178571
  17 C :   -0.074205
  18 C :   -0.192937
  19 C :   -0.214615
  20 S :    0.435019
  21 C :   -0.219133
  22 C :   -0.190238
  23 S :    0.402929
  24 C :   -0.062284
  25 C :   -0.173945
  26 S :    0.427943
  27 C :   -0.171183
  28 C :   -0.054430
  29 C :   -0.035712
  30 C :   -0.056354
  31 C :   -0.180329
  32 C :   -0.057338
  33 C :   -0.078218
  34 C :   -0.171971
  35 S :    0.422553
  36 C :   -0.059455
  37 C :   -0.150415
  38 C :   -0.035790
  39 C :   -0.056072
  40 C :   -0.150409
  41 S :    0.392871
  42 C :   -0.180446
  43 C :   -0.057119
  44 C :   -0.078185
  45 C :   -0.172000
  46 S :    0.422311
  47 C :   -0.059488
  48 C :   -0.054418
  49 C :   -0.171186
  50 S :    0.392962
  51 C :   -0.173846
  52 C :   -0.062293
  53 C :   -0.190201
  54 C :   -0.219173
  55 S :    0.427814
  56 C :   -0.214614
  57 C :   -0.192926
  58 S :    0.402805
  59 C :   -0.074124
  60 C :   -0.178545
  61 S :    0.435026
  62 C :   -0.175376
  63 C :   -0.040383
  64 C :   -0.068817
  65 C :   -0.184618
  66 S :    0.472018
  67 C :   -0.182062
  68 C :   -0.079954
  69 C :    0.084414
  70 C :   -0.104762
  71 C :   -0.016631
  72 N :   -0.035199
  73 C :   -0.016694
  74 N :   -0.034992
  75 C :   -0.033991
  76 C :   -0.180742
  77 S :    0.473652
  78 H :    0.026856
  79 H :    0.042128
  80 H :    0.036212
  81 H :    0.028797
  82 H :    0.033469
  83 H :    0.028703
  84 H :    0.029266
  85 H :    0.026178
  86 H :    0.037201
  87 H :    0.038171
  88 H :    0.036883
  89 H :    0.029446
  90 H :    0.026224
  91 H :    0.037229
  92 H :    0.037125
  93 H :    0.037886
  94 H :    0.028673
  95 H :    0.033559
  96 H :    0.028819
  97 H :    0.036172
  98 H :    0.042168
  99 H :    0.026857

  Mayer bond orders larger than 0.100000
B(  0-C ,  1-C ) :   1.5523 B(  0-C ,  4-S ) :   1.1462 B(  0-C , 78-H ) :   0.9642
B(  1-C ,  2-C ) :   1.2746 B(  1-C , 79-H ) :   0.9955 B(  2-C ,  3-C ) :   1.4593
B(  2-C ,  7-C ) :   1.0179 B(  3-C ,  4-S ) :   1.1374 B(  3-C ,  5-C ) :   1.1790
B(  5-C ,  6-C ) :   1.4714 B(  5-C , 15-S ) :   1.1174 B(  6-C ,  7-C ) :   0.9920
B(  6-C , 13-C ) :   1.2842 B(  7-C ,  8-C ) :   1.7087 B(  8-C ,  9-C ) :   1.1335
B(  8-C , 11-C ) :   1.1313 B(  9-C , 10-N ) :   2.9926 B( 11-C , 12-N ) :   3.0031
B( 13-C , 14-C ) :   1.4739 B( 13-C , 80-H ) :   0.9891 B( 14-C , 15-S ) :   1.1077
B( 14-C , 16-C ) :   1.1652 B( 16-C , 17-C ) :   1.5192 B( 16-C , 20-S ) :   1.0961
B( 17-C , 18-C ) :   1.2668 B( 17-C , 81-H ) :   0.9936 B( 18-C , 19-C ) :   1.4749
B( 18-C , 23-S ) :   1.0491 B( 19-C , 20-S ) :   1.0681 B( 19-C , 21-C ) :   1.2980
B( 21-C , 22-C ) :   1.4696 B( 21-C , 26-S ) :   1.0719 B( 22-C , 23-S ) :   1.0485
B( 22-C , 24-C ) :   1.2567 B( 24-C , 25-C ) :   1.5492 B( 24-C , 82-H ) :   0.9997
B( 25-C , 26-S ) :   1.0913 B( 25-C , 27-C ) :   1.1072 B( 27-C , 28-C ) :   1.5805
B( 27-C , 41-S ) :   1.0578 B( 28-C , 29-C ) :   1.1793 B( 28-C , 83-H ) :   0.9936
B( 29-C , 30-C ) :   1.3181 B( 29-C , 40-C ) :   1.2706 B( 30-C , 31-C ) :   0.9824
B( 30-C , 37-C ) :   1.4006 B( 31-C , 32-C ) :   1.5754 B( 31-C , 34-C ) :   0.1050
B( 31-C , 35-S ) :   1.1308 B( 32-C , 33-C ) :   1.2162 B( 32-C , 84-H ) :   0.9988
B( 33-C , 34-C ) :   1.6078 B( 33-C , 85-H ) :   0.9940 B( 34-C , 35-S ) :   1.1351
B( 34-C , 36-C ) :   1.0666 B( 36-C , 86-H ) :   0.9567 B( 36-C , 87-H ) :   0.9506
B( 36-C , 88-H ) :   0.9515 B( 37-C , 38-C ) :   1.2707 B( 37-C , 50-S ) :   1.0610
B( 38-C , 39-C ) :   1.3170 B( 38-C , 48-C ) :   1.1794 B( 39-C , 40-C ) :   1.4008
B( 39-C , 42-C ) :   0.9831 B( 40-C , 41-S ) :   1.0605 B( 42-C , 43-C ) :   1.5748
B( 42-C , 45-C ) :   0.1048 B( 42-C , 46-S ) :   1.1306 B( 43-C , 44-C ) :   1.2167
B( 43-C , 89-H ) :   0.9989 B( 44-C , 45-C ) :   1.6076 B( 44-C , 90-H ) :   0.9941
B( 45-C , 46-S ) :   1.1347 B( 45-C , 47-C ) :   1.0666 B( 47-C , 91-H ) :   0.9567
B( 47-C , 92-H ) :   0.9516 B( 47-C , 93-H ) :   0.9506 B( 48-C , 49-C ) :   1.5805
B( 48-C , 94-H ) :   0.9936 B( 49-C , 50-S ) :   1.0576 B( 49-C , 51-C ) :   1.1084
B( 51-C , 52-C ) :   1.5490 B( 51-C , 55-S ) :   1.0911 B( 52-C , 53-C ) :   1.2565
B( 52-C , 95-H ) :   0.9998 B( 53-C , 54-C ) :   1.4695 B( 53-C , 58-S ) :   1.0485
B( 54-C , 55-S ) :   1.0720 B( 54-C , 56-C ) :   1.2982 B( 56-C , 57-C ) :   1.4749
B( 56-C , 61-S ) :   1.0680 B( 57-C , 58-S ) :   1.0491 B( 57-C , 59-C ) :   1.2670
B( 59-C , 60-C ) :   1.5191 B( 59-C , 96-H ) :   0.9936 B( 60-C , 61-S ) :   1.0960
B( 60-C , 62-C ) :   1.1658 B( 62-C , 63-C ) :   1.4736 B( 62-C , 66-S ) :   1.1076
B( 63-C , 64-C ) :   1.2846 B( 63-C , 97-H ) :   0.9888 B( 64-C , 65-C ) :   1.4717
B( 64-C , 69-C ) :   0.9924 B( 65-C , 66-S ) :   1.1173 B( 65-C , 67-C ) :   1.1791
B( 67-C , 68-C ) :   1.4591 B( 67-C , 77-S ) :   1.1374 B( 68-C , 69-C ) :   1.0185
B( 68-C , 75-C ) :   1.2741 B( 69-C , 70-C ) :   1.7085 B( 70-C , 71-C ) :   1.1315
B( 70-C , 73-C ) :   1.1336 B( 71-C , 72-N ) :   3.0033 B( 73-C , 74-N ) :   2.9925
B( 75-C , 76-C ) :   1.5519 B( 75-C , 98-H ) :   0.9957 B( 76-C , 77-S ) :   1.1461
B( 76-C , 99-H ) :   0.9644

-----------------------------------------------------------------------------
         ABSORPTION SPECTRUM VIA TRANSITION ELECTRIC DIPOLE MOMENTS
-----------------------------------------------------------------------------
State   Energy  Wavelength   fosc         T2         TX        TY        TZ
        (cm-1)    (nm)                  (au**2)     (au)      (au)      (au)
-----------------------------------------------------------------------------
   0   13065.0    765.4   0.304617192   7.67573   0.88757  -2.55011   0.62039
   1   13124.7    761.9   0.004169483   0.10458   0.10501  -0.29955   0.06187
   2   20428.3    489.5   1.492369689  24.05031  -1.64109   4.51059  -1.00586
   3   21004.4    476.1   0.000085527   0.00134  -0.01752   0.03214   0.00080
   4   22091.0    452.7   1.965091482  29.28480  -1.84139   4.94727  -1.19105
   5   24917.4    401.3   0.332853524   4.39770  -0.21363   2.07199   0.24273
   6   25015.3    399.8   0.000393464   0.00518  -0.01795   0.06472   0.02582
   7   25772.7    388.0   0.000084982   0.00109   0.00349   0.02777   0.01739
   8   25888.4    386.3   0.088013811   1.11923   0.04438   0.99928   0.34455
   9   26541.6    376.8   0.000017255   0.00021   0.00062   0.01411   0.00381
  10   26876.6    372.1   0.182631822   2.23706  -0.16991   1.48102   0.12161
  11   27826.0    359.4   0.000946033   0.01119  -0.02725   0.10055  -0.01846
  12   27836.3    359.2   0.003622137   0.04284  -0.05366   0.19784  -0.02861
  13   28331.1    353.0   0.000115583   0.00134   0.00181  -0.03660   0.00026
  14   28881.6    346.2   0.302877474   3.45241   0.37677  -1.80281   0.24562
  15   31596.7    316.5   1.055511932  10.99759  -1.64027  -0.30958  -2.86553
  16   31976.9    312.7   0.000936802   0.00964  -0.05978  -0.01987   0.07534
  17   32296.2    309.6   0.075155605   0.76610  -0.13446  -0.67619  -0.53924
  18   32304.2    309.6   0.001280931   0.01305  -0.10157  -0.04257   0.03040
  19   32458.3    308.1   1.138971574  11.55215  -1.10814  -1.89044  -2.59816
  20   32895.0    304.0   0.001009482   0.01010  -0.07919  -0.00011   0.06190
  21   33076.3    302.3   0.092997457   0.92561  -0.14166  -0.78328  -0.54039
  22   33602.1    297.6   0.000031852   0.00031  -0.01702  -0.00443   0.00170
  23   34165.0    292.7   0.011984211   0.11548  -0.18843   0.11289  -0.25929
  24   34224.8    292.2   0.375806600   3.61492   1.00768  -0.70351   1.45071
  25   34468.0    290.1   0.072316122   0.69071   0.22609   0.56445   0.56655
  26   34799.7    287.4   0.000277756   0.00263  -0.00216  -0.01295   0.04955
  27   34958.7    286.1   0.330235107   3.10988   0.78003  -1.30437   0.89445
  28   35199.3    284.1   0.000123091   0.00115  -0.02762  -0.01575   0.01185
  29   35371.2    282.7   0.104312430   0.97087   0.55336  -0.08447   0.81088
  30   35431.2    282.2   0.000762432   0.00708  -0.07079  -0.01167  -0.04401
  31   35718.9    280.0   0.293984495   2.70958   0.53726   0.84832   1.30433
  32   36085.2    277.1   0.000009470   0.00009  -0.00120   0.00673  -0.00630
  33   36340.2    275.2   0.000272374   0.00247  -0.03165  -0.01344  -0.03585
  34   36351.1    275.1   0.000293047   0.00265  -0.03000  -0.01919   0.03723
  35   36429.5    274.5   0.070834052   0.64012   0.35927   0.28463   0.65577
  36   36792.1    271.8   0.000021668   0.00019  -0.01194  -0.00631  -0.00340
  37   37188.6    268.9   0.025035801   0.22163   0.21986   0.11780   0.39927
  38   37354.7    267.7   0.022751444   0.20051   0.15090   0.21919   0.36014
  39   37393.6    267.4   0.000119991   0.00106   0.03179   0.00310  -0.00603
  40   37966.9    263.4   0.000034961   0.00030   0.01537   0.00227  -0.00785
  41   38753.2    258.0   0.000021641   0.00018  -0.01267   0.00468  -0.00121
  42   38841.2    257.5   0.005321616   0.04511   0.05881   0.12248   0.16323
  43   38845.6    257.4   0.028950052   0.24535   0.17952   0.25653   0.38381
  44   38870.5    257.3   0.001346693   0.01141   0.02394   0.04235   0.09507
  45   39147.3    255.4   0.058315023   0.49040  -0.16827   0.64974  -0.19982
  46   39317.4    254.3   0.003137097   0.02627   0.07078  -0.14558   0.00805
  47   39652.1    252.2   0.070798827   0.58781   0.02263   0.73822   0.20574
  48   40013.4    249.9   0.003450701   0.02839   0.12001   0.11451   0.02960
  49   40075.4    249.5   0.000083789   0.00069   0.01118   0.02065   0.01169
  50   40258.0    248.4   0.000073227   0.00060  -0.00184   0.02440   0.00022
  51   40310.0    248.1   0.000087758   0.00072  -0.00615   0.01780   0.01902

FINAL SINGLE POINT ENERGY     -8088.315875500936

DIPOLE MOMENT
-------------
                                X             Y             Z
Electronic contribution:      0.29178       0.01369      -0.27818
Nuclear contribution   :     -0.14672       0.03433       0.18849
                        -----------------------------------------
Total Dipole Moment    :      0.14506       0.04802      -0.08968
                        -----------------------------------------
Magnitude (a.u.)       :      0.17717
Magnitude (Debye)      :      0.45034

Rotational constants in cm-1:     0.002051     0.000115     0.000109
Rotational constants in MHz :    61.497835     3.450993     3.274326

                             ****ORCA TERMINATED NORMALLY****
TOTAL RUN TIME: 0 days 0 hours 11 minutes 18 seconds 149 msec
