                         Program Version 4.2.0 -  RELEASE  -
|  1> # ORCA input file
|  2> # SCF done       -176.383597146896          0.000446753581
|  3> ! CAM-B3LYP def2-SVP def2/J RIJCOSX Grid4 TightSCF
|  4> %maxcore 5000
|  5> %tddft
|  6>     Mode sTDDFT
|  7>     Ethresh 5.0
|  8>     maxcore 5000
|  9> end
| 10>
| 11> %pal
| 12>   nprocs 6
| 13>   end
| 14> * xyz 0 1
| 15>    C       15.06939        -3.03243         2.38961
| 16>    C       13.82975        -2.69011         1.95097
| 17>    C       13.51248        -1.35826         2.28848
| 18>    C       14.55665        -0.71619         2.98217
| 19>    S       15.89554        -1.74957         3.22383
| 20>    C       14.17180         0.61843         3.25670
| 21>    C       12.88830         0.82034         2.71901
| 22>    C       12.43033        -0.42667         2.10655
| 23>    C       11.21050        -0.64590         1.52500
| 24>    C       10.25320         0.37102         1.32930
| 25>    N        9.46056         1.17882         1.13886
| 26>    C       10.79032        -1.91544         1.09328
| 27>    N       10.39262        -2.94332         0.76824
| 28>    C       12.38635         2.09024         2.93859
| 29>    C       13.27191         2.90270         3.65076
| 30>    S       14.75764         2.02611         4.03919
| 31>    C       13.13755         4.23694         4.06495
| 32>    C       12.06247         5.06562         3.82633
| 33>    C       11.91887         6.42168         4.21283
| 34>    C       10.75436         7.01302         3.80562
| 35>    C        9.91188         6.15668         3.07289
| 36>    S       10.63647         4.57081         2.94526
| 37>    C        8.69993         6.33242         2.42342
| 38>    C        7.83520         7.43485         2.27099
| 39>    C        6.76227         7.17980         1.46435
| 40>    C        6.71981         5.86673         0.92511
| 41>    S        8.09359         4.96322         1.52459
| 42>    C        5.75893         5.32514         0.10436
| 43>    C        5.76565         4.01782        -0.44136
| 44>    C        6.86713         3.22275        -0.54708
| 45>    C        6.80731         1.88729        -1.03096
| 46>    C        5.64280         1.25951        -1.25083
| 47>    C        4.33368         1.97307        -1.00546
| 48>    C        4.47480         3.50946        -1.06960
| 49>    N        4.45705         4.02911        -2.42222
| 50>    C        3.91260         3.34404        -3.32291
| 51>    C        3.22876         2.06934        -3.03572
| 52>    N        3.35590         1.46170        -1.94265
| 53>    F        2.38793         1.59195        -3.95183
| 54>    F        3.90048         3.78847        -4.57559
| 55>    C        5.61562        -0.15609        -1.73988
| 56>    C        4.57910        -1.03908        -1.11900
| 57>    N        4.04750        -0.86639         0.06782
| 58>    S        2.97909        -2.05879         0.35117
| 59>    N        3.18779        -2.84122        -1.05749
| 60>    C        4.07608        -2.19637        -1.77531
| 61>    C        4.55771        -2.64182        -3.12701
| 62>    C        4.92142        -1.39975        -3.87434
| 63>    C        5.40731        -0.23530        -3.22498
| 64>    N        5.63137         0.75112        -4.06336
| 65>    S        5.27130         0.26000        -5.57126
| 66>    N        4.80956        -1.24433        -5.17304
| 67>    C        5.76146        -3.51686        -2.91558
| 68>    C        7.05796        -3.12189        -2.74183
| 69>    C        7.90026        -4.20420        -2.43430
| 70>    C        7.22056        -5.42162        -2.40002
| 71>    S        5.55124        -5.23845        -2.71553
| 72>    C        8.16428        -6.45171        -2.09101
| 73>    C        9.42170        -5.86704        -1.92148
| 74>    C        9.29851        -4.43110        -2.10473
| 75>    C       10.25986        -3.47843        -1.93148
| 76>    C       11.59072        -3.78694        -1.58029
| 77>    N       12.68129        -4.01888        -1.31072
| 78>    C        9.96269        -2.10456        -2.04172
| 79>    N        9.71106        -0.98676        -2.10678
| 80>    C       10.41644        -6.81060        -1.60134
| 81>    C        9.90282        -8.06998        -1.54145
| 82>    S        8.20186        -8.14207        -1.86580
| 83>    H       15.57285        -3.97129         2.27622
| 84>    H       13.18661        -3.35384         1.40175
| 85>    H       11.42141         2.40738         2.59684
| 86>    H       13.96544         4.65787         4.62023
| 87>    H       12.68710         6.92616         4.77258
| 88>    H       10.49329         8.03729         4.00544
| 89>    H        8.02058         8.37780         2.75457
| 90>    H        6.00155         7.90335         1.22812
| 91>    H        4.90025         5.94597        -0.11512
| 92>    H        7.84692         3.58774        -0.29449
| 93>    H        7.74215         1.36776        -1.17751
| 94>    H        3.97940         1.66890        -0.01022
| 95>    H        3.61769         3.97149        -0.56005
| 96>    H        6.60190        -0.58918        -1.51437
| 97>    H        3.77753        -3.20082        -3.64961
| 98>    H        7.39881        -2.11010        -2.85620
| 99>    H       11.45015        -6.57579        -1.42501
|100>    H       10.42017        -8.98272        -1.32356
|101> *
|102>
|103>                          ****END OF INPUT****

CARTESIAN COORDINATES (ANGSTROEM)
---------------------------------
  C     15.069390   -3.032430    2.389610
  C     13.829750   -2.690110    1.950970
  C     13.512480   -1.358260    2.288480
  C     14.556650   -0.716190    2.982170
  S     15.895540   -1.749570    3.223830
  C     14.171800    0.618430    3.256700
  C     12.888300    0.820340    2.719010
  C     12.430330   -0.426670    2.106550
  C     11.210500   -0.645900    1.525000
  C     10.253200    0.371020    1.329300
  N      9.460560    1.178820    1.138860
  C     10.790320   -1.915440    1.093280
  N     10.392620   -2.943320    0.768240
  C     12.386350    2.090240    2.938590
  C     13.271910    2.902700    3.650760
  S     14.757640    2.026110    4.039190
  C     13.137550    4.236940    4.064950
  C     12.062470    5.065620    3.826330
  C     11.918870    6.421680    4.212830
  C     10.754360    7.013020    3.805620
  C      9.911880    6.156680    3.072890
  S     10.636470    4.570810    2.945260
  C      8.699930    6.332420    2.423420
  C      7.835200    7.434850    2.270990
  C      6.762270    7.179800    1.464350
  C      6.719810    5.866730    0.925110
  S      8.093590    4.963220    1.524590
  C      5.758930    5.325140    0.104360
  C      5.765650    4.017820   -0.441360
  C      6.867130    3.222750   -0.547080
  C      6.807310    1.887290   -1.030960
  C      5.642800    1.259510   -1.250830
  C      4.333680    1.973070   -1.005460
  C      4.474800    3.509460   -1.069600
  N      4.457050    4.029110   -2.422220
  C      3.912600    3.344040   -3.322910
  C      3.228760    2.069340   -3.035720
  N      3.355900    1.461700   -1.942650
  F      2.387930    1.591950   -3.951830
  F      3.900480    3.788470   -4.575590
  C      5.615620   -0.156090   -1.739880
  C      4.579100   -1.039080   -1.119000
  N      4.047500   -0.866390    0.067820
  S      2.979090   -2.058790    0.351170
  N      3.187790   -2.841220   -1.057490
  C      4.076080   -2.196370   -1.775310
  C      4.557710   -2.641820   -3.127010
  C      4.921420   -1.399750   -3.874340
  C      5.407310   -0.235300   -3.224980
  N      5.631370    0.751120   -4.063360
  S      5.271300    0.260000   -5.571260
  N      4.809560   -1.244330   -5.173040
  C      5.761460   -3.516860   -2.915580
  C      7.057960   -3.121890   -2.741830
  C      7.900260   -4.204200   -2.434300
  C      7.220560   -5.421620   -2.400020
  S      5.551240   -5.238450   -2.715530
  C      8.164280   -6.451710   -2.091010
  C      9.421700   -5.867040   -1.921480
  C      9.298510   -4.431100   -2.104730
  C     10.259860   -3.478430   -1.931480
  C     11.590720   -3.786940   -1.580290
  N     12.681290   -4.018880   -1.310720
  C      9.962690   -2.104560   -2.041720
  N      9.711060   -0.986760   -2.106780
  C     10.416440   -6.810600   -1.601340
  C      9.902820   -8.069980   -1.541450
  S      8.201860   -8.142070   -1.865800
  H     15.572850   -3.971290    2.276220
  H     13.186610   -3.353840    1.401750
  H     11.421410    2.407380    2.596840
  H     13.965440    4.657870    4.620230
  H     12.687100    6.926160    4.772580
  H     10.493290    8.037290    4.005440
  H      8.020580    8.377800    2.754570
  H      6.001550    7.903350    1.228120
  H      4.900250    5.945970   -0.115120
  H      7.846920    3.587740   -0.294490
  H      7.742150    1.367760   -1.177510
  H      3.979400    1.668900   -0.010220
  H      3.617690    3.971490   -0.560050
  H      6.601900   -0.589180   -1.514370
  H      3.777530   -3.200820   -3.649610
  H      7.398810   -2.110100   -2.856200
  H     11.450150   -6.575790   -1.425010
  H     10.420170   -8.982720   -1.323560

 Total Charge           Charge          ....    0
 Multiplicity           Mult            ....    1
 Number of Electrons    NEL             ....  522
 Basis Dimension        Dim             .... 1074

ORBITAL ENERGIES
----------------

  NO   OCC          E(Eh)            E(eV)
   0   2.0000     -89.006285     -2421.9842
   1   2.0000     -89.000273     -2421.8206
   2   2.0000     -88.979651     -2421.2594
   3   2.0000     -88.977997     -2421.2144
   4   2.0000     -88.975130     -2421.1364
   5   2.0000     -88.973282     -2421.0861
   6   2.0000     -88.939811     -2420.1753
   7   2.0000     -88.936429     -2420.0833
   8   2.0000     -24.795937      -674.7317
   9   2.0000     -24.789994      -674.5700
  10   2.0000     -14.435691      -392.8151
  11   2.0000     -14.434638      -392.7865
  12   2.0000     -14.431475      -392.7004
  13   2.0000     -14.429847      -392.6561
  14   2.0000     -14.424655      -392.5148
  15   2.0000     -14.424537      -392.5116
  16   2.0000     -14.419882      -392.3849
  17   2.0000     -14.419543      -392.3757
  18   2.0000     -14.416623      -392.2963
  19   2.0000     -14.415285      -392.2599
  20   2.0000     -10.405255      -283.1414
  21   2.0000     -10.401506      -283.0394
  22   2.0000     -10.351640      -281.6824
  23   2.0000     -10.351194      -281.6703
  24   2.0000     -10.340739      -281.3858
  25   2.0000     -10.338299      -281.3194
  26   2.0000     -10.327656      -281.0298
  27   2.0000     -10.326141      -280.9886
  28   2.0000     -10.325043      -280.9587
  29   2.0000     -10.324456      -280.9427
  30   2.0000     -10.322078      -280.8780
  31   2.0000     -10.321984      -280.8755
  32   2.0000     -10.320992      -280.8485
  33   2.0000     -10.320885      -280.8456
  34   2.0000     -10.319710      -280.8136
  35   2.0000     -10.319517      -280.8083
  36   2.0000     -10.318976      -280.7936
  37   2.0000     -10.316567      -280.7280
  38   2.0000     -10.314551      -280.6732
  39   2.0000     -10.312927      -280.6290
  40   2.0000     -10.312915      -280.6287
  41   2.0000     -10.311354      -280.5862
  42   2.0000     -10.309439      -280.5341
  43   2.0000     -10.306368      -280.4505
  44   2.0000     -10.306077      -280.4426
  45   2.0000     -10.303486      -280.3721
  46   2.0000     -10.302245      -280.3383
  47   2.0000     -10.301290      -280.3124
  48   2.0000     -10.299976      -280.2766
  49   2.0000     -10.297239      -280.2021
  50   2.0000     -10.289664      -279.9960
  51   2.0000     -10.289235      -279.9843
  52   2.0000     -10.288344      -279.9601
  53   2.0000     -10.288220      -279.9567
  54   2.0000     -10.287970      -279.9499
  55   2.0000     -10.285319      -279.8778
  56   2.0000     -10.284463      -279.8545
  57   2.0000     -10.283813      -279.8368
  58   2.0000     -10.283776      -279.8358
  59   2.0000     -10.283754      -279.8352
  60   2.0000     -10.283141      -279.8185
  61   2.0000     -10.282341      -279.7967
  62   2.0000     -10.281850      -279.7834
  63   2.0000     -10.276798      -279.6459
  64   2.0000     -10.276766      -279.6450
  65   2.0000     -10.274604      -279.5862
  66   2.0000     -10.262000      -279.2432
  67   2.0000     -10.257942      -279.1328
  68   2.0000      -8.098778      -220.3790
  69   2.0000      -8.093137      -220.2254
  70   2.0000      -8.074315      -219.7133
  71   2.0000      -8.073004      -219.6776
  72   2.0000      -8.070050      -219.5972
  73   2.0000      -8.067747      -219.5345
  74   2.0000      -8.035836      -218.6662
  75   2.0000      -8.032714      -218.5813
  76   2.0000      -6.070442      -165.1851
  77   2.0000      -6.064880      -165.0338
  78   2.0000      -6.062845      -164.9784
  79   2.0000      -6.059919      -164.8988
  80   2.0000      -6.057224      -164.8254
  81   2.0000      -6.054105      -164.7406
  82   2.0000      -6.043497      -164.4519
  83   2.0000      -6.042251      -164.4180
  84   2.0000      -6.039352      -164.3391
  85   2.0000      -6.039317      -164.3382
  86   2.0000      -6.037844      -164.2981
  87   2.0000      -6.037013      -164.2755
  88   2.0000      -6.036788      -164.2693
  89   2.0000      -6.035615      -164.2374
  90   2.0000      -6.034894      -164.2178
  91   2.0000      -6.032984      -164.1659
  92   2.0000      -6.032653      -164.1568
  93   2.0000      -6.030010      -164.0849
  94   2.0000      -6.005610      -163.4209
  95   2.0000      -6.002461      -163.3353
  96   2.0000      -6.001348      -163.3050
  97   2.0000      -5.998134      -163.2175
  98   2.0000      -5.996850      -163.1826
  99   2.0000      -5.993710      -163.0971
 100   2.0000      -1.321971       -35.9727
 101   2.0000      -1.306720       -35.5577
 102   2.0000      -1.119647       -30.4671
 103   2.0000      -1.112376       -30.2693
 104   2.0000      -1.068913       -29.0866
 105   2.0000      -1.032906       -28.1068
 106   2.0000      -1.029439       -28.0125
 107   2.0000      -1.016449       -27.6590
 108   2.0000      -1.010722       -27.5031
 109   2.0000      -1.002012       -27.2661
 110   2.0000      -1.000287       -27.2192
 111   2.0000      -0.998588       -27.1730
 112   2.0000      -0.993248       -27.0276
 113   2.0000      -0.990028       -26.9400
 114   2.0000      -0.979240       -26.6465
 115   2.0000      -0.977495       -26.5990
 116   2.0000      -0.967992       -26.3404
 117   2.0000      -0.967618       -26.3302
 118   2.0000      -0.956445       -26.0262
 119   2.0000      -0.944263       -25.6947
 120   2.0000      -0.942223       -25.6392
 121   2.0000      -0.930876       -25.3304
 122   2.0000      -0.903196       -24.5772
 123   2.0000      -0.898807       -24.4578
 124   2.0000      -0.886363       -24.1192
 125   2.0000      -0.873210       -23.7613
 126   2.0000      -0.859099       -23.3773
 127   2.0000      -0.856492       -23.3063
 128   2.0000      -0.853221       -23.2173
 129   2.0000      -0.847887       -23.0722
 130   2.0000      -0.843050       -22.9406
 131   2.0000      -0.841705       -22.9040
 132   2.0000      -0.839425       -22.8419
 133   2.0000      -0.838043       -22.8043
 134   2.0000      -0.822534       -22.3823
 135   2.0000      -0.813749       -22.1432
 136   2.0000      -0.799701       -21.7610
 137   2.0000      -0.786467       -21.4009
 138   2.0000      -0.769266       -20.9328
 139   2.0000      -0.765888       -20.8409
 140   2.0000      -0.763238       -20.7688
 141   2.0000      -0.762928       -20.7603
 142   2.0000      -0.758426       -20.6378
 143   2.0000      -0.742905       -20.2155
 144   2.0000      -0.734604       -19.9896
 145   2.0000      -0.712009       -19.3748
 146   2.0000      -0.693291       -18.8654
 147   2.0000      -0.691596       -18.8193
 148   2.0000      -0.690805       -18.7978
 149   2.0000      -0.683679       -18.6039
 150   2.0000      -0.679847       -18.4996
 151   2.0000      -0.672993       -18.3131
 152   2.0000      -0.667933       -18.1754
 153   2.0000      -0.667496       -18.1635
 154   2.0000      -0.663225       -18.0473
 155   2.0000      -0.661388       -17.9973
 156   2.0000      -0.656573       -17.8663
 157   2.0000      -0.647417       -17.6171
 158   2.0000      -0.640484       -17.4284
 159   2.0000      -0.636215       -17.3123
 160   2.0000      -0.627360       -17.0713
 161   2.0000      -0.621282       -16.9059
 162   2.0000      -0.618719       -16.8362
 163   2.0000      -0.616735       -16.7822
 164   2.0000      -0.615582       -16.7508
 165   2.0000      -0.610659       -16.6169
 166   2.0000      -0.608255       -16.5515
 167   2.0000      -0.604900       -16.4602
 168   2.0000      -0.600064       -16.3286
 169   2.0000      -0.596753       -16.2385
 170   2.0000      -0.591572       -16.0975
 171   2.0000      -0.583391       -15.8749
 172   2.0000      -0.580431       -15.7943
 173   2.0000      -0.571665       -15.5558
 174   2.0000      -0.563969       -15.3464
 175   2.0000      -0.558861       -15.2074
 176   2.0000      -0.552282       -15.0284
 177   2.0000      -0.550753       -14.9867
 178   2.0000      -0.546449       -14.8696
 179   2.0000      -0.540267       -14.7014
 180   2.0000      -0.537633       -14.6297
 181   2.0000      -0.532333       -14.4855
 182   2.0000      -0.530556       -14.4372
 183   2.0000      -0.529036       -14.3958
 184   2.0000      -0.525111       -14.2890
 185   2.0000      -0.521726       -14.1969
 186   2.0000      -0.520898       -14.1743
 187   2.0000      -0.516652       -14.0588
 188   2.0000      -0.512128       -13.9357
 189   2.0000      -0.509220       -13.8566
 190   2.0000      -0.504257       -13.7215
 191   2.0000      -0.503306       -13.6957
 192   2.0000      -0.502461       -13.6727
 193   2.0000      -0.495865       -13.4932
 194   2.0000      -0.494970       -13.4688
 195   2.0000      -0.494385       -13.4529
 196   2.0000      -0.490615       -13.3503
 197   2.0000      -0.488860       -13.3026
 198   2.0000      -0.486573       -13.2403
 199   2.0000      -0.484669       -13.1885
 200   2.0000      -0.483708       -13.1624
 201   2.0000      -0.481447       -13.1009
 202   2.0000      -0.478849       -13.0301
 203   2.0000      -0.474903       -12.9228
 204   2.0000      -0.474058       -12.8998
 205   2.0000      -0.470227       -12.7955
 206   2.0000      -0.467040       -12.7088
 207   2.0000      -0.462990       -12.5986
 208   2.0000      -0.459593       -12.5062
 209   2.0000      -0.458546       -12.4777
 210   2.0000      -0.456662       -12.4264
 211   2.0000      -0.453992       -12.3537
 212   2.0000      -0.453826       -12.3492
 213   2.0000      -0.451685       -12.2910
 214   2.0000      -0.450808       -12.2671
 215   2.0000      -0.448517       -12.2048
 216   2.0000      -0.447775       -12.1846
 217   2.0000      -0.444811       -12.1039
 218   2.0000      -0.440845       -11.9960
 219   2.0000      -0.439714       -11.9652
 220   2.0000      -0.435850       -11.8601
 221   2.0000      -0.433920       -11.8076
 222   2.0000      -0.432800       -11.7771
 223   2.0000      -0.432129       -11.7588
 224   2.0000      -0.427426       -11.6308
 225   2.0000      -0.426622       -11.6090
 226   2.0000      -0.422294       -11.4912
 227   2.0000      -0.419273       -11.4090
 228   2.0000      -0.418656       -11.3922
 229   2.0000      -0.417645       -11.3647
 230   2.0000      -0.414213       -11.2713
 231   2.0000      -0.410918       -11.1816
 232   2.0000      -0.407277       -11.0826
 233   2.0000      -0.405656       -11.0385
 234   2.0000      -0.399682       -10.8759
 235   2.0000      -0.396928       -10.8010
 236   2.0000      -0.388863       -10.5815
 237   2.0000      -0.387056       -10.5323
 238   2.0000      -0.383382       -10.4324
 239   2.0000      -0.379397       -10.3239
 240   2.0000      -0.375534       -10.2188
 241   2.0000      -0.373928       -10.1751
 242   2.0000      -0.363979        -9.9044
 243   2.0000      -0.360600        -9.8124
 244   2.0000      -0.358268        -9.7490
 245   2.0000      -0.355512        -9.6740
 246   2.0000      -0.348151        -9.4737
 247   2.0000      -0.336476        -9.1560
 248   2.0000      -0.335934        -9.1412
 249   2.0000      -0.333789        -9.0828
 250   2.0000      -0.331840        -9.0298
 251   2.0000      -0.328363        -8.9352
 252   2.0000      -0.326875        -8.8947
 253   2.0000      -0.321949        -8.7607
 254   2.0000      -0.313360        -8.5270
 255   2.0000      -0.310621        -8.4524
 256   2.0000      -0.306830        -8.3493
 257   2.0000      -0.287427        -7.8213
 258   2.0000      -0.268352        -7.3022
 259   2.0000      -0.254868        -6.9353
 260   2.0000      -0.203948        -5.5497
 261   0.0000      -0.098017        -2.6672
 262   0.0000      -0.087721        -2.3870
 263   0.0000      -0.073956        -2.0124
 264   0.0000      -0.031180        -0.8484
 265   0.0000      -0.018338        -0.4990

MULLIKEN ATOMIC CHARGES
-----------------------
   0 C :   -0.086291
   1 C :    0.050712
   2 C :   -0.045496
   3 C :   -0.116418
   4 S :    0.169155
   5 C :   -0.103282
   6 C :   -0.010487
   7 C :    0.328208
   8 C :   -0.330187
   9 C :   -0.174553
  10 N :    0.168956
  11 C :   -0.139178
  12 N :    0.130875
  13 C :   -0.047349
  14 C :   -0.097716
  15 S :    0.169626
  16 C :    0.034740
  17 C :   -0.021881
  18 C :    0.025537
  19 C :    0.035934
  20 C :   -0.021884
  21 S :    0.022424
  22 C :   -0.033896
  23 C :    0.029852
  24 C :    0.043513
  25 C :   -0.024517
  26 S :    0.067925
  27 C :    0.010956
  28 C :    0.033959
  29 C :   -0.043147
  30 C :    0.004154
  31 C :   -0.046945
  32 C :    0.116590
  33 C :    0.088350
  34 N :   -0.079785
  35 C :    0.129783
  36 C :    0.120248
  37 N :   -0.112903
  38 F :   -0.150595
  39 F :   -0.150189
  40 C :    0.307951
  41 C :   -0.090549
  42 N :   -0.281167
  43 S :    0.450939
  44 N :   -0.267361
  45 C :   -0.047752
  46 C :    0.243411
  47 C :   -0.071650
  48 C :   -0.129246
  49 N :   -0.290854
  50 S :    0.464061
  51 N :   -0.250423
  52 C :   -0.154764
  53 C :   -0.013932
  54 C :   -0.001177
  55 C :   -0.111043
  56 S :    0.208756
  57 C :   -0.125802
  58 C :   -0.026339
  59 C :    0.309740
  60 C :   -0.281695
  61 C :   -0.169315
  62 N :    0.152735
  63 C :   -0.197049
  64 N :    0.163686
  65 C :    0.038959
  66 C :   -0.085548
  67 S :    0.175435
  68 H :    0.031707
  69 H :    0.007534
  70 H :    0.033199
  71 H :   -0.022909
  72 H :   -0.014691
  73 H :   -0.014344
  74 H :   -0.015612
  75 H :   -0.011340
  76 H :   -0.017350
  77 H :    0.012561
  78 H :   -0.008704
  79 H :    0.038381
  80 H :    0.013948
  81 H :    0.044385
  82 H :    0.012697
  83 H :    0.006796
  84 H :    0.007460
  85 H :    0.031480
Sum of atomic charges:   -0.0000000

LOEWDIN ATOMIC CHARGES
----------------------
   0 C :   -0.181588
   1 C :   -0.027826
   2 C :   -0.088076
   3 C :   -0.172707
   4 S :    0.467444
   5 C :   -0.197045
   6 C :   -0.064145
   7 C :    0.092255
   8 C :   -0.112869
   9 C :   -0.010099
  10 N :   -0.037955
  11 C :    0.005917
  12 N :   -0.048013
  13 C :   -0.049147
  14 C :   -0.159177
  15 S :    0.458537
  16 C :   -0.089581
  17 C :   -0.142815
  18 C :   -0.038834
  19 C :   -0.033746
  20 C :   -0.185629
  21 S :    0.401001
  22 C :   -0.171281
  23 C :   -0.042606
  24 C :   -0.022989
  25 C :   -0.147290
  26 S :    0.413171
  27 C :   -0.036952
  28 C :   -0.035741
  29 C :   -0.014839
  30 C :   -0.014594
  31 C :   -0.006897
  32 C :    0.017081
  33 C :    0.024301
  34 N :   -0.066631
  35 C :    0.044618
  36 C :    0.048456
  37 N :   -0.081009
  38 F :   -0.038713
  39 F :   -0.037093
  40 C :   -0.026565
  41 C :   -0.039657
  42 N :   -0.263161
  43 S :    0.580603
  44 N :   -0.270363
  45 C :   -0.050467
  46 C :   -0.031499
  47 C :   -0.050869
  48 C :   -0.047378
  49 N :   -0.269316
  50 S :    0.592906
  51 N :   -0.259209
  52 C :   -0.159969
  53 C :   -0.046452
  54 C :   -0.070381
  55 C :   -0.181669
  56 S :    0.484535
  57 C :   -0.183960
  58 C :   -0.074175
  59 C :    0.088093
  60 C :   -0.102672
  61 C :   -0.009649
  62 N :   -0.052034
  63 C :   -0.006650
  64 N :   -0.053549
  65 C :   -0.033458
  66 C :   -0.182115
  67 S :    0.473629
  68 H :    0.026000
  69 H :    0.041006
  70 H :    0.019858
  71 H :    0.031440
  72 H :    0.031692
  73 H :    0.032633
  74 H :    0.031590
  75 H :    0.033341
  76 H :    0.033296
  77 H :    0.016174
  78 H :    0.036056
  79 H :    0.043456
  80 H :    0.032858
  81 H :    0.062615
  82 H :    0.054567
  83 H :    0.035326
  84 H :    0.040999
  85 H :    0.025649

  Mayer bond orders larger than 0.100000
B(  0-C ,  1-C ) :   1.5625 B(  0-C ,  4-S ) :   1.1311 B(  0-C , 68-H ) :   0.9644
B(  1-C ,  2-C ) :   1.2656 B(  1-C , 69-H ) :   0.9929 B(  2-C ,  3-C ) :   1.4307
B(  2-C ,  7-C ) :   1.0334 B(  3-C ,  4-S ) :   1.1413 B(  3-C ,  5-C ) :   1.2045
B(  5-C ,  6-C ) :   1.4428 B(  5-C , 15-S ) :   1.1049 B(  6-C ,  7-C ) :   0.9934
B(  6-C , 13-C ) :   1.3505 B(  7-C ,  8-C ) :   1.6705 B(  8-C ,  9-C ) :   1.1432
B(  8-C , 11-C ) :   1.1609 B(  9-C , 10-N ) :   2.9617 B( 11-C , 12-N ) :   2.8966
B( 13-C , 14-C ) :   1.3921 B( 13-C , 70-H ) :   0.9618 B( 14-C , 15-S ) :   1.0974
B( 14-C , 16-C ) :   1.1910 B( 16-C , 17-C ) :   1.5672 B( 16-C , 71-H ) :   0.9542
B( 17-C , 18-C ) :   1.1607 B( 17-C , 21-S ) :   1.0512 B( 18-C , 19-C ) :   1.5747
B( 18-C , 72-H ) :   0.9972 B( 19-C , 20-C ) :   1.2036 B( 19-C , 73-H ) :   0.9952
B( 20-C , 21-S ) :   1.0391 B( 20-C , 22-C ) :   1.4761 B( 22-C , 23-C ) :   1.1918
B( 22-C , 26-S ) :   1.0538 B( 23-C , 24-C ) :   1.5830 B( 23-C , 74-H ) :   0.9954
B( 24-C , 25-C ) :   1.1496 B( 24-C , 75-H ) :   0.9962 B( 25-C , 26-S ) :   1.0386
B( 25-C , 27-C ) :   1.5667 B( 27-C , 28-C ) :   1.1655 B( 27-C , 76-H ) :   0.9706
B( 28-C , 29-C ) :   1.6238 B( 28-C , 33-C ) :   0.9847 B( 29-C , 30-C ) :   1.1194
B( 29-C , 77-H ) :   0.9550 B( 30-C , 31-C ) :   1.7708 B( 30-C , 78-H ) :   0.9785
B( 31-C , 32-C ) :   0.9411 B( 31-C , 40-C ) :   1.0371 B( 32-C , 33-C ) :   0.9909
B( 32-C , 37-N ) :   1.0069 B( 32-C , 79-H ) :   0.8635 B( 33-C , 34-N ) :   1.0227
B( 33-C , 80-H ) :   0.9042 B( 34-N , 35-C ) :   1.9619 B( 35-C , 36-C ) :   0.9319
B( 35-C , 39-F ) :   1.1607 B( 36-C , 37-N ) :   1.9392 B( 36-C , 38-F ) :   1.1585
B( 40-C , 41-C ) :   0.9528 B( 40-C , 48-C ) :   0.9650 B( 40-C , 81-H ) :   0.8241
B( 41-C , 42-N ) :   1.6820 B( 41-C , 45-C ) :   1.1982 B( 42-N , 43-S ) :   1.1949
B( 42-N , 44-N ) :   0.1174 B( 43-S , 44-N ) :   1.2026 B( 44-N , 45-C ) :   1.7126
B( 45-C , 46-C ) :   0.9833 B( 46-C , 47-C ) :   0.9979 B( 46-C , 52-C ) :   1.0482
B( 46-C , 82-H ) :   0.8505 B( 47-C , 48-C ) :   1.1939 B( 47-C , 51-N ) :   1.7043
B( 48-C , 49-N ) :   1.6680 B( 49-N , 50-S ) :   1.1937 B( 49-N , 51-N ) :   0.1199
B( 50-S , 51-N ) :   1.2134 B( 52-C , 53-C ) :   1.5542 B( 52-C , 56-S ) :   1.1332
B( 53-C , 54-C ) :   1.2547 B( 53-C , 83-H ) :   0.9805 B( 54-C , 55-C ) :   1.4916
B( 54-C , 59-C ) :   1.0097 B( 55-C , 56-S ) :   1.1231 B( 55-C , 57-C ) :   1.1703
B( 57-C , 58-C ) :   1.4737 B( 57-C , 67-S ) :   1.1366 B( 58-C , 59-C ) :   1.0139
B( 58-C , 65-C ) :   1.2770 B( 59-C , 60-C ) :   1.7185 B( 60-C , 61-C ) :   1.1264
B( 60-C , 63-C ) :   1.1377 B( 61-C , 62-N ) :   2.9575 B( 63-C , 64-N ) :   2.9708
B( 65-C , 66-C ) :   1.5509 B( 65-C , 84-H ) :   0.9953 B( 66-C , 67-S ) :   1.1497
B( 66-C , 85-H ) :   0.9645

-----------------------------------------------------------------------------
         ABSORPTION SPECTRUM VIA TRANSITION ELECTRIC DIPOLE MOMENTS
-----------------------------------------------------------------------------
State   Energy  Wavelength   fosc         T2         TX        TY        TZ
        (cm-1)    (nm)                  (au**2)     (au)      (au)      (au)
-----------------------------------------------------------------------------
   0    7388.0   1353.6   0.080640014   3.59336  -1.28822   1.36252  -0.27819
   1   13949.6    716.9   0.332493960   7.84686  -2.40634   0.77460  -1.20681
   2   14287.1    699.9   0.343195687   7.90811  -2.43410   0.52399  -1.30717
   3   17124.8    583.9   0.029104177   0.55951  -0.51100   0.52035  -0.16619
   4   17537.9    570.2   0.028543871   0.53581   0.39012   0.48312   0.38758
   5   22590.9    442.7   0.047207134   0.68794  -0.07201  -0.75466  -0.33651
   6   23054.1    433.8   0.021401447   0.30561  -0.10282   0.53060   0.11620
   7   24212.8    413.0   0.000942458   0.01281  -0.08720   0.06242  -0.03626
   8   25459.3    392.8   0.003703316   0.04789  -0.15872   0.14332  -0.04642
   9   25730.8    388.6   0.011577023   0.14812  -0.35417   0.10232  -0.11052
  10   26781.3    373.4   0.970568421  11.93082   0.02186  -3.26054  -1.13984
  11   27539.6    363.1   0.440272232   5.26307  -0.11826  -2.08164  -0.95701
  12   29468.5    339.3   0.342575706   3.82714   1.25058   1.27963   0.79103
  13   30079.0    332.5   0.593533345   6.49617   2.40381   0.26539   0.80463
  14   30183.2    331.3   0.040957483   0.44673   0.61321  -0.19253   0.18338
  15   31286.9    319.6   0.048114175   0.50627  -0.61406  -0.34927  -0.08494
  16   31609.6    316.4   0.122362299   1.27439   0.29380  -1.07443   0.18353
  17   32077.2    311.7   0.000883538   0.00907  -0.03483  -0.08768  -0.01291
  18   32128.6    311.2   0.121338068   1.24331   0.34776  -1.00247  -0.34268
  19   32245.0    310.1   0.008155046   0.08326  -0.14807   0.20184   0.14351
  20   32756.6    305.3   0.072594180   0.72959   0.10683  -0.84045   0.10875
  21   33226.3    301.0   0.080024206   0.79289  -0.52997  -0.71367  -0.05196
  22   33346.0    299.9   0.210344830   2.07665  -1.00739  -1.02886  -0.05715
  23   33540.8    298.1   0.108236426   1.06237  -0.96321  -0.35473  -0.09365
  24   33864.8    295.3   0.039873812   0.38763   0.40665  -0.44541  -0.15452
  25   34070.4    293.5   0.033547215   0.32416   0.51972   0.14688   0.18021
  26   34169.0    292.7   0.221137146   2.13062   1.00949  -1.00064   0.33208
  27   34610.2    288.9   0.078801271   0.74956  -0.78352  -0.00370  -0.36829
  28   35151.6    284.5   0.020316157   0.19027  -0.33437  -0.09834  -0.26229
  29   35459.2    282.0   0.059825338   0.55543   0.64859  -0.27749  -0.24035
  30   35642.4    280.6   0.003138498   0.02899   0.13754   0.05767  -0.08214
  31   35935.0    278.3   0.002850355   0.02611  -0.11610  -0.03902  -0.10540
  32   36108.6    276.9   0.167505393   1.52719  -1.06058  -0.26764  -0.57509
  33   36277.6    275.7   0.030945856   0.28083   0.45422   0.26661   0.05857
  34   36596.0    273.3   0.049026318   0.44103  -0.14519  -0.49195  -0.42183
  35   37232.3    268.6   0.012285102   0.10863   0.31034  -0.11097  -0.00104
  36   37559.5    266.2   0.023586736   0.20674   0.02666  -0.40975  -0.19529
  37   37868.7    264.1   0.009997763   0.08692  -0.16454   0.16858  -0.17726
  38   37997.6    263.2   0.015540694   0.13464  -0.34195  -0.10960  -0.07552
  39   38070.3    262.7   0.019100812   0.16517   0.05891   0.37990   0.13182
  40   38181.6    261.9   0.021725131   0.18732  -0.17415   0.39613   0.00873
  41   38428.8    260.2   0.004080193   0.03495  -0.18630   0.00263  -0.01552
  42   38830.9    257.5   0.066668864   0.56522  -0.59971  -0.44288  -0.09710
  43   39301.3    254.4   0.019841046   0.16620  -0.32928   0.21250   0.11232
  44   39486.2    253.3   0.008191126   0.06829   0.10361   0.15633   0.18199
  45   39910.3    250.6   0.016868240   0.13914  -0.36553   0.01600  -0.07265
  46   40208.3    248.7   0.000957562   0.00784  -0.02636  -0.03328  -0.07770
  47   40230.2    248.6   0.013592904   0.11123  -0.32751  -0.02366  -0.05842

FINAL SINGLE POINT ENERGY     -5768.237659771237

DIPOLE MOMENT
-------------
                                X             Y             Z
Electronic contribution:    -16.32706     -19.33456     -20.39126
Nuclear contribution   :     17.25063      19.01086      21.92804
                        -----------------------------------------
Total Dipole Moment    :      0.92357      -0.32370       1.53678
                        -----------------------------------------
Magnitude (a.u.)       :      1.82194
Magnitude (Debye)      :      4.63099

Rotational constants in cm-1:     0.000961     0.000760     0.000461
Rotational constants in MHz :    28.815084    22.789656    13.813238

                             ****ORCA TERMINATED NORMALLY****
TOTAL RUN TIME: 0 days 0 hours 11 minutes 10 seconds 329 msec
