                         Program Version 4.2.0 -  RELEASE  -
|  1> # ORCA input file
|  2> # SCF done       -188.989981042795          0.000813935950
|  3> ! CAM-B3LYP def2-SVP def2/J RIJCOSX Grid4 TightSCF
|  4> %maxcore 5000
|  5> %tddft
|  6>     Mode sTDDFT
|  7>     Ethresh 5.0
|  8>     maxcore 5000
|  9> end
| 10>
| 11> %pal
| 12>   nprocs 6
| 13>   end
| 14> * xyz 0 1
| 15>    C        3.44866        -2.33889        -1.47803
| 16>    C        2.72257        -2.19187        -0.33471
| 17>    C        2.31496        -0.85641        -0.15672
| 18>    C        2.75460        -0.02140        -1.19050
| 19>    S        3.65742        -0.86731        -2.36625
| 20>    C        2.29887         1.30411        -0.93280
| 21>    C        1.57112         1.29326         0.26772
| 22>    C        1.55749        -0.06362         0.79610
| 23>    C        0.95820        -0.49289         1.94395
| 24>    C        0.24407         0.37852         2.79346
| 25>    N       -0.33916         1.07643         3.49172
| 26>    C        1.01131        -1.83990         2.35983
| 27>    N        1.05227        -2.93352         2.70216
| 28>    C        1.07606         2.54907         0.61155
| 29>    C        1.42123         3.51555        -0.31628
| 30>    S        2.37648         2.84942        -1.63526
| 31>    C        1.07314         4.90501        -0.27179
| 32>    C        1.46003         5.82320        -1.23778
| 33>    F        2.19778         5.41453        -2.28717
| 34>    C        1.11114         7.18378        -1.20560
| 35>    F        1.50973         7.94450        -2.23395
| 36>    C        0.34170         7.73272        -0.20219
| 37>    C       -0.07111         6.84282         0.81435
| 38>    C        0.28621         5.44891         0.78528
| 39>    N       -0.19918         4.80207         1.84222
| 40>    S       -1.00347         5.83287         2.77261
| 41>    N       -0.78192         7.15620         1.89582
| 42>    C       -0.06043         9.13631        -0.18306
| 43>    C        0.82921        10.18004        -0.32110
| 44>    F        2.13962         9.93110        -0.44111
| 45>    C        0.42907        11.52715        -0.29668
| 46>    F        1.40019        12.44824        -0.43125
| 47>    C       -0.88722        11.93719        -0.13944
| 48>    C       -1.82844        10.87799         0.01250
| 49>    C       -1.41504         9.49965        -0.01120
| 50>    N       -2.44576         8.66550         0.11193
| 51>    S       -3.79059         9.52069         0.27224
| 52>    N       -3.14520        10.98689         0.17352
| 53>    C       -1.29183        13.31328        -0.14439
| 54>    C       -2.58894        13.78748        -0.04659
| 55>    C       -2.64437        15.17662        -0.11729
| 56>    C       -1.37447        15.76552        -0.26232
| 57>    S       -0.12246        14.61287        -0.31406
| 58>    C       -1.53807        17.17077        -0.34394
| 59>    C       -2.91539        17.46962        -0.26200
| 60>    C       -3.65127        16.22612        -0.09307
| 61>    C       -4.99529        16.07098         0.07373
| 62>    C       -5.89136        17.16078         0.13438
| 63>    N       -6.63680        18.02794         0.21288
| 64>    C       -5.58903        14.79893         0.22422
| 65>    N       -6.08143        13.77087         0.34629
| 66>    C       -3.18775        18.82651        -0.38519
| 67>    C       -2.03244        19.57712        -0.55415
| 68>    S       -0.58351        18.56355        -0.52721
| 69>    C       -1.82496        20.96660        -0.69101
| 70>    C       -2.70584        21.94063        -1.06539
| 71>    C       -2.39383        23.36010        -1.09418
| 72>    C       -1.36416        23.97802        -0.43295
| 73>    C       -1.11848        25.36643        -0.47678
| 74>    N       -0.86218        26.48546        -0.47998
| 75>    C       -0.43850        23.33035         0.41216
| 76>    N        0.33449        22.87621         1.13005
| 77>    C       -3.42489        24.02755        -1.87525
| 78>    C       -4.40397        23.07070        -2.24205
| 79>    C       -4.02434        21.74549        -1.72292
| 80>    O       -4.64399        20.71434        -1.87189
| 81>    C       -5.51425        23.39438        -2.98429
| 82>    C       -5.66408        24.72450        -3.38737
| 83>    C       -4.67760        25.67263        -3.02183
| 84>    C       -3.55651        25.34620        -2.26815
| 85>    S       -5.06271        27.24869        -3.63700
| 86>    C       -6.51062        26.63931        -4.36056
| 87>    C       -6.70436        25.31803        -4.15619
| 88>    H        3.88536        -3.23727        -1.86619
| 89>    H        2.49632        -2.99944         0.33714
| 90>    H        0.49293         2.77703         1.48417
| 91>    H       -3.43041        13.12912         0.06350
| 92>    H       -4.16845        19.26306        -0.35903
| 93>    H       -0.80250        21.27523        -0.50422
| 94>    H       -6.24315        22.64250        -3.24402
| 95>    H       -2.83038        26.10225        -2.02008
| 96>    H       -7.13700        27.31987        -4.90386
| 97>    H       -7.54842        24.76784        -4.53075
| 98> *
| 99>
|100>                          ****END OF INPUT****

CARTESIAN COORDINATES (ANGSTROEM)
---------------------------------
  C      3.448660   -2.338890   -1.478030
  C      2.722570   -2.191870   -0.334710
  C      2.314960   -0.856410   -0.156720
  C      2.754600   -0.021400   -1.190500
  S      3.657420   -0.867310   -2.366250
  C      2.298870    1.304110   -0.932800
  C      1.571120    1.293260    0.267720
  C      1.557490   -0.063620    0.796100
  C      0.958200   -0.492890    1.943950
  C      0.244070    0.378520    2.793460
  N     -0.339160    1.076430    3.491720
  C      1.011310   -1.839900    2.359830
  N      1.052270   -2.933520    2.702160
  C      1.076060    2.549070    0.611550
  C      1.421230    3.515550   -0.316280
  S      2.376480    2.849420   -1.635260
  C      1.073140    4.905010   -0.271790
  C      1.460030    5.823200   -1.237780
  F      2.197780    5.414530   -2.287170
  C      1.111140    7.183780   -1.205600
  F      1.509730    7.944500   -2.233950
  C      0.341700    7.732720   -0.202190
  C     -0.071110    6.842820    0.814350
  C      0.286210    5.448910    0.785280
  N     -0.199180    4.802070    1.842220
  S     -1.003470    5.832870    2.772610
  N     -0.781920    7.156200    1.895820
  C     -0.060430    9.136310   -0.183060
  C      0.829210   10.180040   -0.321100
  F      2.139620    9.931100   -0.441110
  C      0.429070   11.527150   -0.296680
  F      1.400190   12.448240   -0.431250
  C     -0.887220   11.937190   -0.139440
  C     -1.828440   10.877990    0.012500
  C     -1.415040    9.499650   -0.011200
  N     -2.445760    8.665500    0.111930
  S     -3.790590    9.520690    0.272240
  N     -3.145200   10.986890    0.173520
  C     -1.291830   13.313280   -0.144390
  C     -2.588940   13.787480   -0.046590
  C     -2.644370   15.176620   -0.117290
  C     -1.374470   15.765520   -0.262320
  S     -0.122460   14.612870   -0.314060
  C     -1.538070   17.170770   -0.343940
  C     -2.915390   17.469620   -0.262000
  C     -3.651270   16.226120   -0.093070
  C     -4.995290   16.070980    0.073730
  C     -5.891360   17.160780    0.134380
  N     -6.636800   18.027940    0.212880
  C     -5.589030   14.798930    0.224220
  N     -6.081430   13.770870    0.346290
  C     -3.187750   18.826510   -0.385190
  C     -2.032440   19.577120   -0.554150
  S     -0.583510   18.563550   -0.527210
  C     -1.824960   20.966600   -0.691010
  C     -2.705840   21.940630   -1.065390
  C     -2.393830   23.360100   -1.094180
  C     -1.364160   23.978020   -0.432950
  C     -1.118480   25.366430   -0.476780
  N     -0.862180   26.485460   -0.479980
  C     -0.438500   23.330350    0.412160
  N      0.334490   22.876210    1.130050
  C     -3.424890   24.027550   -1.875250
  C     -4.403970   23.070700   -2.242050
  C     -4.024340   21.745490   -1.722920
  O     -4.643990   20.714340   -1.871890
  C     -5.514250   23.394380   -2.984290
  C     -5.664080   24.724500   -3.387370
  C     -4.677600   25.672630   -3.021830
  C     -3.556510   25.346200   -2.268150
  S     -5.062710   27.248690   -3.637000
  C     -6.510620   26.639310   -4.360560
  C     -6.704360   25.318030   -4.156190
  H      3.885360   -3.237270   -1.866190
  H      2.496320   -2.999440    0.337140
  H      0.492930    2.777030    1.484170
  H     -3.430410   13.129120    0.063500
  H     -4.168450   19.263060   -0.359030
  H     -0.802500   21.275230   -0.504220
  H     -6.243150   22.642500   -3.244020
  H     -2.830380   26.102250   -2.020080
  H     -7.137000   27.319870   -4.903860
  H     -7.548420   24.767840   -4.530750

 Total Charge           Charge          ....    0
 Multiplicity           Mult            ....    1
 Number of Electrons    NEL             ....  542
 Basis Dimension        Dim             .... 1100

ORBITAL ENERGIES
----------------

  NO   OCC          E(Eh)            E(eV)
   0   2.0000     -89.037560     -2422.8352
   1   2.0000     -89.034968     -2422.7647
   2   2.0000     -88.995788     -2421.6985
   3   2.0000     -88.994834     -2421.6725
   4   2.0000     -88.987534     -2421.4739
   5   2.0000     -88.987262     -2421.4665
   6   2.0000     -88.966526     -2420.9022
   7   2.0000     -24.822011      -675.4413
   8   2.0000     -24.817030      -675.3057
   9   2.0000     -24.811711      -675.1610
  10   2.0000     -24.810787      -675.1358
  11   2.0000     -19.217584      -522.9370
  12   2.0000     -14.452136      -393.2626
  13   2.0000     -14.450325      -393.2133
  14   2.0000     -14.449699      -393.1963
  15   2.0000     -14.447590      -393.1389
  16   2.0000     -14.430610      -392.6769
  17   2.0000     -14.428630      -392.6230
  18   2.0000     -14.426922      -392.5765
  19   2.0000     -14.426148      -392.5554
  20   2.0000     -14.415499      -392.2657
  21   2.0000     -14.414095      -392.2275
  22   2.0000     -10.397054      -282.9182
  23   2.0000     -10.396394      -282.9003
  24   2.0000     -10.394925      -282.8603
  25   2.0000     -10.391357      -282.7632
  26   2.0000     -10.369350      -282.1644
  27   2.0000     -10.366557      -282.0884
  28   2.0000     -10.360444      -281.9220
  29   2.0000     -10.353495      -281.7329
  30   2.0000     -10.348396      -281.5942
  31   2.0000     -10.346159      -281.5333
  32   2.0000     -10.345101      -281.5045
  33   2.0000     -10.342928      -281.4454
  34   2.0000     -10.342856      -281.4434
  35   2.0000     -10.341629      -281.4100
  36   2.0000     -10.340881      -281.3897
  37   2.0000     -10.340439      -281.3776
  38   2.0000     -10.335488      -281.2429
  39   2.0000     -10.334838      -281.2252
  40   2.0000     -10.333681      -281.1938
  41   2.0000     -10.330596      -281.1098
  42   2.0000     -10.330582      -281.1094
  43   2.0000     -10.328873      -281.0629
  44   2.0000     -10.328245      -281.0458
  45   2.0000     -10.328108      -281.0421
  46   2.0000     -10.327885      -281.0360
  47   2.0000     -10.327430      -281.0237
  48   2.0000     -10.327336      -281.0211
  49   2.0000     -10.326577      -281.0004
  50   2.0000     -10.325323      -280.9663
  51   2.0000     -10.324626      -280.9474
  52   2.0000     -10.321149      -280.8528
  53   2.0000     -10.320394      -280.8322
  54   2.0000     -10.318553      -280.7821
  55   2.0000     -10.317019      -280.7404
  56   2.0000     -10.313979      -280.6576
  57   2.0000     -10.312100      -280.6065
  58   2.0000     -10.308358      -280.5047
  59   2.0000     -10.308279      -280.5025
  60   2.0000     -10.307568      -280.4832
  61   2.0000     -10.305940      -280.4389
  62   2.0000     -10.303083      -280.3612
  63   2.0000     -10.301501      -280.3181
  64   2.0000     -10.301392      -280.3151
  65   2.0000     -10.300041      -280.2784
  66   2.0000     -10.299414      -280.2613
  67   2.0000     -10.298356      -280.2325
  68   2.0000     -10.297119      -280.1989
  69   2.0000     -10.297037      -280.1966
  70   2.0000     -10.294260      -280.1211
  71   2.0000     -10.290153      -280.0093
  72   2.0000     -10.288756      -279.9713
  73   2.0000      -8.129224      -221.2074
  74   2.0000      -8.126517      -221.1338
  75   2.0000      -8.090580      -220.1559
  76   2.0000      -8.088768      -220.1066
  77   2.0000      -8.082283      -219.9301
  78   2.0000      -8.081730      -219.9151
  79   2.0000      -8.062722      -219.3978
  80   2.0000      -6.100466      -166.0021
  81   2.0000      -6.097760      -165.9285
  82   2.0000      -6.092589      -165.7878
  83   2.0000      -6.091647      -165.7621
  84   2.0000      -6.089936      -165.7156
  85   2.0000      -6.088945      -165.6886
  86   2.0000      -6.059682      -164.8923
  87   2.0000      -6.058088      -164.8489
  88   2.0000      -6.055564      -164.7803
  89   2.0000      -6.053650      -164.7282
  90   2.0000      -6.053121      -164.7138
  91   2.0000      -6.051533      -164.6706
  92   2.0000      -6.051266      -164.6633
  93   2.0000      -6.051014      -164.6565
  94   2.0000      -6.047078      -164.5493
  95   2.0000      -6.046622      -164.5370
  96   2.0000      -6.044906      -164.4902
  97   2.0000      -6.044182      -164.4706
  98   2.0000      -6.032246      -164.1458
  99   2.0000      -6.027918      -164.0280
 100   2.0000      -6.024420      -163.9328
 101   2.0000      -1.341597       -36.5067
 102   2.0000      -1.337433       -36.3934
 103   2.0000      -1.322805       -35.9953
 104   2.0000      -1.318326       -35.8735
 105   2.0000      -1.140807       -31.0429
 106   2.0000      -1.137231       -30.9456
 107   2.0000      -1.133215       -30.8363
 108   2.0000      -1.049493       -28.5582
 109   2.0000      -1.041024       -28.3277
 110   2.0000      -1.022333       -27.8191
 111   2.0000      -1.020134       -27.7593
 112   2.0000      -1.018448       -27.7134
 113   2.0000      -1.009250       -27.4631
 114   2.0000      -1.007951       -27.4278
 115   2.0000      -1.006127       -27.3781
 116   2.0000      -1.004240       -27.3267
 117   2.0000      -1.003684       -27.3116
 118   2.0000      -1.000966       -27.2377
 119   2.0000      -0.993525       -27.0352
 120   2.0000      -0.990992       -26.9663
 121   2.0000      -0.985219       -26.8092
 122   2.0000      -0.984568       -26.7915
 123   2.0000      -0.977530       -26.5999
 124   2.0000      -0.960998       -26.1501
 125   2.0000      -0.953127       -25.9359
 126   2.0000      -0.932797       -25.3827
 127   2.0000      -0.922473       -25.1018
 128   2.0000      -0.913999       -24.8712
 129   2.0000      -0.902683       -24.5633
 130   2.0000      -0.894970       -24.3534
 131   2.0000      -0.881054       -23.9747
 132   2.0000      -0.878617       -23.9084
 133   2.0000      -0.876004       -23.8373
 134   2.0000      -0.875476       -23.8229
 135   2.0000      -0.872622       -23.7452
 136   2.0000      -0.862434       -23.4680
 137   2.0000      -0.858887       -23.3715
 138   2.0000      -0.855049       -23.2671
 139   2.0000      -0.849833       -23.1251
 140   2.0000      -0.822856       -22.3910
 141   2.0000      -0.820605       -22.3298
 142   2.0000      -0.803805       -21.8727
 143   2.0000      -0.787117       -21.4185
 144   2.0000      -0.778392       -21.1811
 145   2.0000      -0.775006       -21.0890
 146   2.0000      -0.765630       -20.8338
 147   2.0000      -0.760339       -20.6899
 148   2.0000      -0.757362       -20.6089
 149   2.0000      -0.740024       -20.1371
 150   2.0000      -0.735393       -20.0111
 151   2.0000      -0.728611       -19.8265
 152   2.0000      -0.723809       -19.6958
 153   2.0000      -0.712917       -19.3995
 154   2.0000      -0.700317       -19.0566
 155   2.0000      -0.697244       -18.9730
 156   2.0000      -0.691668       -18.8213
 157   2.0000      -0.690233       -18.7822
 158   2.0000      -0.684408       -18.6237
 159   2.0000      -0.680634       -18.5210
 160   2.0000      -0.678250       -18.4561
 161   2.0000      -0.668259       -18.1842
 162   2.0000      -0.663034       -18.0421
 163   2.0000      -0.661464       -17.9994
 164   2.0000      -0.654675       -17.8146
 165   2.0000      -0.650611       -17.7040
 166   2.0000      -0.648274       -17.6404
 167   2.0000      -0.647226       -17.6119
 168   2.0000      -0.641941       -17.4681
 169   2.0000      -0.635916       -17.3042
 170   2.0000      -0.631068       -17.1722
 171   2.0000      -0.625729       -17.0270
 172   2.0000      -0.620328       -16.8800
 173   2.0000      -0.616487       -16.7755
 174   2.0000      -0.615719       -16.7546
 175   2.0000      -0.610987       -16.6258
 176   2.0000      -0.605043       -16.4641
 177   2.0000      -0.603556       -16.4236
 178   2.0000      -0.599466       -16.3123
 179   2.0000      -0.593335       -16.1455
 180   2.0000      -0.587064       -15.9748
 181   2.0000      -0.577808       -15.7230
 182   2.0000      -0.573185       -15.5972
 183   2.0000      -0.568477       -15.4691
 184   2.0000      -0.566374       -15.4118
 185   2.0000      -0.564264       -15.3544
 186   2.0000      -0.561454       -15.2779
 187   2.0000      -0.557803       -15.1786
 188   2.0000      -0.555372       -15.1124
 189   2.0000      -0.554833       -15.0978
 190   2.0000      -0.550565       -14.9816
 191   2.0000      -0.550093       -14.9688
 192   2.0000      -0.543007       -14.7760
 193   2.0000      -0.542376       -14.7588
 194   2.0000      -0.540608       -14.7107
 195   2.0000      -0.539026       -14.6676
 196   2.0000      -0.533988       -14.5306
 197   2.0000      -0.524477       -14.2717
 198   2.0000      -0.521825       -14.1996
 199   2.0000      -0.520694       -14.1688
 200   2.0000      -0.517280       -14.0759
 201   2.0000      -0.512819       -13.9545
 202   2.0000      -0.511870       -13.9287
 203   2.0000      -0.506527       -13.7833
 204   2.0000      -0.502681       -13.6786
 205   2.0000      -0.501242       -13.6395
 206   2.0000      -0.501019       -13.6334
 207   2.0000      -0.496429       -13.5085
 208   2.0000      -0.495398       -13.4805
 209   2.0000      -0.494101       -13.4452
 210   2.0000      -0.491339       -13.3700
 211   2.0000      -0.489785       -13.3277
 212   2.0000      -0.488606       -13.2956
 213   2.0000      -0.487913       -13.2768
 214   2.0000      -0.486892       -13.2490
 215   2.0000      -0.482322       -13.1246
 216   2.0000      -0.479891       -13.0585
 217   2.0000      -0.474735       -12.9182
 218   2.0000      -0.473077       -12.8731
 219   2.0000      -0.471536       -12.8312
 220   2.0000      -0.470268       -12.7966
 221   2.0000      -0.460981       -12.5439
 222   2.0000      -0.458227       -12.4690
 223   2.0000      -0.456775       -12.4295
 224   2.0000      -0.454429       -12.3656
 225   2.0000      -0.453955       -12.3527
 226   2.0000      -0.452404       -12.3105
 227   2.0000      -0.450662       -12.2631
 228   2.0000      -0.448156       -12.1949
 229   2.0000      -0.447595       -12.1797
 230   2.0000      -0.447285       -12.1712
 231   2.0000      -0.442745       -12.0477
 232   2.0000      -0.440557       -11.9882
 233   2.0000      -0.439301       -11.9540
 234   2.0000      -0.439033       -11.9467
 235   2.0000      -0.438315       -11.9271
 236   2.0000      -0.436661       -11.8821
 237   2.0000      -0.435442       -11.8490
 238   2.0000      -0.434512       -11.8237
 239   2.0000      -0.433867       -11.8061
 240   2.0000      -0.432469       -11.7681
 241   2.0000      -0.426666       -11.6102
 242   2.0000      -0.425553       -11.5799
 243   2.0000      -0.423855       -11.5337
 244   2.0000      -0.422842       -11.5061
 245   2.0000      -0.422010       -11.4835
 246   2.0000      -0.418698       -11.3933
 247   2.0000      -0.416224       -11.3260
 248   2.0000      -0.411700       -11.2029
 249   2.0000      -0.409142       -11.1333
 250   2.0000      -0.405868       -11.0442
 251   2.0000      -0.403796       -10.9879
 252   2.0000      -0.384718       -10.4687
 253   2.0000      -0.382461       -10.4073
 254   2.0000      -0.374960       -10.2032
 255   2.0000      -0.373184       -10.1549
 256   2.0000      -0.369203       -10.0465
 257   2.0000      -0.353671        -9.6239
 258   2.0000      -0.352242        -9.5850
 259   2.0000      -0.344407        -9.3718
 260   2.0000      -0.341488        -9.2924
 261   2.0000      -0.339920        -9.2497
 262   2.0000      -0.338260        -9.2045
 263   2.0000      -0.330059        -8.9814
 264   2.0000      -0.324007        -8.8167
 265   2.0000      -0.318169        -8.6578
 266   2.0000      -0.314323        -8.5532
 267   2.0000      -0.310144        -8.4394
 268   2.0000      -0.294295        -8.0082
 269   2.0000      -0.270676        -7.3655
 270   2.0000      -0.259601        -7.0641
 271   0.0000      -0.113805        -3.0968
 272   0.0000      -0.100854        -2.7444
 273   0.0000      -0.089018        -2.4223
 274   0.0000      -0.082310        -2.2398
 275   0.0000      -0.070745        -1.9251

MULLIKEN ATOMIC CHARGES
-----------------------
   0 C :   -0.077912
   1 C :    0.032850
   2 C :   -0.025799
   3 C :   -0.124083
   4 S :    0.184275
   5 C :   -0.087728
   6 C :    0.023177
   7 C :    0.302287
   8 C :   -0.303659
   9 C :   -0.186709
  10 N :    0.173179
  11 C :   -0.192633
  12 N :    0.172127
  13 C :   -0.050007
  14 C :   -0.151466
  15 S :    0.200630
  16 C :    0.136056
  17 C :    0.105517
  18 F :   -0.176699
  19 C :    0.180307
  20 F :   -0.160499
  21 C :   -0.044926
  22 C :    0.040311
  23 C :   -0.015204
  24 N :   -0.282142
  25 S :    0.535620
  26 N :   -0.266734
  27 C :   -0.042519
  28 C :    0.179762
  29 F :   -0.159204
  30 C :    0.113474
  31 F :   -0.174164
  32 C :    0.128767
  33 C :   -0.006166
  34 C :    0.029690
  35 N :   -0.259881
  36 S :    0.539237
  37 N :   -0.284497
  38 C :   -0.140677
  39 C :   -0.055734
  40 C :    0.034685
  41 C :   -0.092462
  42 S :    0.212635
  43 C :   -0.088982
  44 C :   -0.019312
  45 C :    0.309944
  46 C :   -0.296485
  47 C :   -0.191116
  48 N :    0.188352
  49 C :   -0.187996
  50 N :    0.172014
  51 C :    0.032176
  52 C :   -0.115697
  53 S :    0.207248
  54 C :    0.027450
  55 C :   -0.089000
  56 C :    0.294353
  57 C :   -0.343642
  58 C :   -0.185475
  59 N :    0.150704
  60 C :   -0.203905
  61 N :    0.156384
  62 C :    0.018917
  63 C :   -0.018620
  64 C :    0.151092
  65 O :   -0.152557
  66 C :   -0.065829
  67 C :    0.114452
  68 C :   -0.095956
  69 C :   -0.022391
  70 S :    0.141138
  71 C :   -0.047816
  72 C :    0.025500
  73 H :    0.036284
  74 H :    0.012771
  75 H :    0.023908
  76 H :    0.025022
  77 H :    0.032377
  78 H :    0.022490
  79 H :   -0.008792
  80 H :   -0.006052
  81 H :    0.039375
  82 H :   -0.005412
Sum of atomic charges:   -0.0000000

LOEWDIN ATOMIC CHARGES
----------------------
   0 C :   -0.175836
   1 C :   -0.034869
   2 C :   -0.072479
   3 C :   -0.186466
   4 S :    0.479345
   5 C :   -0.178059
   6 C :   -0.076632
   7 C :    0.082923
   8 C :   -0.104374
   9 C :   -0.016984
  10 N :   -0.033808
  11 C :   -0.016906
  12 N :   -0.035286
  13 C :   -0.010673
  14 C :   -0.176002
  15 S :    0.491140
  16 C :   -0.052726
  17 C :    0.054273
  18 F :   -0.051031
  19 C :    0.080648
  20 F :   -0.040545
  21 C :   -0.057707
  22 C :   -0.038956
  23 C :   -0.041320
  24 N :   -0.275345
  25 S :    0.664018
  26 N :   -0.276008
  27 C :   -0.048469
  28 C :    0.077368
  29 F :   -0.039483
  30 C :    0.061597
  31 F :   -0.047912
  32 C :   -0.059648
  33 C :   -0.040356
  34 C :   -0.039517
  35 N :   -0.272126
  36 S :    0.667240
  37 N :   -0.277434
  38 C :   -0.161753
  39 C :   -0.015111
  40 C :   -0.060385
  41 C :   -0.189811
  42 S :    0.497232
  43 C :   -0.160791
  44 C :   -0.072636
  45 C :    0.076984
  46 C :   -0.094806
  47 C :   -0.020345
  48 N :   -0.020831
  49 C :   -0.016090
  50 N :   -0.030035
  51 C :    0.021971
  52 C :   -0.177128
  53 S :    0.494850
  54 C :    0.041429
  55 C :   -0.092951
  56 C :    0.076148
  57 C :   -0.142752
  58 C :   -0.018576
  59 N :   -0.053218
  60 C :   -0.025486
  61 N :   -0.053600
  62 C :   -0.023052
  63 C :   -0.052854
  64 C :    0.085173
  65 O :   -0.138432
  66 C :    0.024933
  67 C :   -0.034430
  68 C :   -0.145262
  69 C :   -0.008670
  70 S :    0.430187
  71 C :   -0.148906
  72 C :   -0.057188
  73 H :    0.027759
  74 H :    0.042775
  75 H :    0.038397
  76 H :    0.039062
  77 H :    0.044961
  78 H :    0.043849
  79 H :    0.041578
  80 H :    0.040779
  81 H :    0.029599
  82 H :    0.035834

  Mayer bond orders larger than 0.100000
B(  0-C ,  1-C ) :   1.5474 B(  0-C ,  4-S ) :   1.1536 B(  0-C , 73-H ) :   0.9640
B(  1-C ,  2-C ) :   1.2779 B(  1-C , 74-H ) :   0.9959 B(  2-C ,  3-C ) :   1.4612
B(  2-C ,  7-C ) :   1.0106 B(  3-C ,  4-S ) :   1.1354 B(  3-C ,  5-C ) :   1.1795
B(  5-C ,  6-C ) :   1.4415 B(  5-C , 15-S ) :   1.1230 B(  6-C ,  7-C ) :   0.9978
B(  6-C , 13-C ) :   1.2546 B(  7-C ,  8-C ) :   1.7078 B(  8-C ,  9-C ) :   1.1381
B(  8-C , 11-C ) :   1.1311 B(  9-C , 10-N ) :   2.9870 B( 11-C , 12-N ) :   3.0022
B( 13-C , 14-C ) :   1.4759 B( 13-C , 75-H ) :   0.9792 B( 14-C , 15-S ) :   1.0885
B( 14-C , 16-C ) :   1.1458 B( 16-C , 17-C ) :   1.3824 B( 16-C , 21-C ) :   0.1280
B( 16-C , 23-C ) :   1.1697 B( 17-C , 18-F ) :   1.1254 B( 17-C , 19-C ) :   1.1314
B( 19-C , 20-F ) :   1.1838 B( 19-C , 21-C ) :   1.4647 B( 21-C , 22-C ) :   1.2447
B( 21-C , 27-C ) :   0.9063 B( 22-C , 23-C ) :   1.1464 B( 22-C , 26-N ) :   1.5374
B( 23-C , 24-N ) :   1.5432 B( 24-N , 25-S ) :   1.2626 B( 24-N , 26-N ) :   0.1448
B( 25-S , 26-N ) :   1.2744 B( 27-C , 28-C ) :   1.4669 B( 27-C , 32-C ) :   0.1272
B( 27-C , 34-C ) :   1.2455 B( 28-C , 29-F ) :   1.1853 B( 28-C , 30-C ) :   1.1285
B( 30-C , 31-F ) :   1.1291 B( 30-C , 32-C ) :   1.3840 B( 32-C , 33-C ) :   1.1735
B( 32-C , 38-C ) :   1.1400 B( 33-C , 34-C ) :   1.1466 B( 33-C , 37-N ) :   1.5415
B( 34-C , 35-N ) :   1.5397 B( 35-N , 36-S ) :   1.2789 B( 35-N , 37-N ) :   0.1445
B( 36-S , 37-N ) :   1.2601 B( 38-C , 39-C ) :   1.4697 B( 38-C , 42-S ) :   1.1016
B( 39-C , 40-C ) :   1.2616 B( 39-C , 76-H ) :   0.9781 B( 40-C , 41-C ) :   1.4238
B( 40-C , 45-C ) :   0.9986 B( 41-C , 42-S ) :   1.1077 B( 41-C , 43-C ) :   1.1970
B( 43-C , 44-C ) :   1.3938 B( 43-C , 53-S ) :   1.1641 B( 44-C , 45-C ) :   0.9903
B( 44-C , 51-C ) :   1.3289 B( 45-C , 46-C ) :   1.7167 B( 46-C , 47-C ) :   1.1333
B( 46-C , 49-C ) :   1.1389 B( 47-C , 48-N ) :   2.9967 B( 49-C , 50-N ) :   2.9839
B( 51-C , 52-C ) :   1.4117 B( 51-C , 77-H ) :   0.9760 B( 52-C , 53-S ) :   1.0771
B( 52-C , 54-C ) :   1.1898 B( 54-C , 55-C ) :   1.6105 B( 54-C , 78-H ) :   0.9255
B( 55-C , 56-C ) :   1.0679 B( 55-C , 64-C ) :   0.9409 B( 56-C , 57-C ) :   1.6348
B( 56-C , 62-C ) :   1.0061 B( 57-C , 58-C ) :   1.1414 B( 57-C , 60-C ) :   1.1388
B( 58-C , 59-N ) :   2.9742 B( 60-C , 61-N ) :   2.9941 B( 62-C , 63-C ) :   1.2659
B( 62-C , 69-C ) :   1.4117 B( 63-C , 64-C ) :   0.9497 B( 63-C , 66-C ) :   1.4272
B( 64-C , 65-O ) :   2.1918 B( 66-C , 67-C ) :   1.2446 B( 66-C , 79-H ) :   1.0161
B( 67-C , 68-C ) :   1.3007 B( 67-C , 72-C ) :   1.1729 B( 68-C , 69-C ) :   1.3239
B( 68-C , 70-S ) :   1.0995 B( 69-C , 80-H ) :   0.9826 B( 70-S , 71-C ) :   1.1261
B( 71-C , 72-C ) :   1.6291 B( 71-C , 81-H ) :   0.9683 B( 72-C , 82-H ) :   0.9991

-----------------------------------------------------------------------------
         ABSORPTION SPECTRUM VIA TRANSITION ELECTRIC DIPOLE MOMENTS
-----------------------------------------------------------------------------
State   Energy  Wavelength   fosc         T2         TX        TY        TZ
        (cm-1)    (nm)                  (au**2)     (au)      (au)      (au)
-----------------------------------------------------------------------------
   0   14856.8    673.1   0.486697728  10.78476   0.53561  -3.23224   0.22472
   1   15912.5    628.4   0.067819860   1.40312  -0.38534   1.10966   0.15259
   2   20670.4    483.8   1.917381796  30.53764   0.96380  -5.43211   0.31763
   3   22735.4    439.8   0.046193347   0.66889   0.57619   0.46662  -0.34520
   4   24182.0    413.5   0.054709349   0.74481   0.36164  -0.77491  -0.11634
   5   25096.5    398.5   0.057579897   0.75532  -0.14729  -0.85615   0.02508
   6   25923.4    385.8   0.059087555   0.75038   0.71225  -0.33375   0.36288
   7   26692.6    374.6   0.010592532   0.13064  -0.04571   0.25174  -0.25530
   8   27486.0    363.8   0.008019351   0.09605   0.14715  -0.08378  -0.25958
   9   27857.7    359.0   0.048786991   0.57655   0.45665  -0.46288   0.39213
  10   28565.3    350.1   0.006589359   0.07594   0.12650  -0.21726   0.11287
  11   29039.6    344.4   0.023962869   0.27166   0.21542  -0.47449   0.01066
  12   29643.9    337.3   0.078739954   0.87445  -0.13471  -0.63367   0.67436
  13   30022.4    333.1   0.021725581   0.23823   0.20170  -0.44426   0.01348
  14   30572.8    327.1   0.230759369   2.48485   1.55004   0.19099  -0.21387
  15   31045.6    322.1   0.569004089   6.03379  -1.75184   1.25839  -1.17529
  16   31209.1    320.4   0.149535757   1.57739  -0.80944  -0.69288   0.66491
  17   32043.9    312.1   0.467567535   4.80368  -1.08244   0.23571   1.89115
  18   32221.2    310.4   0.094232516   0.96280  -0.14074   0.93227  -0.27176
  19   32323.8    309.4   0.254000606   2.58695   0.41747   1.43565  -0.59295
  20   32784.6    305.0   0.131693800   1.32242  -0.68056   0.77695  -0.50559
  21   33450.4    299.0   0.003104779   0.03056  -0.06105   0.12848   0.10159
  22   33797.6    295.9   0.070111448   0.68293   0.00902   0.81745  -0.12096
  23   33965.4    294.4   0.000423416   0.00410  -0.05328  -0.01244  -0.03333
  24   34070.4    293.5   0.004221223   0.04079   0.01533  -0.10944   0.16905
  25   34420.1    290.5   0.221088534   2.11461  -1.41631  -0.09864   0.31457
  26   34555.3    289.4   0.401627150   3.82634   1.67416  -0.04021   1.01090
  27   34859.2    286.9   0.060033216   0.56696   0.61927  -0.07358   0.42196
  28   35558.0    281.2   0.181264267   1.67822  -0.74681  -0.04720   1.05748
  29   35583.9    281.0   0.036621659   0.33881   0.18436  -0.55146   0.02678
  30   35886.3    278.7   0.068432277   0.62778   0.07775  -0.72109   0.31900
  31   36349.7    275.1   0.188603368   1.70814   0.58576  -1.13277  -0.28609
  32   36916.4    270.9   0.056204447   0.50122  -0.58041   0.35683  -0.19239
  33   37231.6    268.6   0.150839301   1.33376   0.21805  -1.13271  -0.05631
  34   37338.5    267.8   0.020067856   0.17694   0.38358  -0.15612  -0.07370
  35   37521.8    266.5   0.153447305   1.34633  -0.00109  -1.12388  -0.28847
  36   37932.9    263.6   0.250549699   2.17447   0.40049  -1.41794  -0.05949
  37   38095.4    262.5   0.095273615   0.82333  -0.57539  -0.70153   0.01047
  38   38390.4    260.5   0.032144222   0.27565  -0.46306  -0.14181  -0.20276
  39   38437.8    260.2   0.111560451   0.95549  -0.18062  -0.95555   0.09894
  40   38543.9    259.4   0.058666846   0.50109  -0.56275   0.38988   0.17999
  41   38760.6    258.0   0.081595956   0.69303  -0.38336  -0.70201  -0.23078
  42   38856.2    257.4   0.021390137   0.18123  -0.31090   0.29039   0.01572
  43   39145.4    255.5   0.071756642   0.60347  -0.69427   0.05504   0.34413
  44   39367.6    254.0   0.091884153   0.76838  -0.05921  -0.74712  -0.45463
  45   39612.0    252.4   0.175386322   1.45762   0.50666   1.01327  -0.41736
  46   39909.4    250.6   0.054357593   0.44839  -0.10471   0.62203  -0.22473
  47   40223.4    248.6   0.043621195   0.35702   0.07110  -0.57279   0.15454

FINAL SINGLE POINT ENERGY     -5754.213416327016

DIPOLE MOMENT
-------------
                                X             Y             Z
Electronic contribution:     24.54978     -41.17832       3.98941
Nuclear contribution   :    -24.27421      39.99351      -6.76770
                        -----------------------------------------
Total Dipole Moment    :      0.27558      -1.18481      -2.77830
                        -----------------------------------------
Magnitude (a.u.)       :      3.03293
Magnitude (Debye)      :      7.70909

Rotational constants in cm-1:     0.002963     0.000180     0.000177
Rotational constants in MHz :    88.842741     5.408565     5.307970

                             ****ORCA TERMINATED NORMALLY****
TOTAL RUN TIME: 0 days 0 hours 8 minutes 25 seconds 553 msec
