                         Program Version 4.2.0 -  RELEASE  -
|  1> # ORCA input file
|  2> # SCF done       -158.051971841160          0.004119173396
|  3> ! CAM-B3LYP def2-SVP def2/J RIJCOSX Grid4 TightSCF
|  4> %maxcore 5000
|  5> %tddft
|  6>     Mode sTDDFT
|  7>     Ethresh 5.0
|  8>     maxcore 5000
|  9> end
| 10>
| 11> %pal
| 12>   nprocs 6
| 13>   end
| 14> * xyz 0 1
| 15>    C        2.69600         8.08081         9.47366
| 16>    C        3.30075         8.93093         8.59894
| 17>    C        2.68804         8.88493         7.33096
| 18>    C        1.61584         7.98480         7.28869
| 19>    S        1.36601         7.20380         8.78642
| 20>    C        1.05464         8.00897         5.98010
| 21>    C        1.77972         8.91971         5.20195
| 22>    C        2.82577         9.51115         6.03019
| 23>    C        3.71801        10.47576         5.66014
| 24>    C        3.73374        11.03003         4.36236
| 25>    N        3.74228        11.49226         3.31229
| 26>    C        4.68297        10.99593         6.54797
| 27>    N        5.47344        11.44362         7.24752
| 28>    C        1.30200         9.02400         3.89397
| 29>    C        0.20219         8.21605         3.67738
| 30>    S       -0.22847         7.28854         5.11151
| 31>    C       -0.57692         8.10449         2.48472
| 32>    C       -1.82919         7.54765         2.46908
| 33>    C       -2.66085         7.47494         1.34849
| 34>    C       -2.23881         8.06132         0.06494
| 35>    C       -1.03193         8.62678        -0.15133
| 36>    S        0.18847         8.76952         1.04519
| 37>    C       -3.35983         7.92683        -0.79816
| 38>    C       -4.41085         7.32395        -0.10543
| 39>    C       -5.56482         7.18009        -0.90763
| 40>    C       -5.36583         7.66991        -2.15904
| 41>    S       -3.78074         8.32067        -2.41795
| 42>    C       -3.98145         7.01679         1.23261
| 43>    C       -4.82635         6.41872         2.21183
| 44>    C       -4.44271         5.73013         3.30516
| 45>    C       -5.37800         5.24692         4.29283
| 46>    N       -6.67477         5.56155         4.17305
| 47>    C       -7.47870         5.15291         5.13463
| 48>    C       -7.03425         4.43042         6.23201
| 49>    C       -5.67003         4.11801         6.26067
| 50>    N       -4.85937         4.53362         5.28778
| 51>    C       -5.07404         3.34135         7.32952
| 52>    C       -3.80666         2.90570         7.22363
| 53>    C       -3.09011         2.12884         8.17665
| 54>    C       -1.83952         1.57034         8.01123
| 55>    C       -1.43150         0.79357         9.14536
| 56>    C       -0.22545         0.12774         9.36100
| 57>    C       -0.03534        -0.55872        10.55170
| 58>    C       -1.03362        -0.58689        11.54156
| 59>    C       -2.21894         0.08665        11.35058
| 60>    C       -2.41117         0.77716        10.16030
| 61>    S       -3.80635         1.71019         9.72320
| 62>    C        1.18286        -1.24172        10.77913
| 63>    N        2.16476        -1.80625        10.95828
| 64>    C       -1.03180         1.66773         6.80392
| 65>    C       -0.54745         0.55037         6.19591
| 66>    C        0.19494         0.54217         5.00267
| 67>    C        0.49480         1.80131         4.30260
| 68>    C        0.13746         3.02484         4.74672
| 69>    S       -0.72941         3.29585         6.20383
| 70>    C        1.19799         1.41022         3.13335
| 71>    C        1.33998         0.02001         3.10356
| 72>    C        2.03133        -0.40238         1.94443
| 73>    C        2.38353         0.64467         1.15350
| 74>    S        1.89910         2.18737         1.76917
| 75>    C        0.71217        -0.53188         4.27969
| 76>    C        0.61680        -1.90826         4.67820
| 77>    C        1.12693        -2.96427         4.04160
| 78>    H        2.94607         7.90639        10.50135
| 79>    H        4.13893         9.55370         8.85356
| 80>    H        1.71233         9.66839         3.13682
| 81>    H       -2.21310         7.19053         3.41475
| 82>    H       -0.74842         9.04307        -1.10536
| 83>    H       -6.48958         6.74074        -0.58084
| 84>    H       -6.06263         7.69517        -2.97438
| 85>    H       -5.89133         6.52305         2.04484
| 86>    H       -3.41167         5.48167         3.50446
| 87>    H       -8.52215         5.42186         5.02068
| 88>    H       -7.70313         4.11447         7.01595
| 89>    H       -5.68725         3.11944         8.19204
| 90>    H       -3.28420         3.15761         6.31123
| 91>    H        0.55577         0.15233         8.61551
| 92>    H       -0.85492        -1.13550        12.45392
| 93>    H       -2.98807         0.08360        12.10704
| 94>    H       -0.80623        -0.40045         6.64332
| 95>    H        0.37677         3.93223         4.21418
| 96>    H        2.26268        -1.41939         1.68746
| 97>    H        2.91140         0.61210         0.22009
| 98>    H        0.07297        -2.07810         5.60004
| 99>    H        1.68670        -2.87759         3.12802
|100>    H        1.00306        -3.96070         4.42978
|101> *
|102>
|103>                          ****END OF INPUT****

CARTESIAN COORDINATES (ANGSTROEM)
---------------------------------
  C      2.696000    8.080810    9.473660
  C      3.300750    8.930930    8.598940
  C      2.688040    8.884930    7.330960
  C      1.615840    7.984800    7.288690
  S      1.366010    7.203800    8.786420
  C      1.054640    8.008970    5.980100
  C      1.779720    8.919710    5.201950
  C      2.825770    9.511150    6.030190
  C      3.718010   10.475760    5.660140
  C      3.733740   11.030030    4.362360
  N      3.742280   11.492260    3.312290
  C      4.682970   10.995930    6.547970
  N      5.473440   11.443620    7.247520
  C      1.302000    9.024000    3.893970
  C      0.202190    8.216050    3.677380
  S     -0.228470    7.288540    5.111510
  C     -0.576920    8.104490    2.484720
  C     -1.829190    7.547650    2.469080
  C     -2.660850    7.474940    1.348490
  C     -2.238810    8.061320    0.064940
  C     -1.031930    8.626780   -0.151330
  S      0.188470    8.769520    1.045190
  C     -3.359830    7.926830   -0.798160
  C     -4.410850    7.323950   -0.105430
  C     -5.564820    7.180090   -0.907630
  C     -5.365830    7.669910   -2.159040
  S     -3.780740    8.320670   -2.417950
  C     -3.981450    7.016790    1.232610
  C     -4.826350    6.418720    2.211830
  C     -4.442710    5.730130    3.305160
  C     -5.378000    5.246920    4.292830
  N     -6.674770    5.561550    4.173050
  C     -7.478700    5.152910    5.134630
  C     -7.034250    4.430420    6.232010
  C     -5.670030    4.118010    6.260670
  N     -4.859370    4.533620    5.287780
  C     -5.074040    3.341350    7.329520
  C     -3.806660    2.905700    7.223630
  C     -3.090110    2.128840    8.176650
  C     -1.839520    1.570340    8.011230
  C     -1.431500    0.793570    9.145360
  C     -0.225450    0.127740    9.361000
  C     -0.035340   -0.558720   10.551700
  C     -1.033620   -0.586890   11.541560
  C     -2.218940    0.086650   11.350580
  C     -2.411170    0.777160   10.160300
  S     -3.806350    1.710190    9.723200
  C      1.182860   -1.241720   10.779130
  N      2.164760   -1.806250   10.958280
  C     -1.031800    1.667730    6.803920
  C     -0.547450    0.550370    6.195910
  C      0.194940    0.542170    5.002670
  C      0.494800    1.801310    4.302600
  C      0.137460    3.024840    4.746720
  S     -0.729410    3.295850    6.203830
  C      1.197990    1.410220    3.133350
  C      1.339980    0.020010    3.103560
  C      2.031330   -0.402380    1.944430
  C      2.383530    0.644670    1.153500
  S      1.899100    2.187370    1.769170
  C      0.712170   -0.531880    4.279690
  C      0.616800   -1.908260    4.678200
  C      1.126930   -2.964270    4.041600
  H      2.946070    7.906390   10.501350
  H      4.138930    9.553700    8.853560
  H      1.712330    9.668390    3.136820
  H     -2.213100    7.190530    3.414750
  H     -0.748420    9.043070   -1.105360
  H     -6.489580    6.740740   -0.580840
  H     -6.062630    7.695170   -2.974380
  H     -5.891330    6.523050    2.044840
  H     -3.411670    5.481670    3.504460
  H     -8.522150    5.421860    5.020680
  H     -7.703130    4.114470    7.015950
  H     -5.687250    3.119440    8.192040
  H     -3.284200    3.157610    6.311230
  H      0.555770    0.152330    8.615510
  H     -0.854920   -1.135500   12.453920
  H     -2.988070    0.083600   12.107040
  H     -0.806230   -0.400450    6.643320
  H      0.376770    3.932230    4.214180
  H      2.262680   -1.419390    1.687460
  H      2.911400    0.612100    0.220090
  H      0.072970   -2.078100    5.600040
  H      1.686700   -2.877590    3.128020
  H      1.003060   -3.960700    4.429780

 Total Charge           Charge          ....    0
 Multiplicity           Mult            ....    1
 Number of Electrons    NEL             ....  476
 Basis Dimension        Dim             .... 1025

ORBITAL ENERGIES
----------------

  NO   OCC          E(Eh)            E(eV)
   0   2.0000     -88.991382     -2421.5786
   1   2.0000     -88.985990     -2421.4319
   2   2.0000     -88.976392     -2421.1707
   3   2.0000     -88.971400     -2421.0349
   4   2.0000     -88.966223     -2420.8940
   5   2.0000     -88.953407     -2420.5453
   6   2.0000     -88.950156     -2420.4568
   7   2.0000     -14.428568      -392.6213
   8   2.0000     -14.427719      -392.5982
   9   2.0000     -14.401806      -391.8931
  10   2.0000     -14.401436      -391.8830
  11   2.0000     -14.401300      -391.8793
  12   2.0000     -10.362493      -281.9778
  13   2.0000     -10.349711      -281.6300
  14   2.0000     -10.335652      -281.2474
  15   2.0000     -10.330298      -281.1017
  16   2.0000     -10.329065      -281.0682
  17   2.0000     -10.328771      -281.0602
  18   2.0000     -10.328321      -281.0479
  19   2.0000     -10.327975      -281.0385
  20   2.0000     -10.327360      -281.0217
  21   2.0000     -10.327127      -281.0154
  22   2.0000     -10.325391      -280.9682
  23   2.0000     -10.322022      -280.8765
  24   2.0000     -10.321364      -280.8586
  25   2.0000     -10.321312      -280.8572
  26   2.0000     -10.319366      -280.8042
  27   2.0000     -10.317355      -280.7495
  28   2.0000     -10.316448      -280.7248
  29   2.0000     -10.310287      -280.5572
  30   2.0000     -10.305591      -280.4294
  31   2.0000     -10.302097      -280.3343
  32   2.0000     -10.301584      -280.3203
  33   2.0000     -10.301551      -280.3195
  34   2.0000     -10.301383      -280.3149
  35   2.0000     -10.300123      -280.2806
  36   2.0000     -10.299849      -280.2732
  37   2.0000     -10.298907      -280.2475
  38   2.0000     -10.297788      -280.2171
  39   2.0000     -10.296828      -280.1909
  40   2.0000     -10.296288      -280.1762
  41   2.0000     -10.296248      -280.1752
  42   2.0000     -10.293552      -280.1018
  43   2.0000     -10.292461      -280.0721
  44   2.0000     -10.291129      -280.0358
  45   2.0000     -10.289622      -279.9948
  46   2.0000     -10.289475      -279.9909
  47   2.0000     -10.284900      -279.8664
  48   2.0000     -10.284676      -279.8603
  49   2.0000     -10.283053      -279.8161
  50   2.0000     -10.279877      -279.7297
  51   2.0000     -10.279690      -279.7246
  52   2.0000     -10.276199      -279.6296
  53   2.0000     -10.274629      -279.5869
  54   2.0000     -10.271443      -279.5002
  55   2.0000     -10.271218      -279.4940
  56   2.0000     -10.269441      -279.4457
  57   2.0000     -10.268238      -279.4130
  58   2.0000     -10.267605      -279.3957
  59   2.0000     -10.267379      -279.3896
  60   2.0000     -10.266630      -279.3692
  61   2.0000     -10.260344      -279.1981
  62   2.0000     -10.253708      -279.0176
  63   2.0000      -8.085467      -220.0167
  64   2.0000      -8.081030      -219.8960
  65   2.0000      -8.071523      -219.6373
  66   2.0000      -8.066224      -219.4931
  67   2.0000      -8.062075      -219.3802
  68   2.0000      -8.048730      -219.0171
  69   2.0000      -8.045538      -218.9302
  70   2.0000      -6.054780      -164.7589
  71   2.0000      -6.050668      -164.6471
  72   2.0000      -6.050296      -164.6369
  73   2.0000      -6.047736      -164.5673
  74   2.0000      -6.045831      -164.5154
  75   2.0000      -6.043608      -164.4549
  76   2.0000      -6.041197      -164.3893
  77   2.0000      -6.036551      -164.2629
  78   2.0000      -6.035835      -164.2434
  79   2.0000      -6.033329      -164.1752
  80   2.0000      -6.031524      -164.1261
  81   2.0000      -6.031342      -164.1211
  82   2.0000      -6.028037      -164.0312
  83   2.0000      -6.027595      -164.0192
  84   2.0000      -6.023547      -163.9091
  85   2.0000      -6.018192      -163.7633
  86   2.0000      -6.014970      -163.6757
  87   2.0000      -6.013962      -163.6482
  88   2.0000      -6.010747      -163.5608
  89   2.0000      -6.010740      -163.5605
  90   2.0000      -6.007598      -163.4751
  91   2.0000      -1.076017       -29.2799
  92   2.0000      -1.041700       -28.3461
  93   2.0000      -1.019825       -27.7508
  94   2.0000      -1.015752       -27.6400
  95   2.0000      -1.005933       -27.3728
  96   2.0000      -1.004905       -27.3449
  97   2.0000      -0.997905       -27.1544
  98   2.0000      -0.994677       -27.0665
  99   2.0000      -0.988647       -26.9025
 100   2.0000      -0.976844       -26.5813
 101   2.0000      -0.969430       -26.3795
 102   2.0000      -0.965802       -26.2808
 103   2.0000      -0.952720       -25.9248
 104   2.0000      -0.949756       -25.8442
 105   2.0000      -0.926407       -25.2088
 106   2.0000      -0.920163       -25.0389
 107   2.0000      -0.912462       -24.8293
 108   2.0000      -0.907029       -24.6815
 109   2.0000      -0.900211       -24.4960
 110   2.0000      -0.888359       -24.1735
 111   2.0000      -0.882117       -24.0036
 112   2.0000      -0.870260       -23.6810
 113   2.0000      -0.865222       -23.5439
 114   2.0000      -0.859226       -23.3807
 115   2.0000      -0.856559       -23.3081
 116   2.0000      -0.849516       -23.1165
 117   2.0000      -0.838241       -22.8097
 118   2.0000      -0.833172       -22.6718
 119   2.0000      -0.829245       -22.5649
 120   2.0000      -0.822939       -22.3933
 121   2.0000      -0.817235       -22.2381
 122   2.0000      -0.792818       -21.5737
 123   2.0000      -0.791258       -21.5312
 124   2.0000      -0.777652       -21.1610
 125   2.0000      -0.772964       -21.0334
 126   2.0000      -0.771800       -21.0017
 127   2.0000      -0.761868       -20.7315
 128   2.0000      -0.746189       -20.3048
 129   2.0000      -0.726044       -19.7567
 130   2.0000      -0.722375       -19.6568
 131   2.0000      -0.721883       -19.6434
 132   2.0000      -0.711406       -19.3583
 133   2.0000      -0.708906       -19.2903
 134   2.0000      -0.701800       -19.0970
 135   2.0000      -0.700182       -19.0529
 136   2.0000      -0.680378       -18.5140
 137   2.0000      -0.675060       -18.3693
 138   2.0000      -0.671946       -18.2846
 139   2.0000      -0.659637       -17.9496
 140   2.0000      -0.653514       -17.7830
 141   2.0000      -0.648865       -17.6565
 142   2.0000      -0.641806       -17.4644
 143   2.0000      -0.640170       -17.4199
 144   2.0000      -0.634455       -17.2644
 145   2.0000      -0.622927       -16.9507
 146   2.0000      -0.618575       -16.8323
 147   2.0000      -0.615829       -16.7576
 148   2.0000      -0.614333       -16.7169
 149   2.0000      -0.610647       -16.6166
 150   2.0000      -0.606557       -16.5053
 151   2.0000      -0.594956       -16.1896
 152   2.0000      -0.593520       -16.1505
 153   2.0000      -0.585390       -15.9293
 154   2.0000      -0.571384       -15.5481
 155   2.0000      -0.567835       -15.4516
 156   2.0000      -0.565033       -15.3753
 157   2.0000      -0.564482       -15.3603
 158   2.0000      -0.558305       -15.1922
 159   2.0000      -0.553691       -15.0667
 160   2.0000      -0.550613       -14.9830
 161   2.0000      -0.544756       -14.8236
 162   2.0000      -0.544128       -14.8065
 163   2.0000      -0.539241       -14.6735
 164   2.0000      -0.537220       -14.6185
 165   2.0000      -0.535778       -14.5793
 166   2.0000      -0.528827       -14.3901
 167   2.0000      -0.525875       -14.3098
 168   2.0000      -0.521213       -14.1829
 169   2.0000      -0.519408       -14.1338
 170   2.0000      -0.512718       -13.9518
 171   2.0000      -0.511818       -13.9273
 172   2.0000      -0.511067       -13.9068
 173   2.0000      -0.508382       -13.8338
 174   2.0000      -0.504668       -13.7327
 175   2.0000      -0.503516       -13.7014
 176   2.0000      -0.500757       -13.6263
 177   2.0000      -0.499965       -13.6047
 178   2.0000      -0.495742       -13.4898
 179   2.0000      -0.492419       -13.3994
 180   2.0000      -0.492140       -13.3918
 181   2.0000      -0.490130       -13.3371
 182   2.0000      -0.482388       -13.1265
 183   2.0000      -0.478665       -13.0251
 184   2.0000      -0.472594       -12.8599
 185   2.0000      -0.469291       -12.7700
 186   2.0000      -0.469016       -12.7626
 187   2.0000      -0.465504       -12.6670
 188   2.0000      -0.460311       -12.5257
 189   2.0000      -0.459533       -12.5045
 190   2.0000      -0.456347       -12.4178
 191   2.0000      -0.455458       -12.3936
 192   2.0000      -0.454888       -12.3781
 193   2.0000      -0.454399       -12.3648
 194   2.0000      -0.448924       -12.2158
 195   2.0000      -0.446341       -12.1456
 196   2.0000      -0.444777       -12.1030
 197   2.0000      -0.442721       -12.0470
 198   2.0000      -0.438727       -11.9384
 199   2.0000      -0.438021       -11.9192
 200   2.0000      -0.436704       -11.8833
 201   2.0000      -0.434513       -11.8237
 202   2.0000      -0.430749       -11.7213
 203   2.0000      -0.429773       -11.6947
 204   2.0000      -0.429408       -11.6848
 205   2.0000      -0.426785       -11.6134
 206   2.0000      -0.424153       -11.5418
 207   2.0000      -0.421255       -11.4629
 208   2.0000      -0.418722       -11.3940
 209   2.0000      -0.414613       -11.2822
 210   2.0000      -0.412210       -11.2168
 211   2.0000      -0.411241       -11.1904
 212   2.0000      -0.408686       -11.1209
 213   2.0000      -0.406947       -11.0736
 214   2.0000      -0.406239       -11.0543
 215   2.0000      -0.404643       -11.0109
 216   2.0000      -0.401878       -10.9356
 217   2.0000      -0.393573       -10.7097
 218   2.0000      -0.385652       -10.4941
 219   2.0000      -0.382276       -10.4023
 220   2.0000      -0.372350       -10.1322
 221   2.0000      -0.367664       -10.0046
 222   2.0000      -0.356964        -9.7135
 223   2.0000      -0.354505        -9.6466
 224   2.0000      -0.350544        -9.5388
 225   2.0000      -0.346586        -9.4311
 226   2.0000      -0.338756        -9.2180
 227   2.0000      -0.319640        -8.6978
 228   2.0000      -0.319343        -8.6898
 229   2.0000      -0.318341        -8.6625
 230   2.0000      -0.314143        -8.5483
 231   2.0000      -0.304884        -8.2963
 232   2.0000      -0.291617        -7.9353
 233   2.0000      -0.286078        -7.7846
 234   2.0000      -0.271812        -7.3964
 235   2.0000      -0.268910        -7.3174
 236   2.0000      -0.234025        -6.3681
 237   2.0000      -0.231113        -6.2889
 238   0.0000      -0.101810        -2.7704
 239   0.0000      -0.064417        -1.7529
 240   0.0000      -0.059282        -1.6131
 241   0.0000      -0.039118        -1.0645
 242   0.0000      -0.027281        -0.7424

MULLIKEN ATOMIC CHARGES
-----------------------
   0 C :   -0.081106
   1 C :    0.038565
   2 C :   -0.035705
   3 C :   -0.115517
   4 S :    0.184069
   5 C :   -0.102431
   6 C :    0.008529
   7 C :    0.300887
   8 C :   -0.297811
   9 C :   -0.188645
  10 N :    0.172226
  11 C :   -0.190922
  12 N :    0.175499
  13 C :   -0.045587
  14 C :   -0.067501
  15 S :    0.172856
  16 C :   -0.034377
  17 C :   -0.088965
  18 C :    0.053628
  19 C :    0.058062
  20 C :   -0.126418
  21 S :    0.137487
  22 C :   -0.109354
  23 C :    0.052716
  24 C :    0.012517
  25 C :   -0.070709
  26 S :    0.126067
  27 C :    0.087060
  28 C :   -0.002274
  29 C :    0.001549
  30 C :   -0.057898
  31 N :   -0.081326
  32 C :    0.080745
  33 C :   -0.056858
  34 C :    0.052859
  35 N :   -0.066641
  36 C :   -0.023289
  37 C :    0.022566
  38 C :   -0.077635
  39 C :    0.122602
  40 C :    0.107592
  41 C :   -0.053580
  42 C :   -0.095216
  43 C :    0.040602
  44 C :    0.000630
  45 C :   -0.054375
  46 S :    0.128947
  47 C :   -0.142114
  48 N :    0.102865
  49 C :   -0.188624
  50 C :   -0.002183
  51 C :    0.030134
  52 C :    0.074037
  53 C :   -0.131852
  54 S :    0.136643
  55 C :   -0.116583
  56 C :    0.055460
  57 C :   -0.006172
  58 C :   -0.068428
  59 S :    0.124732
  60 C :    0.063336
  61 C :   -0.016522
  62 C :   -0.025148
  63 H :    0.036851
  64 H :    0.012349
  65 H :    0.019270
  66 H :   -0.008062
  67 H :    0.037609
  68 H :   -0.015011
  69 H :    0.027107
  70 H :    0.003106
  71 H :   -0.023758
  72 H :    0.003582
  73 H :   -0.011355
  74 H :   -0.013943
  75 H :    0.023763
  76 H :    0.007798
  77 H :    0.000302
  78 H :   -0.010790
  79 H :   -0.006624
  80 H :    0.025954
  81 H :   -0.016814
  82 H :    0.022399
  83 H :   -0.032955
  84 H :   -0.002604
  85 H :    0.018125
Sum of atomic charges:    0.0000000

LOEWDIN ATOMIC CHARGES
----------------------
   0 C :   -0.176997
   1 C :   -0.033865
   2 C :   -0.077606
   3 C :   -0.183849
   4 S :    0.478790
   5 C :   -0.180305
   6 C :   -0.068662
   7 C :    0.083187
   8 C :   -0.102173
   9 C :   -0.016246
  10 N :   -0.033974
  11 C :   -0.017820
  12 N :   -0.031734
  13 C :   -0.040356
  14 C :   -0.179888
  15 S :    0.472803
  16 C :   -0.183510
  17 C :   -0.032121
  18 C :   -0.016704
  19 C :   -0.046851
  20 C :   -0.139597
  21 S :    0.459815
  22 C :   -0.205607
  23 C :   -0.037749
  24 C :   -0.062164
  25 C :   -0.165060
  26 S :    0.418559
  27 C :   -0.053326
  28 C :    0.020812
  29 C :   -0.059647
  30 C :    0.033392
  31 N :   -0.097055
  32 C :    0.051002
  33 C :   -0.077403
  34 C :    0.035128
  35 N :   -0.094919
  36 C :   -0.039107
  37 C :   -0.010890
  38 C :   -0.149221
  39 C :   -0.063533
  40 C :   -0.039733
  41 C :    0.017665
  42 C :   -0.073928
  43 C :    0.007438
  44 C :   -0.032485
  45 C :   -0.139966
  46 S :    0.415495
  47 C :   -0.030402
  48 N :   -0.057925
  49 C :   -0.176320
  50 C :   -0.017206
  51 C :   -0.030966
  52 C :   -0.047882
  53 C :   -0.144977
  54 S :    0.453786
  55 C :   -0.201758
  56 C :   -0.035924
  57 C :   -0.064278
  58 C :   -0.168005
  59 S :    0.419412
  60 C :   -0.045781
  61 C :   -0.023284
  62 C :   -0.054334
  63 H :    0.027995
  64 H :    0.042669
  65 H :    0.035607
  66 H :    0.028883
  67 H :    0.037420
  68 H :    0.031815
  69 H :    0.023215
  70 H :    0.034124
  71 H :    0.023818
  72 H :    0.025064
  73 H :    0.031018
  74 H :    0.022283
  75 H :    0.026463
  76 H :    0.042740
  77 H :    0.040731
  78 H :    0.035578
  79 H :    0.037818
  80 H :    0.030522
  81 H :    0.028676
  82 H :    0.022490
  83 H :    0.025592
  84 H :    0.017246
  85 H :    0.024043

  Mayer bond orders larger than 0.100000
B(  0-C ,  1-C ) :   1.5500 B(  0-C ,  4-S ) :   1.1489 B(  0-C , 63-H ) :   0.9645
B(  1-C ,  2-C ) :   1.2756 B(  1-C , 64-H ) :   0.9966 B(  2-C ,  3-C ) :   1.4554
B(  2-C ,  7-C ) :   1.0176 B(  3-C ,  4-S ) :   1.1376 B(  3-C ,  5-C ) :   1.1825
B(  5-C ,  6-C ) :   1.4709 B(  5-C , 15-S ) :   1.1190 B(  6-C ,  7-C ) :   0.9955
B(  6-C , 13-C ) :   1.2902 B(  7-C ,  8-C ) :   1.7071 B(  8-C ,  9-C ) :   1.1331
B(  8-C , 11-C ) :   1.1330 B(  9-C , 10-N ) :   2.9912 B( 11-C , 12-N ) :   3.0030
B( 13-C , 14-C ) :   1.4711 B( 13-C , 65-H ) :   0.9818 B( 14-C , 15-S ) :   1.1055
B( 14-C , 16-C ) :   1.1335 B( 16-C , 17-C ) :   1.5344 B( 16-C , 21-S ) :   1.0606
B( 17-C , 18-C ) :   1.2334 B( 17-C , 66-H ) :   0.9605 B( 18-C , 19-C ) :   1.0503
B( 18-C , 27-C ) :   1.4232 B( 19-C , 20-C ) :   1.6127 B( 19-C , 22-C ) :   1.1782
B( 20-C , 21-S ) :   1.1351 B( 20-C , 67-H ) :   0.9403 B( 22-C , 23-C ) :   1.4404
B( 22-C , 26-S ) :   1.0734 B( 23-C , 24-C ) :   1.2223 B( 23-C , 27-C ) :   1.1042
B( 24-C , 25-C ) :   1.5838 B( 24-C , 68-H ) :   0.9980 B( 25-C , 26-S ) :   1.1538
B( 25-C , 69-H ) :   0.9663 B( 27-C , 28-C ) :   1.0909 B( 28-C , 29-C ) :   1.6697
B( 28-C , 70-H ) :   0.9599 B( 29-C , 30-C ) :   1.0486 B( 29-C , 71-H ) :   0.9672
B( 30-C , 31-N ) :   1.5076 B( 30-C , 35-N ) :   1.5244 B( 31-N , 32-C ) :   1.5651
B( 32-C , 33-C ) :   1.3574 B( 32-C , 72-H ) :   0.9796 B( 33-C , 34-C ) :   1.3362
B( 33-C , 73-H ) :   0.9756 B( 34-C , 35-N ) :   1.5134 B( 34-C , 36-C ) :   1.0660
B( 36-C , 37-C ) :   1.7290 B( 36-C , 74-H ) :   0.9775 B( 37-C , 38-C ) :   1.1144
B( 37-C , 75-H ) :   0.9450 B( 38-C , 39-C ) :   1.5565 B( 38-C , 46-S ) :   1.0629
B( 39-C , 40-C ) :   1.1502 B( 39-C , 49-C ) :   0.9797 B( 40-C , 41-C ) :   1.3005
B( 40-C , 45-C ) :   1.3100 B( 41-C , 42-C ) :   1.4163 B( 41-C , 76-H ) :   0.9943
B( 42-C , 43-C ) :   1.3225 B( 42-C , 47-C ) :   1.0580 B( 43-C , 44-C ) :   1.4312
B( 43-C , 77-H ) :   0.9917 B( 44-C , 45-C ) :   1.3380 B( 44-C , 78-H ) :   0.9945
B( 45-C , 46-S ) :   1.0736 B( 47-C , 48-N ) :   3.0526 B( 49-C , 50-C ) :   1.6122
B( 49-C , 54-S ) :   1.0599 B( 50-C , 51-C ) :   1.1872 B( 50-C , 79-H ) :   0.9682
B( 51-C , 52-C ) :   1.0444 B( 51-C , 60-C ) :   1.4593 B( 52-C , 53-C ) :   1.6203
B( 52-C , 55-C ) :   1.1821 B( 53-C , 54-S ) :   1.1199 B( 53-C , 80-H ) :   0.9367
B( 55-C , 56-C ) :   1.4537 B( 55-C , 59-S ) :   1.0763 B( 56-C , 57-C ) :   1.2092
B( 56-C , 60-C ) :   1.0770 B( 57-C , 58-C ) :   1.5893 B( 57-C , 81-H ) :   1.0017
B( 58-C , 59-S ) :   1.1546 B( 58-C , 82-H ) :   0.9645 B( 60-C , 61-C ) :   1.1350
B( 61-C , 62-C ) :   1.9134 B( 61-C , 83-H ) :   0.9509 B( 62-C , 84-H ) :   0.9573
B( 62-C , 85-H ) :   0.9435

-----------------------------------------------------------------------------
         ABSORPTION SPECTRUM VIA TRANSITION ELECTRIC DIPOLE MOMENTS
-----------------------------------------------------------------------------
State   Energy  Wavelength   fosc         T2         TX        TY        TZ
        (cm-1)    (nm)                  (au**2)     (au)      (au)      (au)
-----------------------------------------------------------------------------
   0   12242.3    816.8   0.078037844   2.09854   1.00027   0.28749   1.00765
   1   17166.1    582.5   0.000107270   0.00206   0.03906  -0.01135  -0.02007
   2   19361.2    516.5   0.048035613   0.81678   0.73501   0.52376  -0.04715
   3   20285.6    493.0   0.310531489   5.03956  -1.71816  -1.21782  -0.77744
   4   21219.5    471.3   0.182200188   2.82676   1.49706  -0.70446  -0.29884
   5   22716.3    440.2   0.116078148   1.68224   0.75217  -0.60215  -0.86827
   6   22853.0    437.6   0.000926497   0.01335  -0.01240  -0.09367  -0.06648
   7   24533.5    407.6   0.224753963   3.01594   1.41274   0.82123   0.58796
   8   24846.6    402.5   0.003107756   0.04118  -0.18742  -0.07779  -0.00106
   9   25412.0    393.5   0.001798859   0.02330  -0.14230   0.04903  -0.02552
  10   26237.9    381.1   0.070246667   0.88140  -0.11859  -0.41690   0.83278
  11   28339.5    352.9   0.000782772   0.00909   0.03588  -0.05431  -0.06969
  12   28814.0    347.1   0.003028915   0.03461   0.15269   0.05583  -0.09042
  13   29126.7    343.3   0.270496678   3.05736  -0.28194   0.96557  -1.43023
  14   29540.8    338.5   0.249338424   2.77871   1.47302  -0.15296  -0.76520
  15   30797.6    324.7   0.132554410   1.41694   0.81617   0.33274   0.80006
  16   31143.4    321.1   0.028101132   0.29705   0.30457  -0.10012   0.44076
  17   31232.5    320.2   0.353570003   3.72687  -1.43318  -1.29296   0.03327
  18   31604.9    316.4   1.011122270  10.53233  -0.18613  -2.48604   2.07781
  19   31941.2    313.1   0.063865860   0.65825  -0.38238  -0.37684   0.60831
  20   32392.8    308.7   0.050023446   0.50839   0.67009  -0.13622   0.20202
  21   32776.3    305.1   0.341415754   3.42925   1.19104  -0.80477   1.16748
  22   32935.7    303.6   0.073300386   0.73268  -0.19630   0.20320   0.80800
  23   33360.1    299.8   0.296225022   2.92327  -1.33151   1.07108   0.05597
  24   33606.9    297.6   0.000381104   0.00373   0.04552  -0.02207  -0.03427
  25   33642.7    297.2   0.674305827   6.59844  -1.80480  -0.32604  -1.79856
  26   33827.7    295.6   0.083638082   0.81397  -0.25420  -0.04244  -0.86461
  27   34291.1    291.6   0.586820772   5.63377  -1.21286   1.41840   1.46658
  28   34440.6    290.4   0.007182113   0.06865  -0.02487  -0.25716  -0.04361
  29   34797.2    287.4   0.158881191   1.50315   0.34984   0.27815  -1.14167
  30   35105.0    284.9   0.074347706   0.69723  -0.28830   0.74447   0.24469
  31   35380.3    282.6   0.052805675   0.49135  -0.61957  -0.09347  -0.31425
  32   35754.7    279.7   0.410541947   3.78008   1.55921   0.37774   1.09830
  33   36107.9    276.9   0.004817456   0.04392   0.11812  -0.04021   0.16839
  34   36137.8    276.7   0.174139343   1.58639   0.81215  -0.23058   0.93469
  35   36316.6    275.4   0.064563722   0.58527   0.54547  -0.12718   0.52112
  36   36460.8    274.3   0.318373017   2.87465   0.58204  -0.51282   1.50762
  37   36984.9    270.4   0.000313561   0.00279  -0.03870   0.02159   0.02877
  38   37357.7    267.7   0.060736014   0.53523  -0.00056   0.10882  -0.72346
  39   37422.1    267.2   0.004210932   0.03704   0.15198  -0.11670  -0.01810
  40   37445.3    267.1   0.000901183   0.00792  -0.04011   0.02814   0.07431
  41   37800.8    264.5   0.071452260   0.62229  -0.06952   0.46931  -0.63024
  42   38021.8    263.0   0.005547305   0.04803  -0.17237  -0.05749   0.12253
  43   38229.4    261.6   0.241844624   2.08264   0.58793   0.51782  -1.21196
  44   39068.3    256.0   0.005286966   0.04455   0.03977   0.00944  -0.20708
  45   39333.8    254.2   0.005169418   0.04327   0.13063   0.09932   0.12782
  46   39923.4    250.5   0.054493886   0.44936  -0.41341   0.11960   0.51396
  47   40045.4    249.7   0.002092776   0.01720  -0.10307  -0.00809   0.08072
  48   40223.7    248.6   0.662726781   5.42410   0.55448   0.42190  -2.22231

FINAL SINGLE POINT ENERGY     -5014.525980129280

DIPOLE MOMENT
-------------
                                X             Y             Z
Electronic contribution:     14.06469      31.42870       1.67275
Nuclear contribution   :    -16.75030     -31.68885      -1.40119
                        -----------------------------------------
Total Dipole Moment    :     -2.68561      -0.26016       0.27156
                        -----------------------------------------
Magnitude (a.u.)       :      2.71182
Magnitude (Debye)      :      6.89289

Rotational constants in cm-1:     0.001029     0.000715     0.000595
Rotational constants in MHz :    30.835015    21.427076    17.825582

                             ****ORCA TERMINATED NORMALLY****
TOTAL RUN TIME: 0 days 0 hours 7 minutes 53 seconds 508 msec
