                         Program Version 4.2.0 -  RELEASE  -
|  1> # ORCA input file
|  2> # SCF done       -199.248199728287          0.000890356707
|  3> ! CAM-B3LYP def2-SVP def2/J RIJCOSX Grid4 TightSCF
|  4> %maxcore 5000
|  5> %tddft
|  6>     Mode sTDDFT
|  7>     Ethresh 5.0
|  8>     maxcore 5000
|  9> end
| 10>
| 11> %pal
| 12>   nprocs 6
| 13>   end
| 14> * xyz 0 1
| 15>    C        1.83573       -10.97730        -8.88005
| 16>    O        0.71401       -10.64477        -8.59787
| 17>    C        2.46771       -10.88578       -10.21664
| 18>    C        3.81189       -11.29067       -10.14697
| 19>    C        4.59731       -11.25996       -11.28916
| 20>    C        4.02364       -10.83236       -12.48031
| 21>    C        2.68391       -10.43745       -12.54049
| 22>    C        1.89583       -10.45898       -11.39750
| 23>   Br        1.92961        -9.86656       -14.17455
| 24>   Br        5.09492       -10.78639       -14.03596
| 25>    C        4.11747       -11.68948        -8.77706
| 26>    C        5.28702       -12.25696        -8.35250
| 27>    C        6.40188       -12.48808        -9.18894
| 28>    N        7.33767       -12.69325        -9.81982
| 29>    C        5.53764       -12.71436        -7.03948
| 30>    N        5.80911       -13.12196        -6.00182
| 31>    C        2.92547       -11.45639        -7.97512
| 32>    C        2.85811       -11.49039        -6.61983
| 33>    C        1.67239       -11.37432        -5.84422
| 34>    S        1.73140       -10.78679        -4.17864
| 35>    C        0.00121       -11.05382        -4.16536
| 36>    N       -0.43567       -11.55338        -5.29562
| 37>    N        0.46879       -11.72161        -6.20046
| 38>    C       -0.81117       -10.72524        -3.04396
| 39>    C       -2.14822       -10.92096        -3.08767
| 40>    C       -3.14379       -10.64483        -2.10523
| 41>    S       -4.73718       -11.11455        -2.59076
| 42>    C       -5.45050       -10.59691        -1.09053
| 43>    C       -4.46400       -10.07569        -0.25403
| 44>    C       -3.15395       -10.10042        -0.82088
| 45>    C       -1.96132        -9.52785        -0.12867
| 46>    O       -0.99737        -9.11156        -0.71496
| 47>    O       -1.99595        -9.49676         1.20335
| 48>    O       -4.60040        -9.57408         0.99577
| 49>    C       -5.82738        -9.08086         1.50422
| 50>    C       -6.85091       -10.74581        -0.89876
| 51>    C       -7.66827       -11.28714        -1.83065
| 52>    C       -9.09082       -11.40648        -1.71819
| 53>    C       -9.78727       -12.48100        -2.32550
| 54>    C       -9.12013       -13.56888        -3.07255
| 55>    O       -7.95110       -13.74213        -3.24618
| 56>    S      -10.36385       -14.69066        -3.72403
| 57>    C      -11.71354       -13.78949        -2.98241
| 58>    O      -12.85803       -14.11814        -3.07520
| 59>    C      -11.16804       -12.61932        -2.25866
| 60>    C      -11.99710       -11.68149        -1.62351
| 61>    C      -11.31945       -10.59906        -1.06550
| 62>    C       -9.92992       -10.46766        -1.08253
| 63>    C       -9.62555        -9.16455        -0.44678
| 64>    O       -8.58820        -8.59858        -0.26987
| 65>    O      -10.81650        -8.60799        -0.04791
| 66>    C      -11.87854        -9.41233        -0.37646
| 67>    O      -13.00628        -9.12678        -0.12202
| 68>    C      -13.44299       -11.81562        -1.65757
| 69>    C      -14.21988       -10.89742        -2.24979
| 70>    C      -15.60763       -11.11723        -2.50971
| 71>    C      -16.29790       -10.63807        -3.57004
| 72>    C      -17.78849       -10.71525        -3.59276
| 73>    O      -18.49089       -11.35088        -2.84791
| 74>    C      -18.19889        -9.80949        -4.68580
| 75>    C      -17.05725        -9.31786        -5.34754
| 76>    C      -15.86315        -9.92602        -4.76062
| 77>    C      -14.63292        -9.96741        -5.35723
| 78>    C      -13.51198       -10.71968        -4.94179
| 79>    N      -12.54784       -11.30147        -4.71633
| 80>    C      -14.33336        -9.29557        -6.56638
| 81>    N      -14.03225        -8.76405        -7.53663
| 82>    C      -17.20545        -8.41739        -6.39007
| 83>    C      -18.48819        -8.03379        -6.76380
| 84>    C      -19.61630        -8.54069        -6.11194
| 85>    C      -19.47336        -9.43486        -5.05893
| 86>   Br      -21.34678        -8.01255        -6.65007
| 87>   Br      -18.68860        -6.80105        -8.18045
| 88>    H        5.63538       -11.55030       -11.28042
| 89>    H        0.86146       -10.15324       -11.42741
| 90>    H        3.76809       -11.59668        -6.04343
| 91>    H       -0.32058       -10.28532        -2.19135
| 92>    H       -2.54376       -11.35440        -3.99964
| 93>    H       -2.86954        -9.71839         1.56392
| 94>    H       -6.42212        -9.89099         1.93425
| 95>    H       -6.40179        -8.54711         0.74648
| 96>    H       -5.54655        -8.39096         2.30015
| 97>    H       -7.26471       -10.44536         0.04714
| 98>    H       -7.23024       -11.70953        -2.72475
| 99>    H      -13.85830       -12.76509        -1.35015
|100>    H      -13.78290        -9.98046        -2.62155
|101>    H      -16.16972       -11.71631        -1.80211
|102>    H      -16.36028        -7.99885        -6.91190
|103>    H      -20.33569        -9.82932        -4.54420
|104> *
|105>
|106>                          ****END OF INPUT****

CARTESIAN COORDINATES (ANGSTROEM)
---------------------------------
  C      1.835730  -10.977300   -8.880050
  O      0.714010  -10.644770   -8.597870
  C      2.467710  -10.885780  -10.216640
  C      3.811890  -11.290670  -10.146970
  C      4.597310  -11.259960  -11.289160
  C      4.023640  -10.832360  -12.480310
  C      2.683910  -10.437450  -12.540490
  C      1.895830  -10.458980  -11.397500
  Br     1.929610   -9.866560  -14.174550
  Br     5.094920  -10.786390  -14.035960
  C      4.117470  -11.689480   -8.777060
  C      5.287020  -12.256960   -8.352500
  C      6.401880  -12.488080   -9.188940
  N      7.337670  -12.693250   -9.819820
  C      5.537640  -12.714360   -7.039480
  N      5.809110  -13.121960   -6.001820
  C      2.925470  -11.456390   -7.975120
  C      2.858110  -11.490390   -6.619830
  C      1.672390  -11.374320   -5.844220
  S      1.731400  -10.786790   -4.178640
  C      0.001210  -11.053820   -4.165360
  N     -0.435670  -11.553380   -5.295620
  N      0.468790  -11.721610   -6.200460
  C     -0.811170  -10.725240   -3.043960
  C     -2.148220  -10.920960   -3.087670
  C     -3.143790  -10.644830   -2.105230
  S     -4.737180  -11.114550   -2.590760
  C     -5.450500  -10.596910   -1.090530
  C     -4.464000  -10.075690   -0.254030
  C     -3.153950  -10.100420   -0.820880
  C     -1.961320   -9.527850   -0.128670
  O     -0.997370   -9.111560   -0.714960
  O     -1.995950   -9.496760    1.203350
  O     -4.600400   -9.574080    0.995770
  C     -5.827380   -9.080860    1.504220
  C     -6.850910  -10.745810   -0.898760
  C     -7.668270  -11.287140   -1.830650
  C     -9.090820  -11.406480   -1.718190
  C     -9.787270  -12.481000   -2.325500
  C     -9.120130  -13.568880   -3.072550
  O     -7.951100  -13.742130   -3.246180
  S    -10.363850  -14.690660   -3.724030
  C    -11.713540  -13.789490   -2.982410
  O    -12.858030  -14.118140   -3.075200
  C    -11.168040  -12.619320   -2.258660
  C    -11.997100  -11.681490   -1.623510
  C    -11.319450  -10.599060   -1.065500
  C     -9.929920  -10.467660   -1.082530
  C     -9.625550   -9.164550   -0.446780
  O     -8.588200   -8.598580   -0.269870
  O    -10.816500   -8.607990   -0.047910
  C    -11.878540   -9.412330   -0.376460
  O    -13.006280   -9.126780   -0.122020
  C    -13.442990  -11.815620   -1.657570
  C    -14.219880  -10.897420   -2.249790
  C    -15.607630  -11.117230   -2.509710
  C    -16.297900  -10.638070   -3.570040
  C    -17.788490  -10.715250   -3.592760
  O    -18.490890  -11.350880   -2.847910
  C    -18.198890   -9.809490   -4.685800
  C    -17.057250   -9.317860   -5.347540
  C    -15.863150   -9.926020   -4.760620
  C    -14.632920   -9.967410   -5.357230
  C    -13.511980  -10.719680   -4.941790
  N    -12.547840  -11.301470   -4.716330
  C    -14.333360   -9.295570   -6.566380
  N    -14.032250   -8.764050   -7.536630
  C    -17.205450   -8.417390   -6.390070
  C    -18.488190   -8.033790   -6.763800
  C    -19.616300   -8.540690   -6.111940
  C    -19.473360   -9.434860   -5.058930
  Br   -21.346780   -8.012550   -6.650070
  Br   -18.688600   -6.801050   -8.180450
  H      5.635380  -11.550300  -11.280420
  H      0.861460  -10.153240  -11.427410
  H      3.768090  -11.596680   -6.043430
  H     -0.320580  -10.285320   -2.191350
  H     -2.543760  -11.354400   -3.999640
  H     -2.869540   -9.718390    1.563920
  H     -6.422120   -9.890990    1.934250
  H     -6.401790   -8.547110    0.746480
  H     -5.546550   -8.390960    2.300150
  H     -7.264710  -10.445360    0.047140
  H     -7.230240  -11.709530   -2.724750
  H    -13.858300  -12.765090   -1.350150
  H    -13.782900   -9.980460   -2.621550
  H    -16.169720  -11.716310   -1.802110
  H    -16.360280   -7.998850   -6.911900
  H    -20.335690   -9.829320   -4.544200

 Total Charge           Charge          ....    0
 Multiplicity           Mult            ....    1
 Number of Electrons    NEL             ....  626
 Basis Dimension        Dim             .... 1186

ORBITAL ENERGIES
----------------

  NO   OCC          E(Eh)            E(eV)
   0   2.0000    -482.885855    -13139.9921
   1   2.0000    -482.884422    -13139.9531
   2   2.0000    -482.878629    -13139.7955
   3   2.0000    -482.877072    -13139.7531
   4   2.0000     -88.982191     -2421.3285
   5   2.0000     -88.979581     -2421.2575
   6   2.0000     -88.961693     -2420.7707
   7   2.0000     -62.563431     -1702.4375
   8   2.0000     -62.562044     -1702.3998
   9   2.0000     -62.556228     -1702.2415
  10   2.0000     -62.554693     -1702.1997
  11   2.0000     -56.397388     -1534.6509
  12   2.0000     -56.396013     -1534.6135
  13   2.0000     -56.394729     -1534.5786
  14   2.0000     -56.394625     -1534.5758
  15   2.0000     -56.393333     -1534.5406
  16   2.0000     -56.393230     -1534.5378
  17   2.0000     -56.390176     -1534.4547
  18   2.0000     -56.388656     -1534.4134
  19   2.0000     -56.387531     -1534.3827
  20   2.0000     -56.387425     -1534.3798
  21   2.0000     -56.385984     -1534.3406
  22   2.0000     -56.385887     -1534.3380
  23   2.0000     -19.310148      -525.4558
  24   2.0000     -19.292915      -524.9869
  25   2.0000     -19.258836      -524.0596
  26   2.0000     -19.255710      -523.9745
  27   2.0000     -19.255520      -523.9693
  28   2.0000     -19.254685      -523.9466
  29   2.0000     -19.252153      -523.8777
  30   2.0000     -19.235226      -523.4171
  31   2.0000     -19.222404      -523.0682
  32   2.0000     -19.200662      -522.4766
  33   2.0000     -14.449617      -393.1941
  34   2.0000     -14.444230      -393.0475
  35   2.0000     -14.438473      -392.8908
  36   2.0000     -14.433746      -392.7622
  37   2.0000     -14.426433      -392.5632
  38   2.0000     -14.424812      -392.5191
  39   2.0000     -10.454042      -284.4689
  40   2.0000     -10.449589      -284.3478
  41   2.0000     -10.417602      -283.4774
  42   2.0000     -10.416246      -283.4405
  43   2.0000     -10.410721      -283.2901
  44   2.0000     -10.385592      -282.6063
  45   2.0000     -10.377110      -282.3755
  46   2.0000     -10.375512      -282.3320
  47   2.0000     -10.368478      -282.1406
  48   2.0000     -10.364770      -282.0397
  49   2.0000     -10.364455      -282.0312
  50   2.0000     -10.364075      -282.0208
  51   2.0000     -10.356837      -281.8238
  52   2.0000     -10.356414      -281.8123
  53   2.0000     -10.355939      -281.7994
  54   2.0000     -10.352972      -281.7187
  55   2.0000     -10.352251      -281.6991
  56   2.0000     -10.352019      -281.6928
  57   2.0000     -10.350811      -281.6599
  58   2.0000     -10.348947      -281.6092
  59   2.0000     -10.347246      -281.5629
  60   2.0000     -10.343814      -281.4695
  61   2.0000     -10.342540      -281.4348
  62   2.0000     -10.342443      -281.4322
  63   2.0000     -10.341736      -281.4129
  64   2.0000     -10.340536      -281.3803
  65   2.0000     -10.339110      -281.3415
  66   2.0000     -10.335343      -281.2390
  67   2.0000     -10.333280      -281.1828
  68   2.0000     -10.332269      -281.1553
  69   2.0000     -10.331177      -281.1256
  70   2.0000     -10.328128      -281.0427
  71   2.0000     -10.326472      -280.9976
  72   2.0000     -10.325324      -280.9663
  73   2.0000     -10.322848      -280.8990
  74   2.0000     -10.322525      -280.8902
  75   2.0000     -10.321305      -280.8570
  76   2.0000     -10.319588      -280.8103
  77   2.0000     -10.317913      -280.7647
  78   2.0000     -10.317103      -280.7426
  79   2.0000     -10.315912      -280.7102
  80   2.0000     -10.315898      -280.7098
  81   2.0000     -10.314331      -280.6672
  82   2.0000     -10.313118      -280.6342
  83   2.0000     -10.313093      -280.6335
  84   2.0000     -10.309091      -280.5246
  85   2.0000     -10.306055      -280.4420
  86   2.0000     -10.305055      -280.4148
  87   2.0000     -10.297939      -280.2212
  88   2.0000     -10.296204      -280.1740
  89   2.0000      -8.792746      -239.2628
  90   2.0000      -8.791378      -239.2255
  91   2.0000      -8.785549      -239.0669
  92   2.0000      -8.784018      -239.0253
  93   2.0000      -8.078449      -219.8258
  94   2.0000      -8.075160      -219.7363
  95   2.0000      -8.060965      -219.3500
  96   2.0000      -6.628875      -180.3809
  97   2.0000      -6.627565      -180.3452
  98   2.0000      -6.621659      -180.1845
  99   2.0000      -6.620194      -180.1446
 100   2.0000      -6.614882      -180.0001
 101   2.0000      -6.614057      -179.9777
 102   2.0000      -6.613480      -179.9619
 103   2.0000      -6.612669      -179.9399
 104   2.0000      -6.607706      -179.8048
 105   2.0000      -6.606875      -179.7822
 106   2.0000      -6.606120      -179.7617
 107   2.0000      -6.605329      -179.7401
 108   2.0000      -6.046974      -164.5465
 109   2.0000      -6.044322      -164.4744
 110   2.0000      -6.043672      -164.4567
 111   2.0000      -6.041012      -164.3843
 112   2.0000      -6.040361      -164.3666
 113   2.0000      -6.037243      -164.2817
 114   2.0000      -6.029838      -164.0802
 115   2.0000      -6.026545      -163.9906
 116   2.0000      -6.021990      -163.8667
 117   2.0000      -2.744825       -74.6905
 118   2.0000      -2.743497       -74.6543
 119   2.0000      -2.740994       -74.5862
 120   2.0000      -2.740389       -74.5698
 121   2.0000      -2.739667       -74.5501
 122   2.0000      -2.739040       -74.5331
 123   2.0000      -2.737601       -74.4939
 124   2.0000      -2.736110       -74.4533
 125   2.0000      -2.733813       -74.3908
 126   2.0000      -2.733182       -74.3737
 127   2.0000      -2.732282       -74.3492
 128   2.0000      -2.731710       -74.3336
 129   2.0000      -2.729238       -74.2664
 130   2.0000      -2.729223       -74.2659
 131   2.0000      -2.727834       -74.2281
 132   2.0000      -2.727825       -74.2279
 133   2.0000      -2.722075       -74.0714
 134   2.0000      -2.722055       -74.0709
 135   2.0000      -2.720510       -74.0288
 136   2.0000      -2.720483       -74.0281
 137   2.0000      -1.260597       -34.3026
 138   2.0000      -1.197670       -32.5903
 139   2.0000      -1.185431       -32.2572
 140   2.0000      -1.180545       -32.1243
 141   2.0000      -1.178586       -32.0709
 142   2.0000      -1.176280       -32.0082
 143   2.0000      -1.154739       -31.4220
 144   2.0000      -1.151529       -31.3347
 145   2.0000      -1.147064       -31.2132
 146   2.0000      -1.139673       -31.0121
 147   2.0000      -1.097266       -29.8581
 148   2.0000      -1.041060       -28.3287
 149   2.0000      -1.031455       -28.0673
 150   2.0000      -1.030756       -28.0483
 151   2.0000      -1.024068       -27.8663
 152   2.0000      -1.013899       -27.5896
 153   2.0000      -1.013860       -27.5885
 154   2.0000      -1.011525       -27.5250
 155   2.0000      -1.003810       -27.3151
 156   2.0000      -0.991179       -26.9714
 157   2.0000      -0.983187       -26.7539
 158   2.0000      -0.966555       -26.3013
 159   2.0000      -0.959257       -26.1027
 160   2.0000      -0.954220       -25.9656
 161   2.0000      -0.938514       -25.5383
 162   2.0000      -0.935750       -25.4630
 163   2.0000      -0.932247       -25.3677
 164   2.0000      -0.924754       -25.1638
 165   2.0000      -0.922493       -25.1023
 166   2.0000      -0.914730       -24.8911
 167   2.0000      -0.913740       -24.8641
 168   2.0000      -0.900315       -24.4988
 169   2.0000      -0.894529       -24.3414
 170   2.0000      -0.889788       -24.2124
 171   2.0000      -0.888087       -24.1661
 172   2.0000      -0.866293       -23.5730
 173   2.0000      -0.864414       -23.5219
 174   2.0000      -0.856402       -23.3039
 175   2.0000      -0.853792       -23.2329
 176   2.0000      -0.846459       -23.0333
 177   2.0000      -0.830279       -22.5930
 178   2.0000      -0.815601       -22.1936
 179   2.0000      -0.813133       -22.1265
 180   2.0000      -0.796941       -21.6859
 181   2.0000      -0.789459       -21.4823
 182   2.0000      -0.787167       -21.4199
 183   2.0000      -0.779121       -21.2009
 184   2.0000      -0.772569       -21.0227
 185   2.0000      -0.770959       -20.9789
 186   2.0000      -0.761310       -20.7163
 187   2.0000      -0.740686       -20.1551
 188   2.0000      -0.731596       -19.9077
 189   2.0000      -0.729620       -19.8540
 190   2.0000      -0.720632       -19.6094
 191   2.0000      -0.712637       -19.3918
 192   2.0000      -0.706948       -19.2370
 193   2.0000      -0.702401       -19.1133
 194   2.0000      -0.698419       -19.0049
 195   2.0000      -0.693064       -18.8592
 196   2.0000      -0.691018       -18.8036
 197   2.0000      -0.681501       -18.5446
 198   2.0000      -0.677847       -18.4451
 199   2.0000      -0.670633       -18.2489
 200   2.0000      -0.659080       -17.9345
 201   2.0000      -0.656708       -17.8699
 202   2.0000      -0.648632       -17.6502
 203   2.0000      -0.644550       -17.5391
 204   2.0000      -0.641452       -17.4548
 205   2.0000      -0.636083       -17.3087
 206   2.0000      -0.630811       -17.1652
 207   2.0000      -0.622539       -16.9401
 208   2.0000      -0.621558       -16.9134
 209   2.0000      -0.618149       -16.8207
 210   2.0000      -0.614397       -16.7186
 211   2.0000      -0.609439       -16.5837
 212   2.0000      -0.604435       -16.4475
 213   2.0000      -0.600772       -16.3478
 214   2.0000      -0.592482       -16.1223
 215   2.0000      -0.588549       -16.0152
 216   2.0000      -0.583973       -15.8907
 217   2.0000      -0.583169       -15.8688
 218   2.0000      -0.580884       -15.8067
 219   2.0000      -0.571194       -15.5430
 220   2.0000      -0.569023       -15.4839
 221   2.0000      -0.568043       -15.4572
 222   2.0000      -0.565760       -15.3951
 223   2.0000      -0.560920       -15.2634
 224   2.0000      -0.559621       -15.2281
 225   2.0000      -0.557231       -15.1630
 226   2.0000      -0.555580       -15.1181
 227   2.0000      -0.553278       -15.0555
 228   2.0000      -0.552694       -15.0396
 229   2.0000      -0.549790       -14.9605
 230   2.0000      -0.545117       -14.8334
 231   2.0000      -0.543945       -14.8015
 232   2.0000      -0.541055       -14.7229
 233   2.0000      -0.540011       -14.6944
 234   2.0000      -0.536775       -14.6064
 235   2.0000      -0.535303       -14.5663
 236   2.0000      -0.531645       -14.4668
 237   2.0000      -0.528512       -14.3815
 238   2.0000      -0.526057       -14.3147
 239   2.0000      -0.524565       -14.2741
 240   2.0000      -0.521291       -14.1850
 241   2.0000      -0.520264       -14.1571
 242   2.0000      -0.517815       -14.0905
 243   2.0000      -0.515756       -14.0344
 244   2.0000      -0.513637       -13.9768
 245   2.0000      -0.509725       -13.8703
 246   2.0000      -0.508250       -13.8302
 247   2.0000      -0.506276       -13.7765
 248   2.0000      -0.505687       -13.7604
 249   2.0000      -0.502216       -13.6660
 250   2.0000      -0.501966       -13.6592
 251   2.0000      -0.495622       -13.4865
 252   2.0000      -0.494285       -13.4502
 253   2.0000      -0.490790       -13.3551
 254   2.0000      -0.487751       -13.2724
 255   2.0000      -0.484035       -13.1713
 256   2.0000      -0.479230       -13.0405
 257   2.0000      -0.477267       -12.9871
 258   2.0000      -0.475707       -12.9446
 259   2.0000      -0.471879       -12.8405
 260   2.0000      -0.470793       -12.8109
 261   2.0000      -0.468364       -12.7448
 262   2.0000      -0.465772       -12.6743
 263   2.0000      -0.464154       -12.6303
 264   2.0000      -0.463096       -12.6015
 265   2.0000      -0.457374       -12.4458
 266   2.0000      -0.456124       -12.4118
 267   2.0000      -0.452448       -12.3117
 268   2.0000      -0.451241       -12.2789
 269   2.0000      -0.447875       -12.1873
 270   2.0000      -0.442185       -12.0325
 271   2.0000      -0.441176       -12.0050
 272   2.0000      -0.437157       -11.8956
 273   2.0000      -0.436889       -11.8884
 274   2.0000      -0.435351       -11.8465
 275   2.0000      -0.434196       -11.8151
 276   2.0000      -0.433802       -11.8044
 277   2.0000      -0.431045       -11.7293
 278   2.0000      -0.425060       -11.5665
 279   2.0000      -0.420078       -11.4309
 280   2.0000      -0.418545       -11.3892
 281   2.0000      -0.415744       -11.3130
 282   2.0000      -0.411591       -11.2000
 283   2.0000      -0.409290       -11.1373
 284   2.0000      -0.402336       -10.9481
 285   2.0000      -0.400510       -10.8984
 286   2.0000      -0.399218       -10.8633
 287   2.0000      -0.398649       -10.8478
 288   2.0000      -0.396046       -10.7770
 289   2.0000      -0.391343       -10.6490
 290   2.0000      -0.389972       -10.6117
 291   2.0000      -0.388095       -10.5606
 292   2.0000      -0.384100       -10.4519
 293   2.0000      -0.378802       -10.3077
 294   2.0000      -0.377155       -10.2629
 295   2.0000      -0.374804       -10.1989
 296   2.0000      -0.362369        -9.8606
 297   2.0000      -0.358048        -9.7430
 298   2.0000      -0.356722        -9.7069
 299   2.0000      -0.355558        -9.6752
 300   2.0000      -0.352991        -9.6054
 301   2.0000      -0.350363        -9.5339
 302   2.0000      -0.348147        -9.4736
 303   2.0000      -0.345954        -9.4139
 304   2.0000      -0.344296        -9.3688
 305   2.0000      -0.336836        -9.1658
 306   2.0000      -0.329748        -8.9729
 307   2.0000      -0.324984        -8.8433
 308   2.0000      -0.323513        -8.8032
 309   2.0000      -0.319578        -8.6962
 310   2.0000      -0.315513        -8.5855
 311   2.0000      -0.306517        -8.3408
 312   2.0000      -0.271351        -7.3838
 313   0.0000      -0.110493        -3.0067
 314   0.0000      -0.108346        -2.9482
 315   0.0000      -0.105625        -2.8742
 316   0.0000      -0.087768        -2.3883
 317   0.0000      -0.077611        -2.1119

MULLIKEN ATOMIC CHARGES
-----------------------
   0 C :    0.149870
   1 O :   -0.091971
   2 C :   -0.026534
   3 C :    0.038456
   4 C :   -0.005574
   5 C :   -0.025084
   6 C :   -0.015847
   7 C :   -0.015381
   8 Br:    0.019304
   9 Br:    0.024442
  10 C :    0.294454
  11 C :   -0.331544
  12 C :   -0.184659
  13 N :    0.162271
  14 C :   -0.196470
  15 N :    0.171420
  16 C :   -0.070078
  17 C :    0.044145
  18 C :   -0.134123
  19 S :    0.138189
  20 C :   -0.097063
  21 N :   -0.056391
  22 N :    0.013606
  23 C :    0.065666
  24 C :    0.052762
  25 C :   -0.095893
  26 S :    0.153860
  27 C :   -0.171492
  28 C :    0.222724
  29 C :   -0.043767
  30 C :    0.168902
  31 O :   -0.193585
  32 O :   -0.150154
  33 O :   -0.363876
  34 C :    0.160803
  35 C :    0.077825
  36 C :   -0.091283
  37 C :    0.065006
  38 C :    0.034777
  39 C :    0.036410
  40 O :   -0.124696
  41 S :    0.037078
  42 C :    0.060684
  43 O :   -0.129876
  44 C :    0.074260
  45 C :   -0.025638
  46 C :   -0.074561
  47 C :   -0.071040
  48 C :    0.229720
  49 O :   -0.115475
  50 O :   -0.223672
  51 C :    0.222904
  52 O :   -0.091522
  53 C :    0.002035
  54 C :    0.036441
  55 C :    0.028686
  56 C :   -0.105194
  57 C :    0.141966
  58 O :   -0.121403
  59 C :   -0.008533
  60 C :    0.022248
  61 C :    0.291920
  62 C :   -0.330252
  63 C :   -0.184747
  64 N :    0.158072
  65 C :   -0.193418
  66 N :    0.169558
  67 C :   -0.003250
  68 C :   -0.025081
  69 C :   -0.018717
  70 C :   -0.013435
  71 Br:    0.023711
  72 Br:    0.029539
  73 H :    0.007994
  74 H :    0.009582
  75 H :    0.032849
  76 H :    0.024951
  77 H :    0.023153
  78 H :    0.185346
  79 H :    0.044505
  80 H :    0.067286
  81 H :    0.047851
  82 H :   -0.018632
  83 H :    0.036772
  84 H :    0.039567
  85 H :    0.037877
  86 H :    0.035172
  87 H :    0.012203
  88 H :    0.011087
Sum of atomic charges:   -0.0000000

LOEWDIN ATOMIC CHARGES
----------------------
   0 C :    0.078155
   1 O :   -0.096962
   2 C :   -0.039616
   3 C :   -0.014663
   4 C :   -0.006602
   5 C :   -0.118955
   6 C :   -0.120714
   7 C :    0.008126
   8 Br:    0.142024
   9 Br:    0.143435
  10 C :    0.071437
  11 C :   -0.124328
  12 C :   -0.019246
  13 N :   -0.038036
  14 C :   -0.023350
  15 N :   -0.038195
  16 C :   -0.062967
  17 C :    0.036354
  18 C :   -0.166705
  19 S :    0.420047
  20 C :   -0.134032
  21 N :   -0.073231
  22 N :   -0.022828
  23 C :   -0.026983
  24 C :   -0.012543
  25 C :   -0.117443
  26 S :    0.492722
  27 C :   -0.219386
  28 C :    0.043972
  29 C :   -0.132318
  30 C :    0.087731
  31 O :   -0.162651
  32 O :   -0.023046
  33 O :   -0.097304
  34 C :    0.087105
  35 C :    0.008854
  36 C :   -0.061365
  37 C :    0.038075
  38 C :   -0.050902
  39 C :   -0.039610
  40 O :   -0.106828
  41 S :    0.322410
  42 C :   -0.041538
  43 O :   -0.106450
  44 C :   -0.030633
  45 C :    0.018837
  46 C :   -0.040666
  47 C :   -0.056873
  48 C :    0.113692
  49 O :   -0.108434
  50 O :   -0.052511
  51 C :    0.103338
  52 O :   -0.093306
  53 C :    0.025047
  54 C :   -0.005160
  55 C :    0.081952
  56 C :   -0.083554
  57 C :    0.084268
  58 O :   -0.123521
  59 C :   -0.043607
  60 C :   -0.011337
  61 C :    0.072840
  62 C :   -0.126125
  63 C :   -0.007484
  64 N :   -0.053572
  65 C :   -0.020925
  66 N :   -0.034307
  67 C :   -0.006601
  68 C :   -0.117216
  69 C :   -0.121100
  70 C :    0.009536
  71 Br:    0.145354
  72 Br:    0.148067
  73 H :    0.044705
  74 H :    0.047666
  75 H :    0.047737
  76 H :    0.036101
  77 H :    0.038256
  78 H :    0.070406
  79 H :    0.021218
  80 H :    0.029557
  81 H :    0.034746
  82 H :    0.029793
  83 H :    0.027242
  84 H :    0.043009
  85 H :    0.035648
  86 H :    0.052893
  87 H :    0.045210
  88 H :    0.048163

  Mayer bond orders larger than 0.100000
B(  0-C ,  1-O ) :   2.2895 B(  0-C ,  2-C ) :   0.9354 B(  0-C , 16-C ) :   0.9122
B(  2-C ,  3-C ) :   1.3279 B(  2-C ,  7-C ) :   1.3749 B(  3-C ,  4-C ) :   1.3570
B(  3-C , 10-C ) :   1.0001 B(  4-C ,  5-C ) :   1.3799 B(  4-C , 73-H ) :   0.9784
B(  5-C ,  6-C ) :   1.4131 B(  5-C ,  9-Br) :   1.0591 B(  6-C ,  7-C ) :   1.3553
B(  6-C ,  8-Br) :   1.0387 B(  7-C , 74-H ) :   1.0068 B( 10-C , 11-C ) :   1.6645
B( 10-C , 16-C ) :   1.0548 B( 11-C , 12-C ) :   1.1355 B( 11-C , 14-C ) :   1.1382
B( 12-C , 13-N ) :   2.9748 B( 14-C , 15-N ) :   2.9899 B( 16-C , 17-C ) :   1.6930
B( 17-C , 18-C ) :   1.1178 B( 17-C , 75-H ) :   0.9265 B( 18-C , 19-S ) :   1.0801
B( 18-C , 22-N ) :   1.6281 B( 19-S , 20-C ) :   1.1352 B( 19-S , 22-N ) :   0.1077
B( 20-C , 21-N ) :   1.6127 B( 20-C , 23-C ) :   1.1081 B( 21-N , 22-N ) :   1.2787
B( 23-C , 24-C ) :   1.7359 B( 23-C , 76-H ) :   0.9278 B( 24-C , 25-C ) :   1.1182
B( 24-C , 77-H ) :   0.9434 B( 25-C , 26-S ) :   1.1844 B( 25-C , 29-C ) :   1.4780
B( 26-S , 27-C ) :   1.0849 B( 27-C , 28-C ) :   1.4309 B( 27-C , 35-C ) :   1.1697
B( 28-C , 29-C ) :   1.2359 B( 28-C , 33-O ) :   1.1314 B( 29-C , 30-C ) :   0.8822
B( 30-C , 31-O ) :   2.0849 B( 30-C , 32-O ) :   1.2933 B( 32-O , 78-H ) :   0.9225
B( 33-O , 34-C ) :   0.9026 B( 34-C , 79-H ) :   0.9695 B( 34-C , 80-H ) :   0.9636
B( 34-C , 81-H ) :   0.9730 B( 35-C , 36-C ) :   1.6621 B( 35-C , 82-H ) :   0.9622
B( 36-C , 37-C ) :   1.1395 B( 36-C , 83-H ) :   0.9372 B( 37-C , 38-C ) :   1.3353
B( 37-C , 47-C ) :   1.3021 B( 38-C , 39-C ) :   0.8508 B( 38-C , 44-C ) :   1.3368
B( 39-C , 40-O ) :   2.1564 B( 39-C , 41-S ) :   1.0350 B( 40-O , 41-S ) :   0.1045
B( 41-S , 42-C ) :   1.0392 B( 41-S , 43-O ) :   0.1074 B( 42-C , 43-O ) :   2.1603
B( 42-C , 44-C ) :   0.8404 B( 44-C , 45-C ) :   1.3861 B( 45-C , 46-C ) :   1.3779
B( 45-C , 53-C ) :   1.0441 B( 46-C , 47-C ) :   1.3468 B( 46-C , 51-C ) :   0.8983
B( 47-C , 48-C ) :   0.9151 B( 48-C , 49-O ) :   2.1925 B( 48-C , 50-O ) :   1.0650
B( 50-O , 51-C ) :   1.0494 B( 51-C , 52-O ) :   2.2745 B( 53-C , 54-C ) :   1.7779
B( 53-C , 84-H ) :   0.9409 B( 54-C , 55-C ) :   1.0917 B( 54-C , 85-H ) :   0.9409
B( 55-C , 56-C ) :   1.7000 B( 55-C , 86-H ) :   0.9542 B( 56-C , 57-C ) :   0.9300
B( 56-C , 61-C ) :   1.0213 B( 57-C , 58-O ) :   2.2917 B( 57-C , 59-C ) :   0.9239
B( 59-C , 60-C ) :   1.3259 B( 59-C , 70-C ) :   1.3726 B( 60-C , 61-C ) :   1.0088
B( 60-C , 67-C ) :   1.3647 B( 61-C , 62-C ) :   1.6565 B( 62-C , 63-C ) :   1.1584
B( 62-C , 65-C ) :   1.1272 B( 63-C , 64-N ) :   2.9842 B( 65-C , 66-N ) :   2.9911
B( 67-C , 68-C ) :   1.3751 B( 67-C , 87-H ) :   0.9799 B( 68-C , 69-C ) :   1.4150
B( 68-C , 72-Br) :   1.0595 B( 69-C , 70-C ) :   1.3591 B( 69-C , 71-Br) :   1.0405
B( 70-C , 88-H ) :   1.0073

-----------------------------------------------------------------------------
         ABSORPTION SPECTRUM VIA TRANSITION ELECTRIC DIPOLE MOMENTS
-----------------------------------------------------------------------------
State   Energy  Wavelength   fosc         T2         TX        TY        TZ
        (cm-1)    (nm)                  (au**2)     (au)      (au)      (au)
-----------------------------------------------------------------------------
   0   19126.5    522.8   0.062323805   1.07274  -0.54787   0.67244   0.56605
   1   20111.8    497.2   1.663101352  27.22347  -4.89342   0.13582   1.80541
   2   22420.5    446.0   0.131464721   1.93036   1.36892   0.18650   0.14706
   3   23815.5    419.9   0.291706651   4.03239  -0.59272  -0.06287  -1.91758
   4   25563.4    391.2   0.012050821   0.15519  -0.09823   0.32024   0.20734
   5   26220.8    381.4   0.140642658   1.76582  -1.11488  -0.66724   0.27865
   6   27220.6    367.4   0.002065029   0.02497  -0.06883   0.08147   0.11662
   7   28106.4    355.8   0.106610554   1.24873  -0.49897   0.50739  -0.86158
   8   28528.8    350.5   0.126797046   1.46319   0.69627  -0.17488   0.97356
   9   28880.3    346.3   0.244729698   2.78972   1.04572  -0.65291   1.12691
  10   29618.8    337.6   0.035002057   0.38905   0.40939  -0.46117  -0.09368
  11   29731.3    336.3   0.072937410   0.80763  -0.82325   0.06138   0.35513
  12   30494.8    327.9   0.229102275   2.47331   0.03748  -0.20575  -1.55871
  13   30907.0    323.6   0.127079573   1.35361  -0.27891   0.07590  -1.12697
  14   31563.3    316.8   0.037948891   0.39582   0.61266   0.10316   0.09908
  15   31683.3    315.6   0.071718217   0.74520  -0.67539   0.40033   0.35887
  16   31974.5    312.7   0.013851766   0.14262   0.15632  -0.13354  -0.31678
  17   32171.1    310.8   0.118349502   1.21109   0.97731  -0.37292   0.34189
  18   32731.2    305.5   0.101111226   1.01698  -0.84876   0.28216  -0.46581
  19   33009.4    302.9   0.159910310   1.59483  -0.94176   0.35973   0.76059
  20   33082.3    302.3   0.098490284   0.98011   0.21681  -0.01469   0.96586
  21   33226.0    301.0   0.004384652   0.04344  -0.05408  -0.14294   0.14174
  22   33433.3    299.1   0.026821778   0.26411   0.51025   0.06054   0.00968
  23   33657.5    297.1   0.064283053   0.62877   0.50244  -0.47920  -0.38300
  24   33795.1    295.9   0.003451081   0.03362  -0.13215  -0.01850   0.12575
  25   34293.7    291.6   0.031369630   0.30114  -0.22316   0.42465  -0.26648
  26   34321.2    291.4   0.425931053   4.08557   1.98875  -0.36116   0.00132
  27   34790.8    287.4   0.027254797   0.25790   0.36981  -0.29386  -0.18652
  28   35269.7    283.5   0.030769386   0.28721   0.26429  -0.19189   0.42489
  29   35658.7    280.4   0.149864535   1.38359   1.01267   0.38064  -0.46174
  30   35715.4    280.0   0.477686978   4.40315  -1.50310   0.80738  -1.22146
  31   36083.2    277.1   0.357992521   3.26622   1.61951  -0.58665   0.54703
  32   36278.3    275.6   0.013046821   0.11839  -0.02752   0.31081  -0.14503
  33   36748.9    272.1   0.013552110   0.12141   0.29088  -0.08453   0.17218
  34   36901.9    271.0   0.078258237   0.69816  -0.57545   0.14605  -0.58796
  35   36979.8    270.4   0.003915799   0.03486  -0.06026   0.01837  -0.17576
  36   37152.6    269.2   0.036978210   0.32767   0.27348  -0.22303   0.45070
  37   37320.5    267.9   0.011463718   0.10112   0.13338  -0.16071   0.23980
  38   37504.9    266.6   0.007426765   0.06519  -0.25492  -0.00045  -0.01439
  39   37692.4    265.3   0.099554166   0.86952   0.00215  -0.53687   0.76242
  40   37793.0    264.6   0.068106124   0.59327  -0.36940  -0.09401   0.66931
  41   38069.7    262.7   0.001906810   0.01649  -0.06162  -0.03886  -0.10574
  42   38463.0    260.0   0.005140852   0.04400  -0.19879  -0.06364   0.02081
  43   38629.1    258.9   0.044701441   0.38096   0.34470  -0.03791  -0.51060
  44   38665.7    258.6   0.023830516   0.20290  -0.17124   0.38324   0.16342
  45   38967.1    256.6   0.041254548   0.34854   0.01941   0.05571  -0.58742
  46   39166.9    255.3   0.009824162   0.08258   0.18793  -0.21739  -0.00021
  47   39451.0    253.5   0.034566063   0.28845  -0.14194  -0.38962   0.34131
  48   39706.5    251.8   0.063959508   0.53030  -0.21340   0.07002   0.69272
  49   39889.5    250.7   0.021321926   0.17597   0.24899  -0.18566   0.28197
  50   39945.2    250.3   0.057166570   0.47114   0.32244   0.13573  -0.59056
  51   40156.7    249.0   0.117393896   0.96242   0.17442  -0.06224  -0.96339
  52   40177.8    248.9   0.004807831   0.03939  -0.14734  -0.07898  -0.10699
  53   40268.4    248.3   0.004650854   0.03802  -0.12841  -0.13831  -0.04904

FINAL SINGLE POINT ENERGY    -14481.977308999623

DIPOLE MOMENT
-------------
                                X             Y             Z
Electronic contribution:    -56.26510      57.11911    -223.73045
Nuclear contribution   :     52.71526     -56.42475     225.60923
                        -----------------------------------------
Total Dipole Moment    :     -3.54983       0.69436       1.87878
                        -----------------------------------------
Magnitude (a.u.)       :      4.07594
Magnitude (Debye)      :     10.36021

Rotational constants in cm-1:     0.000720     0.000153     0.000131
Rotational constants in MHz :    21.588583     4.572924     3.935907

                             ****ORCA TERMINATED NORMALLY****
TOTAL RUN TIME: 0 days 0 hours 9 minutes 35 seconds 450 msec
