                         Program Version 4.2.0 -  RELEASE  -
|  1> # ORCA input file
|  2> # SCF done       -150.617889530794          0.001000347664
|  3> ! CAM-B3LYP def2-SVP def2/J RIJCOSX Grid4 TightSCF
|  4> %maxcore 5000
|  5> %tddft
|  6>     Mode sTDDFT
|  7>     Ethresh 5.0
|  8>     maxcore 5000
|  9> end
| 10>
| 11> %pal
| 12>   nprocs 6
| 13>   end
| 14> * xyz 0 1
| 15>    C        1.20206         0.73889         1.03995
| 16>    O        0.64719        -0.11329         1.68366
| 17>    C        2.05291         1.82743         1.57136
| 18>    C        2.60288         2.57381         0.51472
| 19>    C        3.44796         3.63714         0.79412
| 20>    C        3.72569         3.93613         2.12230
| 21>    C        3.17289         3.18795         3.16604
| 22>    C        2.32966         2.11976         2.89125
| 23>   Br        3.56775         3.62221         4.96035
| 24>   Br        4.87792         5.38285         2.50635
| 25>    C        2.12927         2.02658        -0.75219
| 26>    C        2.37358         2.55255        -1.99046
| 27>    C        3.17435         3.69393        -2.22031
| 28>    N        3.81714         4.61118        -2.46663
| 29>    C        1.85120         2.05307        -3.20449
| 30>    N        1.46265         1.70974        -4.22801
| 31>    C        1.29179         0.87479        -0.44731
| 32>    C        0.81280        -0.02447        -1.34287
| 33>    C       -0.10537        -1.07258        -1.05452
| 34>    S       -0.15581        -2.53258        -2.04882
| 35>    C       -1.47193        -3.03353        -1.00614
| 36>    N       -1.76393        -2.13211        -0.10334
| 37>    N       -1.02186        -1.07552        -0.13128
| 38>    C       -2.11672        -4.29566        -1.13516
| 39>    C       -3.11931        -4.66904        -0.31192
| 40>    C       -3.74271        -5.94598        -0.39108
| 41>    S       -5.03187        -6.42461         0.70420
| 42>    C       -4.99739        -7.96533        -0.14032
| 43>    N       -4.10769        -7.99006        -1.09503
| 44>    N       -3.42713        -6.89288        -1.23169
| 45>    C       -5.84399        -9.04768         0.23058
| 46>    C       -5.77158       -10.26285        -0.35221
| 47>    C       -6.59845       -11.34461         0.06267
| 48>    S       -6.44886       -12.96111        -0.60862
| 49>    C       -7.73284       -13.40158         0.50920
| 50>    N       -8.13880       -12.38666         1.22354
| 51>    N       -7.52407       -11.27197         0.98123
| 52>    C       -8.24104       -14.72456         0.61760
| 53>    C       -9.14622       -15.06400         1.56535
| 54>    C       -9.67330       -16.37327         1.69959
| 55>    C      -10.41437       -16.84180         2.73871
| 56>    C      -11.23905       -18.07288         2.58870
| 57>    O      -11.15529       -18.90458         1.71881
| 58>    C      -12.21351       -18.01058         3.70112
| 59>    C      -11.92067       -16.90803         4.52698
| 60>    C      -10.70807       -16.25853         4.03337
| 61>    C       -9.88545       -15.44238         4.76006
| 62>    C       -8.57008       -15.10751         4.36542
| 63>    N       -7.47384       -14.87229         4.12434
| 64>    C      -10.20934       -14.95529         6.04513
| 65>    N      -10.44582       -14.52829         7.08301
| 66>    C      -12.72815       -16.62818         5.61617
| 67>    C      -13.81266       -17.46011         5.87072
| 68>    C      -14.08664       -18.56300         5.05692
| 69>    C      -13.28301       -18.84314         3.95908
| 70>   Br      -15.55875       -19.68570         5.43279
| 71>   Br      -14.92573       -17.07035         7.34671
| 72>    H        3.89868         4.23229         0.01661
| 73>    H        1.89707         1.53182         3.68586
| 74>    H        1.14103         0.01925        -2.37329
| 75>    H       -1.77012        -4.96567        -1.90752
| 76>    H       -3.46393        -3.99042         0.45430
| 77>    H       -6.55325        -8.87703         1.02686
| 78>    H       -5.05971       -10.44413        -1.14342
| 79>    H       -7.84071       -15.46492        -0.06034
| 80>    H       -9.49192       -14.28651         2.23155
| 81>    H       -9.54151       -17.05613         0.86704
| 82>    H      -12.54634       -15.78336         6.26113
| 83>    H      -13.48829       -19.69015         3.32298
| 84> *
| 85>
| 86>                          ****END OF INPUT****

CARTESIAN COORDINATES (ANGSTROEM)
---------------------------------
  C      1.202060    0.738890    1.039950
  O      0.647190   -0.113290    1.683660
  C      2.052910    1.827430    1.571360
  C      2.602880    2.573810    0.514720
  C      3.447960    3.637140    0.794120
  C      3.725690    3.936130    2.122300
  C      3.172890    3.187950    3.166040
  C      2.329660    2.119760    2.891250
  Br     3.567750    3.622210    4.960350
  Br     4.877920    5.382850    2.506350
  C      2.129270    2.026580   -0.752190
  C      2.373580    2.552550   -1.990460
  C      3.174350    3.693930   -2.220310
  N      3.817140    4.611180   -2.466630
  C      1.851200    2.053070   -3.204490
  N      1.462650    1.709740   -4.228010
  C      1.291790    0.874790   -0.447310
  C      0.812800   -0.024470   -1.342870
  C     -0.105370   -1.072580   -1.054520
  S     -0.155810   -2.532580   -2.048820
  C     -1.471930   -3.033530   -1.006140
  N     -1.763930   -2.132110   -0.103340
  N     -1.021860   -1.075520   -0.131280
  C     -2.116720   -4.295660   -1.135160
  C     -3.119310   -4.669040   -0.311920
  C     -3.742710   -5.945980   -0.391080
  S     -5.031870   -6.424610    0.704200
  C     -4.997390   -7.965330   -0.140320
  N     -4.107690   -7.990060   -1.095030
  N     -3.427130   -6.892880   -1.231690
  C     -5.843990   -9.047680    0.230580
  C     -5.771580  -10.262850   -0.352210
  C     -6.598450  -11.344610    0.062670
  S     -6.448860  -12.961110   -0.608620
  C     -7.732840  -13.401580    0.509200
  N     -8.138800  -12.386660    1.223540
  N     -7.524070  -11.271970    0.981230
  C     -8.241040  -14.724560    0.617600
  C     -9.146220  -15.064000    1.565350
  C     -9.673300  -16.373270    1.699590
  C    -10.414370  -16.841800    2.738710
  C    -11.239050  -18.072880    2.588700
  O    -11.155290  -18.904580    1.718810
  C    -12.213510  -18.010580    3.701120
  C    -11.920670  -16.908030    4.526980
  C    -10.708070  -16.258530    4.033370
  C     -9.885450  -15.442380    4.760060
  C     -8.570080  -15.107510    4.365420
  N     -7.473840  -14.872290    4.124340
  C    -10.209340  -14.955290    6.045130
  N    -10.445820  -14.528290    7.083010
  C    -12.728150  -16.628180    5.616170
  C    -13.812660  -17.460110    5.870720
  C    -14.086640  -18.563000    5.056920
  C    -13.283010  -18.843140    3.959080
  Br   -15.558750  -19.685700    5.432790
  Br   -14.925730  -17.070350    7.346710
  H      3.898680    4.232290    0.016610
  H      1.897070    1.531820    3.685860
  H      1.141030    0.019250   -2.373290
  H     -1.770120   -4.965670   -1.907520
  H     -3.463930   -3.990420    0.454300
  H     -6.553250   -8.877030    1.026860
  H     -5.059710  -10.444130   -1.143420
  H     -7.840710  -15.464920   -0.060340
  H     -9.491920  -14.286510    2.231550
  H     -9.541510  -17.056130    0.867040
  H    -12.546340  -15.783360    6.261130
  H    -13.488290  -19.690150    3.322980

 Total Charge           Charge          ....    0
 Multiplicity           Mult            ....    1
 Number of Electrons    NEL             ....  514
 Basis Dimension        Dim             ....  942

ORBITAL ENERGIES
----------------

  NO   OCC          E(Eh)            E(eV)
   0   2.0000    -482.882205    -13139.8928
   1   2.0000    -482.881383    -13139.8704
   2   2.0000    -482.880590    -13139.8489
   3   2.0000    -482.880370    -13139.8429
   4   2.0000     -88.990129     -2421.5445
   5   2.0000     -88.988258     -2421.4936
   6   2.0000     -88.986203     -2421.4377
   7   2.0000     -62.559794     -1702.3385
   8   2.0000     -62.558977     -1702.3163
   9   2.0000     -62.558209     -1702.2954
  10   2.0000     -62.557969     -1702.2889
  11   2.0000     -56.393747     -1534.5519
  12   2.0000     -56.392932     -1534.5297
  13   2.0000     -56.392176     -1534.5091
  14   2.0000     -56.391937     -1534.5026
  15   2.0000     -56.391096     -1534.4797
  16   2.0000     -56.390988     -1534.4768
  17   2.0000     -56.390272     -1534.4573
  18   2.0000     -56.390178     -1534.4547
  19   2.0000     -56.389498     -1534.4362
  20   2.0000     -56.389400     -1534.4336
  21   2.0000     -56.389259     -1534.4297
  22   2.0000     -56.389161     -1534.4271
  23   2.0000     -19.230107      -523.2778
  24   2.0000     -19.227816      -523.2155
  25   2.0000     -14.456351      -393.3773
  26   2.0000     -14.453282      -393.2938
  27   2.0000     -14.451921      -393.2568
  28   2.0000     -14.451479      -393.2447
  29   2.0000     -14.451192      -393.2369
  30   2.0000     -14.450689      -393.2232
  31   2.0000     -14.431635      -392.7047
  32   2.0000     -14.429291      -392.6410
  33   2.0000     -14.426793      -392.5730
  34   2.0000     -14.423180      -392.4747
  35   2.0000     -10.380941      -282.4798
  36   2.0000     -10.380813      -282.4763
  37   2.0000     -10.362104      -281.9672
  38   2.0000     -10.361083      -281.9394
  39   2.0000     -10.360409      -281.9211
  40   2.0000     -10.359884      -281.9068
  41   2.0000     -10.359806      -281.9046
  42   2.0000     -10.359650      -281.9004
  43   2.0000     -10.358990      -281.8824
  44   2.0000     -10.358055      -281.8570
  45   2.0000     -10.356781      -281.8223
  46   2.0000     -10.356595      -281.8173
  47   2.0000     -10.355373      -281.7840
  48   2.0000     -10.354814      -281.7688
  49   2.0000     -10.354570      -281.7622
  50   2.0000     -10.354236      -281.7531
  51   2.0000     -10.337738      -281.3041
  52   2.0000     -10.333221      -281.1812
  53   2.0000     -10.330828      -281.1161
  54   2.0000     -10.327969      -281.0383
  55   2.0000     -10.326719      -281.0043
  56   2.0000     -10.325868      -280.9811
  57   2.0000     -10.325345      -280.9669
  58   2.0000     -10.324567      -280.9458
  59   2.0000     -10.322115      -280.8790
  60   2.0000     -10.320830      -280.8441
  61   2.0000     -10.318468      -280.7798
  62   2.0000     -10.317834      -280.7625
  63   2.0000     -10.317425      -280.7514
  64   2.0000     -10.317396      -280.7506
  65   2.0000     -10.313783      -280.6523
  66   2.0000     -10.311810      -280.5986
  67   2.0000     -10.311170      -280.5812
  68   2.0000     -10.310954      -280.5753
  69   2.0000     -10.310651      -280.5671
  70   2.0000     -10.310598      -280.5656
  71   2.0000     -10.310272      -280.5568
  72   2.0000     -10.307982      -280.4945
  73   2.0000      -8.789110      -239.1639
  74   2.0000      -8.788290      -239.1415
  75   2.0000      -8.787541      -239.1211
  76   2.0000      -8.787279      -239.1140
  77   2.0000      -8.086411      -220.0424
  78   2.0000      -8.084667      -219.9950
  79   2.0000      -8.082657      -219.9403
  80   2.0000      -6.625235      -180.2818
  81   2.0000      -6.624443      -180.2603
  82   2.0000      -6.623738      -180.2411
  83   2.0000      -6.623474      -180.2339
  84   2.0000      -6.611268      -179.9018
  85   2.0000      -6.610411      -179.8784
  86   2.0000      -6.610410      -179.8784
  87   2.0000      -6.609631      -179.8572
  88   2.0000      -6.609606      -179.8565
  89   2.0000      -6.609380      -179.8504
  90   2.0000      -6.608839      -179.8357
  91   2.0000      -6.608569      -179.8283
  92   2.0000      -6.054941      -164.7633
  93   2.0000      -6.053224      -164.7166
  94   2.0000      -6.051669      -164.6743
  95   2.0000      -6.051207      -164.6617
  96   2.0000      -6.049953      -164.6276
  97   2.0000      -6.048939      -164.6000
  98   2.0000      -6.047921      -164.5723
  99   2.0000      -6.047135      -164.5509
 100   2.0000      -6.045131      -164.4964
 101   2.0000      -2.741189       -74.5915
 102   2.0000      -2.740326       -74.5681
 103   2.0000      -2.739612       -74.5486
 104   2.0000      -2.739349       -74.5415
 105   2.0000      -2.737367       -74.4875
 106   2.0000      -2.736752       -74.4708
 107   2.0000      -2.736541       -74.4651
 108   2.0000      -2.736006       -74.4505
 109   2.0000      -2.735844       -74.4461
 110   2.0000      -2.735550       -74.4381
 111   2.0000      -2.735240       -74.4297
 112   2.0000      -2.735005       -74.4233
 113   2.0000      -2.725616       -74.1678
 114   2.0000      -2.725610       -74.1676
 115   2.0000      -2.724799       -74.1456
 116   2.0000      -2.724777       -74.1450
 117   2.0000      -2.724012       -74.1241
 118   2.0000      -2.723992       -74.1236
 119   2.0000      -2.723753       -74.1171
 120   2.0000      -2.723730       -74.1165
 121   2.0000      -1.162107       -31.6225
 122   2.0000      -1.157685       -31.5022
 123   2.0000      -1.155822       -31.4515
 124   2.0000      -1.145827       -31.1795
 125   2.0000      -1.145133       -31.1606
 126   2.0000      -1.035587       -28.1798
 127   2.0000      -1.032519       -28.0963
 128   2.0000      -1.018547       -27.7161
 129   2.0000      -1.014911       -27.6171
 130   2.0000      -1.008622       -27.4460
 131   2.0000      -1.003317       -27.3016
 132   2.0000      -0.987986       -26.8845
 133   2.0000      -0.984866       -26.7996
 134   2.0000      -0.971503       -26.4359
 135   2.0000      -0.965179       -26.2638
 136   2.0000      -0.954165       -25.9642
 137   2.0000      -0.946687       -25.7607
 138   2.0000      -0.934544       -25.4302
 139   2.0000      -0.929511       -25.2933
 140   2.0000      -0.929446       -25.2915
 141   2.0000      -0.928365       -25.2621
 142   2.0000      -0.921412       -25.0729
 143   2.0000      -0.918537       -24.9947
 144   2.0000      -0.915587       -24.9144
 145   2.0000      -0.900744       -24.5105
 146   2.0000      -0.888672       -24.1820
 147   2.0000      -0.877574       -23.8800
 148   2.0000      -0.863701       -23.5025
 149   2.0000      -0.859841       -23.3975
 150   2.0000      -0.859003       -23.3747
 151   2.0000      -0.851779       -23.1781
 152   2.0000      -0.841446       -22.8969
 153   2.0000      -0.794808       -21.6278
 154   2.0000      -0.790826       -21.5195
 155   2.0000      -0.775908       -21.1135
 156   2.0000      -0.775609       -21.1054
 157   2.0000      -0.773430       -21.0461
 158   2.0000      -0.767427       -20.8828
 159   2.0000      -0.742141       -20.1947
 160   2.0000      -0.736846       -20.0506
 161   2.0000      -0.715803       -19.4780
 162   2.0000      -0.712862       -19.3979
 163   2.0000      -0.709088       -19.2953
 164   2.0000      -0.705495       -19.1975
 165   2.0000      -0.703113       -19.1327
 166   2.0000      -0.694626       -18.9017
 167   2.0000      -0.691691       -18.8219
 168   2.0000      -0.679659       -18.4945
 169   2.0000      -0.669050       -18.2058
 170   2.0000      -0.653085       -17.7714
 171   2.0000      -0.639444       -17.4002
 172   2.0000      -0.630256       -17.1501
 173   2.0000      -0.626457       -17.0468
 174   2.0000      -0.624586       -16.9959
 175   2.0000      -0.614390       -16.7184
 176   2.0000      -0.607230       -16.5236
 177   2.0000      -0.605661       -16.4809
 178   2.0000      -0.602168       -16.3858
 179   2.0000      -0.588557       -16.0155
 180   2.0000      -0.587809       -15.9951
 181   2.0000      -0.582753       -15.8575
 182   2.0000      -0.567750       -15.4493
 183   2.0000      -0.562507       -15.3066
 184   2.0000      -0.558916       -15.2089
 185   2.0000      -0.558124       -15.1873
 186   2.0000      -0.556990       -15.1565
 187   2.0000      -0.552821       -15.0430
 188   2.0000      -0.551711       -15.0128
 189   2.0000      -0.550295       -14.9743
 190   2.0000      -0.548711       -14.9312
 191   2.0000      -0.541879       -14.7453
 192   2.0000      -0.538621       -14.6566
 193   2.0000      -0.536893       -14.6096
 194   2.0000      -0.530723       -14.4417
 195   2.0000      -0.528899       -14.3921
 196   2.0000      -0.527465       -14.3531
 197   2.0000      -0.520277       -14.1575
 198   2.0000      -0.515729       -14.0337
 199   2.0000      -0.511856       -13.9283
 200   2.0000      -0.510792       -13.8994
 201   2.0000      -0.509678       -13.8690
 202   2.0000      -0.507226       -13.8023
 203   2.0000      -0.502066       -13.6619
 204   2.0000      -0.497140       -13.5279
 205   2.0000      -0.495554       -13.4847
 206   2.0000      -0.494305       -13.4507
 207   2.0000      -0.487519       -13.2661
 208   2.0000      -0.484588       -13.1863
 209   2.0000      -0.476120       -12.9559
 210   2.0000      -0.470083       -12.7916
 211   2.0000      -0.469958       -12.7882
 212   2.0000      -0.468487       -12.7482
 213   2.0000      -0.465421       -12.6647
 214   2.0000      -0.462209       -12.5773
 215   2.0000      -0.462120       -12.5749
 216   2.0000      -0.456863       -12.4319
 217   2.0000      -0.456485       -12.4216
 218   2.0000      -0.452875       -12.3234
 219   2.0000      -0.450172       -12.2498
 220   2.0000      -0.442031       -12.0283
 221   2.0000      -0.441647       -12.0178
 222   2.0000      -0.439166       -11.9503
 223   2.0000      -0.435862       -11.8604
 224   2.0000      -0.434566       -11.8251
 225   2.0000      -0.432782       -11.7766
 226   2.0000      -0.427120       -11.6225
 227   2.0000      -0.424141       -11.5415
 228   2.0000      -0.416490       -11.3333
 229   2.0000      -0.409199       -11.1349
 230   2.0000      -0.407934       -11.1004
 231   2.0000      -0.405400       -11.0315
 232   2.0000      -0.405026       -11.0213
 233   2.0000      -0.404615       -11.0101
 234   2.0000      -0.403694       -10.9851
 235   2.0000      -0.395894       -10.7728
 236   2.0000      -0.395133       -10.7521
 237   2.0000      -0.394278       -10.7289
 238   2.0000      -0.389338       -10.5944
 239   2.0000      -0.386929       -10.5289
 240   2.0000      -0.383246       -10.4287
 241   2.0000      -0.371671       -10.1137
 242   2.0000      -0.356361        -9.6971
 243   2.0000      -0.354522        -9.6470
 244   2.0000      -0.353238        -9.6121
 245   2.0000      -0.349740        -9.5169
 246   2.0000      -0.348677        -9.4880
 247   2.0000      -0.343986        -9.3603
 248   2.0000      -0.340050        -9.2532
 249   2.0000      -0.338808        -9.2194
 250   2.0000      -0.335225        -9.1219
 251   2.0000      -0.331633        -9.0242
 252   2.0000      -0.326639        -8.8883
 253   2.0000      -0.318631        -8.6704
 254   2.0000      -0.317016        -8.6264
 255   2.0000      -0.303345        -8.2544
 256   2.0000      -0.280449        -7.6314
 257   0.0000      -0.114523        -3.1163
 258   0.0000      -0.107379        -2.9219
 259   0.0000      -0.083594        -2.2747
 260   0.0000      -0.076970        -2.0945
 261   0.0000      -0.068111        -1.8534

MULLIKEN ATOMIC CHARGES
-----------------------
   0 C :    0.149398
   1 O :   -0.093814
   2 C :   -0.027852
   3 C :    0.041092
   4 C :   -0.005842
   5 C :   -0.024168
   6 C :   -0.016772
   7 C :   -0.013405
   8 Br:    0.021709
   9 Br:    0.026992
  10 C :    0.294787
  11 C :   -0.328293
  12 C :   -0.187331
  13 N :    0.165714
  14 C :   -0.194082
  15 N :    0.170846
  16 C :   -0.067268
  17 C :    0.044382
  18 C :   -0.133999
  19 S :    0.131872
  20 C :   -0.080996
  21 N :   -0.056315
  22 N :    0.015581
  23 C :    0.060866
  24 C :    0.076692
  25 C :   -0.103138
  26 S :    0.129980
  27 C :   -0.103204
  28 N :   -0.041532
  29 N :   -0.041384
  30 C :    0.072949
  31 C :    0.065605
  32 C :   -0.095545
  33 S :    0.126244
  34 C :   -0.099610
  35 N :   -0.036658
  36 N :   -0.041956
  37 C :    0.071950
  38 C :    0.025461
  39 C :    0.032058
  40 C :   -0.100446
  41 C :    0.145188
  42 O :   -0.126046
  43 C :   -0.009660
  44 C :    0.032659
  45 C :    0.251841
  46 C :   -0.307076
  47 C :   -0.207325
  48 N :    0.178738
  49 C :   -0.178181
  50 N :    0.165689
  51 C :   -0.010051
  52 C :   -0.023567
  53 C :   -0.017582
  54 C :   -0.018069
  55 Br:    0.018403
  56 Br:    0.025726
  57 H :    0.008089
  58 H :    0.010179
  59 H :    0.032349
  60 H :    0.023025
  61 H :    0.027106
  62 H :    0.025541
  63 H :    0.022393
  64 H :    0.006098
  65 H :    0.050557
  66 H :    0.021991
  67 H :    0.012152
  68 H :    0.009264
Sum of atomic charges:   -0.0000000

LOEWDIN ATOMIC CHARGES
----------------------
   0 C :    0.078546
   1 O :   -0.097578
   2 C :   -0.040138
   3 C :   -0.014622
   4 C :   -0.006072
   5 C :   -0.118524
   6 C :   -0.120143
   7 C :    0.008662
   8 Br:    0.143912
   9 Br:    0.145359
  10 C :    0.071013
  11 C :   -0.122471
  12 C :   -0.019525
  13 N :   -0.035542
  14 C :   -0.022674
  15 N :   -0.037252
  16 C :   -0.059564
  17 C :    0.034467
  18 C :   -0.163433
  19 S :    0.414461
  20 C :   -0.136292
  21 N :   -0.071842
  22 N :   -0.023162
  23 C :   -0.022260
  24 C :   -0.006047
  25 C :   -0.152597
  26 S :    0.412198
  27 C :   -0.149148
  28 N :   -0.070971
  29 N :   -0.068347
  30 C :   -0.013845
  31 C :   -0.017933
  32 C :   -0.144709
  33 S :    0.409111
  34 C :   -0.152361
  35 N :   -0.058368
  36 N :   -0.068596
  37 C :   -0.006744
  38 C :    0.005754
  39 C :    0.064243
  40 C :   -0.078874
  41 C :    0.083221
  42 O :   -0.128487
  43 C :   -0.044955
  44 C :   -0.008568
  45 C :    0.065301
  46 C :   -0.120578
  47 C :   -0.023663
  48 N :   -0.033947
  49 C :   -0.020004
  50 N :   -0.035705
  51 C :   -0.008363
  52 C :   -0.116985
  53 C :   -0.123118
  54 C :    0.008271
  55 Br:    0.140577
  56 Br:    0.145290
  57 H :    0.044875
  58 H :    0.047896
  59 H :    0.047739
  60 H :    0.042905
  61 H :    0.044040
  62 H :    0.043210
  63 H :    0.042510
  64 H :    0.038431
  65 H :    0.042529
  66 H :    0.046959
  67 H :    0.045285
  68 H :    0.047241

  Mayer bond orders larger than 0.100000
B(  0-C ,  1-O ) :   2.2885 B(  0-C ,  2-C ) :   0.9368 B(  0-C , 16-C ) :   0.9096
B(  2-C ,  3-C ) :   1.3271 B(  2-C ,  7-C ) :   1.3743 B(  3-C ,  4-C ) :   1.3550
B(  3-C , 10-C ) :   1.0030 B(  4-C ,  5-C ) :   1.3814 B(  4-C , 57-H ) :   0.9789
B(  5-C ,  6-C ) :   1.4112 B(  5-C ,  9-Br) :   1.0600 B(  6-C ,  7-C ) :   1.3571
B(  6-C ,  8-Br) :   1.0399 B(  7-C , 58-H ) :   1.0071 B( 10-C , 11-C ) :   1.6644
B( 10-C , 16-C ) :   1.0537 B( 11-C , 12-C ) :   1.1372 B( 11-C , 14-C ) :   1.1371
B( 12-C , 13-N ) :   2.9742 B( 14-C , 15-N ) :   2.9858 B( 16-C , 17-C ) :   1.7044
B( 17-C , 18-C ) :   1.1095 B( 17-C , 59-H ) :   0.9241 B( 18-C , 19-S ) :   1.0810
B( 18-C , 22-N ) :   1.6388 B( 19-S , 20-C ) :   1.1273 B( 19-S , 22-N ) :   0.1074
B( 20-C , 21-N ) :   1.6360 B( 20-C , 23-C ) :   1.0881 B( 21-N , 22-N ) :   1.2730
B( 23-C , 24-C ) :   1.7577 B( 23-C , 60-H ) :   0.9571 B( 24-C , 25-C ) :   1.0855
B( 24-C , 61-H ) :   0.9537 B( 25-C , 26-S ) :   1.1035 B( 25-C , 29-N ) :   1.6745
B( 26-S , 27-C ) :   1.1063 B( 27-C , 28-N ) :   1.6754 B( 27-C , 30-C ) :   1.0851
B( 28-N , 29-N ) :   1.2420 B( 30-C , 31-C ) :   1.7616 B( 30-C , 62-H ) :   0.9536
B( 31-C , 32-C ) :   1.0872 B( 31-C , 63-H ) :   0.9568 B( 32-C , 33-S ) :   1.1072
B( 32-C , 36-N ) :   1.6661 B( 33-S , 34-C ) :   1.0948 B( 34-C , 35-N ) :   1.6576
B( 34-C , 37-C ) :   1.0991 B( 35-N , 36-N ) :   1.2510 B( 37-C , 38-C ) :   1.7173
B( 37-C , 64-H ) :   0.9605 B( 38-C , 39-C ) :   1.0987 B( 38-C , 65-H ) :   0.9511
B( 39-C , 40-C ) :   1.6496 B( 39-C , 66-H ) :   0.9583 B( 40-C , 41-C ) :   0.9346
B( 40-C , 45-C ) :   1.0288 B( 41-C , 42-O ) :   2.2853 B( 41-C , 43-C ) :   0.9221
B( 43-C , 44-C ) :   1.3258 B( 43-C , 54-C ) :   1.3754 B( 44-C , 45-C ) :   1.0088
B( 44-C , 51-C ) :   1.3675 B( 45-C , 46-C ) :   1.6732 B( 46-C , 47-C ) :   1.1483
B( 46-C , 49-C ) :   1.1293 B( 47-C , 48-N ) :   3.0176 B( 49-C , 50-N ) :   2.9908
B( 51-C , 52-C ) :   1.3703 B( 51-C , 67-H ) :   0.9838 B( 52-C , 53-C ) :   1.4186
B( 52-C , 56-Br) :   1.0554 B( 53-C , 54-C ) :   1.3582 B( 53-C , 55-Br) :   1.0366
B( 54-C , 68-H ) :   1.0076

-----------------------------------------------------------------------------
         ABSORPTION SPECTRUM VIA TRANSITION ELECTRIC DIPOLE MOMENTS
-----------------------------------------------------------------------------
State   Energy  Wavelength   fosc         T2         TX        TY        TZ
        (cm-1)    (nm)                  (au**2)     (au)      (au)      (au)
-----------------------------------------------------------------------------
   0   21006.2    476.0   2.292720401  35.93179   3.36053   4.75292  -1.43120
   1   22562.3    443.2   0.160521255   2.34220  -0.74919  -0.98544   0.89990
   2   24011.6    416.5   0.195677746   2.68285  -0.76810  -1.12490  -0.90966
   3   26591.1    376.1   0.001203932   0.01491   0.02467   0.05114  -0.10808
   4   27385.6    365.2   0.130257376   1.56587  -0.53114  -1.07916  -0.34521
   5   27775.2    360.0   0.019977747   0.23679   0.45000   0.07462   0.16947
   6   28160.7    355.1   0.124800874   1.45898   0.70623   0.97959  -0.02515
   7   28358.3    352.6   0.025047704   0.29078   0.32178   0.42845   0.06055
   8   28685.8    348.6   0.249573558   2.86422  -0.56773  -0.65545  -1.45337
   9   29184.1    342.7   0.072112128   0.81346   0.37900   0.81473  -0.07773
  10   30084.3    332.4   0.114482315   1.25278   0.52171   0.36403  -0.92091
  11   30404.7    328.9   0.064656963   0.70008  -0.68202  -0.43585  -0.21205
  12   31321.0    319.3   0.031135458   0.32726  -0.19947   0.21338   0.49188
  13   31717.4    315.3   0.274563928   2.84985  -1.01383  -1.14954   0.70750
  14   32583.4    306.9   0.035619993   0.35989  -0.21222  -0.00080  -0.56112
  15   32858.7    304.3   0.067921798   0.68051  -0.52930  -0.54698  -0.31806
  16   33117.9    302.0   0.187661575   1.86547  -0.98084  -0.91521  -0.25655
  17   33609.9    297.5   0.088156190   0.86350  -0.48884  -0.75248   0.24148
  18   33720.1    296.6   0.037344923   0.36460   0.58761   0.13849  -0.01150
  19   34826.5    287.1   0.001080444   0.01021  -0.00307   0.08134  -0.05990
  20   35295.4    283.3   0.005459669   0.05092   0.17355  -0.02524   0.14202
  21   35571.3    281.1   0.310622889   2.87481  -1.10373  -0.86425  -0.95377
  22   35682.7    280.2   0.455572666   4.20315   0.43458   0.63710  -1.89958
  23   35929.5    278.3   0.027354474   0.25064  -0.36771   0.04901   0.33620
  24   36227.3    276.0   0.330480477   3.00321   1.02327   1.24947   0.62846
  25   36458.4    274.3   0.192441129   1.73770  -0.44044  -0.25563   1.21588
  26   36540.4    273.7   0.028761488   0.25913  -0.19424  -0.13761   0.44996
  27   37709.8    265.2   0.122662008   1.07086  -0.68817   0.16255   0.75555
  28   37828.1    264.4   0.140510618   1.22284   0.64387   0.85732   0.27069
  29   37911.3    263.8   0.077282293   0.67110  -0.44835  -0.65223  -0.21135
  30   37988.1    263.2   0.032117886   0.27834   0.04948   0.18532   0.49147
  31   38546.5    259.4   0.041788587   0.35690   0.01343   0.34190   0.48972
  32   38950.3    256.7   0.013856307   0.11712  -0.03597  -0.25189  -0.22885
  33   39372.3    254.0   0.138380892   1.15707   0.39211  -0.44301  -0.89837
  34   39768.6    251.5   0.018048808   0.14941  -0.37089  -0.09466  -0.05380

FINAL SINGLE POINT ENERGY    -13640.381469366619

DIPOLE MOMENT
-------------
                                X             Y             Z
Electronic contribution:    -22.83233      28.73989     118.23167
Nuclear contribution   :     22.21906     -30.14659    -118.67811
                        -----------------------------------------
Total Dipole Moment    :     -0.61327      -1.40670      -0.44643
                        -----------------------------------------
Magnitude (a.u.)       :      1.59818
Magnitude (Debye)      :      4.06226

Rotational constants in cm-1:     0.002108     0.000120     0.000115
Rotational constants in MHz :    63.182779     3.606617     3.451032

                             ****ORCA TERMINATED NORMALLY****
TOTAL RUN TIME: 0 days 0 hours 5 minutes 52 seconds 820 msec
