                         Program Version 4.2.0 -  RELEASE  -
|  1> # ORCA input file
|  2> # SCF done       -195.066433521777          0.000550744811
|  3> ! CAM-B3LYP def2-SVP def2/J RIJCOSX Grid4 TightSCF
|  4> %maxcore 5000
|  5> %tddft
|  6>     Mode sTDDFT
|  7>     Ethresh 5.0
|  8>     maxcore 5000
|  9> end
| 10>
| 11> %pal
| 12>   nprocs 6
| 13>   end
| 14> * xyz 0 1
| 15>    C        1.36214         1.71081         1.14478
| 16>    C        0.73748         2.80706         1.65447
| 17>    S        1.14786         3.04406         3.31348
| 18>    C        2.18483         1.63715         3.32612
| 19>   Cl        3.01866         1.16698         4.72287
| 20>    C        2.19085         1.03864         2.10100
| 21>    C        2.82672        -0.12829         1.48339
| 22>    O        3.60595        -0.90391         1.98716
| 23>    C        2.34213        -0.11572         0.06487
| 24>    C        1.43045         1.00792        -0.11940
| 25>    C        0.72397         1.34616        -1.24132
| 26>    C       -0.13544         2.46584        -1.25709
| 27>    N       -0.83382         3.37519        -1.28670
| 28>    C        0.74695         0.65158        -2.46745
| 29>    N        0.71736         0.12401        -3.48647
| 30>    C        2.80555        -0.93654        -0.90905
| 31>    C        3.67949        -2.05966        -0.70822
| 32>    C        3.50280        -3.02724         0.29448
| 33>    N        4.34257        -4.01558         0.47530
| 34>    C        5.37761        -4.12656        -0.36072
| 35>    N        5.58805        -3.30700        -1.39264
| 36>    C        4.77700        -2.29752        -1.55737
| 37>    C        6.32793        -5.20061        -0.21285
| 38>    N        6.33664        -6.13609         0.78464
| 39>    C        5.48759        -6.19234         1.95101
| 40>    C        5.88016        -5.14404         2.98736
| 41>    C        7.37202        -7.08037         0.59916
| 42>    O        7.57539        -8.01277         1.34528
| 43>    C        8.02572        -6.65019        -0.61791
| 44>    C        7.36442        -5.49122        -1.09170
| 45>    C        8.01874        -5.08620        -2.32273
| 46>    O        7.84943        -4.16906        -3.08692
| 47>    N        9.02873        -6.07089        -2.51894
| 48>    C        9.97508        -5.90229        -3.59700
| 49>    C       11.37384        -5.57393        -3.08330
| 50>    C        9.03559        -6.99599        -1.51024
| 51>    C        9.86452        -8.14661        -1.34345
| 52>    C       10.58955        -8.77463        -2.28918
| 53>    C       11.35902        -9.97250        -2.04996
| 54>    C       11.27154       -11.07977        -2.91170
| 55>    C       10.47958       -11.06593        -4.15664
| 56>    O        9.84278       -10.16384        -4.61646
| 57>    S       10.60848       -12.66385        -4.94689
| 58>    C       11.65183       -13.33118        -3.64761
| 59>    O       12.07862       -14.44629        -3.69875
| 60>    C       11.88050       -12.29430        -2.61595
| 61>    C       12.66559       -12.49683        -1.45357
| 62>    C       12.95590       -11.30631        -0.73363
| 63>    C       12.27994       -10.11693        -0.99517
| 64>    C       12.68981        -8.97089        -0.14987
| 65>    O       12.39448        -7.81994        -0.26976
| 66>    S       13.83668        -9.54633         1.09179
| 67>    C       14.01283       -11.13275         0.28993
| 68>    O       14.95705       -11.83220         0.51808
| 69>    C       12.94693       -13.84778        -1.05139
| 70>    C       13.71465       -14.31145        -0.04013
| 71>    C       13.70691       -15.68389         0.33776
| 72>    C       14.11529       -16.16647         1.53791
| 73>    C       14.37491       -17.63398         1.70973
| 74>    O       14.03178       -18.51328         0.96000
| 75>    C       15.16543       -17.71538         2.94230
| 76>    C       15.81863       -18.68125         3.64907
| 77>    S       16.57522       -17.99409         5.06707
| 78>    C       15.99195       -16.41415         4.69419
| 79>    C       15.26514       -16.41638         3.54436
| 80>    C       14.50783       -15.46633         2.75131
| 81>    C       14.11275       -14.23001         3.18766
| 82>    C       14.56681       -13.71778         4.42393
| 83>    N       14.94023       -13.29057         5.42031
| 84>    C       13.18737       -13.37687         2.55454
| 85>    N       12.42274       -12.63898         2.11841
| 86>   Cl       15.94143       -20.33202         3.29449
| 87>    H        0.06906         3.49413         1.17469
| 88>    H        2.54498        -0.73138        -1.94036
| 89>    H        2.63459        -3.01793         0.93865
| 90>    H        5.00903        -1.62910        -2.37596
| 91>    H        5.62058        -7.19540         2.36617
| 92>    H        4.44966        -6.04816         1.64689
| 93>    H        6.92746        -5.25493         3.25845
| 94>    H        5.27386        -5.27102         3.87946
| 95>    H        5.71611        -4.14300         2.59764
| 96>    H        9.59181        -5.06258        -4.18562
| 97>    H        9.97988        -6.78720        -4.23852
| 98>    H       11.35532        -4.63427        -2.53684
| 99>    H       12.05652        -5.47231        -3.92238
|100>    H       11.74651        -6.34793        -2.41706
|101>    H        9.80883        -8.56275        -0.34505
|102>    H       10.53609        -8.46430        -3.32092
|103>    H       12.37401       -14.59052        -1.59086
|104>    H       14.37877       -13.66581         0.51070
|105>    H       13.38643       -16.41928        -0.39258
|106>    H       16.23533       -15.59612         5.34285
|107> *
|108>
|109>                          ****END OF INPUT****

CARTESIAN COORDINATES (ANGSTROEM)
---------------------------------
  C      1.362140    1.710810    1.144780
  C      0.737480    2.807060    1.654470
  S      1.147860    3.044060    3.313480
  C      2.184830    1.637150    3.326120
  Cl     3.018660    1.166980    4.722870
  C      2.190850    1.038640    2.101000
  C      2.826720   -0.128290    1.483390
  O      3.605950   -0.903910    1.987160
  C      2.342130   -0.115720    0.064870
  C      1.430450    1.007920   -0.119400
  C      0.723970    1.346160   -1.241320
  C     -0.135440    2.465840   -1.257090
  N     -0.833820    3.375190   -1.286700
  C      0.746950    0.651580   -2.467450
  N      0.717360    0.124010   -3.486470
  C      2.805550   -0.936540   -0.909050
  C      3.679490   -2.059660   -0.708220
  C      3.502800   -3.027240    0.294480
  N      4.342570   -4.015580    0.475300
  C      5.377610   -4.126560   -0.360720
  N      5.588050   -3.307000   -1.392640
  C      4.777000   -2.297520   -1.557370
  C      6.327930   -5.200610   -0.212850
  N      6.336640   -6.136090    0.784640
  C      5.487590   -6.192340    1.951010
  C      5.880160   -5.144040    2.987360
  C      7.372020   -7.080370    0.599160
  O      7.575390   -8.012770    1.345280
  C      8.025720   -6.650190   -0.617910
  C      7.364420   -5.491220   -1.091700
  C      8.018740   -5.086200   -2.322730
  O      7.849430   -4.169060   -3.086920
  N      9.028730   -6.070890   -2.518940
  C      9.975080   -5.902290   -3.597000
  C     11.373840   -5.573930   -3.083300
  C      9.035590   -6.995990   -1.510240
  C      9.864520   -8.146610   -1.343450
  C     10.589550   -8.774630   -2.289180
  C     11.359020   -9.972500   -2.049960
  C     11.271540  -11.079770   -2.911700
  C     10.479580  -11.065930   -4.156640
  O      9.842780  -10.163840   -4.616460
  S     10.608480  -12.663850   -4.946890
  C     11.651830  -13.331180   -3.647610
  O     12.078620  -14.446290   -3.698750
  C     11.880500  -12.294300   -2.615950
  C     12.665590  -12.496830   -1.453570
  C     12.955900  -11.306310   -0.733630
  C     12.279940  -10.116930   -0.995170
  C     12.689810   -8.970890   -0.149870
  O     12.394480   -7.819940   -0.269760
  S     13.836680   -9.546330    1.091790
  C     14.012830  -11.132750    0.289930
  O     14.957050  -11.832200    0.518080
  C     12.946930  -13.847780   -1.051390
  C     13.714650  -14.311450   -0.040130
  C     13.706910  -15.683890    0.337760
  C     14.115290  -16.166470    1.537910
  C     14.374910  -17.633980    1.709730
  O     14.031780  -18.513280    0.960000
  C     15.165430  -17.715380    2.942300
  C     15.818630  -18.681250    3.649070
  S     16.575220  -17.994090    5.067070
  C     15.991950  -16.414150    4.694190
  C     15.265140  -16.416380    3.544360
  C     14.507830  -15.466330    2.751310
  C     14.112750  -14.230010    3.187660
  C     14.566810  -13.717780    4.423930
  N     14.940230  -13.290570    5.420310
  C     13.187370  -13.376870    2.554540
  N     12.422740  -12.638980    2.118410
  Cl    15.941430  -20.332020    3.294490
  H      0.069060    3.494130    1.174690
  H      2.544980   -0.731380   -1.940360
  H      2.634590   -3.017930    0.938650
  H      5.009030   -1.629100   -2.375960
  H      5.620580   -7.195400    2.366170
  H      4.449660   -6.048160    1.646890
  H      6.927460   -5.254930    3.258450
  H      5.273860   -5.271020    3.879460
  H      5.716110   -4.143000    2.597640
  H      9.591810   -5.062580   -4.185620
  H      9.979880   -6.787200   -4.238520
  H     11.355320   -4.634270   -2.536840
  H     12.056520   -5.472310   -3.922380
  H     11.746510   -6.347930   -2.417060
  H      9.808830   -8.562750   -0.345050
  H     10.536090   -8.464300   -3.320920
  H     12.374010  -14.590520   -1.590860
  H     14.378770  -13.665810    0.510700
  H     13.386430  -16.419280   -0.392580
  H     16.235330  -15.596120    5.342850

 Total Charge           Charge          ....    0
 Multiplicity           Mult            ....    1
 Number of Electrons    NEL             ....  538
 Basis Dimension        Dim             .... 1132

ORBITAL ENERGIES
----------------

  NO   OCC          E(Eh)            E(eV)
   0   2.0000    -101.625144     -2765.3607
   1   2.0000    -101.620905     -2765.2454
   2   2.0000     -89.002747     -2421.8879
   3   2.0000     -88.997998     -2421.7586
   4   2.0000     -88.962437     -2420.7910
   5   2.0000     -88.957814     -2420.6652
   6   2.0000     -19.255794      -523.9768
   7   2.0000     -19.254666      -523.9461
   8   2.0000     -19.252781      -523.8948
   9   2.0000     -19.248562      -523.7800
  10   2.0000     -19.232806      -523.3513
  11   2.0000     -19.224538      -523.1263
  12   2.0000     -19.187929      -522.1301
  13   2.0000     -19.185793      -522.0720
  14   2.0000     -14.450915      -393.2294
  15   2.0000     -14.449037      -393.1783
  16   2.0000     -14.430341      -392.6695
  17   2.0000     -14.429793      -392.6546
  18   2.0000     -14.428869      -392.6295
  19   2.0000     -14.426339      -392.5607
  20   2.0000     -14.426185      -392.5564
  21   2.0000     -14.419820      -392.3832
  22   2.0000     -10.418846      -283.5112
  23   2.0000     -10.417535      -283.4755
  24   2.0000     -10.416619      -283.4506
  25   2.0000     -10.412871      -283.3486
  26   2.0000     -10.390044      -282.7275
  27   2.0000     -10.385462      -282.6028
  28   2.0000     -10.380705      -282.4734
  29   2.0000     -10.380444      -282.4662
  30   2.0000     -10.372179      -282.2413
  31   2.0000     -10.369870      -282.1785
  32   2.0000     -10.363881      -282.0155
  33   2.0000     -10.359176      -281.8875
  34   2.0000     -10.358560      -281.8707
  35   2.0000     -10.357717      -281.8478
  36   2.0000     -10.357098      -281.8310
  37   2.0000     -10.347895      -281.5805
  38   2.0000     -10.343697      -281.4663
  39   2.0000     -10.342738      -281.4402
  40   2.0000     -10.342651      -281.4378
  41   2.0000     -10.340191      -281.3709
  42   2.0000     -10.339579      -281.3542
  43   2.0000     -10.338511      -281.3252
  44   2.0000     -10.337614      -281.3008
  45   2.0000     -10.336912      -281.2817
  46   2.0000     -10.336195      -281.2622
  47   2.0000     -10.335783      -281.2510
  48   2.0000     -10.334834      -281.2251
  49   2.0000     -10.334303      -281.2107
  50   2.0000     -10.334276      -281.2099
  51   2.0000     -10.331892      -281.1451
  52   2.0000     -10.330476      -281.1065
  53   2.0000     -10.327983      -281.0387
  54   2.0000     -10.323759      -280.9238
  55   2.0000     -10.322094      -280.8785
  56   2.0000     -10.320970      -280.8479
  57   2.0000     -10.318475      -280.7800
  58   2.0000     -10.311889      -280.6008
  59   2.0000     -10.310751      -280.5698
  60   2.0000     -10.310630      -280.5665
  61   2.0000     -10.309385      -280.5326
  62   2.0000     -10.305061      -280.4150
  63   2.0000     -10.303120      -280.3622
  64   2.0000     -10.302540      -280.3464
  65   2.0000     -10.301256      -280.3114
  66   2.0000     -10.300947      -280.3030
  67   2.0000     -10.288377      -279.9610
  68   2.0000     -10.266427      -279.3637
  69   2.0000     -10.262349      -279.2527
  70   2.0000     -10.255297      -279.0608
  71   2.0000     -10.246386      -278.8183
  72   2.0000      -9.579918      -260.6828
  73   2.0000      -9.575704      -260.5682
  74   2.0000      -8.098425      -220.3694
  75   2.0000      -8.093709      -220.2410
  76   2.0000      -8.061757      -219.3716
  77   2.0000      -8.057203      -219.2477
  78   2.0000      -7.350574      -200.0193
  79   2.0000      -7.346362      -199.9047
  80   2.0000      -7.339951      -199.7302
  81   2.0000      -7.339385      -199.7148
  82   2.0000      -7.335720      -199.6151
  83   2.0000      -7.335184      -199.6005
  84   2.0000      -6.067785      -165.1128
  85   2.0000      -6.063161      -164.9870
  86   2.0000      -6.063063      -164.9843
  87   2.0000      -6.060729      -164.9208
  88   2.0000      -6.058477      -164.8595
  89   2.0000      -6.055995      -164.7920
  90   2.0000      -6.030640      -164.1020
  91   2.0000      -6.027334      -164.0121
  92   2.0000      -6.026059      -163.9774
  93   2.0000      -6.022922      -163.8920
  94   2.0000      -6.022773      -163.8880
  95   2.0000      -6.018072      -163.7601
  96   2.0000      -1.181253       -32.1435
  97   2.0000      -1.178655       -32.0728
  98   2.0000      -1.176513       -32.0145
  99   2.0000      -1.172573       -31.9073
 100   2.0000      -1.150029       -31.2939
 101   2.0000      -1.141862       -31.0716
 102   2.0000      -1.130981       -30.7755
 103   2.0000      -1.123548       -30.5733
 104   2.0000      -1.101302       -29.9679
 105   2.0000      -1.060361       -28.8539
 106   2.0000      -1.050046       -28.5732
 107   2.0000      -1.047486       -28.5036
 108   2.0000      -1.043238       -28.3879
 109   2.0000      -1.030084       -28.0300
 110   2.0000      -1.026739       -27.9390
 111   2.0000      -1.025418       -27.9030
 112   2.0000      -1.007944       -27.4275
 113   2.0000      -1.007079       -27.4040
 114   2.0000      -0.997832       -27.1524
 115   2.0000      -0.994132       -27.0517
 116   2.0000      -0.994007       -27.0483
 117   2.0000      -0.976745       -26.5786
 118   2.0000      -0.965383       -26.2694
 119   2.0000      -0.961718       -26.1697
 120   2.0000      -0.949677       -25.8420
 121   2.0000      -0.938048       -25.5256
 122   2.0000      -0.936374       -25.4800
 123   2.0000      -0.923646       -25.1337
 124   2.0000      -0.918323       -24.9888
 125   2.0000      -0.914482       -24.8843
 126   2.0000      -0.907139       -24.6845
 127   2.0000      -0.889597       -24.2072
 128   2.0000      -0.877967       -23.8907
 129   2.0000      -0.863391       -23.4941
 130   2.0000      -0.862668       -23.4744
 131   2.0000      -0.852458       -23.1966
 132   2.0000      -0.842078       -22.9141
 133   2.0000      -0.837980       -22.8026
 134   2.0000      -0.828311       -22.5395
 135   2.0000      -0.812311       -22.1041
 136   2.0000      -0.810233       -22.0476
 137   2.0000      -0.804598       -21.8942
 138   2.0000      -0.789927       -21.4950
 139   2.0000      -0.778365       -21.1804
 140   2.0000      -0.767073       -20.8731
 141   2.0000      -0.764251       -20.7963
 142   2.0000      -0.761226       -20.7140
 143   2.0000      -0.756020       -20.5724
 144   2.0000      -0.751875       -20.4596
 145   2.0000      -0.736565       -20.0429
 146   2.0000      -0.730169       -19.8689
 147   2.0000      -0.720243       -19.5988
 148   2.0000      -0.703768       -19.1505
 149   2.0000      -0.701598       -19.0915
 150   2.0000      -0.697927       -18.9916
 151   2.0000      -0.690468       -18.7886
 152   2.0000      -0.686420       -18.6784
 153   2.0000      -0.682463       -18.5708
 154   2.0000      -0.681756       -18.5515
 155   2.0000      -0.670107       -18.2346
 156   2.0000      -0.668885       -18.2013
 157   2.0000      -0.651225       -17.7207
 158   2.0000      -0.648514       -17.6470
 159   2.0000      -0.646013       -17.5789
 160   2.0000      -0.640221       -17.4213
 161   2.0000      -0.635495       -17.2927
 162   2.0000      -0.628695       -17.1076
 163   2.0000      -0.628301       -17.0970
 164   2.0000      -0.625580       -17.0229
 165   2.0000      -0.623353       -16.9623
 166   2.0000      -0.620156       -16.8753
 167   2.0000      -0.615905       -16.7596
 168   2.0000      -0.611197       -16.6315
 169   2.0000      -0.594410       -16.1747
 170   2.0000      -0.589591       -16.0436
 171   2.0000      -0.585486       -15.9319
 172   2.0000      -0.581444       -15.8219
 173   2.0000      -0.578646       -15.7458
 174   2.0000      -0.574862       -15.6428
 175   2.0000      -0.570920       -15.5355
 176   2.0000      -0.567002       -15.4289
 177   2.0000      -0.562797       -15.3145
 178   2.0000      -0.556195       -15.1348
 179   2.0000      -0.555016       -15.1027
 180   2.0000      -0.553319       -15.0566
 181   2.0000      -0.552912       -15.0455
 182   2.0000      -0.551262       -15.0006
 183   2.0000      -0.548642       -14.9293
 184   2.0000      -0.547720       -14.9042
 185   2.0000      -0.545024       -14.8309
 186   2.0000      -0.543634       -14.7930
 187   2.0000      -0.542438       -14.7605
 188   2.0000      -0.538656       -14.6576
 189   2.0000      -0.536758       -14.6059
 190   2.0000      -0.534439       -14.5428
 191   2.0000      -0.530781       -14.4433
 192   2.0000      -0.528532       -14.3821
 193   2.0000      -0.526189       -14.3183
 194   2.0000      -0.524278       -14.2663
 195   2.0000      -0.523720       -14.2512
 196   2.0000      -0.520285       -14.1577
 197   2.0000      -0.519520       -14.1369
 198   2.0000      -0.518255       -14.1024
 199   2.0000      -0.514394       -13.9974
 200   2.0000      -0.513934       -13.9848
 201   2.0000      -0.508962       -13.8496
 202   2.0000      -0.508354       -13.8330
 203   2.0000      -0.507318       -13.8048
 204   2.0000      -0.504149       -13.7186
 205   2.0000      -0.500887       -13.6298
 206   2.0000      -0.499325       -13.5873
 207   2.0000      -0.497457       -13.5365
 208   2.0000      -0.497094       -13.5266
 209   2.0000      -0.493858       -13.4386
 210   2.0000      -0.492225       -13.3941
 211   2.0000      -0.490293       -13.3415
 212   2.0000      -0.485434       -13.2093
 213   2.0000      -0.479584       -13.0502
 214   2.0000      -0.468721       -12.7545
 215   2.0000      -0.467088       -12.7101
 216   2.0000      -0.464846       -12.6491
 217   2.0000      -0.464743       -12.6463
 218   2.0000      -0.461705       -12.5636
 219   2.0000      -0.461480       -12.5575
 220   2.0000      -0.459168       -12.4946
 221   2.0000      -0.458227       -12.4690
 222   2.0000      -0.456168       -12.4130
 223   2.0000      -0.455588       -12.3972
 224   2.0000      -0.453717       -12.3463
 225   2.0000      -0.453302       -12.3350
 226   2.0000      -0.451216       -12.2782
 227   2.0000      -0.447404       -12.1745
 228   2.0000      -0.447236       -12.1699
 229   2.0000      -0.442848       -12.0505
 230   2.0000      -0.441183       -12.0052
 231   2.0000      -0.439564       -11.9612
 232   2.0000      -0.437881       -11.9154
 233   2.0000      -0.435454       -11.8493
 234   2.0000      -0.432241       -11.7619
 235   2.0000      -0.429582       -11.6895
 236   2.0000      -0.426754       -11.6126
 237   2.0000      -0.419007       -11.4018
 238   2.0000      -0.418546       -11.3892
 239   2.0000      -0.413802       -11.2601
 240   2.0000      -0.412947       -11.2369
 241   2.0000      -0.410602       -11.1730
 242   2.0000      -0.408609       -11.1188
 243   2.0000      -0.406401       -11.0587
 244   2.0000      -0.404231       -10.9997
 245   2.0000      -0.390311       -10.6209
 246   2.0000      -0.386455       -10.5160
 247   2.0000      -0.385742       -10.4966
 248   2.0000      -0.382723       -10.4144
 249   2.0000      -0.380771       -10.3613
 250   2.0000      -0.373256       -10.1568
 251   2.0000      -0.362625        -9.8675
 252   2.0000      -0.359582        -9.7847
 253   2.0000      -0.358400        -9.7526
 254   2.0000      -0.357248        -9.7212
 255   2.0000      -0.349402        -9.5077
 256   2.0000      -0.348561        -9.4848
 257   2.0000      -0.346591        -9.4312
 258   2.0000      -0.344353        -9.3703
 259   2.0000      -0.340220        -9.2579
 260   2.0000      -0.334635        -9.1059
 261   2.0000      -0.333078        -9.0635
 262   2.0000      -0.330077        -8.9818
 263   2.0000      -0.321167        -8.7394
 264   2.0000      -0.320033        -8.7085
 265   2.0000      -0.313597        -8.5334
 266   2.0000      -0.312199        -8.4954
 267   2.0000      -0.301982        -8.2173
 268   2.0000      -0.244871        -6.6633
 269   0.0000      -0.117925        -3.2089
 270   0.0000      -0.107604        -2.9280
 271   0.0000      -0.104878        -2.8539
 272   0.0000      -0.083049        -2.2599
 273   0.0000      -0.064372        -1.7517

MULLIKEN ATOMIC CHARGES
-----------------------
   0 C :    0.030035
   1 C :   -0.127332
   2 S :    0.195231
   3 C :   -0.167364
   4 Cl:    0.006042
   5 C :    0.071562
   6 C :    0.144773
   7 O :   -0.124279
   8 C :   -0.095236
   9 C :    0.289932
  10 C :   -0.318887
  11 C :   -0.193205
  12 N :    0.163388
  13 C :   -0.192601
  14 N :    0.168563
  15 C :   -0.018632
  16 C :   -0.018155
  17 C :    0.115696
  18 N :   -0.057704
  19 C :   -0.190163
  20 N :    0.008842
  21 C :    0.056457
  22 C :    0.206967
  23 N :   -0.260747
  24 C :    0.136248
  25 C :   -0.001103
  26 C :    0.145869
  27 O :   -0.186875
  28 C :   -0.036239
  29 C :   -0.062417
  30 C :    0.151767
  31 O :   -0.149107
  32 N :   -0.269727
  33 C :    0.090494
  34 C :   -0.008898
  35 C :    0.082107
  36 C :    0.039886
  37 C :   -0.043740
  38 C :    0.027075
  39 C :    0.035232
  40 C :    0.043813
  41 O :   -0.128078
  42 S :    0.037265
  43 C :    0.039365
  44 O :   -0.128686
  45 C :    0.016886
  46 C :    0.087292
  47 C :    0.072584
  48 C :    0.018043
  49 C :    0.034310
  50 O :   -0.111301
  51 S :    0.062659
  52 C :    0.040586
  53 O :   -0.144318
  54 C :   -0.035239
  55 C :    0.016370
  56 C :    0.013166
  57 C :   -0.117578
  58 C :    0.139447
  59 O :   -0.120039
  60 C :    0.082725
  61 C :   -0.168893
  62 S :    0.190459
  63 C :   -0.125738
  64 C :    0.017282
  65 C :    0.281535
  66 C :   -0.316829
  67 C :   -0.191963
  68 N :    0.163007
  69 C :   -0.170938
  70 N :    0.140337
  71 Cl:    0.003574
  72 H :    0.057176
  73 H :    0.043611
  74 H :    0.008871
  75 H :    0.017909
  76 H :    0.032393
  77 H :    0.026800
  78 H :    0.016971
  79 H :    0.015294
  80 H :    0.022538
  81 H :    0.045726
  82 H :    0.032855
  83 H :    0.023118
  84 H :    0.018264
  85 H :    0.033489
  86 H :    0.020856
  87 H :    0.031705
  88 H :    0.022950
  89 H :    0.057927
  90 H :    0.030529
  91 H :    0.056155
Sum of atomic charges:   -0.0000000

LOEWDIN ATOMIC CHARGES
----------------------
   0 C :   -0.059716
   1 C :   -0.147252
   2 S :    0.483830
   3 C :   -0.270039
   4 Cl:    0.197063
   5 C :   -0.118710
   6 C :    0.081918
   7 O :   -0.123370
   8 C :   -0.077491
   9 C :    0.072687
  10 C :   -0.128562
  11 C :   -0.015418
  12 N :   -0.044426
  13 C :   -0.024503
  14 N :   -0.037568
  15 C :    0.074705
  16 C :   -0.082837
  17 C :    0.085699
  18 N :   -0.067061
  19 C :    0.028468
  20 N :   -0.042518
  21 C :    0.070342
  22 C :    0.056719
  23 N :    0.007345
  24 C :    0.034675
  25 C :   -0.061080
  26 C :    0.077804
  27 O :   -0.190874
  28 C :   -0.111293
  29 C :   -0.095221
  30 C :    0.087276
  31 O :   -0.156655
  32 N :   -0.006003
  33 C :    0.033452
  34 C :   -0.064936
  35 C :    0.082862
  36 C :    0.011829
  37 C :   -0.013421
  38 C :    0.034663
  39 C :   -0.054274
  40 C :   -0.043681
  41 O :   -0.109630
  42 S :    0.319335
  43 C :   -0.042298
  44 O :   -0.109336
  45 C :   -0.047601
  46 C :    0.026110
  47 C :   -0.027243
  48 C :   -0.047759
  49 C :   -0.043929
  50 O :   -0.105277
  51 S :    0.336746
  52 C :   -0.033911
  53 O :   -0.116504
  54 C :    0.006936
  55 C :    0.000758
  56 C :    0.071604
  57 C :   -0.076526
  58 C :    0.079806
  59 O :   -0.125939
  60 C :   -0.118123
  61 C :   -0.271961
  62 S :    0.479704
  63 C :   -0.148666
  64 C :   -0.057958
  65 C :    0.074323
  66 C :   -0.130122
  67 C :   -0.015164
  68 N :   -0.044012
  69 C :   -0.006436
  70 N :   -0.058247
  71 Cl:    0.195190
  72 H :    0.038912
  73 H :    0.050394
  74 H :    0.028022
  75 H :    0.032773
  76 H :    0.030542
  77 H :    0.022963
  78 H :    0.025641
  79 H :    0.028891
  80 H :    0.021540
  81 H :    0.037047
  82 H :    0.021911
  83 H :    0.030790
  84 H :    0.029300
  85 H :    0.023108
  86 H :    0.046052
  87 H :    0.036147
  88 H :    0.039556
  89 H :    0.029063
  90 H :    0.050456
  91 H :    0.038592

  Mayer bond orders larger than 0.100000
B(  0-C ,  1-C ) :   1.5411 B(  0-C ,  5-C ) :   1.2195 B(  0-C ,  9-C ) :   1.0056
B(  1-C ,  2-S ) :   1.1655 B(  1-C , 72-H ) :   0.9543 B(  2-S ,  3-C ) :   1.1553
B(  3-C ,  4-Cl) :   1.1332 B(  3-C ,  5-C ) :   1.4730 B(  5-C ,  6-C ) :   0.9535
B(  6-C ,  7-O ) :   2.2413 B(  6-C ,  8-C ) :   0.9207 B(  8-C ,  9-C ) :   1.0430
B(  8-C , 15-C ) :   1.7260 B(  9-C , 10-C ) :   1.6756 B( 10-C , 11-C ) :   1.1423
B( 10-C , 13-C ) :   1.1354 B( 11-C , 12-N ) :   2.9935 B( 13-C , 14-N ) :   2.9790
B( 15-C , 16-C ) :   1.0370 B( 15-C , 73-H ) :   0.9432 B( 16-C , 17-C ) :   1.3077
B( 16-C , 21-C ) :   1.2870 B( 17-C , 18-N ) :   1.5649 B( 17-C , 74-H ) :   0.9836
B( 18-N , 19-C ) :   1.4928 B( 19-C , 20-N ) :   1.6506 B( 19-C , 22-C ) :   0.9845
B( 20-N , 21-C ) :   1.5874 B( 20-N , 22-C ) :  -0.1331 B( 21-C , 75-H ) :   0.9932
B( 22-C , 23-N ) :   1.2140 B( 22-C , 29-C ) :   1.3927 B( 23-N , 24-C ) :   0.9339
B( 23-N , 26-C ) :   1.0339 B( 24-C , 25-C ) :   1.1247 B( 24-C , 76-H ) :   0.9271
B( 24-C , 77-H ) :   0.9354 B( 25-C , 78-H ) :   0.9656 B( 25-C , 79-H ) :   0.9675
B( 25-C , 80-H ) :   0.9667 B( 26-C , 27-O ) :   2.1390 B( 26-C , 28-C ) :   0.9713
B( 28-C , 29-C ) :   1.2331 B( 28-C , 35-C ) :   1.3554 B( 29-C , 30-C ) :   0.9489
B( 30-C , 31-O ) :   2.1831 B( 30-C , 32-N ) :   1.0087 B( 32-N , 33-C ) :   0.9405
B( 32-N , 35-C ) :   1.1981 B( 33-C , 34-C ) :   1.1152 B( 33-C , 81-H ) :   0.9213
B( 33-C , 82-H ) :   0.9496 B( 34-C , 83-H ) :   0.9616 B( 34-C , 84-H ) :   0.9653
B( 34-C , 85-H ) :   0.9626 B( 35-C , 36-C ) :   1.1894 B( 36-C , 37-C ) :   1.6596
B( 36-C , 86-H ) :   0.9434 B( 37-C , 38-C ) :   1.0750 B( 37-C , 87-H ) :   0.9376
B( 38-C , 39-C ) :   1.3751 B( 38-C , 48-C ) :   1.3463 B( 39-C , 40-C ) :   0.8509
B( 39-C , 45-C ) :   1.3277 B( 40-C , 41-O ) :   2.1561 B( 40-C , 42-S ) :   1.0356
B( 41-O , 42-S ) :   0.1050 B( 42-S , 43-C ) :   1.0346 B( 42-S , 44-O ) :   0.1039
B( 43-C , 44-O ) :   2.1496 B( 43-C , 45-C ) :   0.8514 B( 45-C , 46-C ) :   1.3385
B( 46-C , 47-C ) :   1.2827 B( 46-C , 54-C ) :   1.1240 B( 47-C , 48-C ) :   1.3812
B( 47-C , 52-C ) :   0.8286 B( 48-C , 49-C ) :   0.8380 B( 49-C , 50-O ) :   2.1667
B( 49-C , 51-S ) :   1.0363 B( 50-O , 51-S ) :   0.1075 B( 51-S , 52-C ) :   1.0399
B( 52-C , 53-O ) :   2.1090 B( 54-C , 55-C ) :   1.6870 B( 54-C , 88-H ) :   0.9641
B( 55-C , 56-C ) :   1.0888 B( 55-C , 89-H ) :   0.9169 B( 56-C , 57-C ) :   1.6630
B( 56-C , 90-H ) :   0.9629 B( 57-C , 58-C ) :   0.9273 B( 57-C , 65-C ) :   1.0296
B( 58-C , 59-O ) :   2.2904 B( 58-C , 60-C ) :   0.9258 B( 60-C , 61-C ) :   1.4827
B( 60-C , 64-C ) :   1.2220 B( 61-C , 62-S ) :   1.1525 B( 61-C , 71-Cl) :   1.1318
B( 62-S , 63-C ) :   1.1640 B( 63-C , 64-C ) :   1.5476 B( 63-C , 91-H ) :   0.9550
B( 64-C , 65-C ) :   1.0137 B( 65-C , 66-C ) :   1.6607 B( 66-C , 67-C ) :   1.1346
B( 66-C , 69-C ) :   1.1632 B( 67-C , 68-N ) :   3.0020 B( 69-C , 70-N ) :   2.9476

-----------------------------------------------------------------------------
         ABSORPTION SPECTRUM VIA TRANSITION ELECTRIC DIPOLE MOMENTS
-----------------------------------------------------------------------------
State   Energy  Wavelength   fosc         T2         TX        TY        TZ
        (cm-1)    (nm)                  (au**2)     (au)      (au)      (au)
-----------------------------------------------------------------------------
   0   13921.2    718.3   0.786484879  18.59905  -3.05160   2.96634   0.69828
   1   15050.1    664.4   0.010284939   0.22498   0.45017  -0.01822   0.14829
   2   17322.9    577.3   0.050135157   0.95279   0.55636  -0.32737  -0.73218
   3   21416.3    466.9   0.129073482   1.98412   0.51636   0.32402  -1.26984
   4   22985.1    435.1   0.221082578   3.16653   0.58175  -1.29090   1.07781
   5   23891.4    418.6   0.044446289   0.61245   0.50860  -0.59243   0.05289
   6   24420.5    409.5   0.327196971   4.41094  -0.94920   0.79555  -1.69619
   7   24983.6    400.3   0.012043424   0.15870  -0.00967   0.13649  -0.37413
   8   26194.8    381.8   0.013501275   0.16968  -0.25464   0.17827  -0.27030
   9   26374.7    379.2   0.016348406   0.20406  -0.20120  -0.20719   0.34735
  10   26457.3    378.0   0.156883797   1.95213   0.70385  -1.18820   0.21189
  11   27031.7    369.9   0.033353295   0.40620   0.41034  -0.48767  -0.00067
  12   27267.5    366.7   0.191604884   2.31333   0.73270  -1.14715   0.67862
  13   27953.7    357.7   0.021682247   0.25535  -0.37512  -0.32516   0.09442
  14   28195.9    354.7   0.014789673   0.17268   0.30992  -0.09468  -0.26013
  15   28250.0    354.0   0.010145950   0.11824   0.04358   0.01363   0.34081
  16   29268.2    341.7   0.043916361   0.49398   0.29154  -0.40279  -0.49673
  17   29294.9    341.4   0.064711986   0.72722   0.20849   0.02433   0.82654
  18   29916.0    334.3   0.039036304   0.42958  -0.30580   0.57958   0.01224
  19   30004.2    333.3   0.001727336   0.01895   0.12777  -0.00154   0.05123
  20   30573.2    327.1   0.141101605   1.51938   0.49788  -1.12129  -0.11915
  21   30824.2    324.4   0.144027267   1.53825  -0.58093   1.08409   0.15980
  22   30866.5    324.0   0.002063741   0.02201  -0.06326  -0.10555  -0.08287
  23   31426.6    318.2   0.040198032   0.42110  -0.24375   0.59893   0.05451
  24   31687.3    315.6   0.183549238   1.90697   0.69553  -1.16387   0.26195
  25   31968.7    312.8   0.027743755   0.28570   0.27013  -0.43928   0.14060
  26   32129.8    311.2   0.028712666   0.29420   0.25717  -0.35908   0.31484
  27   32209.6    310.5   0.020119507   0.20564   0.02582  -0.21142  -0.40034
  28   32338.8    309.2   0.141519342   1.44068  -0.89516   0.78254  -0.16432
  29   32584.6    306.9   0.013114022   0.13250  -0.24102   0.23396  -0.14024
  30   33289.4    300.4   0.005888576   0.05823   0.14727   0.18860  -0.03123
  31   33394.3    299.5   0.042146661   0.41550  -0.31866  -0.13087  -0.54482
  32   33517.1    298.4   0.019575446   0.19227  -0.06119   0.42813  -0.07233
  33   33640.5    297.3   0.061076760   0.59771  -0.38727   0.31991  -0.58770
  34   33652.0    297.2   0.085973289   0.84106   0.43436  -0.72434  -0.35740
  35   34174.4    292.6   0.001306011   0.01258   0.04001  -0.02183  -0.10249
  36   34338.1    291.2   0.020964474   0.20099   0.43378   0.03847   0.10655
  37   34432.7    290.4   0.058091181   0.55541  -0.35996   0.27269  -0.59286
  38   34746.6    287.8   0.071324813   0.67578   0.21487  -0.78049  -0.14300
  39   34940.6    286.2   0.095481835   0.89963  -0.30281   0.64138  -0.62974
  40   35065.8    285.2   0.268438293   2.52021  -0.72571   1.33424   0.46191
  41   35220.8    283.9   0.091612126   0.85631   0.31209  -0.48205  -0.72563
  42   35859.3    278.9   0.128133555   1.17635  -0.35957   0.99860  -0.22330
  43   35891.8    278.6   0.016709838   0.15327   0.28082  -0.23642   0.13606
  44   36109.3    276.9   0.018179604   0.16575  -0.13816  -0.00579  -0.38292
  45   36272.5    275.7   0.051013879   0.46301  -0.14497  -0.49381  -0.44513
  46   36419.3    274.6   0.017969439   0.16243  -0.00495   0.40298   0.00390
  47   36732.7    272.2   0.021043546   0.18860  -0.07045  -0.11993  -0.41140
  48   36845.4    271.4   0.018914640   0.16900  -0.05708   0.39395   0.10270
  49   37041.5    270.0   0.187597493   1.66730   0.06381  -0.74388  -1.05350
  50   37307.9    268.0   0.090279347   0.79664   0.23295  -0.80423   0.30918
  51   37501.6    266.7   0.135118182   1.18615   0.52003  -0.94924   0.12108
  52   37582.9    266.1   0.220468683   1.93122   0.52981  -1.24666  -0.31041
  53   37644.9    265.6   0.408122385   3.56911   0.58111  -0.07886   1.79588
  54   38083.7    262.6   0.025837995   0.22335  -0.07557  -0.07327  -0.46073
  55   38119.9    262.3   0.099222465   0.85691   0.55233  -0.55868   0.48961
  56   38427.5    260.2   0.058178944   0.49842  -0.36947   0.49155  -0.34683
  57   38595.7    259.1   0.117936768   1.00597   0.30656   0.25743   0.91963
  58   38931.1    256.9   0.006803750   0.05753  -0.17563  -0.00548   0.16328
  59   38989.7    256.5   0.029527663   0.24932   0.19390  -0.33111   0.31951
  60   39088.9    255.8   0.029159409   0.24558  -0.02474  -0.37681   0.32091
  61   39503.8    253.1   0.031833996   0.26529   0.23545  -0.10775   0.44525
  62   39542.4    252.9   0.008289647   0.06902  -0.08916   0.17096  -0.17843
  63   40027.7    249.8   0.050558533   0.41582   0.35574   0.04750   0.53574
  64   40273.7    248.3   0.011337955   0.09268   0.02490  -0.26028  -0.15593

FINAL SINGLE POINT ENERGY     -5465.813248319445

DIPOLE MOMENT
-------------
                                X             Y             Z
Electronic contribution:     12.27885     -28.04262      22.86919
Nuclear contribution   :    -11.47304      27.94213     -21.50093
                        -----------------------------------------
Total Dipole Moment    :      0.80581      -0.10049       1.36826
                        -----------------------------------------
Magnitude (a.u.)       :      1.59109
Magnitude (Debye)      :      4.04422

Rotational constants in cm-1:     0.001792     0.000219     0.000203
Rotational constants in MHz :    53.716598     6.559963     6.092832

                             ****ORCA TERMINATED NORMALLY****
TOTAL RUN TIME: 0 days 0 hours 9 minutes 23 seconds 819 msec
