                         Program Version 4.2.0 -  RELEASE  -
|  1> # ORCA input file
|  2> # SCF done       -204.608551013040          0.000617517787
|  3> ! CAM-B3LYP def2-SVP def2/J RIJCOSX Grid4 TightSCF
|  4> %maxcore 5000
|  5> %tddft
|  6>     Mode sTDDFT
|  7>     Ethresh 5.0
|  8>     maxcore 5000
|  9> end
| 10>
| 11> %pal
| 12>   nprocs 6
| 13>   end
| 14> * xyz 0 1
| 15>    C       -0.11515         1.56589         2.98095
| 16>    C        0.76084         2.15523         2.10877
| 17>    C        1.74417         1.44356         1.38887
| 18>    N        2.55775         0.90757         0.78286
| 19>    C        0.84816         3.54595         1.90018
| 20>    N        0.97637         4.67329         1.72571
| 21>    C       -0.07730         0.16779         3.39435
| 22>    C       -0.76875         0.03970         4.63534
| 23>    C       -0.86395        -1.15900         5.28261
| 24>    C       -0.27228        -2.30378         4.70329
| 25>    C        0.40392        -2.18548         3.45393
| 26>    C        0.49259        -0.93077         2.80887
| 27>    C        0.98242        -3.33716         2.88278
| 28>    C        0.90126        -4.54790         3.51515
| 29>    C        0.23665        -4.66336         4.74543
| 30>    C       -0.33723        -3.56544         5.32702
| 31>    C       -1.32263         1.34672         5.02231
| 32>    O       -1.91545         1.64541         6.03184
| 33>    C       -1.05331         2.24516         3.85547
| 34>    C       -1.74015         3.40905         3.75162
| 35>    C       -1.92708         4.22140         2.59988
| 36>    S       -2.32523         5.90828         2.75734
| 37>    C       -2.40215         6.14236         1.04023
| 38>    C       -2.17918         4.91671         0.39223
| 39>    C       -1.90116         3.86087         1.27428
| 40>    N       -2.27064         4.62505        -0.99574
| 41>    O       -2.76535         5.44418        -1.74686
| 42>    O       -1.86694         3.53575        -1.35339
| 43>    C       -2.61682         7.48119         0.62566
| 44>    C       -2.45684         8.00951        -0.61643
| 45>    C       -2.69650         9.38057        -0.87815
| 46>    N       -2.59476         9.93898        -2.12806
| 47>    C       -2.28019         9.25231        -3.35931
| 48>    C       -3.44752         8.41037        -3.86753
| 49>    C       -2.88933        11.31772        -2.11821
| 50>    O       -2.86444        12.02354        -3.10143
| 51>    C       -3.18669        11.60002        -0.72894
| 52>    C       -3.05980        10.39962         0.00611
| 53>    C       -3.35349        10.70703         1.38658
| 54>    O       -3.40433        10.01338         2.38400
| 55>    N       -3.62194        12.09106         1.39660
| 56>    C       -3.97966        12.73323         2.63820
| 57>    C       -2.75188        13.27165         3.37083
| 58>    C       -3.52133        12.63695         0.13720
| 59>    C       -3.72123        13.97656        -0.29968
| 60>    C       -3.78426        15.11214         0.42981
| 61>    C       -3.97714        16.43230        -0.11724
| 62>    C       -4.45973        16.66548        -1.40690
| 63>    C       -4.64833        17.95133        -1.88008
| 64>    N       -5.19093        18.04775        -3.21888
| 65>    O       -4.90403        17.15862        -3.98901
| 66>    O       -5.91412        18.98295        -3.48480
| 67>    C       -4.30731        19.08425        -1.11055
| 68>    C       -3.82630        18.83025         0.18456
| 69>    C       -3.68929        17.55487         0.67459
| 70>    C       -4.40103        20.43477        -1.60878
| 71>    C       -3.67374        21.46884        -1.12448
| 72>    C       -3.78655        22.77922        -1.65962
| 73>    C       -3.03178        23.83830        -1.25213
| 74>    C       -3.07725        25.19569        -1.77357
| 75>    C       -4.02420        25.72064        -2.61193
| 76>    C       -4.01909        27.05543        -3.07092
| 77>    N       -4.07312        28.12682        -3.47941
| 78>    C       -5.15291        25.03353        -3.10841
| 79>    N       -6.10251        24.55299        -3.53879
| 80>    C       -1.95478        25.92919        -1.20022
| 81>    C       -1.28150        25.08210        -0.27423
| 82>    C       -1.94245        23.76866        -0.23756
| 83>    O       -1.64805        22.83105         0.47489
| 84>    C       -0.18721        25.50198         0.42638
| 85>    C        0.29776        26.81298         0.22550
| 86>    C       -0.36618        27.66573        -0.70342
| 87>    C       -1.49888        27.20395        -1.41193
| 88>    C        0.12816        28.97158        -0.89880
| 89>    C        1.22459        29.41515        -0.21078
| 90>    C        1.87759        28.57444         0.70324
| 91>    C        1.42399        27.30115         0.91692
| 92>    H       -1.38556        -1.23348         6.22521
| 93>    H        0.99930        -0.87105         1.85829
| 94>    H        1.49553        -3.24247         1.93715
| 95>    H        1.34928        -5.42385         3.07068
| 96>    H        0.18141        -5.62665         5.22985
| 97>    H       -0.85029        -3.64845         6.27395
| 98>    H       -2.26019         3.72441         4.65077
| 99>    H       -1.73952         2.85692         0.92281
|100>    H       -2.90132         8.14909         1.43090
|101>    H       -2.15497         7.39288        -1.44642
|102>    H       -1.39114         8.63192        -3.21672
|103>    H       -2.04956        10.03863        -4.08390
|104>    H       -3.66728         7.58854        -3.19069
|105>    H       -3.19642         7.99674        -4.84003
|106>    H       -4.33538         9.02922        -3.97295
|107>    H       -4.44901        11.96227         3.25737
|108>    H       -4.71243        13.51832         2.44036
|109>    H       -2.10073        12.44551         3.64467
|110>    H       -3.05803        13.78702         4.27721
|111>    H       -2.18590        13.95864         2.74501
|112>    H       -3.76613        14.04159        -1.37946
|113>    H       -3.63180        15.09073         1.49798
|114>    H       -4.71947        15.84312        -2.05620
|115>    H       -3.58359        19.66612         0.82065
|116>    H       -3.33521        17.41030         1.68492
|117>    H       -5.07405        20.61507        -2.43587
|118>    H       -2.95509        21.32535        -0.33194
|119>    H       -4.50948        22.91662        -2.45390
|120>    H        0.30382        24.83922         1.12355
|121>    H       -1.97478        27.87282        -2.11113
|122>    H       -0.37810        29.61533        -1.60298
|123>    H        1.59531        30.41703        -0.36714
|124>    H        2.74181        28.94082         1.23682
|125>    H        1.92257        26.64903         1.61909
|126> *
|127>
|128>                          ****END OF INPUT****

CARTESIAN COORDINATES (ANGSTROEM)
---------------------------------
  C     -0.115150    1.565890    2.980950
  C      0.760840    2.155230    2.108770
  C      1.744170    1.443560    1.388870
  N      2.557750    0.907570    0.782860
  C      0.848160    3.545950    1.900180
  N      0.976370    4.673290    1.725710
  C     -0.077300    0.167790    3.394350
  C     -0.768750    0.039700    4.635340
  C     -0.863950   -1.159000    5.282610
  C     -0.272280   -2.303780    4.703290
  C      0.403920   -2.185480    3.453930
  C      0.492590   -0.930770    2.808870
  C      0.982420   -3.337160    2.882780
  C      0.901260   -4.547900    3.515150
  C      0.236650   -4.663360    4.745430
  C     -0.337230   -3.565440    5.327020
  C     -1.322630    1.346720    5.022310
  O     -1.915450    1.645410    6.031840
  C     -1.053310    2.245160    3.855470
  C     -1.740150    3.409050    3.751620
  C     -1.927080    4.221400    2.599880
  S     -2.325230    5.908280    2.757340
  C     -2.402150    6.142360    1.040230
  C     -2.179180    4.916710    0.392230
  C     -1.901160    3.860870    1.274280
  N     -2.270640    4.625050   -0.995740
  O     -2.765350    5.444180   -1.746860
  O     -1.866940    3.535750   -1.353390
  C     -2.616820    7.481190    0.625660
  C     -2.456840    8.009510   -0.616430
  C     -2.696500    9.380570   -0.878150
  N     -2.594760    9.938980   -2.128060
  C     -2.280190    9.252310   -3.359310
  C     -3.447520    8.410370   -3.867530
  C     -2.889330   11.317720   -2.118210
  O     -2.864440   12.023540   -3.101430
  C     -3.186690   11.600020   -0.728940
  C     -3.059800   10.399620    0.006110
  C     -3.353490   10.707030    1.386580
  O     -3.404330   10.013380    2.384000
  N     -3.621940   12.091060    1.396600
  C     -3.979660   12.733230    2.638200
  C     -2.751880   13.271650    3.370830
  C     -3.521330   12.636950    0.137200
  C     -3.721230   13.976560   -0.299680
  C     -3.784260   15.112140    0.429810
  C     -3.977140   16.432300   -0.117240
  C     -4.459730   16.665480   -1.406900
  C     -4.648330   17.951330   -1.880080
  N     -5.190930   18.047750   -3.218880
  O     -4.904030   17.158620   -3.989010
  O     -5.914120   18.982950   -3.484800
  C     -4.307310   19.084250   -1.110550
  C     -3.826300   18.830250    0.184560
  C     -3.689290   17.554870    0.674590
  C     -4.401030   20.434770   -1.608780
  C     -3.673740   21.468840   -1.124480
  C     -3.786550   22.779220   -1.659620
  C     -3.031780   23.838300   -1.252130
  C     -3.077250   25.195690   -1.773570
  C     -4.024200   25.720640   -2.611930
  C     -4.019090   27.055430   -3.070920
  N     -4.073120   28.126820   -3.479410
  C     -5.152910   25.033530   -3.108410
  N     -6.102510   24.552990   -3.538790
  C     -1.954780   25.929190   -1.200220
  C     -1.281500   25.082100   -0.274230
  C     -1.942450   23.768660   -0.237560
  O     -1.648050   22.831050    0.474890
  C     -0.187210   25.501980    0.426380
  C      0.297760   26.812980    0.225500
  C     -0.366180   27.665730   -0.703420
  C     -1.498880   27.203950   -1.411930
  C      0.128160   28.971580   -0.898800
  C      1.224590   29.415150   -0.210780
  C      1.877590   28.574440    0.703240
  C      1.423990   27.301150    0.916920
  H     -1.385560   -1.233480    6.225210
  H      0.999300   -0.871050    1.858290
  H      1.495530   -3.242470    1.937150
  H      1.349280   -5.423850    3.070680
  H      0.181410   -5.626650    5.229850
  H     -0.850290   -3.648450    6.273950
  H     -2.260190    3.724410    4.650770
  H     -1.739520    2.856920    0.922810
  H     -2.901320    8.149090    1.430900
  H     -2.154970    7.392880   -1.446420
  H     -1.391140    8.631920   -3.216720
  H     -2.049560   10.038630   -4.083900
  H     -3.667280    7.588540   -3.190690
  H     -3.196420    7.996740   -4.840030
  H     -4.335380    9.029220   -3.972950
  H     -4.449010   11.962270    3.257370
  H     -4.712430   13.518320    2.440360
  H     -2.100730   12.445510    3.644670
  H     -3.058030   13.787020    4.277210
  H     -2.185900   13.958640    2.745010
  H     -3.766130   14.041590   -1.379460
  H     -3.631800   15.090730    1.497980
  H     -4.719470   15.843120   -2.056200
  H     -3.583590   19.666120    0.820650
  H     -3.335210   17.410300    1.684920
  H     -5.074050   20.615070   -2.435870
  H     -2.955090   21.325350   -0.331940
  H     -4.509480   22.916620   -2.453900
  H      0.303820   24.839220    1.123550
  H     -1.974780   27.872820   -2.111130
  H     -0.378100   29.615330   -1.602980
  H      1.595310   30.417030   -0.367140
  H      2.741810   28.940820    1.236820
  H      1.922570   26.649030    1.619090

 Total Charge           Charge          ....    0
 Multiplicity           Mult            ....    1
 Number of Electrons    NEL             ....  530
 Basis Dimension        Dim             .... 1252

ORBITAL ENERGIES
----------------

  NO   OCC          E(Eh)            E(eV)
   0   2.0000     -88.989960     -2421.5399
   1   2.0000     -19.251233      -523.8527
   2   2.0000     -19.250715      -523.8386
   3   2.0000     -19.250338      -523.8283
   4   2.0000     -19.249567      -523.8074
   5   2.0000     -19.222104      -523.0600
   6   2.0000     -19.219767      -522.9964
   7   2.0000     -19.200260      -522.4656
   8   2.0000     -19.194067      -522.2971
   9   2.0000     -14.660672      -398.9372
  10   2.0000     -14.655228      -398.7890
  11   2.0000     -14.461436      -393.5157
  12   2.0000     -14.456674      -393.3861
  13   2.0000     -14.422567      -392.4580
  14   2.0000     -14.420881      -392.4121
  15   2.0000     -14.415636      -392.2694
  16   2.0000     -14.415092      -392.2546
  17   2.0000     -10.381606      -282.4978
  18   2.0000     -10.377755      -282.3931
  19   2.0000     -10.373171      -282.2683
  20   2.0000     -10.370413      -282.1933
  21   2.0000     -10.351346      -281.6744
  22   2.0000     -10.351167      -281.6696
  23   2.0000     -10.349291      -281.6185
  24   2.0000     -10.346685      -281.5476
  25   2.0000     -10.345003      -281.5018
  26   2.0000     -10.343993      -281.4743
  27   2.0000     -10.343352      -281.4569
  28   2.0000     -10.343209      -281.4530
  29   2.0000     -10.341108      -281.3959
  30   2.0000     -10.332884      -281.1721
  31   2.0000     -10.331117      -281.1240
  32   2.0000     -10.323815      -280.9253
  33   2.0000     -10.322987      -280.9027
  34   2.0000     -10.320092      -280.8240
  35   2.0000     -10.317850      -280.7630
  36   2.0000     -10.317751      -280.7603
  37   2.0000     -10.316340      -280.7219
  38   2.0000     -10.315326      -280.6943
  39   2.0000     -10.313208      -280.6367
  40   2.0000     -10.311122      -280.5799
  41   2.0000     -10.309794      -280.5438
  42   2.0000     -10.309653      -280.5399
  43   2.0000     -10.306731      -280.4604
  44   2.0000     -10.306131      -280.4441
  45   2.0000     -10.305996      -280.4404
  46   2.0000     -10.305048      -280.4146
  47   2.0000     -10.304089      -280.3885
  48   2.0000     -10.303189      -280.3640
  49   2.0000     -10.303144      -280.3628
  50   2.0000     -10.303076      -280.3609
  51   2.0000     -10.303013      -280.3592
  52   2.0000     -10.302690      -280.3504
  53   2.0000     -10.302450      -280.3439
  54   2.0000     -10.302345      -280.3411
  55   2.0000     -10.301513      -280.3184
  56   2.0000     -10.301405      -280.3155
  57   2.0000     -10.300814      -280.2994
  58   2.0000     -10.299159      -280.2544
  59   2.0000     -10.298892      -280.2471
  60   2.0000     -10.298352      -280.2324
  61   2.0000     -10.297694      -280.2145
  62   2.0000     -10.295574      -280.1568
  63   2.0000     -10.291022      -280.0329
  64   2.0000     -10.290596      -280.0213
  65   2.0000     -10.290340      -280.0144
  66   2.0000     -10.289926      -280.0031
  67   2.0000     -10.289781      -279.9992
  68   2.0000     -10.289488      -279.9912
  69   2.0000     -10.287993      -279.9505
  70   2.0000     -10.287488      -279.9368
  71   2.0000     -10.287119      -279.9267
  72   2.0000     -10.286583      -279.9121
  73   2.0000     -10.270469      -279.4737
  74   2.0000     -10.268642      -279.4240
  75   2.0000     -10.268099      -279.4092
  76   2.0000     -10.257632      -279.1244
  77   2.0000      -8.085503      -220.0177
  78   2.0000      -6.054658      -164.7556
  79   2.0000      -6.050463      -164.6415
  80   2.0000      -6.047797      -164.5689
  81   2.0000      -1.332356       -36.2552
  82   2.0000      -1.331823       -36.2407
  83   2.0000      -1.150455       -31.3055
  84   2.0000      -1.149381       -31.2763
  85   2.0000      -1.140277       -31.0285
  86   2.0000      -1.137652       -30.9571
  87   2.0000      -1.134035       -30.8587
  88   2.0000      -1.132172       -30.8080
  89   2.0000      -1.069389       -29.0995
  90   2.0000      -1.060500       -28.8577
  91   2.0000      -1.029637       -28.0179
  92   2.0000      -1.020973       -27.7821
  93   2.0000      -1.018372       -27.7113
  94   2.0000      -1.004533       -27.3347
  95   2.0000      -0.999777       -27.2053
  96   2.0000      -0.999451       -27.1965
  97   2.0000      -0.999123       -27.1875
  98   2.0000      -0.993705       -27.0401
  99   2.0000      -0.977495       -26.5990
 100   2.0000      -0.972654       -26.4673
 101   2.0000      -0.940301       -25.5869
 102   2.0000      -0.937937       -25.5226
 103   2.0000      -0.933687       -25.4069
 104   2.0000      -0.928036       -25.2531
 105   2.0000      -0.925179       -25.1754
 106   2.0000      -0.919620       -25.0241
 107   2.0000      -0.917761       -24.9736
 108   2.0000      -0.903810       -24.5939
 109   2.0000      -0.901727       -24.5372
 110   2.0000      -0.893229       -24.3060
 111   2.0000      -0.886940       -24.1349
 112   2.0000      -0.883762       -24.0484
 113   2.0000      -0.882129       -24.0040
 114   2.0000      -0.876079       -23.8393
 115   2.0000      -0.870330       -23.6829
 116   2.0000      -0.850759       -23.1503
 117   2.0000      -0.840563       -22.8729
 118   2.0000      -0.833689       -22.6858
 119   2.0000      -0.829511       -22.5721
 120   2.0000      -0.823754       -22.4155
 121   2.0000      -0.811512       -22.0824
 122   2.0000      -0.808500       -22.0004
 123   2.0000      -0.803516       -21.8648
 124   2.0000      -0.798202       -21.7202
 125   2.0000      -0.777143       -21.1471
 126   2.0000      -0.769552       -20.9406
 127   2.0000      -0.763497       -20.7758
 128   2.0000      -0.762791       -20.7566
 129   2.0000      -0.760175       -20.6854
 130   2.0000      -0.745125       -20.2759
 131   2.0000      -0.723646       -19.6914
 132   2.0000      -0.716584       -19.4993
 133   2.0000      -0.714445       -19.4410
 134   2.0000      -0.713038       -19.4028
 135   2.0000      -0.708563       -19.2810
 136   2.0000      -0.705260       -19.1911
 137   2.0000      -0.703819       -19.1519
 138   2.0000      -0.697673       -18.9846
 139   2.0000      -0.693829       -18.8800
 140   2.0000      -0.687835       -18.7169
 141   2.0000      -0.681889       -18.5551
 142   2.0000      -0.679982       -18.5033
 143   2.0000      -0.669578       -18.2202
 144   2.0000      -0.668555       -18.1923
 145   2.0000      -0.663432       -18.0529
 146   2.0000      -0.658331       -17.9141
 147   2.0000      -0.652137       -17.7456
 148   2.0000      -0.644012       -17.5245
 149   2.0000      -0.642448       -17.4819
 150   2.0000      -0.639810       -17.4101
 151   2.0000      -0.638586       -17.3768
 152   2.0000      -0.631777       -17.1915
 153   2.0000      -0.622616       -16.9423
 154   2.0000      -0.620278       -16.8786
 155   2.0000      -0.613744       -16.7008
 156   2.0000      -0.612107       -16.6563
 157   2.0000      -0.609315       -16.5803
 158   2.0000      -0.607963       -16.5435
 159   2.0000      -0.604238       -16.4422
 160   2.0000      -0.599350       -16.3092
 161   2.0000      -0.596512       -16.2319
 162   2.0000      -0.592484       -16.1223
 163   2.0000      -0.589527       -16.0419
 164   2.0000      -0.584946       -15.9172
 165   2.0000      -0.583204       -15.8698
 166   2.0000      -0.577061       -15.7026
 167   2.0000      -0.569639       -15.5007
 168   2.0000      -0.565969       -15.4008
 169   2.0000      -0.564649       -15.3649
 170   2.0000      -0.562538       -15.3074
 171   2.0000      -0.558265       -15.1912
 172   2.0000      -0.551594       -15.0096
 173   2.0000      -0.548163       -14.9163
 174   2.0000      -0.546593       -14.8735
 175   2.0000      -0.543189       -14.7809
 176   2.0000      -0.542635       -14.7658
 177   2.0000      -0.542305       -14.7569
 178   2.0000      -0.539048       -14.6683
 179   2.0000      -0.537202       -14.6180
 180   2.0000      -0.534681       -14.5494
 181   2.0000      -0.532874       -14.5002
 182   2.0000      -0.530956       -14.4481
 183   2.0000      -0.529341       -14.4041
 184   2.0000      -0.524720       -14.2784
 185   2.0000      -0.524196       -14.2641
 186   2.0000      -0.521676       -14.1955
 187   2.0000      -0.519890       -14.1469
 188   2.0000      -0.517982       -14.0950
 189   2.0000      -0.517750       -14.0887
 190   2.0000      -0.515364       -14.0238
 191   2.0000      -0.514167       -13.9912
 192   2.0000      -0.512349       -13.9417
 193   2.0000      -0.508122       -13.8267
 194   2.0000      -0.506619       -13.7858
 195   2.0000      -0.501355       -13.6426
 196   2.0000      -0.500489       -13.6190
 197   2.0000      -0.497542       -13.5388
 198   2.0000      -0.493751       -13.4356
 199   2.0000      -0.493223       -13.4213
 200   2.0000      -0.491566       -13.3762
 201   2.0000      -0.489108       -13.3093
 202   2.0000      -0.487423       -13.2635
 203   2.0000      -0.487061       -13.2536
 204   2.0000      -0.477193       -12.9851
 205   2.0000      -0.471361       -12.8264
 206   2.0000      -0.470719       -12.8089
 207   2.0000      -0.469339       -12.7714
 208   2.0000      -0.468263       -12.7421
 209   2.0000      -0.465708       -12.6726
 210   2.0000      -0.464019       -12.6266
 211   2.0000      -0.460517       -12.5313
 212   2.0000      -0.458993       -12.4898
 213   2.0000      -0.456499       -12.4220
 214   2.0000      -0.455115       -12.3843
 215   2.0000      -0.451135       -12.2760
 216   2.0000      -0.450444       -12.2572
 217   2.0000      -0.448408       -12.2018
 218   2.0000      -0.448172       -12.1954
 219   2.0000      -0.445494       -12.1225
 220   2.0000      -0.444764       -12.1026
 221   2.0000      -0.444361       -12.0917
 222   2.0000      -0.443012       -12.0550
 223   2.0000      -0.440810       -11.9950
 224   2.0000      -0.438445       -11.9307
 225   2.0000      -0.436671       -11.8824
 226   2.0000      -0.435202       -11.8424
 227   2.0000      -0.434253       -11.8166
 228   2.0000      -0.433259       -11.7896
 229   2.0000      -0.432088       -11.7577
 230   2.0000      -0.428801       -11.6683
 231   2.0000      -0.427599       -11.6356
 232   2.0000      -0.425023       -11.5655
 233   2.0000      -0.422856       -11.5065
 234   2.0000      -0.419985       -11.4284
 235   2.0000      -0.418496       -11.3879
 236   2.0000      -0.410395       -11.1674
 237   2.0000      -0.406987       -11.0747
 238   2.0000      -0.403257       -10.9732
 239   2.0000      -0.397457       -10.8154
 240   2.0000      -0.391641       -10.6571
 241   2.0000      -0.390665       -10.6305
 242   2.0000      -0.388190       -10.5632
 243   2.0000      -0.386943       -10.5292
 244   2.0000      -0.385285       -10.4841
 245   2.0000      -0.380044       -10.3415
 246   2.0000      -0.378624       -10.3029
 247   2.0000      -0.375015       -10.2047
 248   2.0000      -0.370638       -10.0856
 249   2.0000      -0.359227        -9.7751
 250   2.0000      -0.354755        -9.6534
 251   2.0000      -0.351262        -9.5583
 252   2.0000      -0.350220        -9.5300
 253   2.0000      -0.341159        -9.2834
 254   2.0000      -0.339155        -9.2289
 255   2.0000      -0.337451        -9.1825
 256   2.0000      -0.336048        -9.1443
 257   2.0000      -0.322222        -8.7681
 258   2.0000      -0.321404        -8.7458
 259   2.0000      -0.318343        -8.6626
 260   2.0000      -0.303959        -8.2711
 261   2.0000      -0.299951        -8.1621
 262   2.0000      -0.296491        -8.0679
 263   2.0000      -0.288058        -7.8385
 264   2.0000      -0.243429        -6.6240
 265   0.0000      -0.114842        -3.1250
 266   0.0000      -0.101055        -2.7499
 267   0.0000      -0.087711        -2.3867
 268   0.0000      -0.062906        -1.7117
 269   0.0000      -0.060520        -1.6468

MULLIKEN ATOMIC CHARGES
-----------------------
   0 C :    0.262216
   1 C :   -0.327159
   2 C :   -0.175725
   3 N :    0.162657
   4 C :   -0.193120
   5 N :    0.170799
   6 C :    0.031933
   7 C :    0.014069
   8 C :   -0.076365
   9 C :    0.092489
  10 C :    0.091051
  11 C :   -0.074802
  12 C :   -0.016062
  13 C :    0.038843
  14 C :    0.034704
  15 C :   -0.011648
  16 C :    0.136122
  17 O :   -0.138064
  18 C :   -0.125930
  19 C :    0.096373
  20 C :   -0.106318
  21 S :    0.220410
  22 C :   -0.137680
  23 C :    0.157413
  24 C :    0.010183
  25 N :    0.268541
  26 O :   -0.249386
  27 O :   -0.232911
  28 C :    0.051709
  29 C :    0.018136
  30 C :    0.114826
  31 N :   -0.264945
  32 C :    0.095598
  33 C :   -0.001387
  34 C :    0.153276
  35 O :   -0.182027
  36 C :   -0.042074
  37 C :   -0.055592
  38 C :    0.169606
  39 O :   -0.214538
  40 N :   -0.264816
  41 C :    0.103103
  42 C :    0.003794
  43 C :    0.101434
  44 C :   -0.010738
  45 C :    0.003331
  46 C :    0.103216
  47 C :   -0.051464
  48 C :    0.146506
  49 N :    0.242232
  50 O :   -0.217246
  51 O :   -0.226495
  52 C :    0.074505
  53 C :   -0.036145
  54 C :    0.016129
  55 C :   -0.014614
  56 C :    0.006716
  57 C :   -0.041022
  58 C :   -0.066207
  59 C :    0.327378
  60 C :   -0.343817
  61 C :   -0.183612
  62 N :    0.150110
  63 C :   -0.200911
  64 N :    0.161873
  65 C :    0.048008
  66 C :    0.001309
  67 C :    0.151246
  68 O :   -0.156684
  69 C :   -0.082049
  70 C :    0.099805
  71 C :    0.099475
  72 C :   -0.086017
  73 C :   -0.021026
  74 C :    0.037669
  75 C :    0.036809
  76 C :   -0.018313
  77 H :   -0.010546
  78 H :   -0.003086
  79 H :   -0.009094
  80 H :   -0.002919
  81 H :   -0.003286
  82 H :   -0.016269
  83 H :    0.028231
  84 H :    0.019365
  85 H :    0.008057
  86 H :   -0.005583
  87 H :    0.029204
  88 H :    0.045482
  89 H :    0.032197
  90 H :    0.025789
  91 H :    0.023331
  92 H :    0.040388
  93 H :    0.025870
  94 H :    0.033739
  95 H :    0.021801
  96 H :    0.019571
  97 H :    0.020537
  98 H :   -0.021776
  99 H :    0.013297
 100 H :    0.003700
 101 H :   -0.012004
 102 H :    0.038846
 103 H :    0.030293
 104 H :    0.021491
 105 H :   -0.013779
 106 H :   -0.007821
 107 H :   -0.007592
 108 H :   -0.004314
 109 H :   -0.004819
 110 H :   -0.016998
Sum of atomic charges:   -0.0000000

LOEWDIN ATOMIC CHARGES
----------------------
   0 C :    0.064843
   1 C :   -0.131388
   2 C :   -0.018948
   3 N :   -0.044240
   4 C :   -0.016194
   5 N :   -0.042944
   6 C :   -0.024072
   7 C :   -0.058742
   8 C :    0.035235
   9 C :   -0.008519
  10 C :   -0.004565
  11 C :    0.018804
  12 C :   -0.005196
  13 C :   -0.010507
  14 C :   -0.011164
  15 C :   -0.008269
  16 C :    0.084263
  17 O :   -0.137840
  18 C :   -0.077734
  19 C :    0.045219
  20 C :   -0.183186
  21 S :    0.518886
  22 C :   -0.123058
  23 C :   -0.068843
  24 C :   -0.005035
  25 N :    0.291404
  26 O :   -0.206092
  27 O :   -0.197887
  28 C :   -0.013607
  29 C :   -0.007495
  30 C :    0.080016
  31 N :   -0.000003
  32 C :    0.036495
  33 C :   -0.060689
  34 C :    0.079563
  35 O :   -0.185843
  36 C :   -0.109104
  37 C :   -0.120359
  38 C :    0.082401
  39 O :   -0.201312
  40 N :   -0.000586
  41 C :    0.035679
  42 C :   -0.063184
  43 C :    0.068562
  44 C :   -0.017072
  45 C :   -0.007723
  46 C :   -0.018102
  47 C :    0.014454
  48 C :   -0.012632
  49 N :    0.283588
  50 O :   -0.186079
  51 O :   -0.191187
  52 C :   -0.013553
  53 C :    0.006286
  54 C :    0.004913
  55 C :    0.024242
  56 C :   -0.019790
  57 C :    0.071138
  58 C :   -0.085582
  59 C :    0.073988
  60 C :   -0.133777
  61 C :   -0.016781
  62 N :   -0.051411
  63 C :   -0.023331
  64 N :   -0.044621
  65 C :   -0.025073
  66 C :   -0.056345
  67 C :    0.087082
  68 O :   -0.148028
  69 C :    0.032502
  70 C :   -0.008285
  71 C :   -0.005462
  72 C :    0.019616
  73 C :   -0.005063
  74 C :   -0.012560
  75 C :   -0.011777
  76 C :   -0.009786
  77 H :    0.040178
  78 H :    0.039684
  79 H :    0.035151
  80 H :    0.034013
  81 H :    0.033582
  82 H :    0.032465
  83 H :    0.048417
  84 H :    0.042788
  85 H :    0.036498
  86 H :    0.028719
  87 H :    0.025649
  88 H :    0.038310
  89 H :    0.026534
  90 H :    0.033203
  91 H :    0.029803
  92 H :    0.037146
  93 H :    0.023665
  94 H :    0.034958
  95 H :    0.030257
  96 H :    0.020401
  97 H :    0.048496
  98 H :    0.030227
  99 H :    0.042473
 100 H :    0.040706
 101 H :    0.034292
 102 H :    0.036964
 103 H :    0.030579
 104 H :    0.044932
 105 H :    0.038576
 106 H :    0.039234
 107 H :    0.035237
 108 H :    0.033499
 109 H :    0.032970
 110 H :    0.031838

  Mayer bond orders larger than 0.100000
B(  0-C ,  1-C ) :   1.6662 B(  0-C ,  6-C ) :   1.0005 B(  0-C , 18-C ) :   1.0208
B(  1-C ,  2-C ) :   1.1294 B(  1-C ,  4-C ) :   1.1649 B(  2-C ,  3-N ) :   2.9927
B(  4-C ,  5-N ) :   3.0004 B(  6-C ,  7-C ) :   1.2130 B(  6-C , 11-C ) :   1.4547
B(  7-C ,  8-C ) :   1.4720 B(  7-C , 16-C ) :   0.9227 B(  8-C ,  9-C ) :   1.1865
B(  8-C , 77-H ) :   1.0153 B(  9-C , 10-C ) :   1.2547 B(  9-C , 15-C ) :   1.2452
B( 10-C , 11-C ) :   1.2092 B( 10-C , 12-C ) :   1.2400 B( 11-C , 78-H ) :   0.9929
B( 12-C , 13-C ) :   1.4907 B( 12-C , 79-H ) :   0.9973 B( 13-C , 14-C ) :   1.2596
B( 13-C , 80-H ) :   0.9889 B( 14-C , 15-C ) :   1.4889 B( 14-C , 81-H ) :   0.9891
B( 15-C , 82-H ) :   0.9973 B( 16-C , 17-O ) :   2.2748 B( 16-C , 18-C ) :   0.9286
B( 18-C , 19-C ) :   1.7211 B( 19-C , 20-C ) :   1.0841 B( 19-C , 83-H ) :   0.9309
B( 20-C , 21-S ) :   1.1074 B( 20-C , 24-C ) :   1.4358 B( 21-S , 22-C ) :   1.2044
B( 22-C , 23-C ) :   1.3797 B( 22-C , 28-C ) :   1.1471 B( 23-C , 24-C ) :   1.3148
B( 23-C , 25-N ) :   0.9333 B( 24-C , 84-H ) :   0.9904 B( 25-N , 26-O ) :   1.4858
B( 25-N , 27-O ) :   1.5528 B( 26-O , 27-O ) :   0.2553 B( 28-C , 29-C ) :   1.6190
B( 28-C , 85-H ) :   0.9105 B( 29-C , 30-C ) :   1.1795 B( 29-C , 86-H ) :   0.9449
B( 30-C , 31-N ) :   1.1729 B( 30-C , 37-C ) :   1.3147 B( 31-N , 32-C ) :   0.9374
B( 31-N , 34-C ) :   1.0348 B( 32-C , 33-C ) :   1.1216 B( 32-C , 87-H ) :   0.9495
B( 32-C , 88-H ) :   0.9273 B( 33-C , 89-H ) :   0.9669 B( 33-C , 90-H ) :   0.9667
B( 33-C , 91-H ) :   0.9627 B( 34-C , 35-O ) :   2.1409 B( 34-C , 36-C ) :   0.9686
B( 36-C , 37-C ) :   1.2519 B( 36-C , 43-C ) :   1.3543 B( 37-C , 38-C ) :   0.9894
B( 38-C , 39-O ) :   2.0072 B( 38-C , 40-N ) :   1.0634 B( 39-O , 85-H ) :   0.1185
B( 40-N , 41-C ) :   0.9423 B( 40-N , 43-C ) :   1.1660 B( 41-C , 42-C ) :   1.1187
B( 41-C , 92-H ) :   0.9273 B( 41-C , 93-H ) :   0.9504 B( 42-C , 94-H ) :   0.9597
B( 42-C , 95-H ) :   0.9687 B( 42-C , 96-H ) :   0.9654 B( 43-C , 44-C ) :   1.1711
B( 44-C , 45-C ) :   1.6165 B( 44-C , 97-H ) :   0.9439 B( 45-C , 46-C ) :   1.0709
B( 45-C , 98-H ) :   0.9844 B( 46-C , 47-C ) :   1.2992 B( 46-C , 54-C ) :   1.3043
B( 47-C , 48-C ) :   1.4034 B( 47-C , 99-H ) :   0.9872 B( 48-C , 49-N ) :   0.8663
B( 48-C , 52-C ) :   1.3465 B( 49-N , 50-O ) :   1.5659 B( 49-N , 51-O ) :   1.5207
B( 50-O , 51-O ) :   0.2698 B( 52-C , 53-C ) :   1.3309 B( 52-C , 55-C ) :   1.0505
B( 53-C , 54-C ) :   1.4093 B( 53-C ,100-H ) :   0.9899 B( 54-C ,101-H ) :   0.9976
B( 55-C , 56-C ) :   1.6052 B( 55-C ,102-H ) :   0.9788 B( 56-C , 57-C ) :   1.1387
B( 56-C ,103-H ) :   0.9698 B( 57-C , 58-C ) :   1.5715 B( 57-C ,104-H ) :   0.9669
B( 58-C , 59-C ) :   1.0453 B( 58-C , 67-C ) :   0.9383 B( 59-C , 60-C ) :   1.6430
B( 59-C , 65-C ) :   0.9923 B( 60-C , 61-C ) :   1.1438 B( 60-C , 63-C ) :   1.1432
B( 61-C , 62-N ) :   2.9657 B( 63-C , 64-N ) :   2.9798 B( 65-C , 66-C ) :   1.2152
B( 65-C , 72-C ) :   1.4461 B( 66-C , 67-C ) :   0.9491 B( 66-C , 69-C ) :   1.4673
B( 67-C , 68-O ) :   2.1882 B( 69-C , 70-C ) :   1.1803 B( 69-C ,105-H ) :   1.0165
B( 70-C , 71-C ) :   1.2545 B( 70-C , 76-C ) :   1.2430 B( 71-C , 72-C ) :   1.2078
B( 71-C , 73-C ) :   1.2378 B( 72-C ,106-H ) :   0.9902 B( 73-C , 74-C ) :   1.4895
B( 73-C ,107-H ) :   0.9979 B( 74-C , 75-C ) :   1.2588 B( 74-C ,108-H ) :   0.9885
B( 75-C , 76-C ) :   1.4884 B( 75-C ,109-H ) :   0.9896 B( 76-C ,110-H ) :   0.9982

-----------------------------------------------------------------------------
         ABSORPTION SPECTRUM VIA TRANSITION ELECTRIC DIPOLE MOMENTS
-----------------------------------------------------------------------------
State   Energy  Wavelength   fosc         T2         TX        TY        TZ
        (cm-1)    (nm)                  (au**2)     (au)      (au)      (au)
-----------------------------------------------------------------------------
   0   13479.2    741.9   1.266912914  30.94273   0.94552  -5.47719   0.22166
   1   19223.5    520.2   0.192072566   3.28933   0.62193   1.61278   0.54906
   2   20754.9    481.8   0.169896607   2.69489   0.14864  -1.41285   0.82258
   3   24440.3    409.2   0.071750744   0.96649  -0.94360  -0.14664  -0.23366
   4   24730.0    404.4   0.821037829  10.92987  -0.45018   3.11789  -1.00298
   5   25533.7    391.6   0.010065299   0.12977  -0.11653   0.18740   0.28474
   6   25944.0    385.4   0.258811243   3.28414   0.04721  -1.76646   0.40190
   7   26214.2    381.5   0.055156369   0.69268   0.36112   0.62742  -0.41063
   8   26512.6    377.2   0.398888164   4.95307   0.65492   2.12452   0.10267
   9   27437.2    364.5   0.003738006   0.04485   0.04032   0.20261  -0.04662
  10   27674.9    361.3   0.006826080   0.08120   0.11574  -0.26018   0.01056
  11   27917.7    358.2   0.004045453   0.04770  -0.09500  -0.19257  -0.03997
  12   27971.9    357.5   0.019112438   0.22494  -0.10646   0.00040  -0.46218
  13   28470.1    351.2   0.095274645   1.10170   0.57736   0.65750  -0.57970
  14   28796.4    347.3   0.064933521   0.74235  -0.05408   0.70948  -0.48586
  15   28945.1    345.5   0.073235030   0.83295   0.30994  -0.23861   0.82460
  16   29571.4    338.2   0.013275408   0.14779   0.06090  -0.20680   0.31830
  17   29649.0    337.3   0.027893451   0.30972   0.03877   0.46841  -0.29801
  18   30654.7    326.2   0.228233203   2.45108   1.04549   1.14225   0.23087
  19   31366.1    318.8   0.001620132   0.01700   0.02645  -0.12449   0.02840
  20   32326.1    309.3   0.039981213   0.40717   0.33946   0.40261   0.36034
  21   32741.8    305.4   0.126253527   1.26945   0.53166  -0.77740   0.61842
  22   33086.8    302.2   0.733540623   7.29870  -1.97507  -1.66063  -0.80007
  23   33340.1    299.9   0.540407262   5.33618  -0.04026   1.93818  -1.25620
  24   33807.2    295.8   0.163959403   1.59662   0.37909   1.20476   0.03838
  25   33914.9    294.9   0.079136989   0.76818  -0.70619  -0.07903  -0.51306
  26   34113.0    293.1   0.018535610   0.17888  -0.27010   0.31361  -0.08704
  27   34196.9    292.4   0.025557051   0.24604  -0.02127  -0.49507  -0.02207
  28   34637.1    288.7   0.076383758   0.72600   0.54049  -0.17985   0.63366
  29   34655.4    288.6   0.026536567   0.25209  -0.03911  -0.24405  -0.43703
  30   34966.9    286.0   0.057801006   0.54419  -0.15130  -0.62117   0.36803
  31   35263.7    283.6   0.091681657   0.85591   0.13561  -0.90494   0.13644
  32   35506.4    281.6   0.022031699   0.20428   0.02264  -0.28021   0.35390
  33   35661.5    280.4   0.009154335   0.08451  -0.14844   0.07560  -0.23824
  34   35957.8    278.1   0.071859942   0.65791   0.76483   0.02570   0.26886
  35   35999.5    277.8   0.065070461   0.59506  -0.36709  -0.51495   0.44174
  36   36186.2    276.3   0.010594570   0.09639  -0.20782   0.10792  -0.20384
  37   36576.3    273.4   0.213849708   1.92479  -0.37961   0.95069  -0.93641
  38   36809.0    271.7   0.148576942   1.32884   0.06947   0.43820  -1.06395
  39   37488.0    266.8   0.049704983   0.43650  -0.65521  -0.08175  -0.02269
  40   37808.4    264.5   0.092641266   0.80666   0.65712   0.41210   0.45281
  41   38283.9    261.2   0.034604664   0.29757  -0.40087   0.29621  -0.22167
  42   38402.3    260.4   0.047741018   0.40927   0.52244  -0.17056   0.32747
  43   38543.9    259.4   0.016135772   0.13782   0.27494  -0.04444   0.24547
  44   38704.5    258.4   0.014360286   0.12215  -0.07564  -0.22706   0.25469
  45   38879.8    257.2   0.165506352   1.40141   0.09885   0.52326  -1.05728
  46   38966.5    256.6   0.029771902   0.25153  -0.10782  -0.26480   0.41205
  47   39238.4    254.9   0.002004277   0.01682   0.03467   0.12470   0.00799
  48   39497.5    253.2   0.184900379   1.54115  -0.14389   0.73586  -0.98942
  49   39718.4    251.8   0.057114128   0.47340  -0.25751   0.22306  -0.59777
  50   39745.9    251.6   0.021767416   0.18030   0.33671  -0.15082  -0.21018
  51   39842.8    251.0   0.038434173   0.31757  -0.40866   0.20660  -0.32847

FINAL SINGLE POINT ENERGY     -3740.304751452013

DIPOLE MOMENT
-------------
                                X             Y             Z
Electronic contribution:     -3.75651      -8.50267      -4.54955
Nuclear contribution   :      5.22099       6.61831       8.46624
                        -----------------------------------------
Total Dipole Moment    :      1.46448      -1.88436       3.91670
                        -----------------------------------------
Magnitude (a.u.)       :      4.58650
Magnitude (Debye)      :     11.65797

Rotational constants in cm-1:     0.002279     0.000154     0.000150
Rotational constants in MHz :    68.318963     4.622867     4.485946

                             ****ORCA TERMINATED NORMALLY****
TOTAL RUN TIME: 0 days 0 hours 11 minutes 12 seconds 33 msec
