                         Program Version 4.2.0 -  RELEASE  -
|  1> # ORCA input file
|  2> # SCF done       -211.448199539322          0.000568904577
|  3> ! CAM-B3LYP def2-SVP def2/J RIJCOSX Grid4 TightSCF
|  4> %maxcore 5000
|  5> %tddft
|  6>     Mode sTDDFT
|  7>     Ethresh 5.0
|  8>     maxcore 5000
|  9> end
| 10>
| 11> %pal
| 12>   nprocs 6
| 13>   end
| 14> * xyz 0 1
| 15>    C        0.48751         1.49145        -2.75490
| 16>    C        0.60700         1.62170        -4.11144
| 17>    C        0.24331         0.61445        -5.02971
| 18>    N       -0.04067        -0.17046        -5.81683
| 19>    C        1.18187         2.74836        -4.73359
| 20>    N        1.68546         3.62822        -5.27307
| 21>    C        0.12803         0.28174        -2.03213
| 22>    C        0.56134         0.41036        -0.67816
| 23>    C        0.37822        -0.59378         0.22947
| 24>    C       -0.26265        -1.78444        -0.17997
| 25>    C       -0.71369        -1.91004        -1.52666
| 26>    C       -0.50694        -0.85766        -2.44693
| 27>    C       -1.36154        -3.09958        -1.91758
| 28>    C       -1.55299        -4.11867        -1.02483
| 29>    C       -1.10641        -3.99543         0.29958
| 30>    C       -0.47498        -2.85378         0.71274
| 31>    C        1.16549         1.73686        -0.48019
| 32>    O        1.70328         2.18856         0.50347
| 33>    C        0.92022         2.46136        -1.76418
| 34>    C        0.98006         3.81030        -1.80678
| 35>    C        0.46598         4.69261        -2.80912
| 36>    C       -0.77992         4.71442        -3.41535
| 37>    N       -1.86796         3.84427        -3.23265
| 38>    O       -1.71498         2.83647        -2.55534
| 39>    O       -2.92299         4.15190        -3.75905
| 40>    C       -0.88443         5.88480        -4.25501
| 41>    C        0.25766         6.60006        -4.14470
| 42>    C        1.15203         5.91232        -3.24584
| 43>    C        2.46053         6.23326        -2.95632
| 44>    C        3.48873         5.31106        -2.59511
| 45>    C        4.69607         5.93883        -2.68449
| 46>    C        4.48162         7.31201        -3.02410
| 47>    N        5.52111         8.25991        -3.06999
| 48>    O        6.66270         7.83447        -3.05395
| 49>    O        5.22922         9.44386        -3.10541
| 50>    C        3.11560         7.54527        -3.17083
| 51>    C        2.49310         8.78681        -3.38218
| 52>    C        1.23473         9.10809        -2.94288
| 53>    C        0.62354        10.34276        -3.22111
| 54>    N       -0.55356        10.77266        -2.65227
| 55>    C       -1.37038        10.04434        -1.70979
| 56>    C       -2.25043         9.00762        -2.40346
| 57>    C       -0.93148        12.04200        -3.11143
| 58>    O       -1.92781        12.62681        -2.73708
| 59>    C        0.11000        12.40830        -4.05227
| 60>    C        1.04207        11.35374        -4.09845
| 61>    C        2.06028        11.69595        -5.07184
| 62>    O        3.02291        11.09592        -5.49084
| 63>    N        1.67657        12.97483        -5.53500
| 64>    C        2.49343        13.69000        -6.48640
| 65>    C        3.36203        14.74355        -5.80408
| 66>    C        0.52193        13.40936        -4.94478
| 67>    C       -0.10609        14.64386        -5.25230
| 68>    C       -1.26294        15.03435        -4.66596
| 69>    C       -1.95953        16.25807        -4.94868
| 70>    C       -3.00237        16.69440        -4.11299
| 71>    N       -3.66231        17.81092        -4.31644
| 72>    C       -3.28931        18.55552        -5.35486
| 73>    N       -2.37037        18.21390        -6.25040
| 74>    C       -1.72304        17.08603        -6.05578
| 75>    C       -3.99762        19.82941        -5.55741
| 76>    C       -3.68081        20.91821        -4.84482
| 77>    C       -4.28114        22.25115        -4.84541
| 78>    C       -5.28964        22.68130        -5.65857
| 79>    C       -5.83439        23.98442        -5.62767
| 80>    N       -6.31358        25.02653        -5.64865
| 81>    C       -5.91756        21.88823        -6.64462
| 82>    N       -6.46898        21.30242        -7.46252
| 83>    C       -3.59904        23.03145        -3.82354
| 84>    C       -2.57354        22.23627        -3.22936
| 85>    C       -2.55897        20.90750        -3.85353
| 86>    O       -1.79800        19.98930        -3.65217
| 87>    C       -1.77113        22.72212        -2.23582
| 88>    C       -1.96132        24.04439        -1.77821
| 89>    C       -2.98525        24.84468        -2.36484
| 90>    C       -3.79841        24.31860        -3.39285
| 91>    C       -3.16724        26.16349        -1.89941
| 92>    C       -2.37741        26.66868        -0.90301
| 93>    C       -1.36986        25.88014        -0.32638
| 94>    C       -1.16601        24.59633        -0.75447
| 95>    H        0.71553        -0.48115         1.24925
| 96>    H       -0.87009        -0.96927        -3.45657
| 97>    H       -1.70148        -3.19031        -2.93864
| 98>    H       -2.04978        -5.02600        -1.33412
| 99>    H       -1.26627        -4.80930         0.99088
|100>    H       -0.13004        -2.75351         1.73147
|101>    H        1.44323         4.28685        -0.94648
|102>    H       -1.74477         6.09575        -4.86080
|103>    H        0.52152         7.47265        -4.70850
|104>    H        3.33403         4.26578        -2.41367
|105>    H        5.66853         5.51137        -2.52671
|106>    H        3.09660         9.55233        -3.85808
|107>    H        0.69941         8.40935        -2.31568
|108>    H       -2.00198        10.78884        -1.21729
|109>    H       -0.72844         9.57529        -0.95953
|110>    H       -2.91047         9.49790        -3.11457
|111>    H       -2.85968         8.49194        -1.66671
|112>    H       -1.65078         8.27301        -2.93663
|113>    H        1.85627        14.14110        -7.25189
|114>    H        3.13292        12.93921        -6.95875
|115>    H        2.75229        15.48057        -5.28579
|116>    H        3.97123        15.25200        -6.54592
|117>    H        4.02090        14.26862        -5.08151
|118>    H        0.37564        15.27617        -5.98360
|119>    H       -1.71508        14.39942        -3.91413
|120>    H       -3.30020        16.11403        -3.24882
|121>    H       -1.00999        16.82524        -6.82713
|122>    H       -4.78053        19.82442        -6.30287
|123>    H       -1.00117        22.10116        -1.80250
|124>    H       -4.56486        24.94851        -3.81587
|125>    H       -3.94375        26.76641        -2.34655
|126>    H       -2.52443        27.67926        -0.55298
|127>    H       -0.75629        26.29540         0.45888
|128>    H       -0.39207        23.98501        -0.31418
|129> *
|130>
|131>                          ****END OF INPUT****

CARTESIAN COORDINATES (ANGSTROEM)
---------------------------------
  C      0.487510    1.491450   -2.754900
  C      0.607000    1.621700   -4.111440
  C      0.243310    0.614450   -5.029710
  N     -0.040670   -0.170460   -5.816830
  C      1.181870    2.748360   -4.733590
  N      1.685460    3.628220   -5.273070
  C      0.128030    0.281740   -2.032130
  C      0.561340    0.410360   -0.678160
  C      0.378220   -0.593780    0.229470
  C     -0.262650   -1.784440   -0.179970
  C     -0.713690   -1.910040   -1.526660
  C     -0.506940   -0.857660   -2.446930
  C     -1.361540   -3.099580   -1.917580
  C     -1.552990   -4.118670   -1.024830
  C     -1.106410   -3.995430    0.299580
  C     -0.474980   -2.853780    0.712740
  C      1.165490    1.736860   -0.480190
  O      1.703280    2.188560    0.503470
  C      0.920220    2.461360   -1.764180
  C      0.980060    3.810300   -1.806780
  C      0.465980    4.692610   -2.809120
  C     -0.779920    4.714420   -3.415350
  N     -1.867960    3.844270   -3.232650
  O     -1.714980    2.836470   -2.555340
  O     -2.922990    4.151900   -3.759050
  C     -0.884430    5.884800   -4.255010
  C      0.257660    6.600060   -4.144700
  C      1.152030    5.912320   -3.245840
  C      2.460530    6.233260   -2.956320
  C      3.488730    5.311060   -2.595110
  C      4.696070    5.938830   -2.684490
  C      4.481620    7.312010   -3.024100
  N      5.521110    8.259910   -3.069990
  O      6.662700    7.834470   -3.053950
  O      5.229220    9.443860   -3.105410
  C      3.115600    7.545270   -3.170830
  C      2.493100    8.786810   -3.382180
  C      1.234730    9.108090   -2.942880
  C      0.623540   10.342760   -3.221110
  N     -0.553560   10.772660   -2.652270
  C     -1.370380   10.044340   -1.709790
  C     -2.250430    9.007620   -2.403460
  C     -0.931480   12.042000   -3.111430
  O     -1.927810   12.626810   -2.737080
  C      0.110000   12.408300   -4.052270
  C      1.042070   11.353740   -4.098450
  C      2.060280   11.695950   -5.071840
  O      3.022910   11.095920   -5.490840
  N      1.676570   12.974830   -5.535000
  C      2.493430   13.690000   -6.486400
  C      3.362030   14.743550   -5.804080
  C      0.521930   13.409360   -4.944780
  C     -0.106090   14.643860   -5.252300
  C     -1.262940   15.034350   -4.665960
  C     -1.959530   16.258070   -4.948680
  C     -3.002370   16.694400   -4.112990
  N     -3.662310   17.810920   -4.316440
  C     -3.289310   18.555520   -5.354860
  N     -2.370370   18.213900   -6.250400
  C     -1.723040   17.086030   -6.055780
  C     -3.997620   19.829410   -5.557410
  C     -3.680810   20.918210   -4.844820
  C     -4.281140   22.251150   -4.845410
  C     -5.289640   22.681300   -5.658570
  C     -5.834390   23.984420   -5.627670
  N     -6.313580   25.026530   -5.648650
  C     -5.917560   21.888230   -6.644620
  N     -6.468980   21.302420   -7.462520
  C     -3.599040   23.031450   -3.823540
  C     -2.573540   22.236270   -3.229360
  C     -2.558970   20.907500   -3.853530
  O     -1.798000   19.989300   -3.652170
  C     -1.771130   22.722120   -2.235820
  C     -1.961320   24.044390   -1.778210
  C     -2.985250   24.844680   -2.364840
  C     -3.798410   24.318600   -3.392850
  C     -3.167240   26.163490   -1.899410
  C     -2.377410   26.668680   -0.903010
  C     -1.369860   25.880140   -0.326380
  C     -1.166010   24.596330   -0.754470
  H      0.715530   -0.481150    1.249250
  H     -0.870090   -0.969270   -3.456570
  H     -1.701480   -3.190310   -2.938640
  H     -2.049780   -5.026000   -1.334120
  H     -1.266270   -4.809300    0.990880
  H     -0.130040   -2.753510    1.731470
  H      1.443230    4.286850   -0.946480
  H     -1.744770    6.095750   -4.860800
  H      0.521520    7.472650   -4.708500
  H      3.334030    4.265780   -2.413670
  H      5.668530    5.511370   -2.526710
  H      3.096600    9.552330   -3.858080
  H      0.699410    8.409350   -2.315680
  H     -2.001980   10.788840   -1.217290
  H     -0.728440    9.575290   -0.959530
  H     -2.910470    9.497900   -3.114570
  H     -2.859680    8.491940   -1.666710
  H     -1.650780    8.273010   -2.936630
  H      1.856270   14.141100   -7.251890
  H      3.132920   12.939210   -6.958750
  H      2.752290   15.480570   -5.285790
  H      3.971230   15.252000   -6.545920
  H      4.020900   14.268620   -5.081510
  H      0.375640   15.276170   -5.983600
  H     -1.715080   14.399420   -3.914130
  H     -3.300200   16.114030   -3.248820
  H     -1.009990   16.825240   -6.827130
  H     -4.780530   19.824420   -6.302870
  H     -1.001170   22.101160   -1.802500
  H     -4.564860   24.948510   -3.815870
  H     -3.943750   26.766410   -2.346550
  H     -2.524430   27.679260   -0.552980
  H     -0.756290   26.295400    0.458880
  H     -0.392070   23.985010   -0.314180

 Total Charge           Charge          ....    0
 Multiplicity           Mult            ....    1
 Number of Electrons    NEL             ....  540
 Basis Dimension        Dim             .... 1290

ORBITAL ENERGIES
----------------

  NO   OCC          E(Eh)            E(eV)
   0   2.0000     -19.248145      -523.7686
   1   2.0000     -19.247691      -523.7563
   2   2.0000     -19.231168      -523.3067
   3   2.0000     -19.230859      -523.2983
   4   2.0000     -19.226345      -523.1754
   5   2.0000     -19.221112      -523.0330
   6   2.0000     -19.209584      -522.7193
   7   2.0000     -19.198313      -522.4127
   8   2.0000     -14.655723      -398.8025
   9   2.0000     -14.640664      -398.3927
  10   2.0000     -14.468415      -393.7056
  11   2.0000     -14.462437      -393.5429
  12   2.0000     -14.424403      -392.5080
  13   2.0000     -14.424248      -392.5037
  14   2.0000     -14.423050      -392.4711
  15   2.0000     -14.420649      -392.4058
  16   2.0000     -14.420181      -392.3931
  17   2.0000     -14.417762      -392.3273
  18   2.0000     -10.389698      -282.7180
  19   2.0000     -10.382819      -282.5309
  20   2.0000     -10.375236      -282.3245
  21   2.0000     -10.371533      -282.2238
  22   2.0000     -10.361752      -281.9576
  23   2.0000     -10.358010      -281.8558
  24   2.0000     -10.354014      -281.7470
  25   2.0000     -10.349720      -281.6302
  26   2.0000     -10.346464      -281.5416
  27   2.0000     -10.346451      -281.5412
  28   2.0000     -10.345109      -281.5047
  29   2.0000     -10.342743      -281.4403
  30   2.0000     -10.336482      -281.2700
  31   2.0000     -10.333264      -281.1824
  32   2.0000     -10.332689      -281.1668
  33   2.0000     -10.329260      -281.0735
  34   2.0000     -10.327714      -281.0314
  35   2.0000     -10.326173      -280.9895
  36   2.0000     -10.325974      -280.9840
  37   2.0000     -10.325926      -280.9827
  38   2.0000     -10.323097      -280.9057
  39   2.0000     -10.322835      -280.8986
  40   2.0000     -10.322321      -280.8846
  41   2.0000     -10.321191      -280.8539
  42   2.0000     -10.319806      -280.8162
  43   2.0000     -10.318942      -280.7927
  44   2.0000     -10.315283      -280.6931
  45   2.0000     -10.311905      -280.6012
  46   2.0000     -10.310872      -280.5731
  47   2.0000     -10.310293      -280.5573
  48   2.0000     -10.309058      -280.5237
  49   2.0000     -10.308308      -280.5033
  50   2.0000     -10.305699      -280.4323
  51   2.0000     -10.305503      -280.4270
  52   2.0000     -10.305258      -280.4203
  53   2.0000     -10.305154      -280.4175
  54   2.0000     -10.305068      -280.4151
  55   2.0000     -10.305051      -280.4147
  56   2.0000     -10.304842      -280.4090
  57   2.0000     -10.304381      -280.3965
  58   2.0000     -10.302721      -280.3513
  59   2.0000     -10.299870      -280.2737
  60   2.0000     -10.299690      -280.2688
  61   2.0000     -10.299464      -280.2627
  62   2.0000     -10.298420      -280.2342
  63   2.0000     -10.297419      -280.2070
  64   2.0000     -10.296391      -280.1791
  65   2.0000     -10.293581      -280.1026
  66   2.0000     -10.293038      -280.0878
  67   2.0000     -10.292815      -280.0817
  68   2.0000     -10.292713      -280.0790
  69   2.0000     -10.292336      -280.0687
  70   2.0000     -10.291953      -280.0583
  71   2.0000     -10.288084      -279.9530
  72   2.0000     -10.287587      -279.9395
  73   2.0000     -10.287264      -279.9307
  74   2.0000     -10.286591      -279.9124
  75   2.0000     -10.286586      -279.9122
  76   2.0000     -10.280547      -279.7479
  77   2.0000     -10.274103      -279.5726
  78   2.0000     -10.271802      -279.5099
  79   2.0000     -10.267675      -279.3977
  80   2.0000      -1.325906       -36.0797
  81   2.0000      -1.310745       -35.6672
  82   2.0000      -1.149246       -31.2726
  83   2.0000      -1.142961       -31.1015
  84   2.0000      -1.141918       -31.0732
  85   2.0000      -1.138380       -30.9769
  86   2.0000      -1.135883       -30.9090
  87   2.0000      -1.128191       -30.6996
  88   2.0000      -1.096681       -29.8422
  89   2.0000      -1.078664       -29.3520
  90   2.0000      -1.067287       -29.0424
  91   2.0000      -1.026437       -27.9308
  92   2.0000      -1.026361       -27.9287
  93   2.0000      -1.018076       -27.7033
  94   2.0000      -1.006374       -27.3848
  95   2.0000      -1.002533       -27.2803
  96   2.0000      -1.001972       -27.2650
  97   2.0000      -1.001171       -27.2432
  98   2.0000      -0.995934       -27.1008
  99   2.0000      -0.990619       -26.9561
 100   2.0000      -0.979029       -26.6407
 101   2.0000      -0.973899       -26.5011
 102   2.0000      -0.946314       -25.7505
 103   2.0000      -0.939301       -25.5597
 104   2.0000      -0.931561       -25.3491
 105   2.0000      -0.927886       -25.2491
 106   2.0000      -0.922268       -25.0962
 107   2.0000      -0.914997       -24.8983
 108   2.0000      -0.912891       -24.8410
 109   2.0000      -0.908091       -24.7104
 110   2.0000      -0.892937       -24.2980
 111   2.0000      -0.888615       -24.1804
 112   2.0000      -0.885519       -24.0962
 113   2.0000      -0.883441       -24.0397
 114   2.0000      -0.880671       -23.9643
 115   2.0000      -0.878008       -23.8918
 116   2.0000      -0.865394       -23.5486
 117   2.0000      -0.849461       -23.1150
 118   2.0000      -0.836100       -22.7514
 119   2.0000      -0.833826       -22.6896
 120   2.0000      -0.830489       -22.5988
 121   2.0000      -0.830018       -22.5859
 122   2.0000      -0.819340       -22.2954
 123   2.0000      -0.809450       -22.0262
 124   2.0000      -0.790210       -21.5027
 125   2.0000      -0.779621       -21.2146
 126   2.0000      -0.770515       -20.9668
 127   2.0000      -0.769532       -20.9400
 128   2.0000      -0.769240       -20.9321
 129   2.0000      -0.762716       -20.7546
 130   2.0000      -0.761367       -20.7179
 131   2.0000      -0.747027       -20.3276
 132   2.0000      -0.732502       -19.9324
 133   2.0000      -0.722529       -19.6610
 134   2.0000      -0.718815       -19.5600
 135   2.0000      -0.717678       -19.5290
 136   2.0000      -0.712983       -19.4012
 137   2.0000      -0.710150       -19.3242
 138   2.0000      -0.705364       -19.1939
 139   2.0000      -0.698516       -19.0076
 140   2.0000      -0.698241       -19.0001
 141   2.0000      -0.691264       -18.8103
 142   2.0000      -0.683403       -18.5963
 143   2.0000      -0.680444       -18.5158
 144   2.0000      -0.675079       -18.3698
 145   2.0000      -0.670772       -18.2526
 146   2.0000      -0.660598       -17.9758
 147   2.0000      -0.657708       -17.8971
 148   2.0000      -0.649375       -17.6704
 149   2.0000      -0.648876       -17.6568
 150   2.0000      -0.642240       -17.4763
 151   2.0000      -0.638670       -17.3791
 152   2.0000      -0.637912       -17.3585
 153   2.0000      -0.632861       -17.2210
 154   2.0000      -0.631955       -17.1964
 155   2.0000      -0.624252       -16.9868
 156   2.0000      -0.622747       -16.9458
 157   2.0000      -0.620580       -16.8868
 158   2.0000      -0.618422       -16.8281
 159   2.0000      -0.614444       -16.7199
 160   2.0000      -0.609739       -16.5918
 161   2.0000      -0.602463       -16.3939
 162   2.0000      -0.601546       -16.3689
 163   2.0000      -0.598035       -16.2734
 164   2.0000      -0.593983       -16.1631
 165   2.0000      -0.589172       -16.0322
 166   2.0000      -0.582837       -15.8598
 167   2.0000      -0.580578       -15.7983
 168   2.0000      -0.579196       -15.7607
 169   2.0000      -0.575840       -15.6694
 170   2.0000      -0.572634       -15.5822
 171   2.0000      -0.567252       -15.4357
 172   2.0000      -0.559438       -15.2231
 173   2.0000      -0.554274       -15.0826
 174   2.0000      -0.553180       -15.0528
 175   2.0000      -0.551996       -15.0206
 176   2.0000      -0.548122       -14.9152
 177   2.0000      -0.546087       -14.8598
 178   2.0000      -0.543153       -14.7799
 179   2.0000      -0.542463       -14.7612
 180   2.0000      -0.541684       -14.7400
 181   2.0000      -0.540399       -14.7050
 182   2.0000      -0.538995       -14.6668
 183   2.0000      -0.536734       -14.6053
 184   2.0000      -0.535155       -14.5623
 185   2.0000      -0.532470       -14.4892
 186   2.0000      -0.529326       -14.4037
 187   2.0000      -0.527785       -14.3618
 188   2.0000      -0.525965       -14.3122
 189   2.0000      -0.521719       -14.1967
 190   2.0000      -0.520303       -14.1582
 191   2.0000      -0.519327       -14.1316
 192   2.0000      -0.516900       -14.0656
 193   2.0000      -0.515998       -14.0410
 194   2.0000      -0.515193       -14.0191
 195   2.0000      -0.513713       -13.9788
 196   2.0000      -0.510887       -13.9019
 197   2.0000      -0.509569       -13.8661
 198   2.0000      -0.508905       -13.8480
 199   2.0000      -0.505465       -13.7544
 200   2.0000      -0.504962       -13.7407
 201   2.0000      -0.500357       -13.6154
 202   2.0000      -0.499172       -13.5832
 203   2.0000      -0.495347       -13.4791
 204   2.0000      -0.492581       -13.4038
 205   2.0000      -0.490636       -13.3509
 206   2.0000      -0.487195       -13.2572
 207   2.0000      -0.486134       -13.2284
 208   2.0000      -0.482840       -13.1387
 209   2.0000      -0.480431       -13.0732
 210   2.0000      -0.477567       -12.9953
 211   2.0000      -0.474942       -12.9238
 212   2.0000      -0.472838       -12.8666
 213   2.0000      -0.469238       -12.7686
 214   2.0000      -0.467530       -12.7221
 215   2.0000      -0.466955       -12.7065
 216   2.0000      -0.462676       -12.5901
 217   2.0000      -0.458777       -12.4840
 218   2.0000      -0.456719       -12.4280
 219   2.0000      -0.454300       -12.3621
 220   2.0000      -0.452242       -12.3061
 221   2.0000      -0.451613       -12.2890
 222   2.0000      -0.450265       -12.2523
 223   2.0000      -0.447591       -12.1796
 224   2.0000      -0.446872       -12.1600
 225   2.0000      -0.441720       -12.0198
 226   2.0000      -0.441651       -12.0179
 227   2.0000      -0.440533       -11.9875
 228   2.0000      -0.440427       -11.9846
 229   2.0000      -0.436094       -11.8667
 230   2.0000      -0.435571       -11.8525
 231   2.0000      -0.435204       -11.8425
 232   2.0000      -0.432316       -11.7639
 233   2.0000      -0.431404       -11.7391
 234   2.0000      -0.428171       -11.6511
 235   2.0000      -0.427808       -11.6412
 236   2.0000      -0.421515       -11.4700
 237   2.0000      -0.417030       -11.3480
 238   2.0000      -0.414306       -11.2738
 239   2.0000      -0.410520       -11.1708
 240   2.0000      -0.408576       -11.1179
 241   2.0000      -0.404089       -10.9958
 242   2.0000      -0.402211       -10.9447
 243   2.0000      -0.393025       -10.6948
 244   2.0000      -0.390841       -10.6353
 245   2.0000      -0.388800       -10.5798
 246   2.0000      -0.384870       -10.4729
 247   2.0000      -0.384168       -10.4537
 248   2.0000      -0.379405       -10.3241
 249   2.0000      -0.373542       -10.1646
 250   2.0000      -0.369905       -10.0656
 251   2.0000      -0.365877        -9.9560
 252   2.0000      -0.361434        -9.8351
 253   2.0000      -0.357726        -9.7342
 254   2.0000      -0.354724        -9.6525
 255   2.0000      -0.350012        -9.5243
 256   2.0000      -0.348288        -9.4774
 257   2.0000      -0.344459        -9.3732
 258   2.0000      -0.342251        -9.3131
 259   2.0000      -0.338664        -9.2155
 260   2.0000      -0.330373        -8.9899
 261   2.0000      -0.328939        -8.9509
 262   2.0000      -0.324495        -8.8300
 263   2.0000      -0.322150        -8.7661
 264   2.0000      -0.317794        -8.6476
 265   2.0000      -0.310695        -8.4544
 266   2.0000      -0.301028        -8.1914
 267   2.0000      -0.300389        -8.1740
 268   2.0000      -0.294434        -8.0120
 269   2.0000      -0.244299        -6.6477
 270   0.0000      -0.141933        -3.8622
 271   0.0000      -0.098104        -2.6695
 272   0.0000      -0.092931        -2.5288
 273   0.0000      -0.080453        -2.1892
 274   0.0000      -0.061665        -1.6780

MULLIKEN ATOMIC CHARGES
-----------------------
   0 C :    0.332717
   1 C :   -0.353532
   2 C :   -0.179677
   3 N :    0.159506
   4 C :   -0.189694
   5 N :    0.169607
   6 C :    0.039438
   7 C :    0.016404
   8 C :   -0.083603
   9 C :    0.096961
  10 C :    0.092240
  11 C :   -0.073364
  12 C :   -0.014773
  13 C :    0.038027
  14 C :    0.036004
  15 C :   -0.015045
  16 C :    0.134017
  17 O :   -0.133819
  18 C :   -0.085339
  19 C :   -0.057944
  20 C :    0.005619
  21 C :    0.093416
  22 N :    0.269530
  23 O :   -0.252354
  24 O :   -0.233633
  25 C :    0.023157
  26 C :    0.015170
  27 C :    0.042318
  28 C :    0.047309
  29 C :   -0.009379
  30 C :    0.035295
  31 C :    0.087448
  32 N :    0.274603
  33 O :   -0.251882
  34 O :   -0.247028
  35 C :    0.046253
  36 C :   -0.024449
  37 C :   -0.052781
  38 C :    0.129599
  39 N :   -0.252694
  40 C :    0.098109
  41 C :    0.007352
  42 C :    0.166925
  43 O :   -0.214276
  44 C :   -0.079301
  45 C :   -0.048509
  46 C :    0.160543
  47 O :   -0.172457
  48 N :   -0.256152
  49 C :    0.095004
  50 C :    0.000128
  51 C :    0.146867
  52 C :   -0.011526
  53 C :    0.023144
  54 C :    0.012758
  55 C :    0.047228
  56 N :   -0.056418
  57 C :   -0.034147
  58 N :   -0.060792
  59 C :    0.044548
  60 C :    0.006209
  61 C :   -0.059878
  62 C :    0.337011
  63 C :   -0.335885
  64 C :   -0.186058
  65 N :    0.159532
  66 C :   -0.195151
  67 N :    0.168235
  68 C :    0.040389
  69 C :   -0.002354
  70 C :    0.162703
  71 O :   -0.139172
  72 C :   -0.073625
  73 C :    0.098233
  74 C :    0.098756
  75 C :   -0.080784
  76 C :   -0.018540
  77 C :    0.038302
  78 C :    0.037179
  79 C :   -0.016251
  80 H :   -0.011266
  81 H :   -0.003749
  82 H :   -0.008954
  83 H :   -0.003931
  84 H :   -0.003444
  85 H :   -0.017256
  86 H :    0.037014
  87 H :    0.004883
  88 H :    0.016588
  89 H :    0.004473
  90 H :    0.010426
  91 H :    0.050598
  92 H :    0.003069
  93 H :    0.044229
  94 H :    0.024090
  95 H :    0.028900
  96 H :    0.026766
  97 H :    0.007391
  98 H :    0.025340
  99 H :    0.050498
 100 H :    0.018413
 101 H :    0.028950
 102 H :    0.037041
 103 H :   -0.021179
 104 H :    0.024111
 105 H :    0.023240
 106 H :    0.008261
 107 H :    0.057346
 108 H :   -0.010953
 109 H :   -0.007045
 110 H :   -0.006662
 111 H :   -0.002030
 112 H :   -0.001975
 113 H :   -0.014712
Sum of atomic charges:   -0.0000000

LOEWDIN ATOMIC CHARGES
----------------------
   0 C :    0.079356
   1 C :   -0.134079
   2 C :   -0.018164
   3 N :   -0.045320
   4 C :   -0.018063
   5 N :   -0.049382
   6 C :   -0.017304
   7 C :   -0.055533
   8 C :    0.034681
   9 C :   -0.007463
  10 C :   -0.003558
  11 C :    0.024725
  12 C :   -0.004360
  13 C :   -0.011197
  14 C :   -0.011485
  15 C :   -0.008661
  16 C :    0.085776
  17 O :   -0.136883
  18 C :   -0.056370
  19 C :    0.044348
  20 C :   -0.006536
  21 C :   -0.023539
  22 N :    0.284712
  23 O :   -0.207022
  24 O :   -0.199196
  25 C :   -0.003794
  26 C :   -0.018268
  27 C :    0.031070
  28 C :    0.056460
  29 C :   -0.047085
  30 C :    0.043626
  31 C :   -0.051304
  32 N :    0.284415
  33 O :   -0.216069
  34 O :   -0.209962
  35 C :    0.013153
  36 C :    0.023760
  37 C :   -0.014775
  38 C :    0.055973
  39 N :    0.002991
  40 C :    0.037788
  41 C :   -0.063575
  42 C :    0.077115
  43 O :   -0.205319
  44 C :   -0.125193
  45 C :   -0.094779
  46 C :    0.084663
  47 O :   -0.163826
  48 N :    0.003137
  49 C :    0.036682
  50 C :   -0.060095
  51 C :    0.093249
  52 C :   -0.050962
  53 C :    0.050684
  54 C :   -0.077635
  55 C :    0.072730
  56 N :   -0.072063
  57 C :    0.035433
  58 N :   -0.073579
  59 C :    0.067593
  60 C :    0.080765
  61 C :   -0.063434
  62 C :    0.075087
  63 C :   -0.123315
  64 C :   -0.016682
  65 N :   -0.043350
  66 C :   -0.018803
  67 N :   -0.039288
  68 C :   -0.026102
  69 C :   -0.057674
  70 C :    0.089862
  71 O :   -0.129700
  72 C :    0.036230
  73 C :   -0.006886
  74 C :   -0.004731
  75 C :    0.022676
  76 C :   -0.004106
  77 C :   -0.010428
  78 C :   -0.009245
  79 C :   -0.008323
  80 H :    0.039770
  81 H :    0.040469
  82 H :    0.035224
  83 H :    0.033678
  84 H :    0.033353
  85 H :    0.032130
  86 H :    0.051002
  87 H :    0.038159
  88 H :    0.036119
  89 H :    0.032744
  90 H :    0.042089
  91 H :    0.045771
  92 H :    0.033190
  93 H :    0.038104
  94 H :    0.023912
  95 H :    0.032475
  96 H :    0.032669
  97 H :    0.020035
  98 H :    0.023684
  99 H :    0.040400
 100 H :    0.022662
 101 H :    0.033151
 102 H :    0.035221
 103 H :    0.028892
 104 H :    0.040610
 105 H :    0.033904
 106 H :    0.025098
 107 H :    0.054053
 108 H :    0.040232
 109 H :    0.039724
 110 H :    0.035740
 111 H :    0.034477
 112 H :    0.034114
 113 H :    0.032867

  Mayer bond orders larger than 0.100000
B(  0-C ,  1-C ) :   1.6693 B(  0-C ,  6-C ) :   1.0088 B(  0-C , 18-C ) :   0.9959
B(  1-C ,  2-C ) :   1.1335 B(  1-C ,  4-C ) :   1.1685 B(  2-C ,  3-N ) :   2.9906
B(  4-C ,  5-N ) :   2.9876 B(  6-C ,  7-C ) :   1.2134 B(  6-C , 11-C ) :   1.4545
B(  7-C ,  8-C ) :   1.4626 B(  7-C , 16-C ) :   0.9224 B(  8-C ,  9-C ) :   1.1906
B(  8-C , 80-H ) :   1.0157 B(  9-C , 10-C ) :   1.2541 B(  9-C , 15-C ) :   1.2418
B( 10-C , 11-C ) :   1.2068 B( 10-C , 12-C ) :   1.2399 B( 11-C , 81-H ) :   0.9938
B( 12-C , 13-C ) :   1.4919 B( 12-C , 82-H ) :   0.9971 B( 13-C , 14-C ) :   1.2585
B( 13-C , 83-H ) :   0.9882 B( 14-C , 15-C ) :   1.4921 B( 14-C , 84-H ) :   0.9885
B( 15-C , 85-H ) :   0.9974 B( 16-C , 17-O ) :   2.2849 B( 16-C , 18-C ) :   0.9248
B( 18-C , 19-C ) :   1.7746 B( 19-C , 20-C ) :   1.0077 B( 19-C , 86-H ) :   0.9266
B( 20-C , 21-C ) :   1.5485 B( 20-C , 27-C ) :   1.0693 B( 21-C , 22-N ) :   0.9436
B( 21-C , 25-C ) :   1.1394 B( 22-N , 23-O ) :   1.4857 B( 22-N , 24-O ) :   1.5417
B( 23-O , 24-O ) :   0.2638 B( 25-C , 26-C ) :   1.5766 B( 25-C , 87-H ) :   1.0064
B( 26-C , 27-C ) :   1.1217 B( 26-C , 88-H ) :   0.9902 B( 27-C , 28-C ) :   1.4799
B( 28-C , 29-C ) :   1.1681 B( 28-C , 35-C ) :   0.9882 B( 29-C , 30-C ) :   1.5236
B( 29-C , 89-H ) :   0.9971 B( 30-C , 31-C ) :   1.1459 B( 30-C , 90-H ) :   1.0138
B( 31-C , 32-N ) :   0.9496 B( 31-C , 35-C ) :   1.4779 B( 32-N , 33-O ) :   1.5225
B( 32-N , 34-O ) :   1.4992 B( 33-O , 34-O ) :   0.2604 B( 35-C , 36-C ) :   1.2249
B( 36-C , 37-C ) :   1.4927 B( 36-C , 91-H ) :   0.9261 B( 37-C , 38-C ) :   1.2064
B( 37-C , 92-H ) :   0.9516 B( 38-C , 39-N ) :   1.1514 B( 38-C , 45-C ) :   1.3172
B( 39-N , 40-C ) :   0.9423 B( 39-N , 42-C ) :   1.0742 B( 40-C , 41-C ) :   1.1197
B( 40-C , 93-H ) :   0.9284 B( 40-C , 94-H ) :   0.9490 B( 41-C , 95-H ) :   0.9598
B( 41-C , 96-H ) :   0.9654 B( 41-C , 97-H ) :   0.9662 B( 42-C , 43-O ) :   2.0176
B( 42-C , 44-C ) :   0.9879 B( 43-O ,104-H ) :   0.1184 B( 44-C , 45-C ) :   1.2889
B( 44-C , 51-C ) :   1.2958 B( 45-C , 46-C ) :   0.9668 B( 46-C , 47-O ) :   2.0891
B( 46-C , 48-N ) :   1.0340 B( 48-N , 49-C ) :   0.9405 B( 48-N , 51-C ) :   1.1889
B( 49-C , 50-C ) :   1.1190 B( 49-C , 98-H ) :   0.9498 B( 49-C , 99-H ) :   0.9277
B( 50-C ,100-H ) :   0.9690 B( 50-C ,101-H ) :   0.9683 B( 50-C ,102-H ) :   0.9636
B( 51-C , 52-C ) :   1.1632 B( 52-C , 53-C ) :   1.6224 B( 52-C ,103-H ) :   0.9580
B( 53-C , 54-C ) :   1.0649 B( 53-C ,104-H ) :   0.9545 B( 54-C , 55-C ) :   1.3054
B( 54-C , 59-C ) :   1.3127 B( 55-C , 56-N ) :   1.5664 B( 55-C ,105-H ) :   0.9870
B( 56-N , 57-C ) :   1.4916 B( 57-C , 58-N ) :   1.4984 B( 57-C , 60-C ) :   0.9145
B( 58-N , 59-C ) :   1.5693 B( 59-C ,106-H ) :   0.9831 B( 60-C , 61-C ) :   1.8841
B( 60-C ,107-H ) :   0.9302 B( 61-C , 62-C ) :   0.9971 B( 61-C , 70-C ) :   0.9141
B( 62-C , 63-C ) :   1.6758 B( 62-C , 68-C ) :   1.0061 B( 63-C , 64-C ) :   1.1364
B( 63-C , 66-C ) :   1.1477 B( 64-C , 65-N ) :   2.9704 B( 66-C , 67-N ) :   2.9776
B( 68-C , 69-C ) :   1.2141 B( 68-C , 75-C ) :   1.4386 B( 69-C , 70-C ) :   0.9470
B( 69-C , 72-C ) :   1.4668 B( 70-C , 71-O ) :   2.2214 B( 72-C , 73-C ) :   1.1839
B( 72-C ,108-H ) :   1.0166 B( 73-C , 74-C ) :   1.2527 B( 73-C , 79-C ) :   1.2414
B( 74-C , 75-C ) :   1.2141 B( 74-C , 76-C ) :   1.2344 B( 75-C ,109-H ) :   0.9900
B( 76-C , 77-C ) :   1.4917 B( 76-C ,110-H ) :   0.9980 B( 77-C , 78-C ) :   1.2577
B( 77-C ,111-H ) :   0.9882 B( 78-C , 79-C ) :   1.4892 B( 78-C ,112-H ) :   0.9896
B( 79-C ,113-H ) :   0.9985

-----------------------------------------------------------------------------
         ABSORPTION SPECTRUM VIA TRANSITION ELECTRIC DIPOLE MOMENTS
-----------------------------------------------------------------------------
State   Energy  Wavelength   fosc         T2         TX        TY        TZ
        (cm-1)    (nm)                  (au**2)     (au)      (au)      (au)
-----------------------------------------------------------------------------
   0    6736.1   1484.5   0.288288680  14.08939  -0.51054   3.64945  -0.71430
   1   15163.5    659.5   0.007633573   0.16573  -0.28338  -0.25896  -0.13553
   2   16717.9    598.2   0.255481905   5.03100   1.01054  -1.81532   0.84523
   3   17581.7    568.8   0.051834914   0.97059   0.39482  -0.79069   0.43532
   4   19082.3    524.0   0.018485870   0.31892  -0.15424  -0.31791   0.44053
   5   21387.9    467.6   0.145479705   2.23929   0.21575   1.42313  -0.40919
   6   22798.6    438.6   0.005592815   0.08076  -0.03956  -0.13507  -0.24688
   7   23022.9    434.4   0.002266087   0.03240  -0.07757  -0.06054   0.15074
   8   23372.1    427.9   0.005825517   0.08206   0.18834  -0.21459  -0.02312
   9   24409.8    409.7   0.007364223   0.09932   0.15213  -0.23993   0.13642
  10   24902.5    401.6   0.019225818   0.25417  -0.47399  -0.16306  -0.05399
  11   25539.6    391.5   0.052481721   0.67650  -0.25217  -0.77076  -0.13724
  12   25841.4    387.0   0.051336320   0.65401   0.11981  -0.79978   0.00023
  13   26050.4    383.9   0.015610473   0.19728   0.15502   0.31702   0.26971
  14   26642.9    375.3   0.018959979   0.23428   0.42255   0.23529  -0.01925
  15   27178.6    367.9   0.249090490   3.01721  -1.30941   1.13223  -0.14389
  16   27465.6    364.1   0.300748945   3.60487   0.22305   1.88417  -0.07098
  17   27648.0    361.7   0.119603273   1.42415  -0.27183  -0.95388  -0.66360
  18   28095.8    355.9   0.099165545   1.16197   0.55507   0.81960  -0.42675
  19   28223.2    354.3   0.031425378   0.36656  -0.22897   0.15881  -0.53751
  20   28597.5    349.7   0.029131228   0.33536  -0.34542  -0.36524   0.28748
  21   28661.2    348.9   0.015067460   0.17307  -0.11809  -0.33511   0.21639
  22   28788.6    347.4   0.001202947   0.01376   0.09704  -0.03782   0.05393
  23   29375.2    340.4   0.002549351   0.02857   0.06962   0.14191  -0.05988
  24   29791.3    335.7   0.195129128   2.15629   1.41208   0.30208  -0.26658
  25   29884.9    334.6   0.025751302   0.28368   0.52751   0.05282   0.05120
  26   30050.9    332.8   0.005791375   0.06345   0.24969   0.02857   0.01687
  27   30140.8    331.8   0.044373695   0.48467   0.46959   0.10485   0.50315
  28   30259.5    330.5   0.049006879   0.53318   0.68475   0.08611   0.23848
  29   30419.8    328.7   0.218341719   2.36295   1.51335  -0.22603   0.14711
  30   30892.2    323.7   0.010611835   0.11309  -0.08943   0.32413   0.00543
  31   30994.0    322.6   0.023324384   0.24775  -0.34128  -0.35927   0.04692
  32   31525.1    317.2   0.014789717   0.15445   0.03222  -0.28323  -0.27053
  33   31726.0    315.2   0.077828241   0.80760   0.15686  -0.87272  -0.14613
  34   31761.2    314.8   0.021077728   0.21848  -0.03658  -0.44996   0.12113
  35   32146.4    311.1   0.008443388   0.08647  -0.04293  -0.26993   0.10846
  36   32262.3    310.0   0.012412015   0.12665   0.07647   0.30248   0.17120
  37   32742.6    305.4   0.010143301   0.10199  -0.16575  -0.25058  -0.10827
  38   32846.6    304.4   0.021580549   0.21630   0.02706   0.30006  -0.35430
  39   32983.9    303.2   0.039680747   0.39605  -0.36696   0.47748  -0.18276
  40   33207.3    301.1   0.131806154   1.30671   1.03988   0.33011  -0.34114
  41   33435.9    299.1   0.181422107   1.78629   1.32588   0.01289  -0.16781
  42   33479.3    298.7   0.003115276   0.03063  -0.05023  -0.16623  -0.02187
  43   34094.1    293.3   0.498515223   4.81366  -0.33459  -1.44989   1.61230
  44   34525.5    289.6   0.890252010   8.48884   1.54378   1.08212   2.22140
  45   34915.1    286.4   0.484926957   4.57235   1.56698  -1.38209   0.45471
  46   34959.1    286.0   0.224130541   2.11065   0.42133   1.11226  -0.83428
  47   35128.7    284.7   0.011082167   0.10386  -0.28828  -0.14382   0.00817
  48   35378.9    282.7   0.095112856   0.88505   0.39221  -0.80486  -0.28883
  49   35577.9    281.1   0.001115830   0.01033   0.02331  -0.09825  -0.01130
  50   35687.6    280.2   0.023649939   0.21817   0.36799   0.21334   0.19297
  51   35742.2    279.8   0.085656327   0.78896   0.57745  -0.67085  -0.07397
  52   35950.9    278.2   0.032695598   0.29940  -0.36287   0.22162   0.34441
  53   36235.5    276.0   0.026380455   0.23968  -0.33767  -0.15635  -0.31814
  54   36613.6    273.1   0.002347702   0.02111   0.12583  -0.06824  -0.02488
  55   36854.8    271.3   0.056535124   0.50501  -0.61222  -0.17074  -0.31788
  56   37005.7    270.2   0.042567645   0.37869  -0.23015  -0.42862   0.37684
  57   37050.6    269.9   0.079199203   0.70372  -0.43589  -0.71052  -0.09424
  58   37588.2    266.0   0.014391086   0.12604   0.06950   0.34808  -0.00748
  59   37670.0    265.5   0.009719671   0.08494   0.22178  -0.02146   0.18787
  60   37874.6    264.0   0.019508115   0.16957   0.07453   0.40219   0.04753
  61   38028.9    263.0   0.036842240   0.31894  -0.43007   0.04021  -0.36382
  62   38254.4    261.4   0.142330248   1.22487   0.32369   0.85684  -0.62124
  63   38301.4    261.1   0.138955491   1.19436  -0.17457   0.71603  -0.80696
  64   38859.4    257.3   0.007818439   0.06624  -0.17655  -0.10535  -0.15482
  65   39037.5    256.2   0.039899374   0.33648   0.33109   0.33461  -0.33897
  66   39119.0    255.6   0.048928838   0.41177  -0.22759  -0.34361  -0.49183
  67   39443.1    253.5   0.004206065   0.03511   0.17430  -0.06687  -0.01590
  68   39719.6    251.8   0.392521981   3.25338  -0.93270   1.49003   0.40405
  69   39819.2    251.1   0.012842837   0.10618   0.02511  -0.31520   0.07871
  70   39865.9    250.8   0.088886527   0.73402   0.79166   0.25119   0.21022
  71   40062.7    249.6   0.111059377   0.91262   0.46546   0.83342  -0.03702
  72   40288.5    248.2   0.140355046   1.14689   0.47963  -0.95636  -0.04709

FINAL SINGLE POINT ENERGY     -3527.641123976206

DIPOLE MOMENT
-------------
                                X             Y             Z
Electronic contribution:     -6.03332      -7.11475     -10.11340
Nuclear contribution   :      6.37446       7.94836      12.95412
                        -----------------------------------------
Total Dipole Moment    :      0.34114       0.83360       2.84071
                        -----------------------------------------
Magnitude (a.u.)       :      2.98009
Magnitude (Debye)      :      7.57478

Rotational constants in cm-1:     0.001906     0.000194     0.000188
Rotational constants in MHz :    57.130362     5.813123     5.634547

                             ****ORCA TERMINATED NORMALLY****
TOTAL RUN TIME: 0 days 0 hours 19 minutes 5 seconds 738 msec
