                         Program Version 4.2.0 -  RELEASE  -
|  1> # ORCA input file
|  2> # SCF done       -152.485466428944          0.000948946147
|  3> ! CAM-B3LYP def2-SVP def2/J RIJCOSX Grid4 TightSCF
|  4> %maxcore 5000
|  5> %tddft
|  6>     Mode sTDDFT
|  7>     Ethresh 5.0
|  8>     maxcore 5000
|  9> end
| 10>
| 11> %pal
| 12>   nprocs 6
| 13>   end
| 14> * xyz 0 1
| 15>    C       -1.73729        -0.84286         3.07940
| 16>    N       -2.02852        -0.60634         1.77145
| 17>    C       -2.04810        -1.59227         0.72107
| 18>    C       -3.28842        -2.47832         0.80531
| 19>    C       -2.39154         0.74215         1.55927
| 20>    O       -2.68965         1.18531         0.46388
| 21>    C       -2.29530         1.34005         2.86516
| 22>    C       -1.88116         0.31818         3.78268
| 23>    C       -1.77566         0.91447         5.09697
| 24>    O       -1.46010         0.46726         6.17755
| 25>    N       -2.13275         2.26227         4.88904
| 26>    C       -2.18826         3.19041         5.99109
| 27>    C       -3.61650         3.40008         6.48992
| 28>    C       -2.44774         2.52354         3.57242
| 29>    C       -2.84457         3.80738         3.10484
| 30>    C       -3.12663         4.04808         1.80373
| 31>    C       -3.53536         5.31048         1.26116
| 32>    C       -3.93192         6.43078         2.01269
| 33>    N       -4.31093         7.55618         1.46234
| 34>    C       -4.32815         7.62654         0.12208
| 35>    N       -3.93839         6.63649        -0.69057
| 36>    C       -3.55886         5.51521        -0.13099
| 37>    C       -4.72637         8.88452        -0.42503
| 38>    S       -4.64203        10.22784         0.64333
| 39>    C       -4.89426        11.36695        -0.63516
| 40>    C       -5.07238        10.71243        -1.87204
| 41>    C       -5.04228         9.28210        -1.72995
| 42>    C       -5.33330         8.43693        -2.83145
| 43>    C       -5.66001         7.01675        -2.70029
| 44>    C       -6.54383         6.54529        -1.83311
| 45>    C       -5.43360         9.02662        -4.06944
| 46>    C       -5.37739        10.41556        -4.22600
| 47>    C       -5.25625        11.27760        -3.16296
| 48>    C       -5.32343        12.75087        -3.41978
| 49>    C       -4.88108        12.75177        -0.31992
| 50>    C       -4.90890        13.25388         0.93289
| 51>    C       -4.89356        14.67428         1.18966
| 52>    N       -4.78747        15.50800         0.14654
| 53>    C       -4.76915        16.80001         0.41395
| 54>    C       -4.86309        17.29835         1.70243
| 55>    C       -4.98572        16.35503         2.73188
| 56>    N       -4.99254        15.05184         2.46151
| 57>    C       -5.10856        16.77952         4.11426
| 58>    C       -5.27269        15.92421         5.12856
| 59>    C       -5.45423        16.31103         6.52360
| 60>    C       -6.50384        15.70828         7.21812
| 61>    C       -6.81505        16.05994         8.51966
| 62>    C       -7.96248        15.39626         9.23503
| 63>    N       -9.00472        15.00272         8.29945
| 64>    C       -6.03646        17.01910         9.15560
| 65>    C       -4.95983        17.58198         8.49843
| 66>    C       -4.64838        17.24525         7.18589
| 67>    C       -3.42561        17.87878         6.56529
| 68>    N       -3.67997        19.22436         6.09434
| 69>    C       -3.51502        19.60808         4.79158
| 70>    C       -4.05555        20.68875         4.23399
| 71>    H       -1.44077        -1.82033         3.41215
| 72>    H       -1.14041        -2.20043         0.78147
| 73>    H       -2.04827        -1.03917        -0.22213
| 74>    H       -3.31182        -3.01763         1.74985
| 75>    H       -3.28529        -3.19826        -0.00834
| 76>    H       -4.18657        -1.87017         0.72985
| 77>    H       -1.73383         4.14067         5.69589
| 78>    H       -1.58560         2.74576         6.78847
| 79>    H       -4.25287         3.79532         5.70096
| 80>    H       -3.61764         4.09650         7.32404
| 81>    H       -4.03207         2.45342         6.82617
| 82>    H       -2.90310         4.60375         3.83213
| 83>    H       -3.03141         3.24024         1.08950
| 84>    H       -3.95895         6.41239         3.09509
| 85>    H       -3.23773         4.73062        -0.80535
| 86>    H       -5.22175         6.36159        -3.44083
| 87>    H       -7.02327         7.18246        -1.10782
| 88>    H       -6.81452         5.50390        -1.80892
| 89>    H       -5.62134         8.40976        -4.93617
| 90>    H       -5.48614        10.82268        -5.22108
| 91>    H       -5.52470        12.93162        -4.47347
| 92>    H       -4.38032        13.23490        -3.16962
| 93>    H       -6.11896        13.21166        -2.83686
| 94>    H       -4.84984        13.46843        -1.12254
| 95>    H       -4.96219        12.61868         1.80482
| 96>    H       -4.67734        17.45693        -0.44321
| 97>    H       -4.84688        18.35586         1.91070
| 98>    H       -5.08999        17.84764         4.27620
| 99>    H       -5.35369        14.86951         4.89973
|100>    H       -7.11224        14.96670         6.72348
|101>    H       -8.32020        16.06591        10.03687
|102>    H       -7.59383        14.48096         9.71415
|103>    H       -9.39305        15.82212         7.84374
|104>    H       -9.75660        14.52910         8.78713
|105>    H       -6.26062        17.31098        10.17173
|106>    H       -4.33833        18.30038         9.01518
|107>    H       -3.06164        17.27533         5.73123
|108>    H       -2.63536        17.91787         7.33071
|109>    H       -4.35549        19.74945         6.62942
|110>    H       -2.83831        18.97483         4.23118
|111>    H       -4.72062        21.33604         4.77964
|112>    H       -3.81812        20.97285         3.22653
|113> *
|114>
|115>                          ****END OF INPUT****

CARTESIAN COORDINATES (ANGSTROEM)
---------------------------------
  C     -1.737290   -0.842860    3.079400
  N     -2.028520   -0.606340    1.771450
  C     -2.048100   -1.592270    0.721070
  C     -3.288420   -2.478320    0.805310
  C     -2.391540    0.742150    1.559270
  O     -2.689650    1.185310    0.463880
  C     -2.295300    1.340050    2.865160
  C     -1.881160    0.318180    3.782680
  C     -1.775660    0.914470    5.096970
  O     -1.460100    0.467260    6.177550
  N     -2.132750    2.262270    4.889040
  C     -2.188260    3.190410    5.991090
  C     -3.616500    3.400080    6.489920
  C     -2.447740    2.523540    3.572420
  C     -2.844570    3.807380    3.104840
  C     -3.126630    4.048080    1.803730
  C     -3.535360    5.310480    1.261160
  C     -3.931920    6.430780    2.012690
  N     -4.310930    7.556180    1.462340
  C     -4.328150    7.626540    0.122080
  N     -3.938390    6.636490   -0.690570
  C     -3.558860    5.515210   -0.130990
  C     -4.726370    8.884520   -0.425030
  S     -4.642030   10.227840    0.643330
  C     -4.894260   11.366950   -0.635160
  C     -5.072380   10.712430   -1.872040
  C     -5.042280    9.282100   -1.729950
  C     -5.333300    8.436930   -2.831450
  C     -5.660010    7.016750   -2.700290
  C     -6.543830    6.545290   -1.833110
  C     -5.433600    9.026620   -4.069440
  C     -5.377390   10.415560   -4.226000
  C     -5.256250   11.277600   -3.162960
  C     -5.323430   12.750870   -3.419780
  C     -4.881080   12.751770   -0.319920
  C     -4.908900   13.253880    0.932890
  C     -4.893560   14.674280    1.189660
  N     -4.787470   15.508000    0.146540
  C     -4.769150   16.800010    0.413950
  C     -4.863090   17.298350    1.702430
  C     -4.985720   16.355030    2.731880
  N     -4.992540   15.051840    2.461510
  C     -5.108560   16.779520    4.114260
  C     -5.272690   15.924210    5.128560
  C     -5.454230   16.311030    6.523600
  C     -6.503840   15.708280    7.218120
  C     -6.815050   16.059940    8.519660
  C     -7.962480   15.396260    9.235030
  N     -9.004720   15.002720    8.299450
  C     -6.036460   17.019100    9.155600
  C     -4.959830   17.581980    8.498430
  C     -4.648380   17.245250    7.185890
  C     -3.425610   17.878780    6.565290
  N     -3.679970   19.224360    6.094340
  C     -3.515020   19.608080    4.791580
  C     -4.055550   20.688750    4.233990
  H     -1.440770   -1.820330    3.412150
  H     -1.140410   -2.200430    0.781470
  H     -2.048270   -1.039170   -0.222130
  H     -3.311820   -3.017630    1.749850
  H     -3.285290   -3.198260   -0.008340
  H     -4.186570   -1.870170    0.729850
  H     -1.733830    4.140670    5.695890
  H     -1.585600    2.745760    6.788470
  H     -4.252870    3.795320    5.700960
  H     -3.617640    4.096500    7.324040
  H     -4.032070    2.453420    6.826170
  H     -2.903100    4.603750    3.832130
  H     -3.031410    3.240240    1.089500
  H     -3.958950    6.412390    3.095090
  H     -3.237730    4.730620   -0.805350
  H     -5.221750    6.361590   -3.440830
  H     -7.023270    7.182460   -1.107820
  H     -6.814520    5.503900   -1.808920
  H     -5.621340    8.409760   -4.936170
  H     -5.486140   10.822680   -5.221080
  H     -5.524700   12.931620   -4.473470
  H     -4.380320   13.234900   -3.169620
  H     -6.118960   13.211660   -2.836860
  H     -4.849840   13.468430   -1.122540
  H     -4.962190   12.618680    1.804820
  H     -4.677340   17.456930   -0.443210
  H     -4.846880   18.355860    1.910700
  H     -5.089990   17.847640    4.276200
  H     -5.353690   14.869510    4.899730
  H     -7.112240   14.966700    6.723480
  H     -8.320200   16.065910   10.036870
  H     -7.593830   14.480960    9.714150
  H     -9.393050   15.822120    7.843740
  H     -9.756600   14.529100    8.787130
  H     -6.260620   17.310980   10.171730
  H     -4.338330   18.300380    9.015180
  H     -3.061640   17.275330    5.731230
  H     -2.635360   17.917870    7.330710
  H     -4.355490   19.749450    6.629420
  H     -2.838310   18.974830    4.231180
  H     -4.720620   21.336040    4.779640
  H     -3.818120   20.972850    3.226530

 Total Charge           Charge          ....    0
 Multiplicity           Mult            ....    1
 Number of Electrons    NEL             ....  400
 Basis Dimension        Dim             ....  998

ORBITAL ENERGIES
----------------

  NO   OCC          E(Eh)            E(eV)
   0   2.0000     -88.955198     -2420.5940
   1   2.0000     -19.181445      -521.9537
   2   2.0000     -19.179973      -521.9136
   3   2.0000     -14.446134      -393.0993
   4   2.0000     -14.444904      -393.0658
   5   2.0000     -14.408203      -392.0671
   6   2.0000     -14.405535      -391.9945
   7   2.0000     -14.403286      -391.9333
   8   2.0000     -14.395037      -391.7089
   9   2.0000     -14.393570      -391.6690
  10   2.0000     -14.383873      -391.4051
  11   2.0000     -10.365855      -282.0693
  12   2.0000     -10.363902      -282.0161
  13   2.0000     -10.343646      -281.4649
  14   2.0000     -10.335409      -281.2408
  15   2.0000     -10.329264      -281.0736
  16   2.0000     -10.320820      -280.8438
  17   2.0000     -10.320478      -280.8345
  18   2.0000     -10.315839      -280.7083
  19   2.0000     -10.314338      -280.6674
  20   2.0000     -10.309136      -280.5259
  21   2.0000     -10.303531      -280.3733
  22   2.0000     -10.303105      -280.3618
  23   2.0000     -10.298683      -280.2414
  24   2.0000     -10.295368      -280.1512
  25   2.0000     -10.290384      -280.0156
  26   2.0000     -10.289912      -280.0027
  27   2.0000     -10.289505      -279.9917
  28   2.0000     -10.289360      -279.9877
  29   2.0000     -10.285634      -279.8863
  30   2.0000     -10.284280      -279.8495
  31   2.0000     -10.276904      -279.6488
  32   2.0000     -10.275890      -279.6212
  33   2.0000     -10.273558      -279.5577
  34   2.0000     -10.272726      -279.5351
  35   2.0000     -10.272043      -279.5165
  36   2.0000     -10.270588      -279.4769
  37   2.0000     -10.270032      -279.4618
  38   2.0000     -10.269238      -279.4402
  39   2.0000     -10.267734      -279.3993
  40   2.0000     -10.267150      -279.3834
  41   2.0000     -10.265288      -279.3327
  42   2.0000     -10.264070      -279.2995
  43   2.0000     -10.261726      -279.2358
  44   2.0000     -10.260758      -279.2094
  45   2.0000     -10.260244      -279.1954
  46   2.0000     -10.260217      -279.1947
  47   2.0000     -10.260052      -279.1902
  48   2.0000     -10.258102      -279.1371
  49   2.0000     -10.257218      -279.1131
  50   2.0000     -10.257067      -279.1090
  51   2.0000     -10.257003      -279.1072
  52   2.0000     -10.251842      -278.9668
  53   2.0000     -10.249716      -278.9089
  54   2.0000     -10.241563      -278.6871
  55   2.0000     -10.226040      -278.2647
  56   2.0000      -8.049829      -219.0470
  57   2.0000      -6.018639      -163.7755
  58   2.0000      -6.014546      -163.6641
  59   2.0000      -6.012950      -163.6207
  60   2.0000      -1.123690       -30.5772
  61   2.0000      -1.116915       -30.3928
  62   2.0000      -1.080994       -29.4154
  63   2.0000      -1.068171       -29.0664
  64   2.0000      -1.054442       -28.6928
  65   2.0000      -1.046071       -28.4650
  66   2.0000      -1.008841       -27.4520
  67   2.0000      -0.987331       -26.8666
  68   2.0000      -0.976212       -26.5641
  69   2.0000      -0.970725       -26.4148
  70   2.0000      -0.967495       -26.3269
  71   2.0000      -0.942694       -25.6520
  72   2.0000      -0.929592       -25.2955
  73   2.0000      -0.924375       -25.1535
  74   2.0000      -0.917833       -24.9755
  75   2.0000      -0.903915       -24.5968
  76   2.0000      -0.891312       -24.2538
  77   2.0000      -0.876296       -23.8452
  78   2.0000      -0.873099       -23.7582
  79   2.0000      -0.863200       -23.4889
  80   2.0000      -0.858516       -23.3614
  81   2.0000      -0.851535       -23.1714
  82   2.0000      -0.824569       -22.4377
  83   2.0000      -0.820364       -22.3232
  84   2.0000      -0.816659       -22.2224
  85   2.0000      -0.814571       -22.1656
  86   2.0000      -0.813359       -22.1326
  87   2.0000      -0.808061       -21.9885
  88   2.0000      -0.792680       -21.5699
  89   2.0000      -0.771923       -21.0051
  90   2.0000      -0.761890       -20.7321
  91   2.0000      -0.758306       -20.6346
  92   2.0000      -0.755573       -20.5602
  93   2.0000      -0.745313       -20.2810
  94   2.0000      -0.741763       -20.1844
  95   2.0000      -0.739497       -20.1227
  96   2.0000      -0.717553       -19.5256
  97   2.0000      -0.714205       -19.4345
  98   2.0000      -0.703973       -19.1561
  99   2.0000      -0.694818       -18.9070
 100   2.0000      -0.688528       -18.7358
 101   2.0000      -0.685840       -18.6627
 102   2.0000      -0.675192       -18.3729
 103   2.0000      -0.666062       -18.1245
 104   2.0000      -0.664761       -18.0891
 105   2.0000      -0.660665       -17.9776
 106   2.0000      -0.650816       -17.7096
 107   2.0000      -0.645484       -17.5645
 108   2.0000      -0.643467       -17.5096
 109   2.0000      -0.631735       -17.1904
 110   2.0000      -0.617841       -16.8123
 111   2.0000      -0.608328       -16.5534
 112   2.0000      -0.600838       -16.3496
 113   2.0000      -0.593885       -16.1604
 114   2.0000      -0.587127       -15.9765
 115   2.0000      -0.586275       -15.9534
 116   2.0000      -0.579291       -15.7633
 117   2.0000      -0.574597       -15.6356
 118   2.0000      -0.572554       -15.5800
 119   2.0000      -0.565431       -15.3862
 120   2.0000      -0.565287       -15.3822
 121   2.0000      -0.561839       -15.2884
 122   2.0000      -0.557506       -15.1705
 123   2.0000      -0.554864       -15.0986
 124   2.0000      -0.550140       -14.9701
 125   2.0000      -0.542307       -14.7569
 126   2.0000      -0.539656       -14.6848
 127   2.0000      -0.538747       -14.6601
 128   2.0000      -0.533724       -14.5234
 129   2.0000      -0.530219       -14.4280
 130   2.0000      -0.525787       -14.3074
 131   2.0000      -0.524931       -14.2841
 132   2.0000      -0.524480       -14.2718
 133   2.0000      -0.516406       -14.0521
 134   2.0000      -0.512827       -13.9547
 135   2.0000      -0.512073       -13.9342
 136   2.0000      -0.509558       -13.8658
 137   2.0000      -0.508402       -13.8343
 138   2.0000      -0.506022       -13.7695
 139   2.0000      -0.504904       -13.7391
 140   2.0000      -0.503344       -13.6967
 141   2.0000      -0.500198       -13.6111
 142   2.0000      -0.498477       -13.5642
 143   2.0000      -0.494623       -13.4594
 144   2.0000      -0.491489       -13.3741
 145   2.0000      -0.490480       -13.3467
 146   2.0000      -0.489246       -13.3131
 147   2.0000      -0.486948       -13.2505
 148   2.0000      -0.483326       -13.1520
 149   2.0000      -0.477373       -12.9900
 150   2.0000      -0.473328       -12.8799
 151   2.0000      -0.471285       -12.8243
 152   2.0000      -0.467164       -12.7122
 153   2.0000      -0.465755       -12.6738
 154   2.0000      -0.463931       -12.6242
 155   2.0000      -0.456297       -12.4165
 156   2.0000      -0.455663       -12.3992
 157   2.0000      -0.455490       -12.3945
 158   2.0000      -0.451193       -12.2776
 159   2.0000      -0.450585       -12.2610
 160   2.0000      -0.449068       -12.2198
 161   2.0000      -0.443642       -12.0721
 162   2.0000      -0.440866       -11.9966
 163   2.0000      -0.435184       -11.8420
 164   2.0000      -0.433865       -11.8061
 165   2.0000      -0.432797       -11.7770
 166   2.0000      -0.430226       -11.7070
 167   2.0000      -0.426638       -11.6094
 168   2.0000      -0.423270       -11.5178
 169   2.0000      -0.421130       -11.4595
 170   2.0000      -0.417552       -11.3622
 171   2.0000      -0.413257       -11.2453
 172   2.0000      -0.407122       -11.0784
 173   2.0000      -0.405110       -11.0236
 174   2.0000      -0.403591       -10.9823
 175   2.0000      -0.397910       -10.8277
 176   2.0000      -0.397023       -10.8036
 177   2.0000      -0.395449       -10.7607
 178   2.0000      -0.392474       -10.6798
 179   2.0000      -0.385012       -10.4767
 180   2.0000      -0.379006       -10.3133
 181   2.0000      -0.374832       -10.1997
 182   2.0000      -0.365725        -9.9519
 183   2.0000      -0.354401        -9.6438
 184   2.0000      -0.341472        -9.2919
 185   2.0000      -0.338508        -9.2113
 186   2.0000      -0.332697        -9.0532
 187   2.0000      -0.322391        -8.7727
 188   2.0000      -0.316299        -8.6069
 189   2.0000      -0.311925        -8.4879
 190   2.0000      -0.311005        -8.4629
 191   2.0000      -0.308878        -8.4050
 192   2.0000      -0.305635        -8.3167
 193   2.0000      -0.304226        -8.2784
 194   2.0000      -0.299161        -8.1406
 195   2.0000      -0.285266        -7.7625
 196   2.0000      -0.280324        -7.6280
 197   2.0000      -0.252719        -6.8768
 198   2.0000      -0.245548        -6.6817
 199   2.0000      -0.226394        -6.1605
 200   0.0000      -0.075872        -2.0646
 201   0.0000      -0.046361        -1.2615
 202   0.0000      -0.024230        -0.6593
 203   0.0000       0.001287         0.0350
 204   0.0000       0.006671         0.1815

MULLIKEN ATOMIC CHARGES
-----------------------
   0 C :    0.035145
   1 N :   -0.256980
   2 C :    0.111923
   3 C :   -0.002394
   4 C :    0.170304
   5 O :   -0.222492
   6 C :   -0.107353
   7 C :    0.005685
   8 C :    0.160967
   9 O :   -0.188703
  10 N :   -0.270920
  11 C :    0.098777
  12 C :    0.003905
  13 C :    0.156373
  14 C :   -0.014563
  15 C :    0.019186
  16 C :    0.006991
  17 C :    0.032382
  18 N :   -0.069934
  19 C :   -0.081942
  20 N :   -0.036485
  21 C :    0.043915
  22 C :   -0.115363
  23 S :    0.199042
  24 C :   -0.122044
  25 C :    0.125597
  26 C :    0.107808
  27 C :    0.037074
  28 C :   -0.003413
  29 C :   -0.022325
  30 C :   -0.018640
  31 C :   -0.032192
  32 C :   -0.108520
  33 C :    0.105003
  34 C :    0.016840
  35 C :    0.018744
  36 C :   -0.063247
  37 N :   -0.084155
  38 C :    0.080086
  39 C :   -0.055031
  40 C :    0.034374
  41 N :   -0.051102
  42 C :   -0.016957
  43 C :   -0.000959
  44 C :    0.095335
  45 C :   -0.047475
  46 C :   -0.077777
  47 C :    0.209493
  48 N :   -0.232184
  49 C :    0.000598
  50 C :   -0.026192
  51 C :   -0.089828
  52 C :    0.234851
  53 N :   -0.186163
  54 C :    0.038689
  55 C :   -0.096751
  56 H :    0.012233
  57 H :    0.017364
  58 H :    0.040965
  59 H :    0.014087
  60 H :    0.022844
  61 H :    0.029579
  62 H :    0.021529
  63 H :    0.042131
  64 H :    0.012145
  65 H :    0.023005
  66 H :    0.029956
  67 H :   -0.029038
  68 H :    0.016881
  69 H :    0.002940
  70 H :    0.012599
  71 H :   -0.001700
  72 H :    0.015900
  73 H :    0.014326
  74 H :   -0.029043
  75 H :   -0.033323
  76 H :   -0.000050
  77 H :    0.041553
  78 H :    0.036915
  79 H :   -0.004019
  80 H :   -0.012087
  81 H :    0.000763
  82 H :   -0.008216
  83 H :   -0.003309
  84 H :    0.020376
  85 H :   -0.022015
  86 H :   -0.013395
  87 H :    0.017581
  88 H :    0.095244
  89 H :    0.094469
  90 H :   -0.033482
  91 H :   -0.028369
  92 H :    0.018744
  93 H :    0.003185
  94 H :    0.106146
  95 H :    0.007372
  96 H :   -0.006876
  97 H :    0.007084
Sum of atomic charges:    0.0000000

LOEWDIN ATOMIC CHARGES
----------------------
   0 C :    0.084021
   1 N :    0.000245
   2 C :    0.037657
   3 C :   -0.060968
   4 C :    0.075401
   5 O :   -0.213991
   6 C :   -0.137419
   7 C :   -0.127050
   8 C :    0.082072
   9 O :   -0.192772
  10 N :   -0.009696
  11 C :    0.034901
  12 C :   -0.061909
  13 C :    0.089155
  14 C :   -0.057862
  15 C :    0.041154
  16 C :   -0.091411
  17 C :    0.056403
  18 N :   -0.096143
  19 C :    0.017363
  20 N :   -0.061997
  21 C :    0.063259
  22 C :   -0.200241
  23 S :    0.531013
  24 C :   -0.166808
  25 C :   -0.040435
  26 C :   -0.021096
  27 C :   -0.017062
  28 C :   -0.002248
  29 C :   -0.058366
  30 C :   -0.014584
  31 C :   -0.035686
  32 C :   -0.014709
  33 C :   -0.045314
  34 C :   -0.011900
  35 C :   -0.046133
  36 C :    0.029562
  37 N :   -0.100238
  38 C :    0.047646
  39 C :   -0.074406
  40 C :    0.036137
  41 N :   -0.092857
  42 C :   -0.046005
  43 C :    0.025067
  44 C :   -0.023885
  45 C :   -0.008689
  46 C :   -0.034504
  47 C :    0.027036
  48 N :   -0.112818
  49 C :   -0.026924
  50 C :   -0.027895
  51 C :   -0.038123
  52 C :    0.043427
  53 N :   -0.037134
  54 C :    0.023283
  55 C :   -0.173628
  56 H :    0.031305
  57 H :    0.023945
  58 H :    0.035620
  59 H :    0.022061
  60 H :    0.029606
  61 H :    0.031311
  62 H :    0.021879
  63 H :    0.037470
  64 H :    0.020556
  65 H :    0.029979
  66 H :    0.032390
  67 H :    0.025433
  68 H :    0.039219
  69 H :    0.022779
  70 H :    0.030020
  71 H :    0.028372
  72 H :    0.019739
  73 H :    0.020067
  74 H :    0.027869
  75 H :    0.025012
  76 H :    0.030037
  77 H :    0.036619
  78 H :    0.037126
  79 H :    0.034857
  80 H :    0.023073
  81 H :    0.024058
  82 H :    0.032737
  83 H :    0.032453
  84 H :    0.035020
  85 H :    0.028451
  86 H :    0.004776
  87 H :    0.030767
  88 H :    0.055673
  89 H :    0.056680
  90 H :    0.023785
  91 H :    0.024379
  92 H :    0.028794
  93 H :    0.019939
  94 H :    0.068791
  95 H :    0.024039
  96 H :    0.012896
  97 H :    0.018518

  Mayer bond orders larger than 0.100000
B(  0-C ,  1-N ) :   1.1839 B(  0-C ,  7-C ) :   1.4642 B(  0-C , 56-H ) :   0.9902
B(  1-N ,  2-C ) :   0.9455 B(  1-N ,  4-C ) :   1.0603 B(  2-C ,  3-C ) :   1.1181
B(  2-C , 57-H ) :   0.9537 B(  2-C , 58-H ) :   0.9345 B(  3-C , 59-H ) :   0.9693
B(  3-C , 60-H ) :   0.9689 B(  3-C , 61-H ) :   0.9674 B(  4-C ,  5-O ) :   2.0080
B(  4-C ,  6-C ) :   1.0116 B(  5-O , 68-H ) :   0.1160 B(  6-C ,  7-C ) :   1.2001
B(  6-C , 13-C ) :   1.3783 B(  7-C ,  8-C ) :   0.9499 B(  8-C ,  9-O ) :   2.1737
B(  8-C , 10-N ) :   1.0175 B( 10-N , 11-C ) :   0.9503 B( 10-N , 13-C ) :   1.1550
B( 11-C , 12-C ) :   1.1194 B( 11-C , 62-H ) :   0.9500 B( 11-C , 63-H ) :   0.9273
B( 12-C , 64-H ) :   0.9684 B( 12-C , 65-H ) :   0.9679 B( 12-C , 66-H ) :   0.9638
B( 13-C , 14-C ) :   1.1524 B( 14-C , 15-C ) :   1.6230 B( 14-C , 67-H ) :   0.9584
B( 15-C , 16-C ) :   1.0778 B( 15-C , 68-H ) :   0.9591 B( 16-C , 17-C ) :   1.2861
B( 16-C , 21-C ) :   1.2887 B( 17-C , 18-N ) :   1.6071 B( 17-C , 69-H ) :   0.9828
B( 18-N , 19-C ) :   1.5300 B( 19-C , 20-N ) :   1.5242 B( 19-C , 22-C ) :   1.0602
B( 20-N , 21-C ) :   1.5719 B( 21-C , 70-H ) :   0.9873 B( 22-C , 23-S ) :   1.1669
B( 22-C , 24-C ) :   0.1205 B( 22-C , 26-C ) :   1.3593 B( 23-S , 24-C ) :   1.1644
B( 24-C , 25-C ) :   1.3239 B( 24-C , 34-C ) :   1.1170 B( 25-C , 26-C ) :   1.2030
B( 25-C , 32-C ) :   1.2093 B( 26-C , 27-C ) :   1.2170 B( 27-C , 28-C ) :   1.0255
B( 27-C , 30-C ) :   1.5159 B( 28-C , 29-C ) :   1.9928 B( 28-C , 71-H ) :   0.9533
B( 29-C , 72-H ) :   0.9525 B( 29-C , 73-H ) :   0.9533 B( 30-C , 31-C ) :   1.2126
B( 30-C , 74-H ) :   0.9884 B( 31-C , 32-C ) :   1.5424 B( 31-C , 75-H ) :   0.9849
B( 32-C , 33-C ) :   1.0952 B( 33-C , 76-H ) :   0.9409 B( 33-C , 77-H ) :   0.9386
B( 33-C , 78-H ) :   0.9431 B( 34-C , 35-C ) :   1.6635 B( 34-C , 79-H ) :   0.9602
B( 35-C , 36-C ) :   1.0541 B( 35-C , 80-H ) :   0.9701 B( 36-C , 37-N ) :   1.5037
B( 36-C , 41-N ) :   1.5288 B( 37-N , 38-C ) :   1.5564 B( 38-C , 39-C ) :   1.3592
B( 38-C , 81-H ) :   0.9800 B( 39-C , 40-C ) :   1.3373 B( 39-C , 82-H ) :   0.9722
B( 40-C , 41-N ) :   1.5244 B( 40-C , 42-C ) :   1.0673 B( 42-C , 43-C ) :   1.7866
B( 42-C , 83-H ) :   0.9686 B( 43-C , 44-C ) :   0.9892 B( 43-C , 84-H ) :   0.9560
B( 44-C , 45-C ) :   1.3212 B( 44-C , 51-C ) :   1.4109 B( 45-C , 46-C ) :   1.3947
B( 45-C , 85-H ) :   0.9988 B( 46-C , 47-C ) :   1.0191 B( 46-C , 49-C ) :   1.3789
B( 47-C , 48-N ) :   1.0863 B( 47-C , 86-H ) :   0.9385 B( 47-C , 87-H ) :   0.9202
B( 48-N , 88-H ) :   0.9725 B( 48-N , 89-H ) :   0.9679 B( 49-C , 50-C ) :   1.3821
B( 49-C , 90-H ) :   0.9938 B( 50-C , 51-C ) :   1.3803 B( 50-C , 91-H ) :   0.9892
B( 51-C , 52-C ) :   1.0410 B( 52-C , 53-N ) :   1.0256 B( 52-C , 92-H ) :   0.9225
B( 52-C , 93-H ) :   0.9257 B( 53-N , 54-C ) :   1.1834 B( 53-N , 94-H ) :   0.9434
B( 54-C , 55-C ) :   1.8664 B( 54-C , 95-H ) :   0.9603 B( 55-C , 96-H ) :   0.9570
B( 55-C , 97-H ) :   0.9528

-----------------------------------------------------------------------------
         ABSORPTION SPECTRUM VIA TRANSITION ELECTRIC DIPOLE MOMENTS
-----------------------------------------------------------------------------
State   Energy  Wavelength   fosc         T2         TX        TY        TZ
        (cm-1)    (nm)                  (au**2)     (au)      (au)      (au)
-----------------------------------------------------------------------------
   0   17715.3    564.5   1.169289262  21.72945   0.91080  -4.54208   0.51908
   1   21889.0    456.8   0.024818633   0.37327   0.19148  -0.48000  -0.32590
   2   24974.1    400.4   0.121953271   1.60760  -0.30636  -0.79000  -0.94321
   3   26081.3    383.4   0.107747658   1.36005  -0.26832   1.07873  -0.35270
   4   28868.7    346.4   0.001813106   0.02068   0.01177   0.11757   0.08194
   5   29259.7    341.8   0.014807584   0.16661  -0.07222  -0.19839  -0.34933
   6   29485.3    339.2   0.055398472   0.61854   0.28660   0.03970   0.73132
   7   29861.6    334.9   0.070030023   0.77205   0.18365  -0.01810   0.85907
   8   30500.1    327.9   0.147374933   1.59074   0.03123   1.01325   0.75039
   9   30636.9    326.4   0.070668650   0.75938   0.02808  -0.63648  -0.59455
  10   31237.3    320.1   0.017504766   0.18448   0.08840   0.35475   0.22544
  11   31703.7    315.4   0.032317442   0.33559   0.15674  -0.45127  -0.32768
  12   32238.9    310.2   0.017061384   0.17422  -0.17742   0.36409   0.10090
  13   32453.3    308.1   0.024402334   0.24754   0.18983  -0.43098   0.16049
  14   33659.0    297.1   0.035357284   0.34582   0.25902  -0.39923   0.34547
  15   34357.3    291.1   0.072892940   0.69846  -0.19796   0.81106   0.03823
  16   34741.2    287.8   0.116659170   1.10548   0.02831   0.15250  -1.03991
  17   34919.0    286.4   0.280179004   2.64150  -0.27594  -0.13770  -1.59574
  18   35599.9    280.9   0.059843582   0.55341  -0.05088  -0.18973  -0.71751
  19   36293.3    275.5   0.615298187   5.58128   0.54143   0.17958   2.29257
  20   36518.3    273.8   0.035056066   0.31603   0.14625   0.26882  -0.47157
  21   36623.5    273.0   0.003941820   0.03543   0.18236  -0.04607  -0.00748
  22   36675.9    272.7   0.019415053   0.17427  -0.36150   0.02064  -0.20777
  23   37756.2    264.9   0.234902355   2.04821  -0.08854  -0.44266  -1.35809
  24   38249.2    261.4   0.165429813   1.42386  -0.47913   1.02040  -0.39125
  25   39415.8    253.7   0.113091675   0.94457   0.06670  -0.38569   0.88959
  26   39479.6    253.3   0.013156470   0.10971   0.04526   0.15699  -0.28812
  27   39952.6    250.3   0.019721534   0.16251   0.14796   0.23714  -0.29048
  28   40212.6    248.7   0.131042054   1.07281   0.14534  -0.16743  -1.01176

FINAL SINGLE POINT ENERGY     -2723.606569357286

DIPOLE MOMENT
-------------
                                X             Y             Z
Electronic contribution:     11.67619     -20.37421     -21.05280
Nuclear contribution   :    -12.52065      21.02339      21.81094
                        -----------------------------------------
Total Dipole Moment    :     -0.84447       0.64917       0.75814
                        -----------------------------------------
Magnitude (a.u.)       :      1.30741
Magnitude (Debye)      :      3.32318

Rotational constants in cm-1:     0.001707     0.000478     0.000391
Rotational constants in MHz :    51.159619    14.337396    11.731266

                             ****ORCA TERMINATED NORMALLY****
TOTAL RUN TIME: 0 days 0 hours 7 minutes 7 seconds 200 msec
