                         Program Version 4.2.0 -  RELEASE  -
|  1> # ORCA input file
|  2> # SCF done       -174.156667349635          0.000658803127
|  3> ! CAM-B3LYP def2-SVP def2/J RIJCOSX Grid4 TightSCF
|  4> %maxcore 5000
|  5> %tddft
|  6>     Mode sTDDFT
|  7>     Ethresh 5.0
|  8>     maxcore 5000
|  9> end
| 10>
| 11> %pal
| 12>   nprocs 6
| 13>   end
| 14> * xyz 0 1
| 15>    C        3.26142        -1.85586        -7.75871
| 16>    C        3.23001        -2.50854        -8.99252
| 17>    N        3.20856        -3.04348       -10.00680
| 18>    C        2.23048        -1.72860        -6.85023
| 19>    F        1.01647        -2.23681        -7.04381
| 20>    C        2.59322        -1.00846        -5.70074
| 21>    F        1.75773        -0.76299        -4.68956
| 22>    C        3.90664        -0.57556        -5.71585
| 23>    S        4.70081        -1.07236        -7.18099
| 24>    C        4.56039         0.15072        -4.73640
| 25>    C        5.10505         0.78681        -3.85620
| 26>    C        5.74666         1.49986        -2.86222
| 27>    C        5.21349         1.92966        -1.66232
| 28>    C        6.15692         2.61146        -0.89307
| 29>    C        7.41567         2.69988        -1.51979
| 30>    S        7.44281         1.94870        -3.05205
| 31>    C        8.30045         3.39134        -0.65803
| 32>    C        7.60809         3.73709         0.51384
| 33>    C        6.23348         3.26683         0.39944
| 34>    C        5.23409         3.42317         1.31470
| 35>    C        3.92844         2.93536         1.09530
| 36>    N        2.86535         2.54320         0.92127
| 37>    C        5.44091         4.09114         2.53995
| 38>    N        5.61172         4.63487         3.53506
| 39>    C        8.40155         4.41056         1.43860
| 40>    C        9.69713         4.59214         0.98363
| 41>    S        9.92981         3.91049        -0.62397
| 42>    C       10.77518         5.22241         1.66749
| 43>    C       12.00026         5.43838         1.07809
| 44>    C       13.09763         6.03359         1.69345
| 45>    C       12.99118         6.51861         3.07803
| 46>    C       11.88392         6.41330         3.84463
| 47>    S       10.42015         5.69146         3.32462
| 48>    C       14.25174         7.10033         3.38133
| 49>    C       15.08981         6.99763         2.27222
| 50>    C       16.36200         7.56202         2.51338
| 51>    C       16.45108         8.06731         3.77142
| 52>    S       15.00808         7.88113         4.71079
| 53>    C       14.39200         6.32499         1.20482
| 54>    C       15.01767         6.09164        -0.03996
| 55>    C       14.57401         5.36672        -1.10414
| 56>    C       15.28802         5.23454        -2.31783
| 57>    C       16.50987         5.78237        -2.69047
| 58>    C       16.87209         5.42995        -3.98469
| 59>    C       15.92706         4.60556        -4.62183
| 60>    S       14.59028         4.26500        -3.61085
| 61>    C       16.38876         4.31737        -5.92716
| 62>    C       17.62949         4.95965        -6.11946
| 63>    C       17.97449         5.67593        -4.90713
| 64>    C       19.09086         6.42302        -4.66728
| 65>    C       19.30468         7.06767        -3.43138
| 66>    N       19.47553         7.58922        -2.42416
| 67>    C       20.10362         6.59916        -5.63343
| 68>    N       20.92995         6.74609        -6.41444
| 69>    C       18.16665         4.73691        -7.38746
| 70>    C       17.34716         3.93381        -8.15683
| 71>    S       15.88279         3.44045        -7.30078
| 72>    C       17.56385         3.51439        -9.45427
| 73>    C       17.74334         3.13936       -10.59605
| 74>    C       17.98113         2.73172       -11.89617
| 75>    C       19.07000         3.05175       -12.68690
| 76>    C       19.01796         2.47735       -13.96669
| 77>    C       17.88920         1.71049       -14.17244
| 78>    S       16.87733         1.70127       -12.75911
| 79>    C       17.53885         1.00886       -15.32718
| 80>    N       17.24785         0.43084       -16.27441
| 81>    F       19.96129         2.65419       -14.88835
| 82>    F       20.06925         3.83153       -12.26801
| 83>    H        4.19259         1.74324        -1.38241
| 84>    H        8.06606         4.76057         2.39805
| 85>    H       12.08368         5.12428         0.04827
| 86>    H       11.84540         6.78366         4.85693
| 87>    H       17.17013         7.59783         1.80571
| 88>    H       17.29331         8.55163         4.22548
| 89>    H       15.99084         6.55613        -0.13038
| 90>    H       13.63659         4.83473        -1.06295
| 91>    H       17.09730         6.40702        -2.04422
| 92>    H       19.09960         5.12841        -7.75049
| 93> *
| 94>
| 95>                          ****END OF INPUT****

CARTESIAN COORDINATES (ANGSTROEM)
---------------------------------
  C      3.261420   -1.855860   -7.758710
  C      3.230010   -2.508540   -8.992520
  N      3.208560   -3.043480  -10.006800
  C      2.230480   -1.728600   -6.850230
  F      1.016470   -2.236810   -7.043810
  C      2.593220   -1.008460   -5.700740
  F      1.757730   -0.762990   -4.689560
  C      3.906640   -0.575560   -5.715850
  S      4.700810   -1.072360   -7.180990
  C      4.560390    0.150720   -4.736400
  C      5.105050    0.786810   -3.856200
  C      5.746660    1.499860   -2.862220
  C      5.213490    1.929660   -1.662320
  C      6.156920    2.611460   -0.893070
  C      7.415670    2.699880   -1.519790
  S      7.442810    1.948700   -3.052050
  C      8.300450    3.391340   -0.658030
  C      7.608090    3.737090    0.513840
  C      6.233480    3.266830    0.399440
  C      5.234090    3.423170    1.314700
  C      3.928440    2.935360    1.095300
  N      2.865350    2.543200    0.921270
  C      5.440910    4.091140    2.539950
  N      5.611720    4.634870    3.535060
  C      8.401550    4.410560    1.438600
  C      9.697130    4.592140    0.983630
  S      9.929810    3.910490   -0.623970
  C     10.775180    5.222410    1.667490
  C     12.000260    5.438380    1.078090
  C     13.097630    6.033590    1.693450
  C     12.991180    6.518610    3.078030
  C     11.883920    6.413300    3.844630
  S     10.420150    5.691460    3.324620
  C     14.251740    7.100330    3.381330
  C     15.089810    6.997630    2.272220
  C     16.362000    7.562020    2.513380
  C     16.451080    8.067310    3.771420
  S     15.008080    7.881130    4.710790
  C     14.392000    6.324990    1.204820
  C     15.017670    6.091640   -0.039960
  C     14.574010    5.366720   -1.104140
  C     15.288020    5.234540   -2.317830
  C     16.509870    5.782370   -2.690470
  C     16.872090    5.429950   -3.984690
  C     15.927060    4.605560   -4.621830
  S     14.590280    4.265000   -3.610850
  C     16.388760    4.317370   -5.927160
  C     17.629490    4.959650   -6.119460
  C     17.974490    5.675930   -4.907130
  C     19.090860    6.423020   -4.667280
  C     19.304680    7.067670   -3.431380
  N     19.475530    7.589220   -2.424160
  C     20.103620    6.599160   -5.633430
  N     20.929950    6.746090   -6.414440
  C     18.166650    4.736910   -7.387460
  C     17.347160    3.933810   -8.156830
  S     15.882790    3.440450   -7.300780
  C     17.563850    3.514390   -9.454270
  C     17.743340    3.139360  -10.596050
  C     17.981130    2.731720  -11.896170
  C     19.070000    3.051750  -12.686900
  C     19.017960    2.477350  -13.966690
  C     17.889200    1.710490  -14.172440
  S     16.877330    1.701270  -12.759110
  C     17.538850    1.008860  -15.327180
  N     17.247850    0.430840  -16.274410
  F     19.961290    2.654190  -14.888350
  F     20.069250    3.831530  -12.268010
  H      4.192590    1.743240   -1.382410
  H      8.066060    4.760570    2.398050
  H     12.083680    5.124280    0.048270
  H     11.845400    6.783660    4.856930
  H     17.170130    7.597830    1.805710
  H     17.293310    8.551630    4.225480
  H     15.990840    6.556130   -0.130380
  H     13.636590    4.834730   -1.062950
  H     17.097300    6.407020   -2.044220
  H     19.099600    5.128410   -7.750490

 Total Charge           Charge          ....    0
 Multiplicity           Mult            ....    1
 Number of Electrons    NEL             ....  516
 Basis Dimension        Dim             .... 1034

ORBITAL ENERGIES
----------------

  NO   OCC          E(Eh)            E(eV)
   0   2.0000     -89.006238     -2421.9829
   1   2.0000     -89.005287     -2421.9570
   2   2.0000     -89.003967     -2421.9211
   3   2.0000     -88.998633     -2421.7759
   4   2.0000     -88.997800     -2421.7533
   5   2.0000     -88.992228     -2421.6016
   6   2.0000     -88.990859     -2421.5644
   7   2.0000     -88.965058     -2420.8623
   8   2.0000     -24.821241      -675.4203
   9   2.0000     -24.816625      -675.2947
  10   2.0000     -24.816405      -675.2887
  11   2.0000     -24.810927      -675.1396
  12   2.0000     -14.442151      -392.9909
  13   2.0000     -14.441182      -392.9645
  14   2.0000     -14.435635      -392.8136
  15   2.0000     -14.434018      -392.7696
  16   2.0000     -14.422748      -392.4629
  17   2.0000     -14.418051      -392.3351
  18   2.0000     -10.404963      -283.1334
  19   2.0000     -10.399981      -282.9979
  20   2.0000     -10.397038      -282.9178
  21   2.0000     -10.391036      -282.7545
  22   2.0000     -10.378094      -282.4023
  23   2.0000     -10.369317      -282.1635
  24   2.0000     -10.364402      -282.0297
  25   2.0000     -10.358241      -281.8621
  26   2.0000     -10.356549      -281.8160
  27   2.0000     -10.356139      -281.8049
  28   2.0000     -10.353006      -281.7196
  29   2.0000     -10.350487      -281.6511
  30   2.0000     -10.349815      -281.6328
  31   2.0000     -10.347974      -281.5827
  32   2.0000     -10.345126      -281.5052
  33   2.0000     -10.344053      -281.4760
  34   2.0000     -10.343681      -281.4659
  35   2.0000     -10.342756      -281.4407
  36   2.0000     -10.342037      -281.4211
  37   2.0000     -10.340737      -281.3858
  38   2.0000     -10.339811      -281.3606
  39   2.0000     -10.338394      -281.3220
  40   2.0000     -10.336203      -281.2624
  41   2.0000     -10.333971      -281.2017
  42   2.0000     -10.330898      -281.1180
  43   2.0000     -10.329000      -281.0664
  44   2.0000     -10.325911      -280.9823
  45   2.0000     -10.321487      -280.8619
  46   2.0000     -10.319606      -280.8108
  47   2.0000     -10.318538      -280.7817
  48   2.0000     -10.316997      -280.7398
  49   2.0000     -10.315850      -280.7086
  50   2.0000     -10.314726      -280.6780
  51   2.0000     -10.313930      -280.6563
  52   2.0000     -10.312535      -280.6184
  53   2.0000     -10.312096      -280.6064
  54   2.0000     -10.310783      -280.5707
  55   2.0000     -10.309363      -280.5320
  56   2.0000     -10.309263      -280.5293
  57   2.0000     -10.307087      -280.4701
  58   2.0000     -10.304929      -280.4114
  59   2.0000     -10.304789      -280.4076
  60   2.0000     -10.301219      -280.3104
  61   2.0000     -10.300981      -280.3039
  62   2.0000     -10.296363      -280.1783
  63   2.0000     -10.295807      -280.1632
  64   2.0000     -10.295742      -280.1614
  65   2.0000     -10.289555      -279.9930
  66   2.0000     -10.282879      -279.8114
  67   2.0000     -10.282510      -279.8013
  68   2.0000      -8.100878      -220.4361
  69   2.0000      -8.099460      -220.3975
  70   2.0000      -8.099013      -220.3853
  71   2.0000      -8.093649      -220.2394
  72   2.0000      -8.092453      -220.2068
  73   2.0000      -8.086889      -220.0554
  74   2.0000      -8.085993      -220.0310
  75   2.0000      -8.060462      -219.3363
  76   2.0000      -6.070170      -165.1777
  77   2.0000      -6.068763      -165.1394
  78   2.0000      -6.068609      -165.1353
  79   2.0000      -6.065957      -165.0631
  80   2.0000      -6.064711      -165.0292
  81   2.0000      -6.064523      -165.0241
  82   2.0000      -6.063244      -164.9893
  83   2.0000      -6.063119      -164.9859
  84   2.0000      -6.061760      -164.9489
  85   2.0000      -6.061678      -164.9466
  86   2.0000      -6.060337      -164.9102
  87   2.0000      -6.059173      -164.8785
  88   2.0000      -6.057561      -164.8346
  89   2.0000      -6.056109      -164.7951
  90   2.0000      -6.055592      -164.7810
  91   2.0000      -6.054980      -164.7644
  92   2.0000      -6.054672      -164.7560
  93   2.0000      -6.052014      -164.6837
  94   2.0000      -6.051018      -164.6566
  95   2.0000      -6.049276      -164.6092
  96   2.0000      -6.047858      -164.5706
  97   2.0000      -6.029903      -164.0820
  98   2.0000      -6.025664      -163.9667
  99   2.0000      -6.022470      -163.8797
 100   2.0000      -1.340131       -36.4668
 101   2.0000      -1.335179       -36.3321
 102   2.0000      -1.327099       -36.1122
 103   2.0000      -1.321740       -35.9664
 104   2.0000      -1.058797       -28.8113
 105   2.0000      -1.048865       -28.5411
 106   2.0000      -1.035158       -28.1681
 107   2.0000      -1.033772       -28.1304
 108   2.0000      -1.029732       -28.0204
 109   2.0000      -1.026412       -27.9301
 110   2.0000      -1.021295       -27.7908
 111   2.0000      -1.018655       -27.7190
 112   2.0000      -1.012339       -27.5472
 113   2.0000      -1.011549       -27.5256
 114   2.0000      -1.001975       -27.2651
 115   2.0000      -1.001495       -27.2521
 116   2.0000      -0.996708       -27.1218
 117   2.0000      -0.986036       -26.8314
 118   2.0000      -0.969087       -26.3702
 119   2.0000      -0.964861       -26.2552
 120   2.0000      -0.940987       -25.6056
 121   2.0000      -0.931560       -25.3490
 122   2.0000      -0.924792       -25.1649
 123   2.0000      -0.914115       -24.8743
 124   2.0000      -0.907673       -24.6990
 125   2.0000      -0.901060       -24.5191
 126   2.0000      -0.890427       -24.2298
 127   2.0000      -0.885533       -24.0966
 128   2.0000      -0.876120       -23.8404
 129   2.0000      -0.872201       -23.7338
 130   2.0000      -0.870669       -23.6921
 131   2.0000      -0.866394       -23.5758
 132   2.0000      -0.863197       -23.4888
 133   2.0000      -0.860875       -23.4256
 134   2.0000      -0.857363       -23.3300
 135   2.0000      -0.846579       -23.0366
 136   2.0000      -0.830763       -22.6062
 137   2.0000      -0.813853       -22.1461
 138   2.0000      -0.805080       -21.9073
 139   2.0000      -0.795946       -21.6588
 140   2.0000      -0.789237       -21.4762
 141   2.0000      -0.781741       -21.2722
 142   2.0000      -0.771530       -20.9944
 143   2.0000      -0.762583       -20.7509
 144   2.0000      -0.750461       -20.4211
 145   2.0000      -0.744785       -20.2666
 146   2.0000      -0.723439       -19.6858
 147   2.0000      -0.721562       -19.6347
 148   2.0000      -0.714996       -19.4560
 149   2.0000      -0.710575       -19.3357
 150   2.0000      -0.708209       -19.2714
 151   2.0000      -0.698475       -19.0065
 152   2.0000      -0.694947       -18.9105
 153   2.0000      -0.689965       -18.7749
 154   2.0000      -0.687927       -18.7194
 155   2.0000      -0.683878       -18.6093
 156   2.0000      -0.680250       -18.5105
 157   2.0000      -0.662375       -18.0242
 158   2.0000      -0.658026       -17.9058
 159   2.0000      -0.641078       -17.4446
 160   2.0000      -0.639283       -17.3958
 161   2.0000      -0.636915       -17.3313
 162   2.0000      -0.636086       -17.3088
 163   2.0000      -0.635432       -17.2910
 164   2.0000      -0.629553       -17.1310
 165   2.0000      -0.624917       -17.0049
 166   2.0000      -0.623019       -16.9532
 167   2.0000      -0.619866       -16.8674
 168   2.0000      -0.617750       -16.8098
 169   2.0000      -0.608257       -16.5515
 170   2.0000      -0.606126       -16.4935
 171   2.0000      -0.604211       -16.4414
 172   2.0000      -0.601026       -16.3547
 173   2.0000      -0.593598       -16.1526
 174   2.0000      -0.583943       -15.8899
 175   2.0000      -0.580191       -15.7878
 176   2.0000      -0.575156       -15.6508
 177   2.0000      -0.572247       -15.5716
 178   2.0000      -0.567055       -15.4303
 179   2.0000      -0.562794       -15.3144
 180   2.0000      -0.561975       -15.2921
 181   2.0000      -0.561075       -15.2676
 182   2.0000      -0.559149       -15.2152
 183   2.0000      -0.551737       -15.0135
 184   2.0000      -0.541960       -14.7475
 185   2.0000      -0.536795       -14.6069
 186   2.0000      -0.527328       -14.3493
 187   2.0000      -0.526685       -14.3318
 188   2.0000      -0.525814       -14.3081
 189   2.0000      -0.522800       -14.2261
 190   2.0000      -0.521242       -14.1837
 191   2.0000      -0.517385       -14.0788
 192   2.0000      -0.511877       -13.9289
 193   2.0000      -0.511098       -13.9077
 194   2.0000      -0.510449       -13.8900
 195   2.0000      -0.510045       -13.8790
 196   2.0000      -0.508473       -13.8363
 197   2.0000      -0.505318       -13.7504
 198   2.0000      -0.502656       -13.6780
 199   2.0000      -0.501719       -13.6525
 200   2.0000      -0.501067       -13.6347
 201   2.0000      -0.500072       -13.6077
 202   2.0000      -0.495108       -13.4726
 203   2.0000      -0.493364       -13.4251
 204   2.0000      -0.485036       -13.1985
 205   2.0000      -0.483491       -13.1565
 206   2.0000      -0.476493       -12.9660
 207   2.0000      -0.474272       -12.9056
 208   2.0000      -0.472104       -12.8466
 209   2.0000      -0.470849       -12.8125
 210   2.0000      -0.469038       -12.7632
 211   2.0000      -0.468179       -12.7398
 212   2.0000      -0.466328       -12.6894
 213   2.0000      -0.464704       -12.6452
 214   2.0000      -0.462195       -12.5770
 215   2.0000      -0.461089       -12.5469
 216   2.0000      -0.459744       -12.5103
 217   2.0000      -0.459694       -12.5089
 218   2.0000      -0.457865       -12.4591
 219   2.0000      -0.453385       -12.3372
 220   2.0000      -0.451161       -12.2767
 221   2.0000      -0.451102       -12.2751
 222   2.0000      -0.449915       -12.2428
 223   2.0000      -0.446876       -12.1601
 224   2.0000      -0.445618       -12.1259
 225   2.0000      -0.444960       -12.1080
 226   2.0000      -0.443970       -12.0810
 227   2.0000      -0.442305       -12.0357
 228   2.0000      -0.440665       -11.9911
 229   2.0000      -0.438425       -11.9301
 230   2.0000      -0.437379       -11.9017
 231   2.0000      -0.431330       -11.7371
 232   2.0000      -0.430536       -11.7155
 233   2.0000      -0.424401       -11.5485
 234   2.0000      -0.423237       -11.5169
 235   2.0000      -0.419746       -11.4219
 236   2.0000      -0.419005       -11.4017
 237   2.0000      -0.412953       -11.2370
 238   2.0000      -0.406783       -11.0691
 239   2.0000      -0.405502       -11.0343
 240   2.0000      -0.392104       -10.6697
 241   2.0000      -0.382126       -10.3982
 242   2.0000      -0.375223       -10.2103
 243   2.0000      -0.371137       -10.0992
 244   2.0000      -0.364811        -9.9270
 245   2.0000      -0.362075        -9.8526
 246   2.0000      -0.354243        -9.6394
 247   2.0000      -0.347526        -9.4567
 248   2.0000      -0.342563        -9.3216
 249   2.0000      -0.342140        -9.3101
 250   2.0000      -0.336187        -9.1481
 251   2.0000      -0.327929        -8.9234
 252   2.0000      -0.327487        -8.9114
 253   2.0000      -0.313973        -8.5436
 254   2.0000      -0.293727        -7.9927
 255   2.0000      -0.280613        -7.6359
 256   2.0000      -0.264555        -7.1989
 257   2.0000      -0.231480        -6.2989
 258   0.0000      -0.120655        -3.2832
 259   0.0000      -0.110752        -3.0137
 260   0.0000      -0.083050        -2.2599
 261   0.0000      -0.070065        -1.9066
 262   0.0000      -0.062515        -1.7011

MULLIKEN ATOMIC CHARGES
-----------------------
   0 C :   -0.341206
   1 C :   -0.135590
   2 N :    0.146653
   3 C :    0.287693
   4 F :   -0.141557
   5 C :    0.221247
   6 F :   -0.151892
   7 C :   -0.214698
   8 S :    0.255277
   9 C :    0.016322
  10 C :    0.031853
  11 C :   -0.157336
  12 C :    0.015564
  13 C :   -0.004302
  14 C :   -0.094534
  15 S :    0.222111
  16 C :   -0.092654
  17 C :    0.025460
  18 C :    0.300910
  19 C :   -0.291528
  20 C :   -0.190102
  21 N :    0.185237
  22 C :   -0.185078
  23 N :    0.175121
  24 C :   -0.058759
  25 C :   -0.061365
  26 S :    0.162506
  27 C :   -0.016658
  28 C :   -0.097194
  29 C :    0.061957
  30 C :    0.053089
  31 C :   -0.119545
  32 S :    0.139926
  33 C :   -0.104910
  34 C :    0.044346
  35 C :    0.004456
  36 C :   -0.065391
  37 S :    0.133278
  38 C :    0.095560
  39 C :   -0.015893
  40 C :    0.034182
  41 C :   -0.064968
  42 C :   -0.053020
  43 C :    0.019842
  44 C :   -0.106904
  45 S :    0.173799
  46 C :   -0.094809
  47 C :   -0.009071
  48 C :    0.304305
  49 C :   -0.298495
  50 C :   -0.180341
  51 N :    0.165090
  52 C :   -0.189135
  53 N :    0.179794
  54 C :    0.015926
  55 C :   -0.162619
  56 S :    0.213953
  57 C :    0.032461
  58 C :    0.013901
  59 C :   -0.214218
  60 C :    0.219174
  61 C :    0.286736
  62 C :   -0.343467
  63 S :    0.252624
  64 C :   -0.134439
  65 N :    0.143208
  66 F :   -0.143653
  67 F :   -0.153088
  68 H :    0.021310
  69 H :    0.022395
  70 H :   -0.015729
  71 H :    0.041277
  72 H :   -0.005284
  73 H :    0.031224
  74 H :   -0.022001
  75 H :   -0.044726
  76 H :    0.007086
  77 H :    0.019307
Sum of atomic charges:   -0.0000000

LOEWDIN ATOMIC CHARGES
----------------------
   0 C :   -0.253762
   1 C :   -0.055396
   2 N :   -0.029868
   3 C :    0.057451
   4 F :   -0.026053
   5 C :    0.036632
   6 F :   -0.035051
   7 C :   -0.204762
   8 S :    0.506756
   9 C :   -0.049972
  10 C :   -0.023049
  11 C :   -0.188920
  12 C :    0.000824
  13 C :   -0.074115
  14 C :   -0.171432
  15 S :    0.491195
  16 C :   -0.185045
  17 C :   -0.060381
  18 C :    0.079747
  19 C :   -0.094620
  20 C :   -0.018542
  21 N :   -0.023172
  22 C :   -0.015929
  23 N :   -0.027467
  24 C :   -0.040748
  25 C :   -0.173123
  26 S :    0.472372
  27 C :   -0.181177
  28 C :   -0.030458
  29 C :   -0.018456
  30 C :   -0.044070
  31 C :   -0.138951
  32 S :    0.469766
  33 C :   -0.203921
  34 C :   -0.037980
  35 C :   -0.063434
  36 C :   -0.159318
  37 S :    0.425888
  38 C :   -0.050388
  39 C :    0.001070
  40 C :   -0.065968
  41 C :   -0.147381
  42 C :   -0.037486
  43 C :   -0.055793
  44 C :   -0.203400
  45 S :    0.464059
  46 C :   -0.163654
  47 C :   -0.081880
  48 C :    0.082429
  49 C :   -0.100937
  50 C :   -0.013594
  51 N :   -0.036222
  52 C :   -0.018426
  53 N :   -0.027968
  54 C :    0.002138
  55 C :   -0.195381
  56 S :    0.485154
  57 C :   -0.020591
  58 C :   -0.056563
  59 C :   -0.202631
  60 C :    0.034046
  61 C :    0.057714
  62 C :   -0.256464
  63 S :    0.504384
  64 C :   -0.055404
  65 N :   -0.033358
  66 F :   -0.027332
  67 F :   -0.036472
  68 H :    0.049052
  69 H :    0.035585
  70 H :    0.023377
  71 H :    0.039360
  72 H :    0.033371
  73 H :    0.025643
  74 H :    0.033581
  75 H :    0.018999
  76 H :    0.037622
  77 H :    0.048252

  Mayer bond orders larger than 0.100000
B(  0-C ,  1-C ) :   1.1911 B(  0-C ,  3-C ) :   1.4650 B(  0-C ,  7-C ) :   0.1454
B(  0-C ,  8-S ) :   1.1114 B(  1-C ,  2-N ) :   3.0159 B(  3-C ,  4-F ) :   1.2171
B(  3-C ,  5-C ) :   1.2134 B(  5-C ,  6-F ) :   1.2061 B(  5-C ,  7-C ) :   1.4522
B(  7-C ,  8-S ) :   1.1037 B(  7-C ,  9-C ) :   0.9669 B(  9-C , 10-C ) :   2.3512
B( 10-C , 11-C ) :   0.9903 B( 11-C , 12-C ) :   1.4622 B( 11-C , 15-S ) :   1.0727
B( 12-C , 13-C ) :   1.2892 B( 12-C , 68-H ) :   1.0024 B( 13-C , 14-C ) :   1.4254
B( 13-C , 18-C ) :   0.9940 B( 14-C , 15-S ) :   1.1342 B( 14-C , 16-C ) :   1.1953
B( 16-C , 17-C ) :   1.4465 B( 16-C , 26-S ) :   1.1180 B( 17-C , 18-C ) :   0.9963
B( 17-C , 24-C ) :   1.3063 B( 18-C , 19-C ) :   1.7192 B( 19-C , 20-C ) :   1.1325
B( 19-C , 22-C ) :   1.1343 B( 20-C , 21-N ) :   2.9966 B( 22-C , 23-N ) :   2.9862
B( 24-C , 25-C ) :   1.4520 B( 24-C , 69-H ) :   0.9791 B( 25-C , 26-S ) :   1.1093
B( 25-C , 27-C ) :   1.1673 B( 27-C , 28-C ) :   1.5179 B( 27-C , 32-S ) :   1.0635
B( 28-C , 29-C ) :   1.2495 B( 28-C , 70-H ) :   0.9670 B( 29-C , 30-C ) :   1.0577
B( 29-C , 38-C ) :   1.3590 B( 30-C , 31-C ) :   1.6080 B( 30-C , 33-C ) :   1.1800
B( 31-C , 32-S ) :   1.1373 B( 31-C , 71-H ) :   0.9399 B( 33-C , 34-C ) :   1.4404
B( 33-C , 37-S ) :   1.0761 B( 34-C , 35-C ) :   1.2203 B( 34-C , 38-C ) :   1.0976
B( 35-C , 36-C ) :   1.5884 B( 35-C , 72-H ) :   0.9969 B( 36-C , 37-S ) :   1.1559
B( 36-C , 73-H ) :   0.9654 B( 38-C , 39-C ) :   1.1872 B( 39-C , 40-C ) :   1.6149
B( 39-C , 74-H ) :   0.9601 B( 40-C , 41-C ) :   1.1435 B( 40-C , 75-H ) :   0.9572
B( 41-C , 42-C ) :   1.4311 B( 41-C , 45-S ) :   1.1138 B( 42-C , 43-C ) :   1.3174
B( 42-C , 76-H ) :   0.9878 B( 43-C , 44-C ) :   1.4290 B( 43-C , 48-C ) :   0.9947
B( 44-C , 45-S ) :   1.0999 B( 44-C , 46-C ) :   1.2103 B( 46-C , 47-C ) :   1.4198
B( 46-C , 56-S ) :   1.1383 B( 47-C , 48-C ) :   0.9973 B( 47-C , 54-C ) :   1.2883
B( 48-C , 49-C ) :   1.7149 B( 49-C , 50-C ) :   1.1373 B( 49-C , 52-C ) :   1.1300
B( 50-C , 51-N ) :   2.9799 B( 52-C , 53-N ) :   2.9980 B( 54-C , 55-C ) :   1.4635
B( 54-C , 77-H ) :   1.0023 B( 55-C , 56-S ) :   1.0620 B( 55-C , 57-C ) :   0.9916
B( 57-C , 58-C ) :   2.3348 B( 58-C , 59-C ) :   0.9660 B( 59-C , 60-C ) :   1.4505
B( 59-C , 62-C ) :   0.1450 B( 59-C , 63-S ) :   1.1043 B( 60-C , 61-C ) :   1.2148
B( 60-C , 67-F ) :   1.2047 B( 61-C , 62-C ) :   1.4666 B( 61-C , 66-F ) :   1.2143
B( 62-C , 63-S ) :   1.1084 B( 62-C , 64-C ) :   1.1897 B( 64-C , 65-N ) :   3.0160

-----------------------------------------------------------------------------
         ABSORPTION SPECTRUM VIA TRANSITION ELECTRIC DIPOLE MOMENTS
-----------------------------------------------------------------------------
State   Energy  Wavelength   fosc         T2         TX        TY        TZ
        (cm-1)    (nm)                  (au**2)     (au)      (au)      (au)
-----------------------------------------------------------------------------
   0    9594.5   1042.3   0.243032771   8.33910  -2.59472  -0.57660   1.12875
   1   10448.8    957.1   0.138670899   4.36914   0.22107   0.80749   1.91526
   2   15886.0    629.5   0.088940682   1.84316   0.40362  -0.35311  -1.24722
   3   17362.3    576.0   0.651253791  12.34863  -3.17522  -0.66761   1.34941
   4   19271.2    518.9   0.122565230   2.09379  -1.17309  -0.15339   0.83315
   5   22351.8    447.4   0.165514905   2.43781  -1.31335  -0.71019  -0.45668
   6   22918.6    436.3   0.248855813   3.57466  -0.07995  -0.66963  -1.76631
   7   23685.9    422.2   1.798951640  25.00375   0.54924   2.02113   4.54061
   8   24357.4    410.6   0.273231570   3.69297   0.05268   0.75376   1.76693
   9   25004.9    399.9   0.012346387   0.16255  -0.10956   0.12024   0.36890
  10   25911.4    385.9   0.384036519   4.87929  -0.50503  -1.04367  -1.88016
  11   26251.6    380.9   0.080222582   1.00604   0.48173   0.40398   0.78153
  12   28132.5    355.5   0.189360017   2.21593   1.22431   0.73250   0.42479
  13   28727.3    348.1   0.010122219   0.11600   0.24144   0.06354  -0.23166
  14   28891.0    346.1   0.051007476   0.58123  -0.43995  -0.43250  -0.44789
  15   29656.5    337.2   0.020083870   0.22295   0.41528   0.22116  -0.03979
  16   30188.1    331.3   0.377242528   4.11396  -0.75851  -1.21436  -1.43665
  17   31012.8    322.4   0.199983585   2.12289   0.88439   0.09398  -1.15409
  18   31355.8    318.9   0.914017425   9.59648  -2.83501  -0.49394   1.14684
  19   31897.6    313.5   0.019543002   0.20170   0.26385   0.33851  -0.13227
  20   32236.2    310.2   0.089538767   0.91441  -0.33237  -0.58719  -0.67761
  21   32293.5    309.7   0.138759985   1.41457   0.18403  -0.44558  -1.08727
  22   32663.7    306.2   0.551259325   5.55605  -0.27633  -1.09474  -2.06912
  23   33234.9    300.9   0.094191130   0.93302  -0.14616  -0.47224  -0.82985
  24   33854.1    295.4   0.193492555   1.88160  -0.11218   0.55090   1.25121
  25   34738.7    287.9   0.553601817   5.24638  -1.92633  -0.97541  -0.76434
  26   35623.9    280.7   0.096539815   0.89215  -0.57638  -0.51193  -0.54578
  27   35727.9    279.9   0.032070326   0.29551  -0.24575  -0.23310  -0.42518
  28   36132.0    276.8   0.071642762   0.65276   0.39513   0.39411   0.58422
  29   36340.8    275.2   0.000237736   0.00215  -0.00145   0.04637  -0.00103
  30   36706.0    272.4   0.005387236   0.04832   0.01980  -0.08730  -0.20076
  31   36912.3    270.9   0.093997160   0.83834   0.80859   0.32318   0.28296
  32   37314.5    268.0   0.012057512   0.10638   0.17843  -0.04239  -0.26971
  33   37446.0    267.1   0.011556575   0.10160   0.28631   0.02075  -0.13855
  34   37664.4    265.5   0.018570355   0.16232  -0.11917   0.06260   0.37973
  35   38112.7    262.4   0.015110373   0.13052   0.24680  -0.05440  -0.25817
  36   38336.7    260.8   0.015009432   0.12889  -0.30539  -0.18736  -0.02292
  37   38497.5    259.8   0.046964888   0.40162  -0.49741  -0.01999   0.39218
  38   38770.8    257.9   0.010578794   0.08983  -0.21508   0.03341   0.20604
  39   39069.5    256.0   0.004960063   0.04180  -0.01162   0.04986   0.19792
  40   39153.0    255.4   0.000017478   0.00015  -0.00742   0.00525  -0.00803
  41   39200.8    255.1   0.040004239   0.33596  -0.37171  -0.28743  -0.33937
  42   39664.3    252.1   0.015829481   0.13138   0.23854  -0.01594  -0.27245
  43   40062.4    249.6   0.003033390   0.02493   0.11868  -0.00045   0.10413
  44   40071.7    249.6   0.024297402   0.19962   0.33348   0.23242   0.18543
  45   40294.0    248.2   0.000219477   0.00179  -0.00418   0.04200  -0.00344

FINAL SINGLE POINT ENERGY     -5820.169128600470

DIPOLE MOMENT
-------------
                                X             Y             Z
Electronic contribution:    -20.53500     -29.93483     -55.49742
Nuclear contribution   :     20.57374      30.92567      59.01696
                        -----------------------------------------
Total Dipole Moment    :      0.03874       0.99083       3.51954
                        -----------------------------------------
Magnitude (a.u.)       :      3.65656
Magnitude (Debye)      :      9.29423

Rotational constants in cm-1:     0.000540     0.000383     0.000225
Rotational constants in MHz :    16.198790    11.488358     6.733786

                             ****ORCA TERMINATED NORMALLY****
TOTAL RUN TIME: 0 days 0 hours 9 minutes 25 seconds 101 msec
