                         Program Version 4.2.0 -  RELEASE  -
|  1> # ORCA input file
|  2> # SCF done       -192.250160407071          0.000735407085
|  3> ! CAM-B3LYP def2-SVP def2/J RIJCOSX Grid4 TightSCF
|  4> %maxcore 5000
|  5> %tddft
|  6>     Mode sTDDFT
|  7>     Ethresh 5.0
|  8>     maxcore 5000
|  9> end
| 10>
| 11> %pal
| 12>   nprocs 6
| 13>   end
| 14> * xyz 0 1
| 15>    C       -2.29741         0.55770         5.47234
| 16>    C       -1.32281         0.15434         6.37351
| 17>    C       -0.65004        -1.04809         6.21193
| 18>    C       -0.92672        -1.87999         5.13716
| 19>    C       -1.89824        -1.48739         4.23268
| 20>    C       -2.59250        -0.26813         4.39951
| 21>    C       -3.56733        -0.12842         3.32293
| 22>    C       -4.34856         0.97293         3.08944
| 23>    C       -4.30671         2.15050         3.86485
| 24>    N       -4.32538         3.13749         4.45109
| 25>    C       -5.27239         1.11324         2.03291
| 26>    N       -6.04009         1.30194         1.19981
| 27>    C       -3.55215        -1.38043         2.58011
| 28>    C       -2.37498        -2.11800         3.01196
| 29>    C       -1.67111        -3.01963         2.25621
| 30>    C       -2.00808        -3.34346         0.92547
| 31>    N       -2.22724        -3.59306        -0.17330
| 32>    C       -0.48333        -3.64502         2.68275
| 33>    N        0.47710        -4.19479         2.98828
| 34>    C       -4.54778        -1.79212         1.73005
| 35>    C       -4.89857        -3.09835         1.34697
| 36>    C       -5.80777        -3.41432         0.34056
| 37>    C       -6.04548        -4.77610         0.24365
| 38>    C       -5.33754        -5.52534         1.21434
| 39>    S       -4.37581        -4.54614         2.22080
| 40>    C       -5.64969        -6.88710         1.05226
| 41>    C       -6.55711        -7.01582        -0.01874
| 42>    C       -6.85161        -5.69095        -0.54490
| 43>    C       -7.73599        -5.38244        -1.53578
| 44>    C       -8.55275        -6.35847        -2.14747
| 45>    N       -9.26151        -7.13215        -2.60879
| 46>    C       -7.94407        -4.05669        -1.97284
| 47>    N       -8.12635        -2.98135        -2.32555
| 48>    C       -6.91068        -8.33248        -0.28081
| 49>    C       -6.28176        -9.21995         0.58292
| 50>    S       -5.25480        -8.39904         1.75057
| 51>    C       -6.43665       -10.62847         0.63061
| 52>    S       -6.34557       -11.44818         2.15990
| 53>    C       -6.91082       -12.94747         1.48184
| 54>    C       -7.16148       -12.80621         0.10768
| 55>    C       -6.80855       -11.51239        -0.39575
| 56>    C       -6.85502       -11.27419        -1.79513
| 57>    C       -6.19668       -10.12606        -2.47564
| 58>    O       -6.64270        -9.57305        -3.44038
| 59>    O       -4.98266        -9.78137        -1.98792
| 60>    C       -7.44211       -12.22465        -2.60309
| 61>    C       -7.95262       -13.41511        -2.08793
| 62>    C       -7.81183       -13.73222        -0.75292
| 63>    O       -8.33360       -14.89334        -0.31703
| 64>    C       -6.91044       -14.11282         2.28881
| 65>    S       -6.17880       -15.58888         1.69359
| 66>    C       -6.16528       -16.32397         3.26588
| 67>    C       -6.71511       -15.43952         4.22779
| 68>    C       -7.17211       -14.21176         3.66491
| 69>    C       -7.84370       -13.26809         4.48191
| 70>    C       -8.63376       -12.13083         3.96806
| 71>    O       -8.78654       -11.08232         4.53999
| 72>    O       -9.27134       -12.41364         2.81418
| 73>    C       -7.88467       -13.48613         5.84285
| 74>    C       -7.36196       -14.64581         6.40903
| 75>    C       -6.81915       -15.64323         5.62260
| 76>    O       -6.38318       -16.80438         6.16527
| 77>    C       -5.66580       -17.60558         3.47843
| 78>    C       -5.11654       -18.45067         2.53803
| 79>    C       -4.62016       -19.75093         2.79973
| 80>    C       -4.11169       -20.38849         1.70996
| 81>    C       -4.17879       -19.62612         0.52117
| 82>    S       -4.92078       -18.06824         0.84261
| 83>    C       -3.74457       -19.97247        -0.73935
| 84>    C       -3.12360       -21.19213        -1.13138
| 85>    C       -2.79387       -21.25114        -2.44054
| 86>    C       -3.13129       -20.07413        -3.18899
| 87>    S       -3.89705       -18.89743        -2.10819
| 88>    C       -2.92703       -19.84326        -4.49298
| 89>    H       -2.81086         1.49371         5.61763
| 90>    H       -1.08918         0.78806         7.21544
| 91>    H        0.09870        -1.34299         6.93124
| 92>    H       -0.40345        -2.81555         5.02225
| 93>    H       -5.22975        -1.03656         1.36086
| 94>    H       -6.24264        -2.66194        -0.29290
| 95>    H       -7.61150        -8.64235        -1.03411
| 96>    H       -4.70644       -10.34400        -1.25266
| 97>    H       -7.49984       -12.02906        -3.66253
| 98>    H       -8.45222       -14.12132        -2.72997
| 99>    H       -8.31568       -14.93999         0.64836
|100>    H       -9.83044       -11.66262         2.55932
|101>    H       -8.36789       -12.75258         6.46935
|102>    H       -7.42017       -14.78754         7.47927
|103>    H       -6.50977       -16.78307         7.12322
|104>    H       -5.70900       -17.97517         4.49175
|105>    H       -4.65393       -20.17012         3.78972
|106>    H       -3.69038       -21.37710         1.73028
|107>    H       -2.94351       -21.98154        -0.42386
|108>    H       -2.31796       -22.08822        -2.91947
|109>    H       -2.45992       -20.58594        -5.11571
|110>    H       -3.22290       -18.92036        -4.95713
|111> *
|112>
|113>                          ****END OF INPUT****

CARTESIAN COORDINATES (ANGSTROEM)
---------------------------------
  C     -2.297410    0.557700    5.472340
  C     -1.322810    0.154340    6.373510
  C     -0.650040   -1.048090    6.211930
  C     -0.926720   -1.879990    5.137160
  C     -1.898240   -1.487390    4.232680
  C     -2.592500   -0.268130    4.399510
  C     -3.567330   -0.128420    3.322930
  C     -4.348560    0.972930    3.089440
  C     -4.306710    2.150500    3.864850
  N     -4.325380    3.137490    4.451090
  C     -5.272390    1.113240    2.032910
  N     -6.040090    1.301940    1.199810
  C     -3.552150   -1.380430    2.580110
  C     -2.374980   -2.118000    3.011960
  C     -1.671110   -3.019630    2.256210
  C     -2.008080   -3.343460    0.925470
  N     -2.227240   -3.593060   -0.173300
  C     -0.483330   -3.645020    2.682750
  N      0.477100   -4.194790    2.988280
  C     -4.547780   -1.792120    1.730050
  C     -4.898570   -3.098350    1.346970
  C     -5.807770   -3.414320    0.340560
  C     -6.045480   -4.776100    0.243650
  C     -5.337540   -5.525340    1.214340
  S     -4.375810   -4.546140    2.220800
  C     -5.649690   -6.887100    1.052260
  C     -6.557110   -7.015820   -0.018740
  C     -6.851610   -5.690950   -0.544900
  C     -7.735990   -5.382440   -1.535780
  C     -8.552750   -6.358470   -2.147470
  N     -9.261510   -7.132150   -2.608790
  C     -7.944070   -4.056690   -1.972840
  N     -8.126350   -2.981350   -2.325550
  C     -6.910680   -8.332480   -0.280810
  C     -6.281760   -9.219950    0.582920
  S     -5.254800   -8.399040    1.750570
  C     -6.436650  -10.628470    0.630610
  S     -6.345570  -11.448180    2.159900
  C     -6.910820  -12.947470    1.481840
  C     -7.161480  -12.806210    0.107680
  C     -6.808550  -11.512390   -0.395750
  C     -6.855020  -11.274190   -1.795130
  C     -6.196680  -10.126060   -2.475640
  O     -6.642700   -9.573050   -3.440380
  O     -4.982660   -9.781370   -1.987920
  C     -7.442110  -12.224650   -2.603090
  C     -7.952620  -13.415110   -2.087930
  C     -7.811830  -13.732220   -0.752920
  O     -8.333600  -14.893340   -0.317030
  C     -6.910440  -14.112820    2.288810
  S     -6.178800  -15.588880    1.693590
  C     -6.165280  -16.323970    3.265880
  C     -6.715110  -15.439520    4.227790
  C     -7.172110  -14.211760    3.664910
  C     -7.843700  -13.268090    4.481910
  C     -8.633760  -12.130830    3.968060
  O     -8.786540  -11.082320    4.539990
  O     -9.271340  -12.413640    2.814180
  C     -7.884670  -13.486130    5.842850
  C     -7.361960  -14.645810    6.409030
  C     -6.819150  -15.643230    5.622600
  O     -6.383180  -16.804380    6.165270
  C     -5.665800  -17.605580    3.478430
  C     -5.116540  -18.450670    2.538030
  C     -4.620160  -19.750930    2.799730
  C     -4.111690  -20.388490    1.709960
  C     -4.178790  -19.626120    0.521170
  S     -4.920780  -18.068240    0.842610
  C     -3.744570  -19.972470   -0.739350
  C     -3.123600  -21.192130   -1.131380
  C     -2.793870  -21.251140   -2.440540
  C     -3.131290  -20.074130   -3.188990
  S     -3.897050  -18.897430   -2.108190
  C     -2.927030  -19.843260   -4.492980
  H     -2.810860    1.493710    5.617630
  H     -1.089180    0.788060    7.215440
  H      0.098700   -1.342990    6.931240
  H     -0.403450   -2.815550    5.022250
  H     -5.229750   -1.036560    1.360860
  H     -6.242640   -2.661940   -0.292900
  H     -7.611500   -8.642350   -1.034110
  H     -4.706440  -10.344000   -1.252660
  H     -7.499840  -12.029060   -3.662530
  H     -8.452220  -14.121320   -2.729970
  H     -8.315680  -14.939990    0.648360
  H     -9.830440  -11.662620    2.559320
  H     -8.367890  -12.752580    6.469350
  H     -7.420170  -14.787540    7.479270
  H     -6.509770  -16.783070    7.123220
  H     -5.709000  -17.975170    4.491750
  H     -4.653930  -20.170120    3.789720
  H     -3.690380  -21.377100    1.730280
  H     -2.943510  -21.981540   -0.423860
  H     -2.317960  -22.088220   -2.919470
  H     -2.459920  -20.585940   -5.115710
  H     -3.222900  -18.920360   -4.957130

 Total Charge           Charge          ....    0
 Multiplicity           Mult            ....    1
 Number of Electrons    NEL             ....  544
 Basis Dimension        Dim             .... 1170

ORBITAL ENERGIES
----------------

  NO   OCC          E(Eh)            E(eV)
   0   2.0000     -88.991090     -2421.5707
   1   2.0000     -88.989746     -2421.5341
   2   2.0000     -88.983480     -2421.3636
   3   2.0000     -88.979958     -2421.2678
   4   2.0000     -88.965492     -2420.8741
   5   2.0000     -88.959085     -2420.6998
   6   2.0000     -19.281940      -524.6883
   7   2.0000     -19.263284      -524.1806
   8   2.0000     -19.258081      -524.0390
   9   2.0000     -19.247566      -523.7529
  10   2.0000     -19.205245      -522.6013
  11   2.0000     -19.187684      -522.1234
  12   2.0000     -14.424630      -392.5141
  13   2.0000     -14.421877      -392.4392
  14   2.0000     -14.416181      -392.2842
  15   2.0000     -14.414680      -392.2434
  16   2.0000     -14.413308      -392.2061
  17   2.0000     -14.411866      -392.1668
  18   2.0000     -10.407188      -283.1940
  19   2.0000     -10.391636      -282.7708
  20   2.0000     -10.368923      -282.1527
  21   2.0000     -10.361664      -281.9552
  22   2.0000     -10.354348      -281.7561
  23   2.0000     -10.347517      -281.5703
  24   2.0000     -10.344783      -281.4959
  25   2.0000     -10.344521      -281.4887
  26   2.0000     -10.341551      -281.4079
  27   2.0000     -10.341171      -281.3976
  28   2.0000     -10.340974      -281.3922
  29   2.0000     -10.334917      -281.2274
  30   2.0000     -10.334837      -281.2252
  31   2.0000     -10.334657      -281.2203
  32   2.0000     -10.333353      -281.1848
  33   2.0000     -10.327578      -281.0277
  34   2.0000     -10.326976      -281.0113
  35   2.0000     -10.325212      -280.9633
  36   2.0000     -10.325113      -280.9606
  37   2.0000     -10.324222      -280.9364
  38   2.0000     -10.324065      -280.9321
  39   2.0000     -10.323992      -280.9301
  40   2.0000     -10.320999      -280.8487
  41   2.0000     -10.319913      -280.8191
  42   2.0000     -10.318616      -280.7838
  43   2.0000     -10.318097      -280.7697
  44   2.0000     -10.316784      -280.7340
  45   2.0000     -10.314958      -280.6843
  46   2.0000     -10.314937      -280.6837
  47   2.0000     -10.312732      -280.6237
  48   2.0000     -10.310104      -280.5522
  49   2.0000     -10.309165      -280.5266
  50   2.0000     -10.308267      -280.5022
  51   2.0000     -10.307833      -280.4904
  52   2.0000     -10.306790      -280.4620
  53   2.0000     -10.306513      -280.4545
  54   2.0000     -10.306472      -280.4534
  55   2.0000     -10.306304      -280.4488
  56   2.0000     -10.304277      -280.3936
  57   2.0000     -10.303057      -280.3604
  58   2.0000     -10.302915      -280.3566
  59   2.0000     -10.300015      -280.2777
  60   2.0000     -10.298717      -280.2423
  61   2.0000     -10.298341      -280.2321
  62   2.0000     -10.297946      -280.2214
  63   2.0000     -10.295671      -280.1594
  64   2.0000     -10.294906      -280.1386
  65   2.0000     -10.294583      -280.1299
  66   2.0000     -10.293537      -280.1014
  67   2.0000     -10.293205      -280.0923
  68   2.0000     -10.292200      -280.0650
  69   2.0000     -10.292176      -280.0643
  70   2.0000     -10.287860      -279.9469
  71   2.0000     -10.287435      -279.9354
  72   2.0000     -10.281512      -279.7742
  73   2.0000     -10.269013      -279.4340
  74   2.0000      -8.085162      -220.0084
  75   2.0000      -8.084368      -219.9868
  76   2.0000      -8.078107      -219.8165
  77   2.0000      -8.074656      -219.7226
  78   2.0000      -8.061419      -219.3624
  79   2.0000      -8.055836      -219.2104
  80   2.0000      -6.054501      -164.7514
  81   2.0000      -6.053697      -164.7295
  82   2.0000      -6.050282      -164.6365
  83   2.0000      -6.049481      -164.6148
  84   2.0000      -6.047418      -164.5586
  85   2.0000      -6.047207      -164.5529
  86   2.0000      -6.046617      -164.5368
  87   2.0000      -6.043829      -164.4609
  88   2.0000      -6.043039      -164.4395
  89   2.0000      -6.040617      -164.3735
  90   2.0000      -6.039719      -164.3491
  91   2.0000      -6.037037      -164.2761
  92   2.0000      -6.031160      -164.1162
  93   2.0000      -6.026899      -164.0003
  94   2.0000      -6.025620      -163.9655
  95   2.0000      -6.022523      -163.8812
  96   2.0000      -6.021638      -163.8571
  97   2.0000      -6.016451      -163.7159
  98   2.0000      -1.190254       -32.3885
  99   2.0000      -1.177388       -32.0384
 100   2.0000      -1.169961       -31.8363
 101   2.0000      -1.157900       -31.5081
 102   2.0000      -1.094482       -29.7824
 103   2.0000      -1.085679       -29.5428
 104   2.0000      -1.045734       -28.4559
 105   2.0000      -1.030284       -28.0355
 106   2.0000      -1.022254       -27.8169
 107   2.0000      -1.016013       -27.6471
 108   2.0000      -1.012734       -27.5579
 109   2.0000      -1.011320       -27.5194
 110   2.0000      -1.006909       -27.3994
 111   2.0000      -1.000938       -27.2369
 112   2.0000      -1.000194       -27.2167
 113   2.0000      -0.995427       -27.0870
 114   2.0000      -0.991649       -26.9841
 115   2.0000      -0.990931       -26.9646
 116   2.0000      -0.988060       -26.8865
 117   2.0000      -0.959811       -26.1178
 118   2.0000      -0.951289       -25.8859
 119   2.0000      -0.950488       -25.8641
 120   2.0000      -0.940253       -25.5856
 121   2.0000      -0.933603       -25.4046
 122   2.0000      -0.920786       -25.0559
 123   2.0000      -0.910607       -24.7789
 124   2.0000      -0.895997       -24.3813
 125   2.0000      -0.889279       -24.1985
 126   2.0000      -0.882275       -24.0079
 127   2.0000      -0.876046       -23.8384
 128   2.0000      -0.869477       -23.6597
 129   2.0000      -0.864422       -23.5221
 130   2.0000      -0.863115       -23.4865
 131   2.0000      -0.860597       -23.4180
 132   2.0000      -0.858092       -23.3499
 133   2.0000      -0.853580       -23.2271
 134   2.0000      -0.843028       -22.9400
 135   2.0000      -0.839504       -22.8441
 136   2.0000      -0.836527       -22.7630
 137   2.0000      -0.823659       -22.4129
 138   2.0000      -0.809735       -22.0340
 139   2.0000      -0.788924       -21.4677
 140   2.0000      -0.784943       -21.3594
 141   2.0000      -0.776535       -21.1306
 142   2.0000      -0.770550       -20.9677
 143   2.0000      -0.759130       -20.6570
 144   2.0000      -0.744483       -20.2584
 145   2.0000      -0.738304       -20.0903
 146   2.0000      -0.733358       -19.9557
 147   2.0000      -0.720041       -19.5933
 148   2.0000      -0.712677       -19.3929
 149   2.0000      -0.710794       -19.3417
 150   2.0000      -0.709142       -19.2967
 151   2.0000      -0.702884       -19.1264
 152   2.0000      -0.700679       -19.0665
 153   2.0000      -0.692823       -18.8527
 154   2.0000      -0.687349       -18.7037
 155   2.0000      -0.683314       -18.5939
 156   2.0000      -0.679568       -18.4920
 157   2.0000      -0.670129       -18.2351
 158   2.0000      -0.664935       -18.0938
 159   2.0000      -0.661293       -17.9947
 160   2.0000      -0.659470       -17.9451
 161   2.0000      -0.652385       -17.7523
 162   2.0000      -0.647528       -17.6201
 163   2.0000      -0.640928       -17.4405
 164   2.0000      -0.633731       -17.2447
 165   2.0000      -0.631481       -17.1835
 166   2.0000      -0.627505       -17.0753
 167   2.0000      -0.626290       -17.0422
 168   2.0000      -0.620712       -16.8904
 169   2.0000      -0.618115       -16.8198
 170   2.0000      -0.615230       -16.7412
 171   2.0000      -0.609314       -16.5803
 172   2.0000      -0.587568       -15.9885
 173   2.0000      -0.586642       -15.9633
 174   2.0000      -0.582586       -15.8530
 175   2.0000      -0.579737       -15.7754
 176   2.0000      -0.575734       -15.6665
 177   2.0000      -0.570209       -15.5162
 178   2.0000      -0.569828       -15.5058
 179   2.0000      -0.561674       -15.2839
 180   2.0000      -0.557415       -15.1680
 181   2.0000      -0.551582       -15.0093
 182   2.0000      -0.550533       -14.9808
 183   2.0000      -0.547376       -14.8949
 184   2.0000      -0.543380       -14.7861
 185   2.0000      -0.539721       -14.6865
 186   2.0000      -0.538414       -14.6510
 187   2.0000      -0.534962       -14.5570
 188   2.0000      -0.534665       -14.5490
 189   2.0000      -0.532745       -14.4967
 190   2.0000      -0.529179       -14.3997
 191   2.0000      -0.528111       -14.3706
 192   2.0000      -0.525541       -14.3007
 193   2.0000      -0.523570       -14.2471
 194   2.0000      -0.521543       -14.1919
 195   2.0000      -0.513867       -13.9830
 196   2.0000      -0.513764       -13.9802
 197   2.0000      -0.511385       -13.9155
 198   2.0000      -0.510835       -13.9005
 199   2.0000      -0.508494       -13.8368
 200   2.0000      -0.505086       -13.7441
 201   2.0000      -0.503197       -13.6927
 202   2.0000      -0.502363       -13.6700
 203   2.0000      -0.499899       -13.6029
 204   2.0000      -0.497496       -13.5376
 205   2.0000      -0.495628       -13.4867
 206   2.0000      -0.494423       -13.4539
 207   2.0000      -0.492527       -13.4023
 208   2.0000      -0.489843       -13.3293
 209   2.0000      -0.487241       -13.2585
 210   2.0000      -0.484029       -13.1711
 211   2.0000      -0.482157       -13.1201
 212   2.0000      -0.479433       -13.0460
 213   2.0000      -0.476936       -12.9781
 214   2.0000      -0.475073       -12.9274
 215   2.0000      -0.473094       -12.8735
 216   2.0000      -0.466349       -12.6900
 217   2.0000      -0.464437       -12.6380
 218   2.0000      -0.457970       -12.4620
 219   2.0000      -0.457125       -12.4390
 220   2.0000      -0.454403       -12.3649
 221   2.0000      -0.453688       -12.3455
 222   2.0000      -0.452656       -12.3174
 223   2.0000      -0.451142       -12.2762
 224   2.0000      -0.449591       -12.2340
 225   2.0000      -0.447857       -12.1868
 226   2.0000      -0.445822       -12.1314
 227   2.0000      -0.444197       -12.0872
 228   2.0000      -0.443098       -12.0573
 229   2.0000      -0.441100       -12.0029
 230   2.0000      -0.440295       -11.9810
 231   2.0000      -0.439246       -11.9525
 232   2.0000      -0.436599       -11.8805
 233   2.0000      -0.435713       -11.8563
 234   2.0000      -0.433092       -11.7850
 235   2.0000      -0.432519       -11.7694
 236   2.0000      -0.431546       -11.7430
 237   2.0000      -0.430819       -11.7232
 238   2.0000      -0.427664       -11.6373
 239   2.0000      -0.426791       -11.6136
 240   2.0000      -0.425597       -11.5811
 241   2.0000      -0.423498       -11.5240
 242   2.0000      -0.419610       -11.4182
 243   2.0000      -0.418426       -11.3860
 244   2.0000      -0.411290       -11.1918
 245   2.0000      -0.409538       -11.1441
 246   2.0000      -0.406618       -11.0646
 247   2.0000      -0.404827       -11.0159
 248   2.0000      -0.403806       -10.9881
 249   2.0000      -0.401318       -10.9204
 250   2.0000      -0.397351       -10.8125
 251   2.0000      -0.389492       -10.5986
 252   2.0000      -0.379324       -10.3219
 253   2.0000      -0.378938       -10.3114
 254   2.0000      -0.374214       -10.1829
 255   2.0000      -0.358784        -9.7630
 256   2.0000      -0.356819        -9.7095
 257   2.0000      -0.353500        -9.6192
 258   2.0000      -0.348242        -9.4762
 259   2.0000      -0.346249        -9.4219
 260   2.0000      -0.341480        -9.2921
 261   2.0000      -0.336367        -9.1530
 262   2.0000      -0.330747        -9.0001
 263   2.0000      -0.329451        -8.9648
 264   2.0000      -0.328053        -8.9268
 265   2.0000      -0.324662        -8.8345
 266   2.0000      -0.318649        -8.6709
 267   2.0000      -0.305271        -8.3068
 268   2.0000      -0.288062        -7.8386
 269   2.0000      -0.274750        -7.4763
 270   2.0000      -0.249482        -6.7888
 271   2.0000      -0.220146        -5.9905
 272   0.0000      -0.114667        -3.1202
 273   0.0000      -0.098741        -2.6869
 274   0.0000      -0.085125        -2.3164
 275   0.0000      -0.081258        -2.2111
 276   0.0000      -0.056639        -1.5412

MULLIKEN ATOMIC CHARGES
-----------------------
   0 C :   -0.033117
   1 C :    0.045408
   2 C :    0.045641
   3 C :   -0.032381
   4 C :    0.006861
   5 C :    0.011938
   6 C :    0.302221
   7 C :   -0.348789
   8 C :   -0.188222
   9 N :    0.155468
  10 C :   -0.183442
  11 N :    0.155017
  12 C :   -0.077889
  13 C :    0.209052
  14 C :   -0.331219
  15 C :   -0.206684
  16 N :    0.184690
  17 C :   -0.178071
  18 N :    0.159710
  19 C :    0.039063
  20 C :   -0.103911
  21 C :   -0.001789
  22 C :    0.031263
  23 C :   -0.071439
  24 S :    0.194449
  25 C :   -0.101045
  26 C :    0.005264
  27 C :    0.300672
  28 C :   -0.279788
  29 C :   -0.186772
  30 N :    0.185738
  31 C :   -0.192681
  32 N :    0.182218
  33 C :    0.021494
  34 C :   -0.136808
  35 S :    0.196434
  36 C :   -0.208032
  37 S :    0.188537
  38 C :   -0.121844
  39 C :    0.077367
  40 C :    0.132864
  41 C :   -0.089551
  42 C :    0.099098
  43 O :   -0.170585
  44 O :   -0.164299
  45 C :    0.029657
  46 C :   -0.046318
  47 C :    0.099889
  48 O :   -0.161148
  49 C :   -0.284856
  50 S :    0.148548
  51 C :   -0.109372
  52 C :    0.091308
  53 C :    0.189179
  54 C :   -0.051854
  55 C :    0.094140
  56 O :   -0.191544
  57 O :   -0.183757
  58 C :    0.015198
  59 C :   -0.077847
  60 C :    0.126149
  61 O :   -0.169784
  62 C :   -0.034244
  63 C :   -0.022166
  64 C :    0.022722
  65 C :    0.042175
  66 C :   -0.042191
  67 S :    0.076610
  68 C :   -0.056787
  69 C :    0.026418
  70 C :    0.065751
  71 C :   -0.074445
  72 S :    0.103543
  73 C :   -0.012029
  74 H :    0.004168
  75 H :    0.002168
  76 H :    0.002433
  77 H :    0.003873
  78 H :    0.024292
  79 H :    0.029528
  80 H :    0.031295
  81 H :    0.187143
  82 H :    0.009121
  83 H :   -0.013774
  84 H :    0.186548
  85 H :    0.193887
  86 H :    0.005534
  87 H :   -0.033358
  88 H :    0.191196
  89 H :    0.002749
  90 H :   -0.008284
  91 H :   -0.010618
  92 H :   -0.004885
  93 H :   -0.001882
  94 H :    0.030395
  95 H :    0.033421
Sum of atomic charges:   -0.0000000

LOEWDIN ATOMIC CHARGES
----------------------
   0 C :    0.004441
   1 C :   -0.000363
   2 C :    0.001764
   3 C :   -0.000419
   4 C :   -0.010520
   5 C :   -0.012597
   6 C :    0.079061
   7 C :   -0.138674
   8 C :   -0.018883
   9 N :   -0.051652
  10 C :   -0.022811
  11 N :   -0.044960
  12 C :   -0.078853
  13 C :    0.058279
  14 C :   -0.144563
  15 C :   -0.039441
  16 N :   -0.041351
  17 C :   -0.020244
  18 N :   -0.049515
  19 C :    0.045844
  20 C :   -0.183888
  21 C :    0.029752
  22 C :   -0.077198
  23 C :   -0.134869
  24 S :    0.498672
  25 C :   -0.202598
  26 C :   -0.035393
  27 C :    0.075519
  28 C :   -0.086664
  29 C :   -0.017667
  30 N :   -0.017161
  31 C :   -0.017539
  32 N :   -0.022944
  33 C :   -0.024825
  34 C :   -0.172675
  35 S :    0.467491
  36 C :   -0.242292
  37 S :    0.491945
  38 C :   -0.166457
  39 C :   -0.087284
  40 C :   -0.030457
  41 C :   -0.117719
  42 C :    0.071926
  43 O :   -0.152959
  44 O :   -0.035429
  45 C :    0.039046
  46 C :   -0.074998
  47 C :    0.076817
  48 O :   -0.028192
  49 C :   -0.257478
  50 S :    0.480704
  51 C :   -0.141900
  52 C :   -0.074215
  53 C :   -0.015811
  54 C :   -0.102180
  55 C :    0.062333
  56 O :   -0.178634
  57 O :   -0.042793
  58 C :    0.036702
  59 C :   -0.101773
  60 C :    0.084331
  61 O :   -0.032185
  62 C :   -0.089669
  63 C :   -0.137892
  64 C :   -0.037122
  65 C :   -0.025315
  66 C :   -0.190231
  67 S :    0.381603
  68 C :   -0.156726
  69 C :   -0.028275
  70 C :   -0.014727
  71 C :   -0.142376
  72 S :    0.371223
  73 C :   -0.050317
  74 H :    0.041198
  75 H :    0.036808
  76 H :    0.036594
  77 H :    0.040035
  78 H :    0.054363
  79 H :    0.051103
  80 H :    0.046538
  81 H :    0.089373
  82 H :    0.043258
  83 H :    0.036673
  84 H :    0.070307
  85 H :    0.100749
  86 H :    0.041936
  87 H :    0.027844
  88 H :    0.103285
  89 H :    0.039453
  90 H :    0.035467
  91 H :    0.033436
  92 H :    0.034953
  93 H :    0.037599
  94 H :    0.033570
  95 H :    0.031676

  Mayer bond orders larger than 0.100000
B(  0-C ,  1-C ) :   1.3688 B(  0-C ,  5-C ) :   1.3875 B(  0-C , 74-H ) :   0.9832
B(  1-C ,  2-C ) :   1.3792 B(  1-C , 75-H ) :   0.9863 B(  2-C ,  3-C ) :   1.3613
B(  2-C , 76-H ) :   0.9873 B(  3-C ,  4-C ) :   1.3840 B(  3-C , 77-H ) :   0.9879
B(  4-C ,  5-C ) :   1.3154 B(  4-C , 13-C ) :   1.0139 B(  5-C ,  6-C ) :   0.9944
B(  6-C ,  7-C ) :   1.6290 B(  6-C , 12-C ) :   1.0779 B(  7-C ,  8-C ) :   1.1491
B(  7-C , 10-C ) :   1.1364 B(  8-C ,  9-N ) :   2.9744 B( 10-C , 11-N ) :   2.9657
B( 12-C , 13-C ) :   1.0357 B( 12-C , 19-C ) :   1.5178 B( 13-C , 14-C ) :   1.6352
B( 14-C , 15-C ) :   1.1470 B( 14-C , 17-C ) :   1.1459 B( 15-C , 16-N ) :   3.0266
B( 17-C , 18-N ) :   2.9949 B( 19-C , 20-C ) :   1.2447 B( 19-C , 78-H ) :   0.9332
B( 20-C , 21-C ) :   1.3519 B( 20-C , 24-S ) :   1.0573 B( 21-C , 22-C ) :   1.3287
B( 21-C , 79-H ) :   1.0010 B( 22-C , 23-C ) :   1.3567 B( 22-C , 27-C ) :   0.9945
B( 23-C , 24-S ) :   1.1563 B( 23-C , 25-C ) :   1.2526 B( 25-C , 26-C ) :   1.4097
B( 25-C , 35-S ) :   1.0815 B( 26-C , 27-C ) :   0.9918 B( 26-C , 33-C ) :   1.3569
B( 27-C , 28-C ) :   1.7214 B( 28-C , 29-C ) :   1.1343 B( 28-C , 31-C ) :   1.1353
B( 29-C , 30-N ) :   2.9854 B( 31-C , 32-N ) :   2.9942 B( 33-C , 34-C ) :   1.4410
B( 33-C , 80-H ) :   0.9640 B( 34-C , 35-S ) :   1.1227 B( 34-C , 36-C ) :   1.1243
B( 36-C , 37-S ) :   1.1269 B( 36-C , 38-C ) :   0.1219 B( 36-C , 40-C ) :   1.3808
B( 37-S , 38-C ) :   1.1829 B( 38-C , 39-C ) :   1.3435 B( 38-C , 49-C ) :   1.1254
B( 39-C , 40-C ) :   1.2042 B( 39-C , 47-C ) :   1.1121 B( 40-C , 41-C ) :   1.1728
B( 41-C , 42-C ) :   0.9130 B( 41-C , 45-C ) :   1.5230 B( 42-C , 43-O ) :   2.1882
B( 42-C , 44-O ) :   1.1961 B( 44-O , 81-H ) :   0.9489 B( 45-C , 46-C ) :   1.2153
B( 45-C , 82-H ) :   0.9911 B( 46-C , 47-C ) :   1.4746 B( 46-C , 83-H ) :   0.9936
B( 47-C , 48-O ) :   1.2898 B( 48-O , 84-H ) :   0.9433 B( 49-C , 50-S ) :   1.1026
B( 49-C , 53-C ) :   1.3287 B( 50-S , 51-C ) :   1.1379 B( 51-C , 52-C ) :   1.2623
B( 51-C , 62-C ) :   1.2709 B( 52-C , 53-C ) :   1.2489 B( 52-C , 60-C ) :   1.2059
B( 53-C , 54-C ) :   1.1922 B( 54-C , 55-C ) :   0.9180 B( 54-C , 58-C ) :   1.5230
B( 55-C , 56-O ) :   2.1640 B( 55-C , 57-O ) :   1.2364 B( 57-O , 85-H ) :   0.9420
B( 58-C , 59-C ) :   1.2379 B( 58-C , 86-H ) :   0.9883 B( 59-C , 60-C ) :   1.4122
B( 59-C , 87-H ) :   0.9851 B( 60-C , 61-O ) :   1.2335 B( 61-O , 88-H ) :   0.9495
B( 62-C , 63-C ) :   1.4845 B( 62-C , 89-H ) :   0.9559 B( 63-C , 64-C ) :   1.1612
B( 63-C , 67-S ) :   1.0612 B( 64-C , 65-C ) :   1.5810 B( 64-C , 90-H ) :   1.0010
B( 65-C , 66-C ) :   1.1853 B( 65-C , 91-H ) :   0.9917 B( 66-C , 67-S ) :   1.0280
B( 66-C , 68-C ) :   1.5340 B( 68-C , 69-C ) :   1.1540 B( 68-C , 72-S ) :   1.0688
B( 69-C , 70-C ) :   1.6598 B( 69-C , 92-H ) :   0.9923 B( 70-C , 71-C ) :   1.0797
B( 70-C , 93-H ) :   0.9927 B( 71-C , 72-S ) :   1.0046 B( 71-C , 73-C ) :   1.8629
B( 73-C , 94-H ) :   0.9513 B( 73-C , 95-H ) :   0.9420

-----------------------------------------------------------------------------
         ABSORPTION SPECTRUM VIA TRANSITION ELECTRIC DIPOLE MOMENTS
-----------------------------------------------------------------------------
State   Energy  Wavelength   fosc         T2         TX        TY        TZ
        (cm-1)    (nm)                  (au**2)     (au)      (au)      (au)
-----------------------------------------------------------------------------
   0    9184.8   1088.8   0.801442463  28.72611  -0.28606  -5.29501  -0.77917
   1   13049.8    766.3   0.492708359  12.42970  -1.67135   2.87535   1.16991
   2   15597.5    641.1   0.006727046   0.14199   0.11451   0.18780   0.30595
   3   17274.9    578.9   0.461311777   8.79134  -2.10614  -2.07038  -0.26273
   4   18731.9    533.9   0.096733852   1.70010  -0.51871   0.24680   1.17053
   5   19865.4    503.4   0.116390743   1.92885  -0.11589   1.33790  -0.35416
   6   20980.2    476.6   0.020477594   0.32133   0.12902   0.11317  -0.54025
   7   21144.6    472.9   0.614482143   9.56723   0.63240  -0.53609  -2.97992
   8   22595.8    442.6   0.109104313   1.58961  -0.86187  -0.84998  -0.35258
   9   23195.2    431.1   0.005725500   0.08126   0.08464   0.20545   0.17858
  10   24992.5    400.1   0.134538034   1.77219   0.37747  -1.22497  -0.35939
  11   25294.5    395.3   0.308131340   4.01038   0.31891   0.18530  -1.96833
  12   25902.3    386.1   0.174121854   2.21304   0.24006   0.87817   1.17654
  13   26859.5    372.3   0.048270824   0.59165  -0.25534   0.27293   0.67228
  14   27037.7    369.9   0.081926246   0.99754   0.04703  -0.75457  -0.65265
  15   27883.5    358.6   0.061620243   0.72753  -0.06669   0.54522  -0.65255
  16   28168.2    355.0   0.071152310   0.83158  -0.67275   0.21383  -0.57729
  17   29138.2    343.2   0.154367284   1.74409   0.91115   0.07888   0.95271
  18   29879.5    334.7   0.203771499   2.24515  -1.10556   0.66214  -0.76450
  19   30177.0    331.4   0.088876306   0.96958   0.27243  -0.85105  -0.41362
  20   30298.5    330.0   0.099804451   1.08444  -0.02640  -0.90968  -0.50619
  21   30684.6    325.9   0.049344339   0.52941   0.13654   0.50149   0.50919
  22   31043.2    322.1   0.032408871   0.34369  -0.07061  -0.15606  -0.56067
  23   31545.2    317.0   0.032083160   0.33483   0.28218  -0.34822  -0.36598
  24   31736.9    315.1   0.091888197   0.95317   0.12687   0.96521   0.07374
  25   31858.7    313.9   0.116888076   1.20786  -0.03928  -0.89650  -0.63452
  26   32023.4    312.3   0.063942858   0.65736   0.23964  -0.76704  -0.10758
  27   32425.0    308.4   0.141385309   1.43549   0.07784  -1.19337   0.07280
  28   32526.3    307.4   0.070475453   0.71331   0.29296  -0.43590  -0.66142
  29   32590.7    306.8   0.019596482   0.19795   0.02123   0.16722  -0.41175
  30   33030.5    302.8   0.355173657   3.53999  -1.14596   1.49184  -0.03441
  31   33445.6    299.0   0.028955986   0.28502  -0.52768   0.07219   0.03698
  32   33876.9    295.2   0.010557906   0.10260   0.21787  -0.18901  -0.13932
  33   33971.6    294.4   0.064444948   0.62452   0.51817  -0.58253   0.12915
  34   34355.1    291.1   0.033834211   0.32422   0.23883  -0.10862   0.50535
  35   34511.5    289.8   0.049563417   0.47280  -0.62623  -0.21268  -0.18813
  36   34639.6    288.7   0.257476126   2.44703   0.80884  -0.24403   1.31653
  37   35224.6    283.9   0.315520996   2.94888   0.83864   0.16483   1.48943
  38   35332.3    283.0   0.218563172   2.03648  -0.88392  -0.10938  -1.11499
  39   35579.0    281.1   0.002637419   0.02440  -0.07135  -0.13806  -0.01589
  40   35746.0    279.8   0.011054364   0.10181  -0.19813   0.14952  -0.20049
  41   36112.7    276.9   0.019064949   0.17380   0.11076  -0.30260  -0.26451
  42   36719.9    272.3   0.019746581   0.17704  -0.25282   0.04821  -0.33286
  43   37047.2    269.9   0.044745650   0.39762   0.01341   0.39900   0.48810
  44   37233.3    268.6   0.031276788   0.27655   0.28274  -0.33653  -0.28871
  45   37386.6    267.5   0.017657455   0.15548  -0.21585  -0.11678   0.30863
  46   37553.5    266.3   0.036669308   0.32146   0.29178   0.16102  -0.45869
  47   37697.3    265.3   0.044715973   0.39051  -0.14507   0.40433   0.45385
  48   37866.1    264.1   0.014297368   0.12430   0.18212   0.29917   0.04042
  49   37913.9    263.8   0.068129526   0.59158   0.02032  -0.51216  -0.57346
  50   38047.8    262.8   0.037936267   0.32825  -0.04063  -0.04946   0.56934
  51   38251.8    261.4   0.023964223   0.20625  -0.14205  -0.30971  -0.30025
  52   38352.5    260.7   0.014200743   0.12190  -0.04943   0.23422  -0.25415
  53   38548.7    259.4   0.043618225   0.37251  -0.27566  -0.37056  -0.39900
  54   38712.2    258.3   0.061286078   0.52118   0.16909  -0.12813  -0.69005
  55   38843.1    257.4   0.008349545   0.07077  -0.11976  -0.11580  -0.20740
  56   38992.3    256.5   0.005218016   0.04406  -0.07859   0.19309  -0.02438
  57   39348.6    254.1   0.023874483   0.19975  -0.32081   0.27141  -0.15219
  58   39874.9    250.8   0.003855143   0.03183   0.09820  -0.13549   0.06187
  59   39989.9    250.1   0.232826616   1.91672   0.66485  -0.96776   0.73357

FINAL SINGLE POINT ENERGY     -5311.641047733113

DIPOLE MOMENT
-------------
                                X             Y             Z
Electronic contribution:     -6.14921      38.28426      -3.46152
Nuclear contribution   :      7.35116     -47.20782       7.43950
                        -----------------------------------------
Total Dipole Moment    :      1.20194      -8.92356       3.97799
                        -----------------------------------------
Magnitude (a.u.)       :      9.84373
Magnitude (Debye)      :     25.02077

Rotational constants in cm-1:     0.001431     0.000308     0.000294
Rotational constants in MHz :    42.894923     9.218828     8.818627

                             ****ORCA TERMINATED NORMALLY****
TOTAL RUN TIME: 0 days 0 hours 11 minutes 6 seconds 132 msec
