                         Program Version 4.2.0 -  RELEASE  -
|  1> # ORCA input file
|  2> # SCF done       -186.103886104238          0.000654223418
|  3> ! CAM-B3LYP def2-SVP def2/J RIJCOSX Grid4 TightSCF
|  4> %maxcore 5000
|  5> %tddft
|  6>     Mode sTDDFT
|  7>     Ethresh 5.0
|  8>     maxcore 5000
|  9> end
| 10>
| 11> %pal
| 12>   nprocs 6
| 13>   end
| 14> * xyz 0 1
| 15>    C       -0.37835        -1.12218         5.36378
| 16>    C        0.17620        -0.01888         5.94029
| 17>    C        0.04662         1.11031         5.11025
| 18>    C       -0.61606         0.81879         3.91343
| 19>    S       -1.07284        -0.82295         3.80788
| 20>    C       -0.70536         2.01212         3.14003
| 21>    C       -0.09185         3.05264         3.85647
| 22>    C        0.38154         2.52526         5.12933
| 23>    C        0.96747         3.21813         6.14644
| 24>    C        1.16433         4.61623         6.11012
| 25>    N        1.30241         5.75382         6.12365
| 26>    C        1.38280         2.58592         7.33833
| 27>    N        1.72527         2.07728         8.30707
| 28>    C       -0.09592         4.26537         3.16594
| 29>    C       -0.72641         4.14540         1.94400
| 30>    S       -1.31232         2.51821         1.63395
| 31>    C       -0.97020         5.13136         0.94699
| 32>    C       -0.63767         6.47459         0.82104
| 33>    C        0.15945         7.30590         1.74314
| 34>    O        1.13097         6.90949         2.32177
| 35>    O       -0.28140         8.56732         1.91010
| 36>    C       -1.24936         6.84667        -0.41933
| 37>    N       -1.87982         5.81903        -0.94182
| 38>    O       -1.72200         4.77347        -0.10819
| 39>    C       -1.22561         8.10580        -1.12022
| 40>    C       -2.19507         8.55247        -1.98761
| 41>    C       -1.86025         9.79231        -2.54228
| 42>    C       -0.60900        10.25994        -2.10735
| 43>    S        0.14346         9.19820        -1.00618
| 44>    C       -0.35911        11.51881        -2.71653
| 45>    C       -1.45922        11.84952        -3.52218
| 46>    C       -2.43763        10.77225        -3.44411
| 47>    C       -3.64241        10.71115        -4.07989
| 48>    C       -4.08906        11.74239        -4.93311
| 49>    N       -4.45080        12.58143        -5.62580
| 50>    C       -4.52532         9.62146        -3.92221
| 51>    N       -5.25084         8.74364        -3.79222
| 52>    C       -1.32034        13.08479        -4.15210
| 53>    C       -0.11520        13.69236        -3.84603
| 54>    S        0.85752        12.71512        -2.75265
| 55>    C        0.35651        14.95843        -4.30364
| 56>    C        1.65063        15.38626        -4.11465
| 57>    C        2.14870        16.61397        -4.53971
| 58>    C        1.29111        17.58944        -5.21330
| 59>    C       -0.01102        17.37604        -5.50986
| 60>    S       -0.85010        15.93283        -5.12773
| 61>    C        2.12509        18.71113        -5.47168
| 62>    C        3.42308        18.46303        -5.01681
| 63>    C        4.27678        19.56363        -5.25838
| 64>    C        3.61937        20.58209        -5.87334
| 65>    S        1.94978        20.26088        -6.18774
| 66>    C        3.45894        17.13976        -4.43499
| 67>    C        4.55912        16.45107        -3.90006
| 68>    C        5.84686        16.91546        -3.86969
| 69>    C        6.90441        16.14965        -3.36338
| 70>    C        8.21761        16.56044        -3.33490
| 71>    C        9.35068        15.80320        -2.85448
| 72>    C        9.34883        14.51959        -2.36699
| 73>    C       10.50190        13.84015        -1.92243
| 74>    N       11.39891        13.22957        -1.54671
| 75>    C        8.21633        13.68871        -2.24629
| 76>    N        7.34863        12.94608        -2.12011
| 77>    C       10.53754        16.64764        -2.99536
| 78>    C       10.15481        17.87771        -3.55657
| 79>    C        8.69488        17.87940        -3.79794
| 80>    O        8.05074        18.79259        -4.27592
| 81>    C       11.06833        18.87936        -3.81014
| 82>    C       12.40185        18.64993        -3.49468
| 83>    C       12.79256        17.42975        -2.93463
| 84>    C       11.86733        16.42220        -2.68156
| 85>   Cl       14.44416        17.15833        -2.54718
| 86>   Cl       13.57124        19.87197        -3.79504
| 87>    H       -0.42415        -2.11589         5.76258
| 88>    H        0.65139        -0.02436         6.90399
| 89>    H        0.35004         5.17935         3.51243
| 90>    H       -1.10943         8.74749         1.44539
| 91>    H       -3.09174         7.99445        -2.18357
| 92>    H       -2.04762        13.52551        -4.80970
| 93>    H        2.31653        14.70404        -3.60248
| 94>    H       -0.61831        18.10662        -6.02029
| 95>    H        5.31776        19.62797        -5.00129
| 96>    H        4.01982        21.53109        -6.17189
| 97>    H        4.36998        15.46111        -3.50183
| 98>    H        6.07814        17.89005        -4.26136
| 99>    H        6.66019        15.16790        -2.97880
|100>    H       10.75268        19.81573        -4.24254
|101>    H       12.20744        15.49593        -2.24855
|102> *
|103>
|104>                          ****END OF INPUT****

CARTESIAN COORDINATES (ANGSTROEM)
---------------------------------
  C     -0.378350   -1.122180    5.363780
  C      0.176200   -0.018880    5.940290
  C      0.046620    1.110310    5.110250
  C     -0.616060    0.818790    3.913430
  S     -1.072840   -0.822950    3.807880
  C     -0.705360    2.012120    3.140030
  C     -0.091850    3.052640    3.856470
  C      0.381540    2.525260    5.129330
  C      0.967470    3.218130    6.146440
  C      1.164330    4.616230    6.110120
  N      1.302410    5.753820    6.123650
  C      1.382800    2.585920    7.338330
  N      1.725270    2.077280    8.307070
  C     -0.095920    4.265370    3.165940
  C     -0.726410    4.145400    1.944000
  S     -1.312320    2.518210    1.633950
  C     -0.970200    5.131360    0.946990
  C     -0.637670    6.474590    0.821040
  C      0.159450    7.305900    1.743140
  O      1.130970    6.909490    2.321770
  O     -0.281400    8.567320    1.910100
  C     -1.249360    6.846670   -0.419330
  N     -1.879820    5.819030   -0.941820
  O     -1.722000    4.773470   -0.108190
  C     -1.225610    8.105800   -1.120220
  C     -2.195070    8.552470   -1.987610
  C     -1.860250    9.792310   -2.542280
  C     -0.609000   10.259940   -2.107350
  S      0.143460    9.198200   -1.006180
  C     -0.359110   11.518810   -2.716530
  C     -1.459220   11.849520   -3.522180
  C     -2.437630   10.772250   -3.444110
  C     -3.642410   10.711150   -4.079890
  C     -4.089060   11.742390   -4.933110
  N     -4.450800   12.581430   -5.625800
  C     -4.525320    9.621460   -3.922210
  N     -5.250840    8.743640   -3.792220
  C     -1.320340   13.084790   -4.152100
  C     -0.115200   13.692360   -3.846030
  S      0.857520   12.715120   -2.752650
  C      0.356510   14.958430   -4.303640
  C      1.650630   15.386260   -4.114650
  C      2.148700   16.613970   -4.539710
  C      1.291110   17.589440   -5.213300
  C     -0.011020   17.376040   -5.509860
  S     -0.850100   15.932830   -5.127730
  C      2.125090   18.711130   -5.471680
  C      3.423080   18.463030   -5.016810
  C      4.276780   19.563630   -5.258380
  C      3.619370   20.582090   -5.873340
  S      1.949780   20.260880   -6.187740
  C      3.458940   17.139760   -4.434990
  C      4.559120   16.451070   -3.900060
  C      5.846860   16.915460   -3.869690
  C      6.904410   16.149650   -3.363380
  C      8.217610   16.560440   -3.334900
  C      9.350680   15.803200   -2.854480
  C      9.348830   14.519590   -2.366990
  C     10.501900   13.840150   -1.922430
  N     11.398910   13.229570   -1.546710
  C      8.216330   13.688710   -2.246290
  N      7.348630   12.946080   -2.120110
  C     10.537540   16.647640   -2.995360
  C     10.154810   17.877710   -3.556570
  C      8.694880   17.879400   -3.797940
  O      8.050740   18.792590   -4.275920
  C     11.068330   18.879360   -3.810140
  C     12.401850   18.649930   -3.494680
  C     12.792560   17.429750   -2.934630
  C     11.867330   16.422200   -2.681560
  Cl    14.444160   17.158330   -2.547180
  Cl    13.571240   19.871970   -3.795040
  H     -0.424150   -2.115890    5.762580
  H      0.651390   -0.024360    6.903990
  H      0.350040    5.179350    3.512430
  H     -1.109430    8.747490    1.445390
  H     -3.091740    7.994450   -2.183570
  H     -2.047620   13.525510   -4.809700
  H      2.316530   14.704040   -3.602480
  H     -0.618310   18.106620   -6.020290
  H      5.317760   19.627970   -5.001290
  H      4.019820   21.531090   -6.171890
  H      4.369980   15.461110   -3.501830
  H      6.078140   17.890050   -4.261360
  H      6.660190   15.167900   -2.978800
  H     10.752680   19.815730   -4.242540
  H     12.207440   15.495930   -2.248550

 Total Charge           Charge          ....    0
 Multiplicity           Mult            ....    1
 Number of Electrons    NEL             ....  544
 Basis Dimension        Dim             .... 1115

ORBITAL ENERGIES
----------------

  NO   OCC          E(Eh)            E(eV)
   0   2.0000    -101.595398     -2764.5513
   1   2.0000    -101.593224     -2764.4922
   2   2.0000     -89.008254     -2422.0377
   3   2.0000     -89.007472     -2422.0164
   4   2.0000     -89.000050     -2421.8145
   5   2.0000     -88.998521     -2421.7729
   6   2.0000     -88.992463     -2421.6080
   7   2.0000     -88.967110     -2420.9181
   8   2.0000     -19.339151      -526.2451
   9   2.0000     -19.276992      -524.5536
  10   2.0000     -19.217051      -522.9225
  11   2.0000     -19.214445      -522.8516
  12   2.0000     -14.476766      -393.9328
  13   2.0000     -14.442416      -392.9981
  14   2.0000     -14.440206      -392.9380
  15   2.0000     -14.430518      -392.6743
  16   2.0000     -14.427778      -392.5998
  17   2.0000     -14.412602      -392.1868
  18   2.0000     -14.408579      -392.0774
  19   2.0000     -10.426113      -283.7090
  20   2.0000     -10.385069      -282.5921
  21   2.0000     -10.377982      -282.3993
  22   2.0000     -10.366076      -282.0753
  23   2.0000     -10.364768      -282.0397
  24   2.0000     -10.364549      -282.0337
  25   2.0000     -10.354175      -281.7514
  26   2.0000     -10.352954      -281.7182
  27   2.0000     -10.349898      -281.6350
  28   2.0000     -10.349420      -281.6220
  29   2.0000     -10.349364      -281.6205
  30   2.0000     -10.349273      -281.6180
  31   2.0000     -10.348278      -281.5910
  32   2.0000     -10.347383      -281.5666
  33   2.0000     -10.345146      -281.5057
  34   2.0000     -10.342376      -281.4303
  35   2.0000     -10.341555      -281.4080
  36   2.0000     -10.340511      -281.3796
  37   2.0000     -10.339686      -281.3572
  38   2.0000     -10.336632      -281.2740
  39   2.0000     -10.335809      -281.2517
  40   2.0000     -10.333656      -281.1931
  41   2.0000     -10.333113      -281.1783
  42   2.0000     -10.330579      -281.1094
  43   2.0000     -10.327036      -281.0129
  44   2.0000     -10.319580      -280.8100
  45   2.0000     -10.319363      -280.8041
  46   2.0000     -10.318423      -280.7786
  47   2.0000     -10.317953      -280.7658
  48   2.0000     -10.317801      -280.7617
  49   2.0000     -10.317176      -280.7446
  50   2.0000     -10.316730      -280.7325
  51   2.0000     -10.316085      -280.7149
  52   2.0000     -10.313298      -280.6391
  53   2.0000     -10.312584      -280.6197
  54   2.0000     -10.311905      -280.6012
  55   2.0000     -10.310886      -280.5735
  56   2.0000     -10.308365      -280.5049
  57   2.0000     -10.307769      -280.4886
  58   2.0000     -10.306772      -280.4615
  59   2.0000     -10.306277      -280.4481
  60   2.0000     -10.305439      -280.4252
  61   2.0000     -10.304748      -280.4064
  62   2.0000     -10.303019      -280.3594
  63   2.0000     -10.302099      -280.3344
  64   2.0000     -10.301694      -280.3233
  65   2.0000     -10.300209      -280.2829
  66   2.0000     -10.294133      -280.1176
  67   2.0000     -10.292668      -280.0777
  68   2.0000     -10.288495      -279.9642
  69   2.0000     -10.286973      -279.9228
  70   2.0000     -10.281307      -279.7686
  71   2.0000     -10.274927      -279.5950
  72   2.0000      -9.550353      -259.8783
  73   2.0000      -9.548227      -259.8205
  74   2.0000      -8.102468      -220.4794
  75   2.0000      -8.101513      -220.4534
  76   2.0000      -8.095103      -220.2790
  77   2.0000      -8.092862      -220.2180
  78   2.0000      -8.087484      -220.0716
  79   2.0000      -8.062659      -219.3961
  80   2.0000      -7.320724      -199.2070
  81   2.0000      -7.318621      -199.1498
  82   2.0000      -7.310625      -198.9322
  83   2.0000      -7.309922      -198.9131
  84   2.0000      -7.308480      -198.8739
  85   2.0000      -7.307764      -198.8544
  86   2.0000      -6.071667      -165.2185
  87   2.0000      -6.070819      -165.1954
  88   2.0000      -6.067381      -165.1018
  89   2.0000      -6.066643      -165.0818
  90   2.0000      -6.065025      -165.0377
  91   2.0000      -6.064672      -165.0281
  92   2.0000      -6.063872      -165.0063
  93   2.0000      -6.062088      -164.9578
  94   2.0000      -6.059978      -164.9004
  95   2.0000      -6.057863      -164.8428
  96   2.0000      -6.057141      -164.8232
  97   2.0000      -6.056738      -164.8122
  98   2.0000      -6.055328      -164.7739
  99   2.0000      -6.052275      -164.6908
 100   2.0000      -6.050101      -164.6316
 101   2.0000      -6.032066      -164.1409
 102   2.0000      -6.027803      -164.0249
 103   2.0000      -6.024727      -163.9412
 104   2.0000      -1.278741       -34.7963
 105   2.0000      -1.200575       -32.6693
 106   2.0000      -1.127867       -30.6908
 107   2.0000      -1.116397       -30.3787
 108   2.0000      -1.060409       -28.8552
 109   2.0000      -1.048484       -28.5307
 110   2.0000      -1.034064       -28.1383
 111   2.0000      -1.027454       -27.9584
 112   2.0000      -1.024626       -27.8815
 113   2.0000      -1.022186       -27.8151
 114   2.0000      -1.019024       -27.7291
 115   2.0000      -1.017645       -27.6915
 116   2.0000      -1.010027       -27.4842
 117   2.0000      -1.007071       -27.4038
 118   2.0000      -1.005557       -27.3626
 119   2.0000      -0.995192       -27.0806
 120   2.0000      -0.989392       -26.9227
 121   2.0000      -0.983867       -26.7724
 122   2.0000      -0.983441       -26.7608
 123   2.0000      -0.968513       -26.3546
 124   2.0000      -0.959776       -26.1168
 125   2.0000      -0.956046       -26.0153
 126   2.0000      -0.946318       -25.7506
 127   2.0000      -0.936106       -25.4727
 128   2.0000      -0.930830       -25.3292
 129   2.0000      -0.926184       -25.2028
 130   2.0000      -0.911760       -24.8102
 131   2.0000      -0.904424       -24.6106
 132   2.0000      -0.902486       -24.5579
 133   2.0000      -0.886257       -24.1163
 134   2.0000      -0.883424       -24.0392
 135   2.0000      -0.871976       -23.7277
 136   2.0000      -0.870956       -23.6999
 137   2.0000      -0.860688       -23.4205
 138   2.0000      -0.857613       -23.3368
 139   2.0000      -0.854234       -23.2449
 140   2.0000      -0.843447       -22.9514
 141   2.0000      -0.833312       -22.6756
 142   2.0000      -0.816842       -22.2274
 143   2.0000      -0.811017       -22.0689
 144   2.0000      -0.803013       -21.8511
 145   2.0000      -0.790824       -21.5194
 146   2.0000      -0.782754       -21.2998
 147   2.0000      -0.774443       -21.0737
 148   2.0000      -0.767640       -20.8886
 149   2.0000      -0.759723       -20.6731
 150   2.0000      -0.755593       -20.5607
 151   2.0000      -0.735913       -20.0252
 152   2.0000      -0.734024       -19.9738
 153   2.0000      -0.725392       -19.7389
 154   2.0000      -0.717229       -19.5168
 155   2.0000      -0.708910       -19.2904
 156   2.0000      -0.703225       -19.1357
 157   2.0000      -0.699090       -19.0232
 158   2.0000      -0.694373       -18.8948
 159   2.0000      -0.689108       -18.7516
 160   2.0000      -0.683355       -18.5950
 161   2.0000      -0.676104       -18.3977
 162   2.0000      -0.669022       -18.2050
 163   2.0000      -0.668171       -18.1818
 164   2.0000      -0.663119       -18.0444
 165   2.0000      -0.658494       -17.9185
 166   2.0000      -0.649851       -17.6833
 167   2.0000      -0.643409       -17.5081
 168   2.0000      -0.638384       -17.3713
 169   2.0000      -0.630837       -17.1660
 170   2.0000      -0.626999       -17.0615
 171   2.0000      -0.623830       -16.9753
 172   2.0000      -0.620914       -16.8959
 173   2.0000      -0.617732       -16.8093
 174   2.0000      -0.612028       -16.6541
 175   2.0000      -0.608224       -16.5506
 176   2.0000      -0.603410       -16.4196
 177   2.0000      -0.594614       -16.1803
 178   2.0000      -0.588696       -16.0192
 179   2.0000      -0.583238       -15.8707
 180   2.0000      -0.578491       -15.7415
 181   2.0000      -0.574266       -15.6266
 182   2.0000      -0.564410       -15.3584
 183   2.0000      -0.562525       -15.3071
 184   2.0000      -0.559159       -15.2155
 185   2.0000      -0.557046       -15.1580
 186   2.0000      -0.550151       -14.9704
 187   2.0000      -0.548433       -14.9236
 188   2.0000      -0.546579       -14.8732
 189   2.0000      -0.545121       -14.8335
 190   2.0000      -0.540255       -14.7011
 191   2.0000      -0.538291       -14.6476
 192   2.0000      -0.535754       -14.5786
 193   2.0000      -0.531393       -14.4599
 194   2.0000      -0.531135       -14.4529
 195   2.0000      -0.529580       -14.4106
 196   2.0000      -0.524633       -14.2760
 197   2.0000      -0.522266       -14.2116
 198   2.0000      -0.518713       -14.1149
 199   2.0000      -0.516945       -14.0668
 200   2.0000      -0.511375       -13.9152
 201   2.0000      -0.510902       -13.9024
 202   2.0000      -0.505872       -13.7655
 203   2.0000      -0.504364       -13.7244
 204   2.0000      -0.504003       -13.7146
 205   2.0000      -0.501852       -13.6561
 206   2.0000      -0.498124       -13.5547
 207   2.0000      -0.497713       -13.5435
 208   2.0000      -0.495818       -13.4919
 209   2.0000      -0.491560       -13.3760
 210   2.0000      -0.489139       -13.3101
 211   2.0000      -0.486264       -13.2319
 212   2.0000      -0.485580       -13.2133
 213   2.0000      -0.483941       -13.1687
 214   2.0000      -0.478933       -13.0324
 215   2.0000      -0.475625       -12.9424
 216   2.0000      -0.472160       -12.8481
 217   2.0000      -0.470892       -12.8136
 218   2.0000      -0.470034       -12.7903
 219   2.0000      -0.467543       -12.7225
 220   2.0000      -0.463424       -12.6104
 221   2.0000      -0.460958       -12.5433
 222   2.0000      -0.460402       -12.5282
 223   2.0000      -0.459512       -12.5040
 224   2.0000      -0.456083       -12.4106
 225   2.0000      -0.455438       -12.3931
 226   2.0000      -0.454073       -12.3560
 227   2.0000      -0.450982       -12.2719
 228   2.0000      -0.449710       -12.2372
 229   2.0000      -0.445987       -12.1359
 230   2.0000      -0.445001       -12.1091
 231   2.0000      -0.444198       -12.0872
 232   2.0000      -0.442368       -12.0374
 233   2.0000      -0.441047       -12.0015
 234   2.0000      -0.439933       -11.9712
 235   2.0000      -0.438995       -11.9457
 236   2.0000      -0.438100       -11.9213
 237   2.0000      -0.437915       -11.9163
 238   2.0000      -0.434991       -11.8367
 239   2.0000      -0.431820       -11.7504
 240   2.0000      -0.427158       -11.6236
 241   2.0000      -0.425236       -11.5713
 242   2.0000      -0.423122       -11.5137
 243   2.0000      -0.422919       -11.5082
 244   2.0000      -0.421935       -11.4814
 245   2.0000      -0.421602       -11.4724
 246   2.0000      -0.413496       -11.2518
 247   2.0000      -0.410892       -11.1809
 248   2.0000      -0.410579       -11.1724
 249   2.0000      -0.408252       -11.1091
 250   2.0000      -0.406419       -11.0592
 251   2.0000      -0.403433       -10.9780
 252   2.0000      -0.401355       -10.9214
 253   2.0000      -0.394801       -10.7431
 254   2.0000      -0.379020       -10.3137
 255   2.0000      -0.376347       -10.2409
 256   2.0000      -0.370920       -10.0933
 257   2.0000      -0.364558        -9.9201
 258   2.0000      -0.362058        -9.8521
 259   2.0000      -0.351782        -9.5725
 260   2.0000      -0.350025        -9.5247
 261   2.0000      -0.348342        -9.4789
 262   2.0000      -0.335297        -9.1239
 263   2.0000      -0.334762        -9.1093
 264   2.0000      -0.333406        -9.0724
 265   2.0000      -0.323452        -8.8016
 266   2.0000      -0.316047        -8.6001
 267   2.0000      -0.306074        -8.3287
 268   2.0000      -0.303637        -8.2624
 269   2.0000      -0.282192        -7.6788
 270   2.0000      -0.278093        -7.5673
 271   2.0000      -0.244288        -6.6474
 272   0.0000      -0.119577        -3.2539
 273   0.0000      -0.105393        -2.8679
 274   0.0000      -0.100168        -2.7257
 275   0.0000      -0.067012        -1.8235
 276   0.0000      -0.052542        -1.4297

MULLIKEN ATOMIC CHARGES
-----------------------
   0 C :   -0.076409
   1 C :    0.036480
   2 C :   -0.024016
   3 C :   -0.121539
   4 S :    0.189329
   5 C :   -0.088305
   6 C :   -0.000616
   7 C :    0.301852
   8 C :   -0.293574
   9 C :   -0.194095
  10 N :    0.191495
  11 C :   -0.192476
  12 N :    0.176237
  13 C :   -0.028907
  14 C :   -0.139760
  15 S :    0.230912
  16 C :    0.243009
  17 C :   -0.182988
  18 C :    0.166092
  19 O :   -0.163056
  20 O :   -0.155475
  21 C :    0.032763
  22 N :    0.019310
  23 O :   -0.177755
  24 C :   -0.189430
  25 C :    0.003450
  26 C :    0.009867
  27 C :   -0.095722
  28 S :    0.224366
  29 C :   -0.091546
  30 C :    0.019324
  31 C :    0.298506
  32 C :   -0.290294
  33 C :   -0.184414
  34 N :    0.171726
  35 C :   -0.192988
  36 N :    0.188240
  37 C :   -0.051837
  38 C :   -0.067708
  39 S :    0.197523
  40 C :   -0.019642
  41 C :   -0.086005
  42 C :    0.075254
  43 C :    0.060934
  44 C :   -0.116827
  45 S :    0.155860
  46 C :   -0.113951
  47 C :    0.055829
  48 C :   -0.011336
  49 C :   -0.061877
  50 S :    0.135653
  51 C :    0.100220
  52 C :    0.001604
  53 C :   -0.018332
  54 C :   -0.017654
  55 C :   -0.091193
  56 C :    0.333553
  57 C :   -0.356992
  58 C :   -0.189777
  59 N :    0.150226
  60 C :   -0.186245
  61 N :    0.134264
  62 C :    0.026978
  63 C :   -0.007864
  64 C :    0.147052
  65 O :   -0.161879
  66 C :   -0.035566
  67 C :    0.062436
  68 C :    0.043693
  69 C :   -0.014816
  70 Cl:   -0.039472
  71 Cl:   -0.048893
  72 H :    0.039619
  73 H :    0.014551
  74 H :    0.035059
  75 H :    0.188086
  76 H :    0.024406
  77 H :    0.024135
  78 H :   -0.000135
  79 H :    0.046157
  80 H :    0.018078
  81 H :    0.030835
  82 H :   -0.018906
  83 H :    0.001926
  84 H :   -0.000334
  85 H :   -0.005723
  86 H :   -0.000563
Sum of atomic charges:   -0.0000000

LOEWDIN ATOMIC CHARGES
----------------------
   0 C :   -0.170303
   1 C :   -0.034382
   2 C :   -0.065675
   3 C :   -0.192146
   4 S :    0.482993
   5 C :   -0.164813
   6 C :   -0.075064
   7 C :    0.077699
   8 C :   -0.095323
   9 C :   -0.022864
  10 N :   -0.017376
  11 C :   -0.016005
  12 N :   -0.030515
  13 C :    0.007725
  14 C :   -0.203161
  15 S :    0.504534
  16 C :    0.064579
  17 C :   -0.162461
  18 C :    0.073373
  19 O :   -0.138191
  20 O :   -0.025798
  21 C :   -0.051676
  22 N :   -0.036495
  23 O :    0.028374
  24 C :   -0.201249
  25 C :    0.000356
  26 C :   -0.072281
  27 C :   -0.175577
  28 S :    0.508961
  29 C :   -0.177788
  30 C :   -0.063749
  31 C :    0.078719
  32 C :   -0.094769
  33 C :   -0.015611
  34 N :   -0.028891
  35 C :   -0.019635
  36 N :   -0.021009
  37 C :   -0.034487
  38 C :   -0.182884
  39 S :    0.492671
  40 C :   -0.168672
  41 C :   -0.032375
  42 C :    0.008590
  43 C :   -0.045972
  44 C :   -0.136257
  45 S :    0.486676
  46 C :   -0.203091
  47 C :   -0.031548
  48 C :   -0.058963
  49 C :   -0.157737
  50 S :    0.429680
  51 C :   -0.058219
  52 C :    0.040798
  53 C :   -0.050518
  54 C :    0.069458
  55 C :   -0.114152
  56 C :    0.074961
  57 C :   -0.146361
  58 C :   -0.020754
  59 N :   -0.055628
  60 C :   -0.017403
  61 N :   -0.062405
  62 C :   -0.012703
  63 C :   -0.042279
  64 C :    0.085687
  65 O :   -0.156079
  66 C :   -0.002431
  67 C :   -0.135923
  68 C :   -0.132489
  69 C :   -0.013591
  70 Cl:    0.158139
  71 Cl:    0.154110
  72 H :    0.029456
  73 H :    0.043638
  74 H :    0.045646
  75 H :    0.086754
  76 H :    0.049450
  77 H :    0.036207
  78 H :    0.030552
  79 H :    0.041154
  80 H :    0.039648
  81 H :    0.026557
  82 H :    0.031239
  83 H :    0.030089
  84 H :    0.039379
  85 H :    0.043816
  86 H :    0.044063

  Mayer bond orders larger than 0.100000
B(  0-C ,  1-C ) :   1.5418 B(  0-C ,  4-S ) :   1.1609 B(  0-C , 72-H ) :   0.9642
B(  1-C ,  2-C ) :   1.2824 B(  1-C , 73-H ) :   0.9956 B(  2-C ,  3-C ) :   1.4617
B(  2-C ,  7-C ) :   1.0113 B(  3-C ,  4-S ) :   1.1305 B(  3-C ,  5-C ) :   1.1836
B(  5-C ,  6-C ) :   1.4405 B(  5-C , 15-S ) :   1.1463 B(  6-C ,  7-C ) :   0.9893
B(  6-C , 13-C ) :   1.2908 B(  7-C ,  8-C ) :   1.7171 B(  8-C ,  9-C ) :   1.1337
B(  8-C , 11-C ) :   1.1324 B(  9-C , 10-N ) :   2.9966 B( 11-C , 12-N ) :   3.0009
B( 13-C , 14-C ) :   1.4881 B( 13-C , 74-H ) :   0.9790 B( 14-C , 15-S ) :   1.0808
B( 14-C , 16-C ) :   1.1065 B( 16-C , 17-C ) :   1.4980 B( 16-C , 23-O ) :   1.2075
B( 17-C , 18-C ) :   0.8936 B( 17-C , 21-C ) :   1.1951 B( 18-C , 19-O ) :   2.1457
B( 18-C , 20-O ) :   1.2294 B( 20-O , 75-H ) :   0.9463 B( 21-C , 22-N ) :   1.7357
B( 21-C , 24-C ) :   0.9961 B( 22-N , 23-O ) :   0.9880 B( 24-C , 25-C ) :   1.4948
B( 24-C , 28-S ) :   1.1255 B( 25-C , 26-C ) :   1.2519 B( 25-C , 76-H ) :   1.0119
B( 26-C , 27-C ) :   1.4384 B( 26-C , 31-C ) :   0.9895 B( 27-C , 28-S ) :   1.1402
B( 27-C , 29-C ) :   1.1778 B( 29-C , 30-C ) :   1.4502 B( 29-C , 39-S ) :   1.1310
B( 30-C , 31-C ) :   0.9958 B( 30-C , 37-C ) :   1.3086 B( 31-C , 32-C ) :   1.7213
B( 32-C , 33-C ) :   1.1320 B( 32-C , 35-C ) :   1.1327 B( 33-C , 34-N ) :   2.9864
B( 35-C , 36-N ) :   2.9990 B( 37-C , 38-C ) :   1.4550 B( 37-C , 77-H ) :   0.9787
B( 38-C , 39-S ) :   1.1104 B( 38-C , 40-C ) :   1.1529 B( 40-C , 41-C ) :   1.5036
B( 40-C , 45-S ) :   1.0835 B( 41-C , 42-C ) :   1.2774 B( 41-C , 78-H ) :   0.9598
B( 42-C , 43-C ) :   1.0659 B( 42-C , 51-C ) :   1.3235 B( 43-C , 44-C ) :   1.5888
B( 43-C , 46-C ) :   1.1772 B( 44-C , 45-S ) :   1.1491 B( 44-C , 79-H ) :   0.9403
B( 46-C , 47-C ) :   1.4525 B( 46-C , 50-S ) :   1.0835 B( 47-C , 48-C ) :   1.2218
B( 47-C , 51-C ) :   1.0694 B( 48-C , 49-C ) :   1.5866 B( 48-C , 80-H ) :   0.9965
B( 49-C , 50-S ) :   1.1564 B( 49-C , 81-H ) :   0.9621 B( 51-C , 52-C ) :   1.1931
B( 52-C , 53-C ) :   1.4639 B( 52-C , 82-H ) :   0.9745 B( 53-C , 54-C ) :   1.2265
B( 53-C , 83-H ) :   0.9932 B( 54-C , 55-C ) :   1.4563 B( 54-C , 84-H ) :   0.9633
B( 55-C , 56-C ) :   1.0911 B( 55-C , 64-C ) :   0.9696 B( 56-C , 57-C ) :   1.6105
B( 56-C , 62-C ) :   0.9841 B( 57-C , 58-C ) :   1.1426 B( 57-C , 60-C ) :   1.1539
B( 58-C , 59-N ) :   2.9688 B( 60-C , 61-N ) :   2.9553 B( 62-C , 63-C ) :   1.3337
B( 62-C , 69-C ) :   1.3467 B( 63-C , 64-C ) :   0.9409 B( 63-C , 66-C ) :   1.3502
B( 64-C , 65-O ) :   2.1792 B( 66-C , 67-C ) :   1.3352 B( 66-C , 85-H ) :   1.0164
B( 67-C , 68-C ) :   1.4152 B( 67-C , 71-Cl) :   1.0414 B( 68-C , 69-C ) :   1.3552
B( 68-C , 70-Cl) :   1.0724 B( 69-C , 86-H ) :   0.9845

-----------------------------------------------------------------------------
         ABSORPTION SPECTRUM VIA TRANSITION ELECTRIC DIPOLE MOMENTS
-----------------------------------------------------------------------------
State   Energy  Wavelength   fosc         T2         TX        TY        TZ
        (cm-1)    (nm)                  (au**2)     (au)      (au)      (au)
-----------------------------------------------------------------------------
   0   12514.0    799.1   0.275169584   7.23903  -1.99358  -1.74146   0.48164
   1   16115.5    620.5   1.002008169  20.46931   4.40833   0.92294   0.42903
   2   17233.2    580.3   0.067314516   1.28593  -0.31369   0.85933  -0.67014
   3   18959.7    527.4   0.027025354   0.46926   0.10773   0.61085  -0.29073
   4   22770.3    439.2   0.263363212   3.80769   0.67271  -1.64483   0.80603
   5   23332.8    428.6   0.009889126   0.13953  -0.11915   0.31454  -0.16246
   6   23428.9    426.8   0.010552144   0.14827   0.25159  -0.24412   0.15931
   7   23662.8    422.6   0.240124740   3.34076   0.36850  -1.59938   0.80432
   8   24207.7    413.1   0.279755618   3.80453  -1.91554  -0.02957  -0.36658
   9   26262.5    380.8   0.041750642   0.52336   0.48944  -0.39304   0.35962
  10   27497.7    363.7   0.279474891   3.34597   0.15765  -1.62153   0.83172
  11   28447.8    351.5   0.215291155   2.49145  -0.38864  -1.42822   0.54826
  12   29075.5    343.9   0.436681135   4.94439   0.41675   1.89823  -1.08048
  13   29080.2    343.9   0.069762498   0.78977  -0.14274  -0.76978   0.42051
  14   29779.2    335.8   0.013031757   0.14407  -0.14795   0.19570  -0.28962
  15   30537.1    327.5   0.379501351   4.09130  -0.32373  -1.21454   1.58474
  16   30559.4    327.2   0.964358618  10.38889  -2.12726   0.83148  -2.27427
  17   31301.2    319.5   0.205060876   2.15674   0.63681  -1.27057  -0.36996
  18   31424.2    318.2   0.431637124   4.52200  -1.41003  -1.26276  -0.96915
  19   31516.1    317.3   0.000805820   0.00842  -0.06265   0.05771  -0.03409
  20   31596.3    316.5   0.110450335   1.15082  -0.50937  -0.88749  -0.32205
  21   31651.6    315.9   0.277644838   2.88782  -1.44759  -0.39510  -0.79761
  22   32855.7    304.4   0.033298238   0.33365   0.14445  -0.50091   0.24874
  23   33081.9    302.3   0.285940591   2.84552  -0.03788  -1.51034   0.75031
  24   33364.2    299.7   0.493241034   4.86691   0.61195   1.97549  -0.76803
  25   33435.2    299.1   0.059579387   0.58663   0.27523   0.69960  -0.14642
  26   34336.0    291.2   0.072061354   0.69092   0.68254   0.47306   0.03564
  27   34469.1    290.1   0.030269325   0.28910  -0.29501  -0.44401   0.07017
  28   34664.7    288.5   0.143086324   1.35890   0.44744   0.02466   1.07614
  29   34745.5    287.8   0.875982043   8.29989  -1.67512  -2.29191   0.49095
  30   34836.4    287.1   0.031543331   0.29809  -0.48796  -0.21294  -0.12101
  31   35316.1    283.2   0.248388710   2.31545  -0.27876   1.32250  -0.69909
  32   35446.9    282.1   0.053778779   0.49947   0.37236  -0.50115   0.33115
  33   35994.7    277.8   0.010506475   0.09609  -0.15640  -0.23262  -0.13237
  34   36206.8    276.2   0.009279233   0.08437  -0.26592  -0.11187  -0.03383
  35   36469.3    274.2   0.043708647   0.39456  -0.61401  -0.13182  -0.01310
  36   36995.3    270.3   0.088701303   0.78933  -0.78085  -0.32395  -0.27323
  37   37387.0    267.5   0.000700133   0.00617   0.00358  -0.01536  -0.07692
  38   37394.6    267.4   0.000815131   0.00718   0.00159   0.03507   0.07710
  39   37611.0    265.9   0.008928923   0.07816   0.17221   0.12432   0.18178
  40   38029.9    263.0   0.065058327   0.56319   0.72677   0.06706   0.17463
  41   38075.6    262.6   0.006295826   0.05444  -0.16877   0.14210  -0.07589
  42   38209.3    261.7   0.043262590   0.37275   0.15620  -0.56319   0.17655
  43   38713.5    258.3   0.089969333   0.76508   0.84071  -0.09676   0.22118
  44   39020.3    256.3   0.053006682   0.44721   0.14333  -0.63437   0.15572
  45   39443.5    253.5   0.083084068   0.69346  -0.23664   0.67702  -0.42321
  46   39545.2    252.9   0.042796475   0.35628   0.03686  -0.59382   0.04799
  47   39865.2    250.8   0.023601536   0.19490  -0.33129   0.28389  -0.06752
  48   39946.4    250.3   0.003767639   0.03105   0.17158  -0.02880   0.02794
  49   40069.8    249.6   0.069473043   0.57079   0.35662  -0.46092   0.48079

FINAL SINGLE POINT ENERGY     -6017.759491383035

DIPOLE MOMENT
-------------
                                X             Y             Z
Electronic contribution:     22.67972      -0.57118       0.16256
Nuclear contribution   :    -25.71206       0.71786      -1.59091
                        -----------------------------------------
Total Dipole Moment    :     -3.03234       0.14668      -1.42835
                        -----------------------------------------
Magnitude (a.u.)       :      3.35511
Magnitude (Debye)      :      8.52801

Rotational constants in cm-1:     0.000828     0.000245     0.000194
Rotational constants in MHz :    24.829713     7.339123     5.813025

                             ****ORCA TERMINATED NORMALLY****
TOTAL RUN TIME: 0 days 0 hours 8 minutes 47 seconds 398 msec
