                         Program Version 4.2.0 -  RELEASE  -
|  1> # ORCA input file
|  2> # SCF done       -181.922724198239          0.000586758487
|  3> ! CAM-B3LYP def2-SVP def2/J RIJCOSX Grid4 TightSCF
|  4> %maxcore 5000
|  5> %tddft
|  6>     Mode sTDDFT
|  7>     Ethresh 5.0
|  8>     maxcore 5000
|  9> end
| 10>
| 11> %pal
| 12>   nprocs 6
| 13>   end
| 14> * xyz 0 1
| 15>    C       -6.11809         3.29106        -1.14518
| 16>    C       -7.28016         3.92606        -1.48311
| 17>    F       -7.26436         5.22185        -1.82754
| 18>    C       -8.50557         3.23146        -1.47477
| 19>    F       -9.63056         3.87955        -1.81151
| 20>    C       -8.55244         1.91026        -1.12790
| 21>    C       -7.37219         1.22834        -0.77495
| 22>    C       -6.13201         1.92907        -0.78326
| 23>    C       -4.93329         1.26495        -0.43359
| 24>    C       -4.97356        -0.05992        -0.08696
| 25>    C       -6.21561        -0.74912        -0.08270
| 26>    C       -7.38909        -0.13733        -0.41349
| 27>    C       -5.99801        -2.15498         0.31724
| 28>    O       -6.86958        -2.99422         0.42080
| 29>    C       -4.54511        -2.28767         0.54552
| 30>    C       -3.92591        -0.99810         0.31206
| 31>    C       -2.59782        -0.66519         0.44247
| 32>    C       -1.55308        -1.52277         0.83907
| 33>    N       -0.64266        -2.15164         1.15372
| 34>    C       -2.07805         0.62240         0.19723
| 35>    N       -1.58233         1.64242         0.01542
| 36>    C       -3.84102        -3.41538         0.90030
| 37>    C       -4.24742        -4.72782         1.17522
| 38>    N       -3.29171        -5.66472         1.50239
| 39>    C       -3.87480        -6.86434         1.73950
| 40>    C       -5.26297        -6.70499         1.55907
| 41>    C       -5.48995        -5.39260         1.21261
| 42>    C       -3.21844        -8.02495         2.09307
| 43>    C       -2.73053        -9.09788         2.40875
| 44>    C       -2.31830       -10.35964         2.76709
| 45>    C       -3.24327       -11.35842         2.95581
| 46>    C       -3.02607       -12.70908         3.31994
| 47>    C       -4.16884       -13.44453         3.42714
| 48>    C       -5.34761       -12.71527         3.15447
| 49>    S       -4.95987       -11.05576         2.75348
| 50>    C       -6.66030       -13.14811         3.17298
| 51>    C       -7.17253       -14.43106         3.46434
| 52>    C       -8.53039       -14.51013         3.38849
| 53>    C       -9.17324       -13.29610         3.03407
| 54>    S       -7.96581       -12.04658         2.80020
| 55>    C      -10.52728       -13.11765         2.89479
| 56>    C      -11.20563       -11.93520         2.54990
| 57>    N      -12.56114       -11.89953         2.45014
| 58>    C      -12.97341       -10.64679         2.10648
| 59>    C      -11.82518        -9.84019         1.97919
| 60>    C      -10.73568       -10.63353         2.25351
| 61>    C      -14.29659       -10.31807         1.94011
| 62>    C      -15.50514       -10.16387         1.82699
| 63>    C      -16.80220        -9.77556         1.65062
| 64>    C      -17.99057       -10.45204         1.78040
| 65>    C      -19.21959        -9.66421         1.51620
| 66>    O      -19.26798        -8.49859         1.18470
| 67>    C      -20.34727       -10.58388         1.74371
| 68>    C      -21.68477       -10.33628         1.64497
| 69>    C      -22.59763       -11.37813         1.92343
| 70>    C      -22.09534       -12.65640         2.29989
| 71>    C      -23.00675       -13.69373         2.58123
| 72>    C      -24.35238       -13.47110         2.49250
| 73>    C      -24.84724       -12.20619         2.11929
| 74>    C      -23.98885       -11.17966         1.83992
| 75>    F      -26.17226       -12.01637         2.04039
| 76>    F      -25.21744       -14.45939         2.76145
| 77>    C      -20.70151       -12.87970         2.39112
| 78>    C      -19.83236       -11.85702         2.11557
| 79>    C      -18.36587       -11.79544         2.13293
| 80>    C      -17.56422       -12.87386         2.43374
| 81>    C      -16.16535       -12.93087         2.48543
| 82>    N      -15.03847       -13.14467         2.57671
| 83>    C      -18.05063       -14.16114         2.74983
| 84>    N      -18.35297       -15.23730         3.01494
| 85>    H       -5.18823         3.83798        -1.15670
| 86>    H       -9.49857         1.39199        -1.12622
| 87>    H       -4.01386         1.82662        -0.45195
| 88>    H       -8.31702        -0.68865        -0.40041
| 89>    H       -2.76903        -3.28382         0.98664
| 90>    H       -2.30265        -5.47886         1.56170
| 91>    H       -5.98760        -7.48590         1.67767
| 92>    H       -6.43424        -4.93440         1.00283
| 93>    H       -1.26577       -10.56277         2.90005
| 94>    H       -2.03554       -13.09288         3.49043
| 95>    H       -4.19496       -14.48590         3.69427
| 96>    H       -6.53095       -15.25513         3.71978
| 97>    H       -9.09699       -15.40506         3.57659
| 98>    H      -11.14792       -13.98732         3.07217
| 99>    H      -13.21997       -12.66044         2.59346
|100>    H      -11.82431        -8.80066         1.71756
|101>    H       -9.71102       -10.32259         2.24480
|102>    H      -16.93153        -8.73360         1.35827
|103>    H      -22.04111        -9.35812         1.35988
|104>    H      -22.64497       -14.66879         2.86817
|105>    H      -24.38264       -10.21640         1.55570
|106>    H      -20.36348       -13.86077         2.68056
|107> *
|108>
|109>                          ****END OF INPUT****

CARTESIAN COORDINATES (ANGSTROEM)
---------------------------------
  C     -6.118090    3.291060   -1.145180
  C     -7.280160    3.926060   -1.483110
  F     -7.264360    5.221850   -1.827540
  C     -8.505570    3.231460   -1.474770
  F     -9.630560    3.879550   -1.811510
  C     -8.552440    1.910260   -1.127900
  C     -7.372190    1.228340   -0.774950
  C     -6.132010    1.929070   -0.783260
  C     -4.933290    1.264950   -0.433590
  C     -4.973560   -0.059920   -0.086960
  C     -6.215610   -0.749120   -0.082700
  C     -7.389090   -0.137330   -0.413490
  C     -5.998010   -2.154980    0.317240
  O     -6.869580   -2.994220    0.420800
  C     -4.545110   -2.287670    0.545520
  C     -3.925910   -0.998100    0.312060
  C     -2.597820   -0.665190    0.442470
  C     -1.553080   -1.522770    0.839070
  N     -0.642660   -2.151640    1.153720
  C     -2.078050    0.622400    0.197230
  N     -1.582330    1.642420    0.015420
  C     -3.841020   -3.415380    0.900300
  C     -4.247420   -4.727820    1.175220
  N     -3.291710   -5.664720    1.502390
  C     -3.874800   -6.864340    1.739500
  C     -5.262970   -6.704990    1.559070
  C     -5.489950   -5.392600    1.212610
  C     -3.218440   -8.024950    2.093070
  C     -2.730530   -9.097880    2.408750
  C     -2.318300  -10.359640    2.767090
  C     -3.243270  -11.358420    2.955810
  C     -3.026070  -12.709080    3.319940
  C     -4.168840  -13.444530    3.427140
  C     -5.347610  -12.715270    3.154470
  S     -4.959870  -11.055760    2.753480
  C     -6.660300  -13.148110    3.172980
  C     -7.172530  -14.431060    3.464340
  C     -8.530390  -14.510130    3.388490
  C     -9.173240  -13.296100    3.034070
  S     -7.965810  -12.046580    2.800200
  C    -10.527280  -13.117650    2.894790
  C    -11.205630  -11.935200    2.549900
  N    -12.561140  -11.899530    2.450140
  C    -12.973410  -10.646790    2.106480
  C    -11.825180   -9.840190    1.979190
  C    -10.735680  -10.633530    2.253510
  C    -14.296590  -10.318070    1.940110
  C    -15.505140  -10.163870    1.826990
  C    -16.802200   -9.775560    1.650620
  C    -17.990570  -10.452040    1.780400
  C    -19.219590   -9.664210    1.516200
  O    -19.267980   -8.498590    1.184700
  C    -20.347270  -10.583880    1.743710
  C    -21.684770  -10.336280    1.644970
  C    -22.597630  -11.378130    1.923430
  C    -22.095340  -12.656400    2.299890
  C    -23.006750  -13.693730    2.581230
  C    -24.352380  -13.471100    2.492500
  C    -24.847240  -12.206190    2.119290
  C    -23.988850  -11.179660    1.839920
  F    -26.172260  -12.016370    2.040390
  F    -25.217440  -14.459390    2.761450
  C    -20.701510  -12.879700    2.391120
  C    -19.832360  -11.857020    2.115570
  C    -18.365870  -11.795440    2.132930
  C    -17.564220  -12.873860    2.433740
  C    -16.165350  -12.930870    2.485430
  N    -15.038470  -13.144670    2.576710
  C    -18.050630  -14.161140    2.749830
  N    -18.352970  -15.237300    3.014940
  H     -5.188230    3.837980   -1.156700
  H     -9.498570    1.391990   -1.126220
  H     -4.013860    1.826620   -0.451950
  H     -8.317020   -0.688650   -0.400410
  H     -2.769030   -3.283820    0.986640
  H     -2.302650   -5.478860    1.561700
  H     -5.987600   -7.485900    1.677670
  H     -6.434240   -4.934400    1.002830
  H     -1.265770  -10.562770    2.900050
  H     -2.035540  -13.092880    3.490430
  H     -4.194960  -14.485900    3.694270
  H     -6.530950  -15.255130    3.719780
  H     -9.096990  -15.405060    3.576590
  H    -11.147920  -13.987320    3.072170
  H    -13.219970  -12.660440    2.593460
  H    -11.824310   -8.800660    1.717560
  H     -9.711020  -10.322590    2.244800
  H    -16.931530   -8.733600    1.358270
  H    -22.041110   -9.358120    1.359880
  H    -22.644970  -14.668790    2.868170
  H    -24.382640  -10.216400    1.555700
  H    -20.363480  -13.860770    2.680560

 Total Charge           Charge          ....    0
 Multiplicity           Mult            ....    1
 Number of Electrons    NEL             ....  484
 Basis Dimension        Dim             .... 1098

ORBITAL ENERGIES
----------------

  NO   OCC          E(Eh)            E(eV)
   0   2.0000     -88.960803     -2420.7465
   1   2.0000     -88.957438     -2420.6550
   2   2.0000     -24.797751      -674.7811
   3   2.0000     -24.796775      -674.7546
   4   2.0000     -24.793124      -674.6552
   5   2.0000     -24.791948      -674.6232
   6   2.0000     -19.213344      -522.8217
   7   2.0000     -19.210659      -522.7486
   8   2.0000     -14.481035      -394.0490
   9   2.0000     -14.465515      -393.6267
  10   2.0000     -14.427860      -392.6020
  11   2.0000     -14.416929      -392.3046
  12   2.0000     -14.413700      -392.2167
  13   2.0000     -14.407264      -392.0416
  14   2.0000     -10.381029      -282.4822
  15   2.0000     -10.380058      -282.4557
  16   2.0000     -10.375824      -282.3405
  17   2.0000     -10.374841      -282.3138
  18   2.0000     -10.363020      -281.9921
  19   2.0000     -10.361931      -281.9625
  20   2.0000     -10.346831      -281.5516
  21   2.0000     -10.343423      -281.4588
  22   2.0000     -10.341380      -281.4033
  23   2.0000     -10.337478      -281.2971
  24   2.0000     -10.335700      -281.2487
  25   2.0000     -10.332869      -281.1717
  26   2.0000     -10.328886      -281.0633
  27   2.0000     -10.327418      -281.0233
  28   2.0000     -10.327325      -281.0208
  29   2.0000     -10.326663      -281.0028
  30   2.0000     -10.326341      -280.9940
  31   2.0000     -10.324938      -280.9558
  32   2.0000     -10.323873      -280.9269
  33   2.0000     -10.321074      -280.8507
  34   2.0000     -10.319433      -280.8060
  35   2.0000     -10.317938      -280.7654
  36   2.0000     -10.317225      -280.7460
  37   2.0000     -10.311380      -280.5869
  38   2.0000     -10.309673      -280.5405
  39   2.0000     -10.309409      -280.5333
  40   2.0000     -10.307668      -280.4859
  41   2.0000     -10.304420      -280.3975
  42   2.0000     -10.304315      -280.3947
  43   2.0000     -10.304020      -280.3867
  44   2.0000     -10.303608      -280.3754
  45   2.0000     -10.301856      -280.3277
  46   2.0000     -10.301829      -280.3270
  47   2.0000     -10.301639      -280.3218
  48   2.0000     -10.301219      -280.3104
  49   2.0000     -10.300817      -280.2995
  50   2.0000     -10.300649      -280.2949
  51   2.0000     -10.300382      -280.2876
  52   2.0000     -10.300067      -280.2791
  53   2.0000     -10.299899      -280.2745
  54   2.0000     -10.298439      -280.2348
  55   2.0000     -10.297682      -280.2142
  56   2.0000     -10.295485      -280.1544
  57   2.0000     -10.295260      -280.1483
  58   2.0000     -10.294785      -280.1353
  59   2.0000     -10.294722      -280.1336
  60   2.0000     -10.293960      -280.1129
  61   2.0000     -10.291947      -280.0581
  62   2.0000     -10.291711      -280.0517
  63   2.0000     -10.291387      -280.0429
  64   2.0000     -10.287390      -279.9341
  65   2.0000     -10.285186      -279.8741
  66   2.0000     -10.283916      -279.8396
  67   2.0000     -10.276557      -279.6393
  68   2.0000     -10.275467      -279.6097
  69   2.0000     -10.274444      -279.5818
  70   2.0000      -8.056952      -219.2408
  71   2.0000      -8.053647      -219.1509
  72   2.0000      -6.026696      -163.9947
  73   2.0000      -6.023433      -163.9060
  74   2.0000      -6.022610      -163.8836
  75   2.0000      -6.019342      -163.7946
  76   2.0000      -6.017866      -163.7545
  77   2.0000      -6.014478      -163.6623
  78   2.0000      -1.319781       -35.9131
  79   2.0000      -1.315006       -35.7831
  80   2.0000      -1.304921       -35.5087
  81   2.0000      -1.300181       -35.3797
  82   2.0000      -1.128005       -30.6946
  83   2.0000      -1.125367       -30.6228
  84   2.0000      -1.099295       -29.9133
  85   2.0000      -1.093091       -29.7445
  86   2.0000      -1.025444       -27.9038
  87   2.0000      -1.014195       -27.5977
  88   2.0000      -1.010562       -27.4988
  89   2.0000      -1.007696       -27.4208
  90   2.0000      -0.999162       -27.1886
  91   2.0000      -0.998991       -27.1839
  92   2.0000      -0.988906       -26.9095
  93   2.0000      -0.988572       -26.9004
  94   2.0000      -0.981448       -26.7066
  95   2.0000      -0.974932       -26.5292
  96   2.0000      -0.933585       -25.4042
  97   2.0000      -0.927637       -25.2423
  98   2.0000      -0.920954       -25.0604
  99   2.0000      -0.915361       -24.9082
 100   2.0000      -0.907675       -24.6991
 101   2.0000      -0.900867       -24.5138
 102   2.0000      -0.893474       -24.3127
 103   2.0000      -0.890745       -24.2384
 104   2.0000      -0.888469       -24.1765
 105   2.0000      -0.887633       -24.1537
 106   2.0000      -0.884802       -24.0767
 107   2.0000      -0.882258       -24.0075
 108   2.0000      -0.871432       -23.7129
 109   2.0000      -0.858723       -23.3670
 110   2.0000      -0.855555       -23.2808
 111   2.0000      -0.840474       -22.8705
 112   2.0000      -0.836272       -22.7561
 113   2.0000      -0.834279       -22.7019
 114   2.0000      -0.832990       -22.6668
 115   2.0000      -0.821044       -22.3417
 116   2.0000      -0.806702       -21.9515
 117   2.0000      -0.791352       -21.5338
 118   2.0000      -0.776867       -21.1396
 119   2.0000      -0.769230       -20.9318
 120   2.0000      -0.761251       -20.7147
 121   2.0000      -0.752981       -20.4897
 122   2.0000      -0.739747       -20.1295
 123   2.0000      -0.733940       -19.9715
 124   2.0000      -0.718452       -19.5501
 125   2.0000      -0.716874       -19.5071
 126   2.0000      -0.712536       -19.3891
 127   2.0000      -0.705426       -19.1956
 128   2.0000      -0.701930       -19.1005
 129   2.0000      -0.698943       -19.0192
 130   2.0000      -0.694894       -18.9090
 131   2.0000      -0.688768       -18.7423
 132   2.0000      -0.682860       -18.5816
 133   2.0000      -0.682179       -18.5630
 134   2.0000      -0.680496       -18.5172
 135   2.0000      -0.675738       -18.3878
 136   2.0000      -0.662543       -18.0287
 137   2.0000      -0.659364       -17.9422
 138   2.0000      -0.652029       -17.7426
 139   2.0000      -0.650488       -17.7007
 140   2.0000      -0.647172       -17.6105
 141   2.0000      -0.642053       -17.4711
 142   2.0000      -0.636325       -17.3153
 143   2.0000      -0.632240       -17.2041
 144   2.0000      -0.627897       -17.0859
 145   2.0000      -0.623301       -16.9609
 146   2.0000      -0.614984       -16.7346
 147   2.0000      -0.607275       -16.5248
 148   2.0000      -0.606124       -16.4935
 149   2.0000      -0.603267       -16.4157
 150   2.0000      -0.587144       -15.9770
 151   2.0000      -0.586056       -15.9474
 152   2.0000      -0.584614       -15.9081
 153   2.0000      -0.582450       -15.8493
 154   2.0000      -0.579781       -15.7766
 155   2.0000      -0.578497       -15.7417
 156   2.0000      -0.574252       -15.6262
 157   2.0000      -0.568428       -15.4677
 158   2.0000      -0.565612       -15.3911
 159   2.0000      -0.554415       -15.0864
 160   2.0000      -0.549940       -14.9646
 161   2.0000      -0.548783       -14.9331
 162   2.0000      -0.546222       -14.8635
 163   2.0000      -0.544724       -14.8227
 164   2.0000      -0.544052       -14.8044
 165   2.0000      -0.541513       -14.7353
 166   2.0000      -0.540111       -14.6972
 167   2.0000      -0.539484       -14.6801
 168   2.0000      -0.539431       -14.6787
 169   2.0000      -0.537311       -14.6210
 170   2.0000      -0.532570       -14.4920
 171   2.0000      -0.530937       -14.4475
 172   2.0000      -0.528005       -14.3677
 173   2.0000      -0.526382       -14.3236
 174   2.0000      -0.526205       -14.3188
 175   2.0000      -0.525102       -14.2887
 176   2.0000      -0.520890       -14.1741
 177   2.0000      -0.514520       -14.0008
 178   2.0000      -0.512327       -13.9411
 179   2.0000      -0.510806       -13.8998
 180   2.0000      -0.510515       -13.8918
 181   2.0000      -0.508953       -13.8493
 182   2.0000      -0.508676       -13.8418
 183   2.0000      -0.502410       -13.6713
 184   2.0000      -0.502077       -13.6622
 185   2.0000      -0.500311       -13.6142
 186   2.0000      -0.496043       -13.4980
 187   2.0000      -0.492633       -13.4052
 188   2.0000      -0.492092       -13.3905
 189   2.0000      -0.491670       -13.3790
 190   2.0000      -0.488789       -13.3006
 191   2.0000      -0.485212       -13.2033
 192   2.0000      -0.481338       -13.0979
 193   2.0000      -0.478968       -13.0334
 194   2.0000      -0.474047       -12.8995
 195   2.0000      -0.472486       -12.8570
 196   2.0000      -0.468328       -12.7439
 197   2.0000      -0.463984       -12.6256
 198   2.0000      -0.463353       -12.6085
 199   2.0000      -0.462863       -12.5951
 200   2.0000      -0.456097       -12.4110
 201   2.0000      -0.453917       -12.3517
 202   2.0000      -0.446613       -12.1530
 203   2.0000      -0.446515       -12.1503
 204   2.0000      -0.445886       -12.1332
 205   2.0000      -0.444901       -12.1064
 206   2.0000      -0.441653       -12.0180
 207   2.0000      -0.440622       -11.9899
 208   2.0000      -0.438084       -11.9209
 209   2.0000      -0.437486       -11.9046
 210   2.0000      -0.436717       -11.8837
 211   2.0000      -0.435311       -11.8454
 212   2.0000      -0.426219       -11.5980
 213   2.0000      -0.425838       -11.5877
 214   2.0000      -0.421544       -11.4708
 215   2.0000      -0.417732       -11.3671
 216   2.0000      -0.414210       -11.2712
 217   2.0000      -0.412828       -11.2336
 218   2.0000      -0.408530       -11.1167
 219   2.0000      -0.401340       -10.9210
 220   2.0000      -0.397107       -10.8058
 221   2.0000      -0.388815       -10.5802
 222   2.0000      -0.381696       -10.3865
 223   2.0000      -0.378342       -10.2952
 224   2.0000      -0.361916        -9.8482
 225   2.0000      -0.360153        -9.8003
 226   2.0000      -0.358215        -9.7475
 227   2.0000      -0.353291        -9.6135
 228   2.0000      -0.347259        -9.4494
 229   2.0000      -0.345827        -9.4104
 230   2.0000      -0.340199        -9.2573
 231   2.0000      -0.336502        -9.1567
 232   2.0000      -0.336148        -9.1470
 233   2.0000      -0.332471        -9.0470
 234   2.0000      -0.322325        -8.7709
 235   2.0000      -0.317038        -8.6270
 236   2.0000      -0.311560        -8.4780
 237   2.0000      -0.301747        -8.2110
 238   2.0000      -0.296428        -8.0662
 239   2.0000      -0.284571        -7.7436
 240   2.0000      -0.260857        -7.0983
 241   2.0000      -0.221200        -6.0191
 242   0.0000      -0.112160        -3.0520
 243   0.0000      -0.093596        -2.5469
 244   0.0000      -0.075100        -2.0436
 245   0.0000      -0.058126        -1.5817
 246   0.0000      -0.052077        -1.4171

MULLIKEN ATOMIC CHARGES
-----------------------
   0 C :   -0.111651
   1 C :    0.244629
   2 F :   -0.173622
   3 C :    0.239010
   4 F :   -0.174440
   5 C :   -0.110192
   6 C :    0.120990
   7 C :    0.115158
   8 C :   -0.088615
   9 C :    0.049097
  10 C :   -0.001035
  11 C :   -0.090620
  12 C :    0.154612
  13 O :   -0.157810
  14 C :   -0.105340
  15 C :    0.331766
  16 C :   -0.379337
  17 C :   -0.173147
  18 N :    0.128340
  19 C :   -0.178988
  20 N :    0.138017
  21 C :   -0.001634
  22 C :    0.082084
  23 N :   -0.039143
  24 C :    0.034014
  25 C :   -0.004514
  26 C :   -0.007957
  27 C :    0.093569
  28 C :   -0.074094
  29 C :   -0.091682
  30 C :   -0.025037
  31 C :    0.036249
  32 C :    0.037458
  33 C :   -0.058432
  34 S :    0.106023
  35 C :   -0.033708
  36 C :    0.032905
  37 C :    0.038366
  38 C :   -0.032477
  39 S :    0.067350
  40 C :   -0.006356
  41 C :    0.089425
  42 N :   -0.029095
  43 C :   -0.036731
  44 C :    0.033307
  45 C :   -0.045262
  46 C :    0.162624
  47 C :   -0.054055
  48 C :   -0.064595
  49 C :   -0.140566
  50 C :    0.130516
  51 O :   -0.148876
  52 C :    0.006685
  53 C :   -0.080438
  54 C :    0.117130
  55 C :    0.113349
  56 C :   -0.108021
  57 C :    0.242417
  58 C :    0.237773
  59 C :   -0.104857
  60 F :   -0.173437
  61 F :   -0.172247
  62 C :   -0.086103
  63 C :    0.028224
  64 C :    0.371315
  65 C :   -0.384866
  66 C :   -0.129265
  67 N :    0.117938
  68 C :   -0.202898
  69 N :    0.146622
  70 H :    0.005398
  71 H :   -0.002680
  72 H :   -0.008020
  73 H :   -0.014437
  74 H :   -0.025915
  75 H :    0.142077
  76 H :   -0.014292
  77 H :    0.012930
  78 H :    0.017589
  79 H :   -0.005165
  80 H :   -0.006874
  81 H :   -0.008419
  82 H :   -0.004283
  83 H :   -0.007208
  84 H :    0.123444
  85 H :   -0.013034
  86 H :    0.002037
  87 H :    0.054807
  88 H :   -0.011111
  89 H :    0.005998
  90 H :   -0.000713
  91 H :   -0.007948
Sum of atomic charges:   -0.0000000

LOEWDIN ATOMIC CHARGES
----------------------
   0 C :   -0.029467
   1 C :    0.064826
   2 F :   -0.051610
   3 C :    0.066516
   4 F :   -0.052037
   5 C :   -0.034624
   6 C :   -0.009135
   7 C :   -0.008028
   8 C :    0.015695
   9 C :   -0.022793
  10 C :   -0.049646
  11 C :    0.025148
  12 C :    0.084236
  13 O :   -0.148921
  14 C :   -0.110319
  15 C :    0.078908
  16 C :   -0.155625
  17 C :   -0.019186
  18 N :   -0.070192
  19 C :   -0.017683
  20 N :   -0.063429
  21 C :    0.053004
  22 C :   -0.022842
  23 N :    0.110374
  24 C :    0.007853
  25 C :   -0.041151
  26 C :   -0.003914
  27 C :   -0.061128
  28 C :   -0.016311
  29 C :   -0.088713
  30 C :   -0.117490
  31 C :   -0.036680
  32 C :   -0.020105
  33 C :   -0.180273
  34 S :    0.389792
  35 C :   -0.167974
  36 C :   -0.033184
  37 C :   -0.023602
  38 C :   -0.139641
  39 S :    0.393089
  40 C :   -0.059715
  41 C :    0.009338
  42 N :    0.119465
  43 C :   -0.038392
  44 C :   -0.009833
  45 C :   -0.064931
  46 C :    0.021885
  47 C :   -0.054671
  48 C :    0.056373
  49 C :   -0.105223
  50 C :    0.079857
  51 O :   -0.149408
  52 C :   -0.052057
  53 C :    0.029196
  54 C :   -0.008749
  55 C :   -0.007229
  56 C :   -0.029022
  57 C :    0.066055
  58 C :    0.067999
  59 C :   -0.033256
  60 F :   -0.050544
  61 F :   -0.050460
  62 C :    0.015329
  63 C :   -0.021068
  64 C :    0.079169
  65 C :   -0.152275
  66 C :    0.034056
  67 N :   -0.073043
  68 C :   -0.017735
  69 N :   -0.060046
  70 H :    0.047089
  71 H :    0.043922
  72 H :    0.039372
  73 H :    0.038433
  74 H :    0.042280
  75 H :    0.101739
  76 H :    0.032646
  77 H :    0.032848
  78 H :    0.046427
  79 H :    0.036259
  80 H :    0.034425
  81 H :    0.034303
  82 H :    0.036724
  83 H :    0.040989
  84 H :    0.067914
  85 H :    0.034802
  86 H :    0.017323
  87 H :    0.066042
  88 H :    0.040397
  89 H :    0.047265
  90 H :    0.044800
  91 H :    0.039195

  Mayer bond orders larger than 0.100000
B(  0-C ,  1-C ) :   1.4383 B(  0-C ,  5-C ) :   0.1094 B(  0-C ,  7-C ) :   1.1868
B(  0-C , 70-H ) :   1.0081 B(  1-C ,  2-F ) :   1.1326 B(  1-C ,  3-C ) :   1.1938
B(  3-C ,  4-F ) :   1.1311 B(  3-C ,  5-C ) :   1.4389 B(  5-C ,  6-C ) :   1.1929
B(  5-C , 71-H ) :   1.0084 B(  6-C ,  7-C ) :   1.2623 B(  6-C , 11-C ) :   1.1781
B(  7-C ,  8-C ) :   1.2128 B(  8-C ,  9-C ) :   1.4493 B(  8-C , 72-H ) :   0.9898
B(  9-C , 10-C ) :   1.2247 B(  9-C , 15-C ) :   0.9735 B( 10-C , 11-C ) :   1.4748
B( 10-C , 12-C ) :   0.9441 B( 11-C , 73-H ) :   1.0177 B( 12-C , 13-O ) :   2.1816
B( 12-C , 14-C ) :   0.9468 B( 14-C , 15-C ) :   1.1126 B( 14-C , 21-C ) :   1.5153
B( 15-C , 16-C ) :   1.5877 B( 16-C , 17-C ) :   1.1494 B( 16-C , 19-C ) :   1.1531
B( 17-C , 18-N ) :   2.9466 B( 19-C , 20-N ) :   2.9537 B( 21-C , 22-C ) :   1.2118
B( 21-C , 74-H ) :   0.9114 B( 22-C , 23-N ) :   1.1502 B( 22-C , 24-C ) :   0.1059
B( 22-C , 26-C ) :   1.3338 B( 23-N , 24-C ) :   1.2922 B( 23-N , 75-H ) :   0.9309
B( 24-C , 25-C ) :   1.3417 B( 24-C , 27-C ) :   0.8634 B( 25-C , 26-C ) :   1.3801
B( 25-C , 76-H ) :   1.0148 B( 26-C , 77-H ) :   0.9960 B( 27-C , 28-C ) :   2.1921
B( 28-C , 29-C ) :   1.0795 B( 29-C , 30-C ) :   1.5791 B( 29-C , 78-H ) :   0.9668
B( 30-C , 31-C ) :   1.1530 B( 30-C , 34-S ) :   1.0578 B( 31-C , 32-C ) :   1.5904
B( 31-C , 79-H ) :   0.9969 B( 32-C , 33-C ) :   1.1939 B( 32-C , 80-H ) :   0.9930
B( 33-C , 34-S ) :   1.0432 B( 33-C , 35-C ) :   1.5038 B( 35-C , 36-C ) :   1.1900
B( 35-C , 39-S ) :   1.0499 B( 36-C , 37-C ) :   1.5881 B( 36-C , 81-H ) :   0.9932
B( 37-C , 38-C ) :   1.1465 B( 37-C , 82-H ) :   0.9987 B( 38-C , 39-S ) :   1.0421
B( 38-C , 40-C ) :   1.5839 B( 40-C , 41-C ) :   1.1327 B( 40-C , 83-H ) :   0.9611
B( 41-C , 42-N ) :   1.2586 B( 41-C , 45-C ) :   1.2971 B( 42-N , 43-C ) :   1.2510
B( 42-N , 84-H ) :   0.8793 B( 43-C , 44-C ) :   1.3095 B( 43-C , 46-C ) :   0.9281
B( 44-C , 45-C ) :   1.4310 B( 44-C , 85-H ) :   1.0106 B( 45-C , 86-H ) :   0.9905
B( 46-C , 47-C ) :   1.9552 B( 47-C , 48-C ) :   1.0109 B( 48-C , 49-C ) :   1.5592
B( 48-C , 87-H ) :   0.9399 B( 49-C , 50-C ) :   0.9582 B( 49-C , 64-C ) :   1.0692
B( 50-C , 51-O ) :   2.2475 B( 50-C , 52-C ) :   0.9247 B( 52-C , 53-C ) :   1.4828
B( 52-C , 63-C ) :   1.2169 B( 53-C , 54-C ) :   1.1839 B( 53-C , 88-H ) :   1.0164
B( 54-C , 55-C ) :   1.2585 B( 54-C , 59-C ) :   1.1928 B( 55-C , 56-C ) :   1.1915
B( 55-C , 62-C ) :   1.2155 B( 56-C , 57-C ) :   1.4392 B( 56-C , 59-C ) :   0.1089
B( 56-C , 89-H ) :   1.0065 B( 57-C , 58-C ) :   1.1937 B( 57-C , 61-F ) :   1.1342
B( 58-C , 59-C ) :   1.4411 B( 58-C , 60-F ) :   1.1318 B( 59-C , 90-H ) :   1.0071
B( 62-C , 63-C ) :   1.4552 B( 62-C , 91-H ) :   0.9852 B( 63-C , 64-C ) :   0.9931
B( 64-C , 65-C ) :   1.5667 B( 65-C , 66-C ) :   1.1999 B( 65-C , 68-C ) :   1.1396
B( 66-C , 67-N ) :   2.8926 B( 67-N , 84-H ) :   0.1373 B( 68-C , 69-N ) :   2.9586

-----------------------------------------------------------------------------
         ABSORPTION SPECTRUM VIA TRANSITION ELECTRIC DIPOLE MOMENTS
-----------------------------------------------------------------------------
State   Energy  Wavelength   fosc         T2         TX        TY        TZ
        (cm-1)    (nm)                  (au**2)     (au)      (au)      (au)
-----------------------------------------------------------------------------
   0   10895.2    917.8   1.608564631  48.60463   6.14482   3.26171  -0.45506
   1   15798.2    633.0   0.524900108  10.93814  -1.42368   2.87991  -0.78577
   2   19460.9    513.9   0.433444788   7.33242   1.82592  -1.91503   0.57542
   3   20227.4    494.4   0.429572174   6.99151  -1.80454   1.84817  -0.56516
   4   23337.1    428.5   0.418180981   5.89921  -0.21468  -2.35270   0.56383
   5   24253.8    412.3   0.273760506   3.71593   1.45449  -1.19106   0.42635
   6   24952.2    400.8   0.063778790   0.84148   0.56596  -0.67653   0.25193
   7   26122.7    382.8   0.042516029   0.53581   0.69026   0.24122  -0.03408
   8   27015.6    370.2   0.215929169   2.63131   1.48860  -0.60429   0.22413
   9   27266.6    366.7   0.056715822   0.68478   0.39876  -0.66870   0.28038
  10   28123.2    355.6   0.001234258   0.01445   0.08496  -0.06939   0.04914
  11   28245.6    354.0   0.234616294   2.73453  -0.84799   1.34095  -0.46616
  12   28847.2    346.7   0.046530463   0.53102  -0.72090   0.10138  -0.03233
  13   28867.8    346.4   0.004175525   0.04762  -0.21759  -0.00894   0.01386
  14   29374.4    340.4   0.056592195   0.63425  -0.40173   0.66779  -0.16409
  15   29613.8    337.7   0.161210346   1.79215  -0.80563   1.01269  -0.34288
  16   30420.7    328.7   0.038717267   0.41900   0.64446   0.01692   0.05819
  17   31084.0    321.7   0.002922240   0.03095   0.16637  -0.04096   0.03992
  18   31817.4    314.3   0.000421199   0.00436  -0.03664  -0.04739  -0.02775
  19   31864.5    313.8   0.050352605   0.52022  -0.59336   0.33171  -0.24108
  20   32495.0    307.7   0.013463100   0.13640  -0.10304   0.31812  -0.15677
  21   32663.3    306.2   0.324182437   3.26742  -1.62549   0.74854  -0.25476
  22   32796.0    304.9   0.008071435   0.08102  -0.28027  -0.00781  -0.04912
  23   33078.5    302.3   0.006368604   0.06338  -0.14167   0.18669  -0.09199
  24   33130.6    301.8   0.215644253   2.14281   0.75841  -1.18185   0.41334
  25   33579.2    297.8   0.316397968   3.10198  -1.72367   0.25329  -0.25840
  26   33769.7    296.1   0.059999334   0.58492  -0.50373  -0.55522   0.15135
  27   34001.5    294.1   0.520460929   5.03924   2.14050  -0.62824   0.25063
  28   34358.0    291.1   0.083914064   0.80405  -0.76838  -0.43563   0.15447
  29   34495.0    289.9   0.000407457   0.00389  -0.01887   0.05658  -0.01819
  30   34725.5    288.0   0.154950977   1.46900   1.04996  -0.51932   0.31129
  31   35220.1    283.9   0.059251020   0.55384  -0.52762  -0.50696   0.13582
  32   35490.3    281.8   0.093586691   0.86812   0.75781   0.53626  -0.07918
  33   36175.9    276.4   0.070913415   0.64533   0.75464   0.27115  -0.04826
  34   36205.7    276.2   0.001936224   0.01761  -0.11337  -0.04676  -0.05066
  35   36670.2    272.7   0.021474100   0.19279  -0.41267   0.13019  -0.07443
  36   36955.3    270.6   0.164697806   1.46719  -1.13675   0.31333  -0.27717
  37   37438.0    267.1   0.002070012   0.01820  -0.12877   0.04025  -0.00092
  38   37616.2    265.8   0.046987829   0.41123   0.56826  -0.27156   0.12071
  39   38261.5    261.4   0.047542265   0.40907   0.40618  -0.48182   0.10927
  40   38516.8    259.6   0.065548359   0.56026   0.38608  -0.60878   0.20144
  41   38987.8    256.5   0.053211622   0.44932   0.62765  -0.21449   0.09682
  42   39308.3    254.4   0.031982375   0.26786   0.21110   0.45652  -0.12199
  43   39467.7    253.4   0.207999668   1.73499   0.76958   1.05604  -0.16593
  44   39553.7    252.8   0.039554165   0.32922   0.51205  -0.23135   0.11619
  45   39696.5    251.9   0.003126659   0.02593   0.02027   0.15133  -0.05116
  46   39804.8    251.2   0.014681549   0.12143   0.34814  -0.01463   0.00280
  47   40132.6    249.2   0.066824808   0.54817   0.08168   0.71623  -0.16887

FINAL SINGLE POINT ENERGY     -3817.724100510512

DIPOLE MOMENT
-------------
                                X             Y             Z
Electronic contribution:    -40.00003      25.90712      -8.86796
Nuclear contribution   :     40.00546     -29.11090       9.55444
                        -----------------------------------------
Total Dipole Moment    :      0.00543      -3.20378       0.68648
                        -----------------------------------------
Magnitude (a.u.)       :      3.27650
Magnitude (Debye)      :      8.32821

Rotational constants in cm-1:     0.000816     0.000250     0.000192
Rotational constants in MHz :    24.456919     7.498256     5.741620

                             ****ORCA TERMINATED NORMALLY****
TOTAL RUN TIME: 0 days 0 hours 8 minutes 51 seconds 903 msec
