                         Program Version 4.2.0 -  RELEASE  -
|  1> # ORCA input file
|  2> # SCF done       -199.340216087416          0.000791054520
|  3> ! CAM-B3LYP def2-SVP def2/J RIJCOSX Grid4 TightSCF
|  4> %maxcore 5000
|  5> %tddft
|  6>     Mode sTDDFT
|  7>     Ethresh 5.0
|  8>     maxcore 5000
|  9> end
| 10>
| 11> %pal
| 12>   nprocs 6
| 13>   end
| 14> * xyz 0 1
| 15>    C        0.75570        -0.85009        -0.93956
| 16>    C        1.61720         0.23171        -0.85738
| 17>    C        2.06376         0.81782        -2.04346
| 18>    C        2.94865         1.92306        -1.98116
| 19>    N        3.66550         2.81355        -1.91909
| 20>    C        1.65416         0.33212        -3.30025
| 21>    C        2.12244         0.95205        -4.48379
| 22>    N        2.49343         1.43972        -5.45117
| 23>    C        0.79048        -0.76107        -3.37847
| 24>    C        0.35962        -1.33159        -2.19984
| 25>    C       -0.53995        -2.49552        -2.03202
| 26>    O       -1.02959        -3.13596        -2.93605
| 27>    C       -0.64832        -2.70591        -0.57222
| 28>    C        0.11490        -1.66440         0.09414
| 29>    C        0.19447        -1.41934         1.43997
| 30>    C        0.95392        -0.37422         2.01095
| 31>    N        1.55358         0.44961         2.53830
| 32>    C       -0.47478        -2.13518         2.45669
| 33>    N       -0.99144        -2.65106         3.34309
| 34>    C       -1.25392        -3.74637         0.08636
| 35>    C       -2.07002        -4.78981        -0.38034
| 36>    C       -2.66891        -5.04938        -1.61049
| 37>    C       -3.41956        -6.21307        -1.59262
| 38>    C       -3.40252        -6.86918        -0.33695
| 39>    S       -2.48024        -6.03399         0.81675
| 40>    C       -4.16297        -8.05520        -0.44100
| 41>    C       -4.66540        -8.15630        -1.75222
| 42>    C       -4.22791        -6.99642        -2.51415
| 43>    C       -4.52833        -6.70943        -3.81192
| 44>    C       -5.32468        -7.56824        -4.60159
| 45>    N       -5.96806        -8.26158        -5.24923
| 46>    C       -4.09043        -5.53410        -4.46221
| 47>    N       -3.76494        -4.58126        -5.00920
| 48>    C       -5.41581        -9.31055        -1.95790
| 49>    C       -5.49027       -10.09437        -0.81955
| 50>    S       -4.62225        -9.38124         0.53220
| 51>    C       -6.14173       -11.35966        -0.67656
| 52>    C       -6.14239       -12.06381         0.52245
| 53>    C       -6.72360       -13.31663         0.66129
| 54>    C       -7.35241       -13.97814        -0.38769
| 55>    C       -7.40507       -13.28181        -1.62589
| 56>    C       -6.80568       -11.98173        -1.76891
| 57>    N       -6.96112       -11.50354        -3.00285
| 58>    S       -7.77304       -12.56510        -3.88871
| 59>    N       -7.97067       -13.68855        -2.76182
| 60>    C       -7.88896       -15.29656        -0.24766
| 61>    C       -8.44827       -16.08677        -1.23637
| 62>    C       -8.81994       -17.34026        -0.75784
| 63>    C       -8.54928       -17.50798         0.61370
| 64>    S       -7.83595       -16.12080         1.30450
| 65>    C       -8.92911       -18.81666         0.99566
| 66>    C       -9.43938       -19.47935        -0.14250
| 67>    C       -9.38156       -18.57546        -1.27880
| 68>    C       -9.73274       -18.85817        -2.56578
| 69>    C      -10.22097       -20.13323        -2.92292
| 70>    N      -10.61340       -21.17797        -3.18615
| 71>    C       -9.62251       -17.91027        -3.60552
| 72>    N       -9.53837       -17.13976        -4.44980
| 73>    C       -9.78956       -20.79582         0.11111
| 74>    C       -9.55450       -21.15877         1.43225
| 75>    S       -8.92146       -19.81085         2.37464
| 76>    C       -9.78386       -22.39602         2.06309
| 77>    C       -9.95716       -23.62580         1.49479
| 78>    C      -10.60017       -24.69743         2.30072
| 79>    O      -10.82523       -24.67901         3.48720
| 80>    C      -10.94734       -25.75859         1.32728
| 81>    C      -11.66134       -26.91920         1.53643
| 82>    C      -11.89366       -27.75446         0.44204
| 83>    C      -11.41452       -27.40035        -0.83390
| 84>    C      -10.68431       -26.22683        -1.03285
| 85>    C      -10.44428       -25.41035         0.05839
| 86>    C       -9.69404       -24.15743         0.17556
| 87>    C       -8.72603       -23.75286        -0.70573
| 88>    C       -7.83503       -22.68812        -0.46553
| 89>    N       -7.06937       -21.84850        -0.30285
| 90>    C       -8.43374       -24.41781        -1.91659
| 91>    N       -8.15238       -24.92605        -2.90547
| 92>    C      -11.67955       -28.25129        -1.93596
| 93>    N      -11.89257       -28.93401        -2.82973
| 94>    C      -12.61935       -28.95800         0.61460
| 95>    N      -13.20926       -29.92626         0.77467
| 96>    H        1.95687         0.63256         0.08401
| 97>    H        0.46653        -1.15076        -4.33159
| 98>    H       -1.07114        -3.79979         1.15324
| 99>    H       -2.53646        -4.40943        -2.46410
|100>    H       -5.89122        -9.59835        -2.87742
|101>    H       -5.65832       -11.62290         1.38181
|102>    H       -6.67020       -13.80528         1.62332
|103>    H       -8.55927       -15.74058        -2.24753
|104>    H      -10.23531       -21.45963        -0.60706
|105>    H       -9.90121       -22.37435         3.14241
|106>    H      -12.03029       -27.17438         2.51818
|107>    H      -10.33901       -25.98039        -2.02451
|108> *
|109>
|110>                          ****END OF INPUT****

CARTESIAN COORDINATES (ANGSTROEM)
---------------------------------
  C      0.755700   -0.850090   -0.939560
  C      1.617200    0.231710   -0.857380
  C      2.063760    0.817820   -2.043460
  C      2.948650    1.923060   -1.981160
  N      3.665500    2.813550   -1.919090
  C      1.654160    0.332120   -3.300250
  C      2.122440    0.952050   -4.483790
  N      2.493430    1.439720   -5.451170
  C      0.790480   -0.761070   -3.378470
  C      0.359620   -1.331590   -2.199840
  C     -0.539950   -2.495520   -2.032020
  O     -1.029590   -3.135960   -2.936050
  C     -0.648320   -2.705910   -0.572220
  C      0.114900   -1.664400    0.094140
  C      0.194470   -1.419340    1.439970
  C      0.953920   -0.374220    2.010950
  N      1.553580    0.449610    2.538300
  C     -0.474780   -2.135180    2.456690
  N     -0.991440   -2.651060    3.343090
  C     -1.253920   -3.746370    0.086360
  C     -2.070020   -4.789810   -0.380340
  C     -2.668910   -5.049380   -1.610490
  C     -3.419560   -6.213070   -1.592620
  C     -3.402520   -6.869180   -0.336950
  S     -2.480240   -6.033990    0.816750
  C     -4.162970   -8.055200   -0.441000
  C     -4.665400   -8.156300   -1.752220
  C     -4.227910   -6.996420   -2.514150
  C     -4.528330   -6.709430   -3.811920
  C     -5.324680   -7.568240   -4.601590
  N     -5.968060   -8.261580   -5.249230
  C     -4.090430   -5.534100   -4.462210
  N     -3.764940   -4.581260   -5.009200
  C     -5.415810   -9.310550   -1.957900
  C     -5.490270  -10.094370   -0.819550
  S     -4.622250   -9.381240    0.532200
  C     -6.141730  -11.359660   -0.676560
  C     -6.142390  -12.063810    0.522450
  C     -6.723600  -13.316630    0.661290
  C     -7.352410  -13.978140   -0.387690
  C     -7.405070  -13.281810   -1.625890
  C     -6.805680  -11.981730   -1.768910
  N     -6.961120  -11.503540   -3.002850
  S     -7.773040  -12.565100   -3.888710
  N     -7.970670  -13.688550   -2.761820
  C     -7.888960  -15.296560   -0.247660
  C     -8.448270  -16.086770   -1.236370
  C     -8.819940  -17.340260   -0.757840
  C     -8.549280  -17.507980    0.613700
  S     -7.835950  -16.120800    1.304500
  C     -8.929110  -18.816660    0.995660
  C     -9.439380  -19.479350   -0.142500
  C     -9.381560  -18.575460   -1.278800
  C     -9.732740  -18.858170   -2.565780
  C    -10.220970  -20.133230   -2.922920
  N    -10.613400  -21.177970   -3.186150
  C     -9.622510  -17.910270   -3.605520
  N     -9.538370  -17.139760   -4.449800
  C     -9.789560  -20.795820    0.111110
  C     -9.554500  -21.158770    1.432250
  S     -8.921460  -19.810850    2.374640
  C     -9.783860  -22.396020    2.063090
  C     -9.957160  -23.625800    1.494790
  C    -10.600170  -24.697430    2.300720
  O    -10.825230  -24.679010    3.487200
  C    -10.947340  -25.758590    1.327280
  C    -11.661340  -26.919200    1.536430
  C    -11.893660  -27.754460    0.442040
  C    -11.414520  -27.400350   -0.833900
  C    -10.684310  -26.226830   -1.032850
  C    -10.444280  -25.410350    0.058390
  C     -9.694040  -24.157430    0.175560
  C     -8.726030  -23.752860   -0.705730
  C     -7.835030  -22.688120   -0.465530
  N     -7.069370  -21.848500   -0.302850
  C     -8.433740  -24.417810   -1.916590
  N     -8.152380  -24.926050   -2.905470
  C    -11.679550  -28.251290   -1.935960
  N    -11.892570  -28.934010   -2.829730
  C    -12.619350  -28.958000    0.614600
  N    -13.209260  -29.926260    0.774670
  H      1.956870    0.632560    0.084010
  H      0.466530   -1.150760   -4.331590
  H     -1.071140   -3.799790    1.153240
  H     -2.536460   -4.409430   -2.464100
  H     -5.891220   -9.598350   -2.877420
  H     -5.658320  -11.622900    1.381810
  H     -6.670200  -13.805280    1.623320
  H     -8.559270  -15.740580   -2.247530
  H    -10.235310  -21.459630   -0.607060
  H     -9.901210  -22.374350    3.142410
  H    -12.030290  -27.174380    2.518180
  H    -10.339010  -25.980390   -2.024510

 Total Charge           Charge          ....    0
 Multiplicity           Mult            ....    1
 Number of Electrons    NEL             ....  566
 Basis Dimension        Dim             .... 1214

ORBITAL ENERGIES
----------------

  NO   OCC          E(Eh)            E(eV)
   0   2.0000     -89.053002     -2423.2554
   1   2.0000     -89.014844     -2422.2171
   2   2.0000     -89.013456     -2422.1793
   3   2.0000     -89.010442     -2422.0973
   4   2.0000     -89.010139     -2422.0890
   5   2.0000     -19.243681      -523.6472
   6   2.0000     -19.241759      -523.5949
   7   2.0000     -14.466130      -393.6434
   8   2.0000     -14.465885      -393.6367
   9   2.0000     -14.448279      -393.1577
  10   2.0000     -14.444804      -393.0631
  11   2.0000     -14.444395      -393.0520
  12   2.0000     -14.442644      -393.0043
  13   2.0000     -14.440203      -392.9379
  14   2.0000     -14.438973      -392.9044
  15   2.0000     -14.434525      -392.7834
  16   2.0000     -14.434178      -392.7740
  17   2.0000     -14.431114      -392.6906
  18   2.0000     -14.430033      -392.6612
  19   2.0000     -14.429985      -392.6599
  20   2.0000     -14.428921      -392.6309
  21   2.0000     -10.394876      -282.8590
  22   2.0000     -10.393069      -282.8098
  23   2.0000     -10.383421      -282.5472
  24   2.0000     -10.383068      -282.5377
  25   2.0000     -10.369954      -282.1808
  26   2.0000     -10.369726      -282.1746
  27   2.0000     -10.368463      -282.1402
  28   2.0000     -10.367575      -282.1161
  29   2.0000     -10.367410      -282.1116
  30   2.0000     -10.365594      -282.0622
  31   2.0000     -10.365422      -282.0575
  32   2.0000     -10.363639      -282.0090
  33   2.0000     -10.363136      -281.9953
  34   2.0000     -10.362630      -281.9815
  35   2.0000     -10.361888      -281.9613
  36   2.0000     -10.361420      -281.9486
  37   2.0000     -10.354715      -281.7661
  38   2.0000     -10.354429      -281.7583
  39   2.0000     -10.353138      -281.7232
  40   2.0000     -10.352663      -281.7103
  41   2.0000     -10.349200      -281.6160
  42   2.0000     -10.348761      -281.6041
  43   2.0000     -10.348260      -281.5905
  44   2.0000     -10.347933      -281.5816
  45   2.0000     -10.346818      -281.5512
  46   2.0000     -10.346810      -281.5510
  47   2.0000     -10.346737      -281.5490
  48   2.0000     -10.344342      -281.4839
  49   2.0000     -10.344291      -281.4825
  50   2.0000     -10.343752      -281.4678
  51   2.0000     -10.342246      -281.4268
  52   2.0000     -10.341317      -281.4015
  53   2.0000     -10.340891      -281.3899
  54   2.0000     -10.340604      -281.3822
  55   2.0000     -10.338062      -281.3130
  56   2.0000     -10.337386      -281.2946
  57   2.0000     -10.336108      -281.2598
  58   2.0000     -10.336070      -281.2588
  59   2.0000     -10.335742      -281.2498
  60   2.0000     -10.335729      -281.2495
  61   2.0000     -10.335665      -281.2477
  62   2.0000     -10.335196      -281.2350
  63   2.0000     -10.332650      -281.1657
  64   2.0000     -10.329450      -281.0786
  65   2.0000     -10.327627      -281.0290
  66   2.0000     -10.327347      -281.0214
  67   2.0000     -10.327014      -281.0123
  68   2.0000     -10.326455      -280.9971
  69   2.0000     -10.326148      -280.9888
  70   2.0000     -10.326029      -280.9855
  71   2.0000     -10.325924      -280.9827
  72   2.0000     -10.325324      -280.9664
  73   2.0000     -10.325293      -280.9655
  74   2.0000     -10.325207      -280.9632
  75   2.0000     -10.323160      -280.9075
  76   2.0000     -10.322289      -280.8838
  77   2.0000     -10.322285      -280.8837
  78   2.0000     -10.322143      -280.8798
  79   2.0000     -10.313987      -280.6579
  80   2.0000     -10.313910      -280.6558
  81   2.0000      -8.144293      -221.6175
  82   2.0000      -8.109496      -220.6706
  83   2.0000      -8.108194      -220.6352
  84   2.0000      -8.104969      -220.5474
  85   2.0000      -8.104634      -220.5383
  86   2.0000      -6.115506      -166.4114
  87   2.0000      -6.107588      -166.1959
  88   2.0000      -6.106888      -166.1769
  89   2.0000      -6.078688      -165.4095
  90   2.0000      -6.077301      -165.3718
  91   2.0000      -6.074475      -165.2949
  92   2.0000      -6.074221      -165.2880
  93   2.0000      -6.073892      -165.2790
  94   2.0000      -6.073150      -165.2588
  95   2.0000      -6.071978      -165.2269
  96   2.0000      -6.070740      -165.1932
  97   2.0000      -6.070052      -165.1745
  98   2.0000      -6.069690      -165.1647
  99   2.0000      -6.067325      -165.1003
 100   2.0000      -6.067029      -165.0923
 101   2.0000      -1.159632       -31.5552
 102   2.0000      -1.157593       -31.4997
 103   2.0000      -1.153782       -31.3960
 104   2.0000      -1.067184       -29.0396
 105   2.0000      -1.066522       -29.0216
 106   2.0000      -1.047975       -28.5168
 107   2.0000      -1.046480       -28.4762
 108   2.0000      -1.039039       -28.2737
 109   2.0000      -1.036335       -28.2001
 110   2.0000      -1.033619       -28.1262
 111   2.0000      -1.032628       -28.0992
 112   2.0000      -1.025032       -27.8925
 113   2.0000      -1.024341       -27.8737
 114   2.0000      -1.022737       -27.8301
 115   2.0000      -1.019841       -27.7513
 116   2.0000      -1.016529       -27.6612
 117   2.0000      -1.015586       -27.6355
 118   2.0000      -1.013567       -27.5806
 119   2.0000      -1.013373       -27.5753
 120   2.0000      -1.009725       -27.4760
 121   2.0000      -1.008647       -27.4467
 122   2.0000      -1.006252       -27.3815
 123   2.0000      -0.997628       -27.1468
 124   2.0000      -0.984604       -26.7924
 125   2.0000      -0.982722       -26.7412
 126   2.0000      -0.977639       -26.6029
 127   2.0000      -0.972734       -26.4695
 128   2.0000      -0.942419       -25.6445
 129   2.0000      -0.938158       -25.5286
 130   2.0000      -0.931544       -25.3486
 131   2.0000      -0.930159       -25.3109
 132   2.0000      -0.918543       -24.9948
 133   2.0000      -0.911069       -24.7914
 134   2.0000      -0.907725       -24.7005
 135   2.0000      -0.905950       -24.6521
 136   2.0000      -0.898832       -24.4585
 137   2.0000      -0.895009       -24.3544
 138   2.0000      -0.888337       -24.1729
 139   2.0000      -0.882051       -24.0018
 140   2.0000      -0.876821       -23.8595
 141   2.0000      -0.874392       -23.7934
 142   2.0000      -0.857126       -23.3236
 143   2.0000      -0.849773       -23.1235
 144   2.0000      -0.822755       -22.3883
 145   2.0000      -0.813935       -22.1483
 146   2.0000      -0.812951       -22.1215
 147   2.0000      -0.798997       -21.7418
 148   2.0000      -0.797776       -21.7086
 149   2.0000      -0.793449       -21.5909
 150   2.0000      -0.778031       -21.1713
 151   2.0000      -0.760333       -20.6897
 152   2.0000      -0.759826       -20.6759
 153   2.0000      -0.754045       -20.5186
 154   2.0000      -0.749891       -20.4056
 155   2.0000      -0.740243       -20.1430
 156   2.0000      -0.732823       -19.9411
 157   2.0000      -0.719569       -19.5805
 158   2.0000      -0.717761       -19.5313
 159   2.0000      -0.716591       -19.4994
 160   2.0000      -0.711959       -19.3734
 161   2.0000      -0.704463       -19.1694
 162   2.0000      -0.701009       -19.0754
 163   2.0000      -0.699914       -19.0456
 164   2.0000      -0.690261       -18.7830
 165   2.0000      -0.687276       -18.7017
 166   2.0000      -0.672725       -18.3058
 167   2.0000      -0.666716       -18.1423
 168   2.0000      -0.664301       -18.0765
 169   2.0000      -0.661555       -18.0018
 170   2.0000      -0.659669       -17.9505
 171   2.0000      -0.651558       -17.7298
 172   2.0000      -0.650065       -17.6892
 173   2.0000      -0.637431       -17.3454
 174   2.0000      -0.634018       -17.2525
 175   2.0000      -0.631048       -17.1717
 176   2.0000      -0.626823       -17.0567
 177   2.0000      -0.623463       -16.9653
 178   2.0000      -0.619572       -16.8594
 179   2.0000      -0.610218       -16.6049
 180   2.0000      -0.604567       -16.4511
 181   2.0000      -0.604250       -16.4425
 182   2.0000      -0.596857       -16.2413
 183   2.0000      -0.596349       -16.2275
 184   2.0000      -0.589813       -16.0496
 185   2.0000      -0.579571       -15.7709
 186   2.0000      -0.573946       -15.6179
 187   2.0000      -0.572580       -15.5807
 188   2.0000      -0.570652       -15.5282
 189   2.0000      -0.569130       -15.4868
 190   2.0000      -0.568654       -15.4739
 191   2.0000      -0.565540       -15.3891
 192   2.0000      -0.564884       -15.3713
 193   2.0000      -0.564335       -15.3563
 194   2.0000      -0.561091       -15.2681
 195   2.0000      -0.557278       -15.1643
 196   2.0000      -0.544244       -14.8096
 197   2.0000      -0.541917       -14.7463
 198   2.0000      -0.538330       -14.6487
 199   2.0000      -0.538061       -14.6414
 200   2.0000      -0.531964       -14.4755
 201   2.0000      -0.529538       -14.4095
 202   2.0000      -0.528622       -14.3845
 203   2.0000      -0.526927       -14.3384
 204   2.0000      -0.524488       -14.2721
 205   2.0000      -0.522562       -14.2196
 206   2.0000      -0.521248       -14.1839
 207   2.0000      -0.519941       -14.1483
 208   2.0000      -0.518689       -14.1142
 209   2.0000      -0.515539       -14.0285
 210   2.0000      -0.511853       -13.9282
 211   2.0000      -0.510236       -13.8842
 212   2.0000      -0.509705       -13.8698
 213   2.0000      -0.506710       -13.7883
 214   2.0000      -0.503423       -13.6988
 215   2.0000      -0.500735       -13.6257
 216   2.0000      -0.497373       -13.5342
 217   2.0000      -0.494043       -13.4436
 218   2.0000      -0.493197       -13.4206
 219   2.0000      -0.489988       -13.3333
 220   2.0000      -0.487230       -13.2582
 221   2.0000      -0.480986       -13.0883
 222   2.0000      -0.477522       -12.9940
 223   2.0000      -0.474763       -12.9189
 224   2.0000      -0.473971       -12.8974
 225   2.0000      -0.471961       -12.8427
 226   2.0000      -0.471483       -12.8297
 227   2.0000      -0.470081       -12.7916
 228   2.0000      -0.469021       -12.7627
 229   2.0000      -0.467799       -12.7295
 230   2.0000      -0.465348       -12.6628
 231   2.0000      -0.463594       -12.6150
 232   2.0000      -0.463160       -12.6032
 233   2.0000      -0.462169       -12.5763
 234   2.0000      -0.461035       -12.5454
 235   2.0000      -0.460430       -12.5289
 236   2.0000      -0.456749       -12.4288
 237   2.0000      -0.456409       -12.4195
 238   2.0000      -0.456208       -12.4141
 239   2.0000      -0.455854       -12.4044
 240   2.0000      -0.455504       -12.3949
 241   2.0000      -0.455343       -12.3905
 242   2.0000      -0.454630       -12.3711
 243   2.0000      -0.453937       -12.3523
 244   2.0000      -0.453143       -12.3307
 245   2.0000      -0.452585       -12.3155
 246   2.0000      -0.452114       -12.3027
 247   2.0000      -0.449426       -12.2295
 248   2.0000      -0.447975       -12.1900
 249   2.0000      -0.447052       -12.1649
 250   2.0000      -0.446333       -12.1453
 251   2.0000      -0.442749       -12.0478
 252   2.0000      -0.440270       -11.9803
 253   2.0000      -0.438977       -11.9452
 254   2.0000      -0.437572       -11.9069
 255   2.0000      -0.436269       -11.8715
 256   2.0000      -0.434450       -11.8220
 257   2.0000      -0.430326       -11.7098
 258   2.0000      -0.429289       -11.6816
 259   2.0000      -0.429017       -11.6741
 260   2.0000      -0.427767       -11.6401
 261   2.0000      -0.423741       -11.5306
 262   2.0000      -0.423446       -11.5226
 263   2.0000      -0.422049       -11.4845
 264   2.0000      -0.403922       -10.9913
 265   2.0000      -0.399348       -10.8668
 266   2.0000      -0.392338       -10.6761
 267   2.0000      -0.380618       -10.3572
 268   2.0000      -0.373201       -10.1553
 269   2.0000      -0.371946       -10.1212
 270   2.0000      -0.371018       -10.0959
 271   2.0000      -0.369238       -10.0475
 272   2.0000      -0.366017        -9.9598
 273   2.0000      -0.364730        -9.9248
 274   2.0000      -0.363614        -9.8944
 275   2.0000      -0.360233        -9.8024
 276   2.0000      -0.345660        -9.4059
 277   2.0000      -0.342373        -9.3164
 278   2.0000      -0.340799        -9.2736
 279   2.0000      -0.338284        -9.2052
 280   2.0000      -0.323663        -8.8073
 281   2.0000      -0.294774        -8.0212
 282   2.0000      -0.268106        -7.2955
 283   0.0000      -0.137838        -3.7508
 284   0.0000      -0.127237        -3.4623
 285   0.0000      -0.111504        -3.0342
 286   0.0000      -0.111155        -3.0247
 287   0.0000      -0.100264        -2.7283

MULLIKEN ATOMIC CHARGES
-----------------------
   0 C :    0.045657
   1 C :   -0.037300
   2 C :   -0.061094
   3 C :   -0.175789
   4 N :    0.203353
   5 C :   -0.066603
   6 C :   -0.173983
   7 N :    0.201706
   8 C :   -0.029471
   9 C :   -0.006867
  10 C :    0.158241
  11 O :   -0.134502
  12 C :   -0.092433
  13 C :    0.311726
  14 C :   -0.342470
  15 C :   -0.187518
  16 N :    0.167253
  17 C :   -0.192542
  18 N :    0.164148
  19 C :    0.043713
  20 C :   -0.116127
  21 C :   -0.003344
  22 C :   -0.004516
  23 C :   -0.076557
  24 S :    0.211811
  25 C :   -0.095686
  26 C :    0.041239
  27 C :    0.311172
  28 C :   -0.293794
  29 C :   -0.185990
  30 N :    0.180071
  31 C :   -0.192553
  32 N :    0.199029
  33 C :   -0.056132
  34 C :   -0.105629
  35 S :    0.175111
  36 C :    0.149698
  37 C :   -0.063062
  38 C :   -0.068214
  39 C :    0.149213
  40 C :    0.009244
  41 C :    0.015271
  42 N :   -0.286072
  43 S :    0.565523
  44 N :   -0.283725
  45 C :   -0.107849
  46 C :   -0.053524
  47 C :    0.041308
  48 C :   -0.094890
  49 S :    0.175109
  50 C :   -0.067302
  51 C :   -0.001996
  52 C :    0.304920
  53 C :   -0.287070
  54 C :   -0.184750
  55 N :    0.172422
  56 C :   -0.183202
  57 N :    0.184398
  58 C :   -0.002155
  59 C :   -0.114344
  60 S :    0.222406
  61 C :    0.086640
  62 C :   -0.140507
  63 C :    0.138180
  64 O :   -0.127397
  65 C :    0.013607
  66 C :   -0.036091
  67 C :   -0.067298
  68 C :   -0.061886
  69 C :   -0.033957
  70 C :    0.026656
  71 C :    0.270051
  72 C :   -0.316930
  73 C :   -0.201639
  74 N :    0.175416
  75 C :   -0.173056
  76 N :    0.179663
  77 C :   -0.171362
  78 N :    0.201707
  79 C :   -0.171185
  80 N :    0.197562
  81 H :    0.019844
  82 H :    0.019686
  83 H :    0.010191
  84 H :    0.041181
  85 H :    0.026748
  86 H :   -0.003807
  87 H :   -0.004028
  88 H :    0.026715
  89 H :    0.026926
  90 H :    0.028075
  91 H :    0.017182
  92 H :    0.028422
Sum of atomic charges:   -0.0000000

LOEWDIN ATOMIC CHARGES
----------------------
   0 C :    0.001170
   1 C :    0.034453
   2 C :   -0.023945
   3 C :   -0.031574
   4 N :   -0.010696
   5 C :   -0.027599
   6 C :   -0.032055
   7 N :   -0.011998
   8 C :    0.050008
   9 C :   -0.028586
  10 C :    0.085673
  11 O :   -0.124355
  12 C :   -0.106017
  13 C :    0.070643
  14 C :   -0.128778
  15 C :   -0.022194
  16 N :   -0.035806
  17 C :   -0.023585
  18 N :   -0.040728
  19 C :    0.049495
  20 C :   -0.178305
  21 C :    0.023611
  22 C :   -0.072269
  23 C :   -0.151712
  24 S :    0.499428
  25 C :   -0.190273
  26 C :   -0.049021
  27 C :    0.071892
  28 C :   -0.086470
  29 C :   -0.016392
  30 N :   -0.022166
  31 C :   -0.022809
  32 N :   -0.011040
  33 C :   -0.019693
  34 C :   -0.144521
  35 S :    0.479457
  36 C :   -0.041848
  37 C :   -0.015175
  38 C :   -0.018269
  39 C :   -0.037856
  40 C :   -0.037091
  41 C :   -0.036341
  42 N :   -0.273568
  43 S :    0.684428
  44 N :   -0.273141
  45 C :   -0.149432
  46 C :   -0.015984
  47 C :   -0.054434
  48 C :   -0.183264
  49 S :    0.481453
  50 C :   -0.152419
  51 C :   -0.064090
  52 C :    0.079207
  53 C :   -0.091124
  54 C :   -0.011842
  55 N :   -0.030063
  56 C :   -0.017878
  57 N :   -0.020372
  58 C :    0.013477
  59 C :   -0.184516
  60 S :    0.503948
  61 C :    0.052247
  62 C :   -0.100698
  63 C :    0.082709
  64 O :   -0.129600
  65 C :   -0.032089
  66 C :    0.049492
  67 C :   -0.028840
  68 C :   -0.021626
  69 C :    0.034590
  70 C :    0.005426
  71 C :    0.059242
  72 C :   -0.123057
  73 C :   -0.014585
  74 N :   -0.035405
  75 C :   -0.023501
  76 N :   -0.028714
  77 C :   -0.031299
  78 N :   -0.008840
  79 C :   -0.032153
  80 N :   -0.012871
  81 H :    0.052208
  82 H :    0.055423
  83 H :    0.043736
  84 H :    0.044288
  85 H :    0.040484
  86 H :    0.027507
  87 H :    0.027380
  88 H :    0.040803
  89 H :    0.043181
  90 H :    0.048701
  91 H :    0.054525
  92 H :    0.054287

  Mayer bond orders larger than 0.100000
B(  0-C ,  1-C ) :   1.3578 B(  0-C ,  9-C ) :   1.3374 B(  0-C , 13-C ) :   0.9539
B(  1-C ,  2-C ) :   1.3926 B(  1-C , 81-H ) :   0.9865 B(  2-C ,  3-C ) :   1.0886
B(  2-C ,  5-C ) :   1.4040 B(  3-C ,  4-N ) :   3.0444 B(  5-C ,  6-C ) :   1.0857
B(  5-C ,  8-C ) :   1.3597 B(  6-C ,  7-N ) :   3.0453 B(  8-C ,  9-C ) :   1.3655
B(  8-C , 82-H ) :   1.0161 B(  9-C , 10-C ) :   0.9339 B( 10-C , 11-O ) :   2.1850
B( 10-C , 12-C ) :   0.9498 B( 12-C , 13-C ) :   1.0964 B( 12-C , 19-C ) :   1.5557
B( 13-C , 14-C ) :   1.6359 B( 14-C , 15-C ) :   1.1495 B( 14-C , 17-C ) :   1.1406
B( 15-C , 16-N ) :   2.9600 B( 17-C , 18-N ) :   2.9718 B( 19-C , 20-C ) :   1.2496
B( 19-C , 83-H ) :   0.9104 B( 20-C , 21-C ) :   1.3737 B( 20-C , 24-S ) :   1.0673
B( 21-C , 22-C ) :   1.3359 B( 21-C , 84-H ) :   0.9697 B( 22-C , 23-C ) :   1.3636
B( 22-C , 27-C ) :   0.9900 B( 23-C , 24-S ) :   1.1731 B( 23-C , 25-C ) :   1.2109
B( 25-C , 26-C ) :   1.4251 B( 25-C , 35-S ) :   1.1114 B( 26-C , 27-C ) :   0.9953
B( 26-C , 33-C ) :   1.2524 B( 27-C , 28-C ) :   1.7217 B( 28-C , 29-C ) :   1.1383
B( 28-C , 31-C ) :   1.1348 B( 29-C , 30-N ) :   2.9836 B( 31-C , 32-N ) :   2.9960
B( 33-C , 34-C ) :   1.4693 B( 33-C , 85-H ) :   0.9799 B( 34-C , 35-S ) :   1.1039
B( 34-C , 36-C ) :   1.1272 B( 36-C , 37-C ) :   1.4253 B( 36-C , 39-C ) :   0.1185
B( 36-C , 41-C ) :   1.1884 B( 37-C , 38-C ) :   1.2776 B( 37-C , 86-H ) :   0.9852
B( 38-C , 39-C ) :   1.4252 B( 38-C , 87-H ) :   0.9849 B( 39-C , 40-C ) :   1.1890
B( 39-C , 45-C ) :   1.1290 B( 40-C , 41-C ) :   1.1675 B( 40-C , 44-N ) :   1.5224
B( 41-C , 42-N ) :   1.5199 B( 42-N , 43-S ) :   1.2724 B( 42-N , 44-N ) :   0.1430
B( 43-S , 44-N ) :   1.2730 B( 45-C , 46-C ) :   1.4714 B( 45-C , 49-S ) :   1.1001
B( 46-C , 47-C ) :   1.2509 B( 46-C , 88-H ) :   0.9812 B( 47-C , 48-C ) :   1.4299
B( 47-C , 52-C ) :   0.9977 B( 48-C , 49-S ) :   1.1199 B( 48-C , 50-C ) :   1.2004
B( 50-C , 51-C ) :   1.3965 B( 50-C , 60-S ) :   1.1603 B( 51-C , 52-C ) :   0.9955
B( 51-C , 58-C ) :   1.3767 B( 52-C , 53-C ) :   1.7192 B( 53-C , 54-C ) :   1.1358
B( 53-C , 56-C ) :   1.1363 B( 54-C , 55-N ) :   2.9806 B( 56-C , 57-N ) :   2.9880
B( 58-C , 59-C ) :   1.3743 B( 58-C , 89-H ) :   0.9786 B( 59-C , 60-S ) :   1.0824
B( 59-C , 61-C ) :   1.1599 B( 61-C , 62-C ) :   1.6358 B( 61-C , 90-H ) :   0.9307
B( 62-C , 63-C ) :   0.9549 B( 62-C , 71-C ) :   1.0483 B( 63-C , 64-O ) :   2.2781
B( 63-C , 65-C ) :   0.8988 B( 65-C , 66-C ) :   1.3687 B( 65-C , 70-C ) :   1.3364
B( 66-C , 67-C ) :   1.3647 B( 66-C , 91-H ) :   1.0154 B( 67-C , 68-C ) :   1.4028
B( 67-C , 79-C ) :   1.0862 B( 68-C , 69-C ) :   1.3869 B( 68-C , 77-C ) :   1.0860
B( 69-C , 70-C ) :   1.3632 B( 69-C , 92-H ) :   0.9901 B( 70-C , 71-C ) :   0.9739
B( 71-C , 72-C ) :   1.6608 B( 72-C , 73-C ) :   1.1752 B( 72-C , 75-C ) :   1.1255
B( 73-C , 74-N ) :   2.9938 B( 75-C , 76-N ) :   2.9885 B( 77-C , 78-N ) :   3.0425
B( 79-C , 80-N ) :   3.0446

-----------------------------------------------------------------------------
         ABSORPTION SPECTRUM VIA TRANSITION ELECTRIC DIPOLE MOMENTS
-----------------------------------------------------------------------------
State   Energy  Wavelength   fosc         T2         TX        TY        TZ
        (cm-1)    (nm)                  (au**2)     (au)      (au)      (au)
-----------------------------------------------------------------------------
   0   12844.7    778.5   1.175909392  30.13866  -2.12801  -5.05440   0.25142
   1   14370.3    695.9   0.082063847   1.88002  -0.99231  -0.88093  -0.34541
   2   18359.9    544.7   1.116883979  20.02692  -1.34598  -4.26791   0.01552
   3   19993.0    500.2   0.406363723   6.69134  -1.96472  -1.65192  -0.31990
   4   21507.0    465.0   0.015027211   0.23002   0.43699   0.11297   0.16219
   5   22149.9    451.5   0.085213822   1.26652  -0.09616   0.08862  -1.11778
   6   23677.5    422.3   0.023349117   0.32465  -0.15521  -0.49275  -0.24033
   7   24169.7    413.7   0.051239940   0.69793  -0.70621  -0.43892   0.08091
   8   24649.6    405.7   0.254939434   3.40489   0.53159   1.70450  -0.46582
   9   27697.8    361.0   0.006024762   0.07161   0.14343   0.01764  -0.22523
  10   28034.8    356.7   0.037607276   0.44162  -0.29862  -0.13457   0.57822
  11   28464.0    351.3   0.050007745   0.57839  -0.04723   0.61144   0.44978
  12   28603.1    349.6   0.008385962   0.09652   0.27081   0.14501  -0.04643
  13   29391.3    340.2   0.193918135   2.17208  -0.43652   0.11191  -1.40321
  14   29501.7    339.0   0.091877471   1.02527   0.27962   0.78663  -0.57297
  15   29689.5    336.8   0.196116357   2.17463  -0.43002  -0.07832  -1.40840
  16   29943.4    334.0   0.029074226   0.31966   0.17938  -0.30998   0.43748
  17   30355.7    329.4   0.059820898   0.64877  -0.40794  -0.48046  -0.50150
  18   31121.1    321.3   0.086322496   0.91316  -0.33232  -0.47871   0.75734
  19   31516.9    317.3   0.038484717   0.40200   0.50542   0.38174   0.02864
  20   31613.9    316.3   0.064278178   0.66936  -0.34391  -0.61585  -0.41451
  21   31666.1    315.8   0.034705953   0.36082   0.35604   0.27829  -0.39574
  22   32197.3    310.6   0.199296698   2.03778   0.51349   1.25777   0.43830
  23   32527.8    307.4   0.129723504   1.31292   0.20413   1.01942  -0.48170
  24   32728.6    305.5   0.021953791   0.22083  -0.41742  -0.17135   0.13126
  25   33018.1    302.9   0.291390399   2.90535   1.05799   1.31748  -0.22418
  26   33616.9    297.5   0.206971773   2.02688   0.05091  -0.33481   1.38282
  27   33735.2    296.4   0.104765706   1.02238  -0.69159  -0.52777  -0.51531
  28   34154.4    292.8   0.276423985   2.66443   0.55921   1.28658  -0.83452
  29   34236.8    292.1   0.240339150   2.31104   0.35940   1.19655  -0.86611
  30   34586.6    289.1   0.171579992   1.63318   0.19590  -0.41399   1.19307
  31   34773.0    287.6   0.377831450   3.57711   1.19274   1.45747   0.17392
  32   34857.4    286.9   0.482136682   4.55355  -0.04600  -0.11824   2.13013
  33   35001.3    285.7   0.015549353   0.14625   0.11874   0.34454   0.11595
  34   35237.3    283.8   0.091704477   0.85677  -0.50494  -0.12592   0.76547
  35   35294.3    283.3   0.245789664   2.29263   0.92645   1.18560  -0.16936
  36   35684.1    280.2   0.008155995   0.07524  -0.03767  -0.12020   0.24367
  37   35889.0    278.6   0.132284194   1.21345   0.09135   0.06759  -1.09569
  38   36289.2    275.6   0.310254885   2.81460   0.52502   0.86690  -1.33695
  39   36399.9    274.7   0.030904865   0.27951  -0.42793  -0.30963   0.02277
  40   36787.1    271.8   0.078397707   0.70159  -0.00006   0.07886   0.83389
  41   37067.0    269.8   0.094569673   0.83992  -0.28962  -0.62344  -0.60611
  42   37259.6    268.4   0.082506853   0.72900  -0.34007  -0.27333   0.73392
  43   37372.7    267.6   0.089380294   0.78734  -0.44665  -0.07235  -0.76329
  44   37485.7    266.8   0.078074294   0.68567  -0.42762  -0.55583  -0.44031
  45   37682.8    265.4   0.035860616   0.31329   0.09718  -0.18186   0.52036
  46   37782.1    264.7   0.161701352   1.40897  -0.28479  -0.57650   0.99775
  47   38337.3    260.8   0.079359427   0.68148  -0.39731  -0.45259  -0.56461
  48   38430.7    260.2   0.006216637   0.05325  -0.03024   0.12784  -0.18973
  49   38609.8    259.0   0.015727460   0.13410   0.02362   0.04998  -0.36200
  50   38929.5    256.9   0.018539168   0.15678  -0.13116   0.08472   0.36387
  51   39002.8    256.4   0.010377939   0.08760   0.00995   0.21341  -0.20483
  52   39216.9    255.0   0.030364131   0.25490   0.06526   0.49229   0.09104
  53   39258.7    254.7   0.012030192   0.10088  -0.20282  -0.23852   0.05344
  54   39537.7    252.9   0.008839365   0.07360   0.10558   0.24553   0.04660
  55   39858.7    250.9   0.138669533   1.14534   0.52880   0.82603   0.42824
  56   40187.3    248.8   0.018195972   0.14906  -0.06690  -0.06490   0.37466
  57   40285.7    248.2   0.071501590   0.58431  -0.41062  -0.54020   0.35197

FINAL SINGLE POINT ENERGY     -5196.583883006162

DIPOLE MOMENT
-------------
                                X             Y             Z
Electronic contribution:     -0.97617       0.65384      -1.53579
Nuclear contribution   :     -0.44774      -0.97214       5.28058
                        -----------------------------------------
Total Dipole Moment    :     -1.42392      -0.31830       3.74480
                        -----------------------------------------
Magnitude (a.u.)       :      4.01900
Magnitude (Debye)      :     10.21548

Rotational constants in cm-1:     0.002626     0.000140     0.000136
Rotational constants in MHz :    78.716031     4.212073     4.084543

                             ****ORCA TERMINATED NORMALLY****
TOTAL RUN TIME: 0 days 0 hours 15 minutes 32 seconds 589 msec
