                         Program Version 4.2.0 -  RELEASE  -
|  1> # ORCA input file
|  2> # SCF done       -206.375882187610          0.000364467910
|  3> ! CAM-B3LYP def2-SVP def2/J RIJCOSX Grid4 TightSCF
|  4> %maxcore 5000
|  5> %tddft
|  6>     Mode sTDDFT
|  7>     Ethresh 5.0
|  8>     maxcore 5000
|  9> end
| 10>
| 11> %pal
| 12>   nprocs 6
| 13>   end
| 14> * xyz 0 1
| 15>    C      -11.58404         4.38187        -7.79922
| 16>    C      -12.05988         5.60194        -8.25307
| 17>    C      -13.35754         5.66145        -8.76357
| 18>    C      -13.86541         6.90058        -9.22748
| 19>    N      -14.26995         7.90564        -9.59702
| 20>    C      -14.17277         4.51454        -8.82393
| 21>    C      -15.48392         4.60683        -9.34968
| 22>    N      -16.54740         4.66221        -9.77057
| 23>    C      -13.68979         3.28934        -8.36230
| 24>    C      -12.40836         3.24434        -7.85589
| 25>    C      -11.69028         2.06467        -7.30447
| 26>    O      -12.12146         0.94041        -7.27782
| 27>    C      -10.38273         2.60155        -6.82892
| 28>    C      -10.29755         3.99970        -7.21758
| 29>    C       -9.20541         4.82104        -7.12044
| 30>    C       -9.18949         6.16733        -7.54873
| 31>    N       -9.11162         7.26469        -7.87425
| 32>    C       -7.93183         4.46609        -6.62136
| 33>    N       -6.86186         4.28137        -6.24845
| 34>    C       -9.44238         1.96112        -6.07262
| 35>    C       -9.41349         0.62385        -5.61982
| 36>    C       -8.41829         0.10202        -4.74704
| 37>    C       -8.72844        -1.25520        -4.53912
| 38>    C       -9.90335        -1.48640        -5.33746
| 39>    N      -10.28078        -0.35630        -5.94871
| 40>    O      -10.49473        -2.62711        -5.50679
| 41>    C      -11.70091        -2.64821        -6.26097
| 42>    C       -7.71597        -1.75267        -3.67483
| 43>    N       -6.80324        -0.76727        -3.40902
| 44>    C       -7.20624         0.34096        -4.02540
| 45>    O       -6.58043         1.48964        -3.98415
| 46>    C       -5.36121         1.53094        -3.25934
| 47>    C       -7.53548        -3.00412        -3.07659
| 48>    C       -8.42842        -4.08839        -2.94202
| 49>    C       -7.84597        -5.19450        -2.23156
| 50>    N       -8.48596        -6.35535        -2.13665
| 51>    C       -9.71145        -6.40959        -2.61665
| 52>    C      -10.39736        -7.72767        -2.59335
| 53>    O       -9.86002        -8.74683        -2.21597
| 54>    C      -11.79079        -7.71313        -3.07329
| 55>    C      -12.41978        -6.60854        -3.48586
| 56>    C      -11.79699        -5.27343        -3.50170
| 57>    O      -12.42869        -4.27482        -3.77718
| 58>    C      -10.35652        -5.24993        -3.14183
| 59>    N       -9.69941        -4.12284        -3.32924
| 60>    C       -6.54088        -4.91709        -1.77430
| 61>    S       -6.03331        -3.34354        -2.28457
| 62>    C       -5.65314        -5.72884        -1.05869
| 63>    C       -5.85956        -6.92541        -0.33121
| 64>    C       -4.58524        -7.32814         0.12066
| 65>    C       -3.67740        -6.31977        -0.34507
| 66>    N       -4.32629        -5.38003        -1.02021
| 67>    O       -2.38538        -6.31730        -0.12708
| 68>    C       -1.65841        -5.22399        -0.66741
| 69>    C       -4.76877        -8.52883         0.84181
| 70>    N       -6.09652        -8.83902         0.88254
| 71>    C       -6.76727        -7.89815         0.21072
| 72>    O       -8.06321        -7.83326         0.13140
| 73>    C       -8.82922        -8.91075         0.64565
| 74>    C       -3.76846        -9.27306         1.50625
| 75>    C       -3.91680       -10.46737         2.14531
| 76>    C       -2.92685       -10.90212         3.16626
| 77>    O       -1.81476       -10.46745         3.34410
| 78>    C       -3.63262       -11.93811         3.95874
| 79>    C       -3.20450       -12.58522         5.09869
| 80>    C       -4.06514       -13.50825         5.69527
| 81>    C       -5.33340       -13.75800         5.13537
| 82>    C       -5.75316       -13.10630         3.97434
| 83>    C       -4.89484       -12.19424         3.38415
| 84>    C       -5.02741       -11.39566         2.16599
| 85>    C       -5.89640       -11.63537         1.13950
| 86>    C       -6.96775       -12.54838         1.21606
| 87>    N       -7.87336       -13.25228         1.25397
| 88>    C       -5.74469       -11.08096        -0.15411
| 89>    N       -5.59241       -10.79293        -1.25423
| 90>    C       -6.19973       -14.68585         5.76531
| 91>    N       -6.90653       -15.43013         6.27231
| 92>    C       -3.66530       -14.19031         6.86961
| 93>    N       -3.32465       -14.73158         7.81949
| 94>    H      -11.46848         6.50285        -8.22068
| 95>    H      -14.30134         2.40050        -8.39746
| 96>    H       -8.59240         2.53816        -5.72886
| 97>    H      -12.47823        -3.02895        -5.59440
| 98>    H      -11.56355        -3.34004        -7.09309
| 99>    H      -11.94379        -1.64856        -6.62179
|100>    H       -4.95711         2.52885        -3.41261
|101>    H       -4.67193         0.77149        -3.63190
|102>    H       -5.54565         1.34659        -2.19919
|103>    H      -12.28668        -8.67446        -3.06604
|104>    H      -13.44860        -6.63785        -3.81897
|105>    H       -1.72187        -5.23112        -1.75707
|106>    H       -0.62879        -5.35523        -0.34262
|107>    H       -2.06436        -4.27973        -0.30040
|108>    H       -9.15234        -9.52640        -0.19752
|109>    H       -9.70159        -8.47905         1.13588
|110>    H       -8.24367        -9.50298         1.34805
|111>    H       -2.80085        -8.79190         1.59584
|112>    H       -2.23132       -12.38168         5.51913
|113>    H       -6.73125       -13.31850         3.57175
|114> *
|115>
|116>                          ****END OF INPUT****

CARTESIAN COORDINATES (ANGSTROEM)
---------------------------------
  C    -11.584040    4.381870   -7.799220
  C    -12.059880    5.601940   -8.253070
  C    -13.357540    5.661450   -8.763570
  C    -13.865410    6.900580   -9.227480
  N    -14.269950    7.905640   -9.597020
  C    -14.172770    4.514540   -8.823930
  C    -15.483920    4.606830   -9.349680
  N    -16.547400    4.662210   -9.770570
  C    -13.689790    3.289340   -8.362300
  C    -12.408360    3.244340   -7.855890
  C    -11.690280    2.064670   -7.304470
  O    -12.121460    0.940410   -7.277820
  C    -10.382730    2.601550   -6.828920
  C    -10.297550    3.999700   -7.217580
  C     -9.205410    4.821040   -7.120440
  C     -9.189490    6.167330   -7.548730
  N     -9.111620    7.264690   -7.874250
  C     -7.931830    4.466090   -6.621360
  N     -6.861860    4.281370   -6.248450
  C     -9.442380    1.961120   -6.072620
  C     -9.413490    0.623850   -5.619820
  C     -8.418290    0.102020   -4.747040
  C     -8.728440   -1.255200   -4.539120
  C     -9.903350   -1.486400   -5.337460
  N    -10.280780   -0.356300   -5.948710
  O    -10.494730   -2.627110   -5.506790
  C    -11.700910   -2.648210   -6.260970
  C     -7.715970   -1.752670   -3.674830
  N     -6.803240   -0.767270   -3.409020
  C     -7.206240    0.340960   -4.025400
  O     -6.580430    1.489640   -3.984150
  C     -5.361210    1.530940   -3.259340
  C     -7.535480   -3.004120   -3.076590
  C     -8.428420   -4.088390   -2.942020
  C     -7.845970   -5.194500   -2.231560
  N     -8.485960   -6.355350   -2.136650
  C     -9.711450   -6.409590   -2.616650
  C    -10.397360   -7.727670   -2.593350
  O     -9.860020   -8.746830   -2.215970
  C    -11.790790   -7.713130   -3.073290
  C    -12.419780   -6.608540   -3.485860
  C    -11.796990   -5.273430   -3.501700
  O    -12.428690   -4.274820   -3.777180
  C    -10.356520   -5.249930   -3.141830
  N     -9.699410   -4.122840   -3.329240
  C     -6.540880   -4.917090   -1.774300
  S     -6.033310   -3.343540   -2.284570
  C     -5.653140   -5.728840   -1.058690
  C     -5.859560   -6.925410   -0.331210
  C     -4.585240   -7.328140    0.120660
  C     -3.677400   -6.319770   -0.345070
  N     -4.326290   -5.380030   -1.020210
  O     -2.385380   -6.317300   -0.127080
  C     -1.658410   -5.223990   -0.667410
  C     -4.768770   -8.528830    0.841810
  N     -6.096520   -8.839020    0.882540
  C     -6.767270   -7.898150    0.210720
  O     -8.063210   -7.833260    0.131400
  C     -8.829220   -8.910750    0.645650
  C     -3.768460   -9.273060    1.506250
  C     -3.916800  -10.467370    2.145310
  C     -2.926850  -10.902120    3.166260
  O     -1.814760  -10.467450    3.344100
  C     -3.632620  -11.938110    3.958740
  C     -3.204500  -12.585220    5.098690
  C     -4.065140  -13.508250    5.695270
  C     -5.333400  -13.758000    5.135370
  C     -5.753160  -13.106300    3.974340
  C     -4.894840  -12.194240    3.384150
  C     -5.027410  -11.395660    2.165990
  C     -5.896400  -11.635370    1.139500
  C     -6.967750  -12.548380    1.216060
  N     -7.873360  -13.252280    1.253970
  C     -5.744690  -11.080960   -0.154110
  N     -5.592410  -10.792930   -1.254230
  C     -6.199730  -14.685850    5.765310
  N     -6.906530  -15.430130    6.272310
  C     -3.665300  -14.190310    6.869610
  N     -3.324650  -14.731580    7.819490
  H    -11.468480    6.502850   -8.220680
  H    -14.301340    2.400500   -8.397460
  H     -8.592400    2.538160   -5.728860
  H    -12.478230   -3.028950   -5.594400
  H    -11.563550   -3.340040   -7.093090
  H    -11.943790   -1.648560   -6.621790
  H     -4.957110    2.528850   -3.412610
  H     -4.671930    0.771490   -3.631900
  H     -5.545650    1.346590   -2.199190
  H    -12.286680   -8.674460   -3.066040
  H    -13.448600   -6.637850   -3.818970
  H     -1.721870   -5.231120   -1.757070
  H     -0.628790   -5.355230   -0.342620
  H     -2.064360   -4.279730   -0.300400
  H     -9.152340   -9.526400   -0.197520
  H     -9.701590   -8.479050    1.135880
  H     -8.243670   -9.502980    1.348050
  H     -2.800850   -8.791900    1.595840
  H     -2.231320  -12.381680    5.519130
  H     -6.731250  -13.318500    3.571750

 Total Charge           Charge          ....    0
 Multiplicity           Mult            ....    1
 Number of Electrons    NEL             ....  534
 Basis Dimension        Dim             .... 1210

ORBITAL ENERGIES
----------------

  NO   OCC          E(Eh)            E(eV)
   0   2.0000     -89.013932     -2422.1922
   1   2.0000     -19.295576      -525.0593
   2   2.0000     -19.293019      -524.9897
   3   2.0000     -19.283830      -524.7397
   4   2.0000     -19.278245      -524.5877
   5   2.0000     -19.247195      -523.7428
   6   2.0000     -19.246488      -523.7236
   7   2.0000     -19.240715      -523.5665
   8   2.0000     -19.234275      -523.3912
   9   2.0000     -14.461954      -393.5298
  10   2.0000     -14.461725      -393.5235
  11   2.0000     -14.437612      -392.8674
  12   2.0000     -14.435904      -392.8209
  13   2.0000     -14.435747      -392.8167
  14   2.0000     -14.430218      -392.6662
  15   2.0000     -14.429312      -392.6415
  16   2.0000     -14.428992      -392.6328
  17   2.0000     -14.428517      -392.6199
  18   2.0000     -14.420048      -392.3895
  19   2.0000     -14.410636      -392.1333
  20   2.0000     -14.408597      -392.0779
  21   2.0000     -14.402984      -391.9251
  22   2.0000     -14.391826      -391.6215
  23   2.0000     -10.401206      -283.0312
  24   2.0000     -10.398845      -282.9670
  25   2.0000     -10.396716      -282.9090
  26   2.0000     -10.395489      -282.8756
  27   2.0000     -10.394802      -282.8569
  28   2.0000     -10.390967      -282.7526
  29   2.0000     -10.390903      -282.7508
  30   2.0000     -10.388200      -282.6773
  31   2.0000     -10.369969      -282.1812
  32   2.0000     -10.365659      -282.0639
  33   2.0000     -10.364214      -282.0246
  34   2.0000     -10.361804      -281.9590
  35   2.0000     -10.361285      -281.9449
  36   2.0000     -10.360922      -281.9350
  37   2.0000     -10.359773      -281.9038
  38   2.0000     -10.359157      -281.8870
  39   2.0000     -10.358804      -281.8774
  40   2.0000     -10.358552      -281.8705
  41   2.0000     -10.358088      -281.8579
  42   2.0000     -10.356613      -281.8178
  43   2.0000     -10.356116      -281.8043
  44   2.0000     -10.355431      -281.7856
  45   2.0000     -10.347903      -281.5807
  46   2.0000     -10.347837      -281.5790
  47   2.0000     -10.346804      -281.5509
  48   2.0000     -10.342161      -281.4245
  49   2.0000     -10.341979      -281.4196
  50   2.0000     -10.341835      -281.4156
  51   2.0000     -10.341299      -281.4011
  52   2.0000     -10.338613      -281.3280
  53   2.0000     -10.338189      -281.3164
  54   2.0000     -10.337239      -281.2906
  55   2.0000     -10.335934      -281.2551
  56   2.0000     -10.335735      -281.2497
  57   2.0000     -10.335524      -281.2439
  58   2.0000     -10.334549      -281.2174
  59   2.0000     -10.334525      -281.2167
  60   2.0000     -10.330826      -281.1161
  61   2.0000     -10.329327      -281.0753
  62   2.0000     -10.326684      -281.0034
  63   2.0000     -10.326674      -281.0031
  64   2.0000     -10.326525      -280.9990
  65   2.0000     -10.325841      -280.9804
  66   2.0000     -10.325734      -280.9775
  67   2.0000     -10.325598      -280.9738
  68   2.0000     -10.325574      -280.9731
  69   2.0000     -10.325181      -280.9625
  70   2.0000     -10.324881      -280.9543
  71   2.0000     -10.324878      -280.9542
  72   2.0000     -10.324857      -280.9537
  73   2.0000     -10.322451      -280.8882
  74   2.0000     -10.315206      -280.6910
  75   2.0000     -10.282651      -279.8052
  76   2.0000     -10.282333      -279.7965
  77   2.0000     -10.280543      -279.7478
  78   2.0000     -10.277439      -279.6633
  79   2.0000      -8.107122      -220.6060
  80   2.0000      -6.075937      -165.3347
  81   2.0000      -6.071592      -165.2164
  82   2.0000      -6.070580      -165.1889
  83   2.0000      -1.208976       -32.8979
  84   2.0000      -1.206396       -32.8277
  85   2.0000      -1.200394       -32.6644
  86   2.0000      -1.195343       -32.5269
  87   2.0000      -1.163300       -31.6550
  88   2.0000      -1.159168       -31.5426
  89   2.0000      -1.155578       -31.4449
  90   2.0000      -1.151464       -31.3329
  91   2.0000      -1.117927       -30.4203
  92   2.0000      -1.079370       -29.3711
  93   2.0000      -1.075979       -29.2789
  94   2.0000      -1.053082       -28.6558
  95   2.0000      -1.047497       -28.5039
  96   2.0000      -1.044776       -28.4298
  97   2.0000      -1.042473       -28.3671
  98   2.0000      -1.040344       -28.3092
  99   2.0000      -1.031926       -28.0801
 100   2.0000      -1.027115       -27.9492
 101   2.0000      -1.014467       -27.6051
 102   2.0000      -1.013627       -27.5822
 103   2.0000      -1.013211       -27.5709
 104   2.0000      -1.012660       -27.5559
 105   2.0000      -1.008591       -27.4451
 106   2.0000      -1.008479       -27.4421
 107   2.0000      -1.003330       -27.3020
 108   2.0000      -0.981366       -26.7043
 109   2.0000      -0.979376       -26.6502
 110   2.0000      -0.956540       -26.0288
 111   2.0000      -0.929154       -25.2836
 112   2.0000      -0.925840       -25.1934
 113   2.0000      -0.917726       -24.9726
 114   2.0000      -0.917128       -24.9563
 115   2.0000      -0.908087       -24.7103
 116   2.0000      -0.905228       -24.6325
 117   2.0000      -0.904374       -24.6093
 118   2.0000      -0.892554       -24.2876
 119   2.0000      -0.875190       -23.8151
 120   2.0000      -0.871308       -23.7095
 121   2.0000      -0.869510       -23.6606
 122   2.0000      -0.861379       -23.4393
 123   2.0000      -0.850543       -23.1444
 124   2.0000      -0.842435       -22.9238
 125   2.0000      -0.831580       -22.6285
 126   2.0000      -0.826376       -22.4868
 127   2.0000      -0.817430       -22.2434
 128   2.0000      -0.813172       -22.1275
 129   2.0000      -0.811107       -22.0713
 130   2.0000      -0.809844       -22.0370
 131   2.0000      -0.806764       -21.9532
 132   2.0000      -0.782705       -21.2985
 133   2.0000      -0.777203       -21.1488
 134   2.0000      -0.774377       -21.0719
 135   2.0000      -0.753905       -20.5148
 136   2.0000      -0.753247       -20.4969
 137   2.0000      -0.733679       -19.9644
 138   2.0000      -0.721715       -19.6389
 139   2.0000      -0.716567       -19.4988
 140   2.0000      -0.712285       -19.3823
 141   2.0000      -0.708652       -19.2834
 142   2.0000      -0.703236       -19.1360
 143   2.0000      -0.699294       -19.0288
 144   2.0000      -0.696130       -18.9427
 145   2.0000      -0.692000       -18.8303
 146   2.0000      -0.690605       -18.7923
 147   2.0000      -0.688791       -18.7430
 148   2.0000      -0.681311       -18.5394
 149   2.0000      -0.679880       -18.5005
 150   2.0000      -0.669037       -18.2054
 151   2.0000      -0.663010       -18.0414
 152   2.0000      -0.659784       -17.9536
 153   2.0000      -0.658562       -17.9204
 154   2.0000      -0.651967       -17.7409
 155   2.0000      -0.647894       -17.6301
 156   2.0000      -0.633736       -17.2448
 157   2.0000      -0.628095       -17.0913
 158   2.0000      -0.622616       -16.9422
 159   2.0000      -0.620411       -16.8822
 160   2.0000      -0.618191       -16.8218
 161   2.0000      -0.612442       -16.6654
 162   2.0000      -0.608519       -16.5587
 163   2.0000      -0.599305       -16.3079
 164   2.0000      -0.597383       -16.2556
 165   2.0000      -0.595140       -16.1946
 166   2.0000      -0.594045       -16.1648
 167   2.0000      -0.591378       -16.0922
 168   2.0000      -0.590104       -16.0576
 169   2.0000      -0.583748       -15.8846
 170   2.0000      -0.582554       -15.8521
 171   2.0000      -0.579284       -15.7631
 172   2.0000      -0.574798       -15.6410
 173   2.0000      -0.570246       -15.5172
 174   2.0000      -0.570138       -15.5143
 175   2.0000      -0.567519       -15.4430
 176   2.0000      -0.565935       -15.3999
 177   2.0000      -0.565264       -15.3816
 178   2.0000      -0.563629       -15.3371
 179   2.0000      -0.561035       -15.2665
 180   2.0000      -0.556562       -15.1448
 181   2.0000      -0.556239       -15.1360
 182   2.0000      -0.550882       -14.9903
 183   2.0000      -0.547762       -14.9054
 184   2.0000      -0.541049       -14.7227
 185   2.0000      -0.538745       -14.6600
 186   2.0000      -0.536808       -14.6073
 187   2.0000      -0.535755       -14.5786
 188   2.0000      -0.534845       -14.5539
 189   2.0000      -0.529740       -14.4150
 190   2.0000      -0.527253       -14.3473
 191   2.0000      -0.524376       -14.2690
 192   2.0000      -0.523356       -14.2412
 193   2.0000      -0.521830       -14.1997
 194   2.0000      -0.519933       -14.1481
 195   2.0000      -0.516820       -14.0634
 196   2.0000      -0.515218       -14.0198
 197   2.0000      -0.512747       -13.9525
 198   2.0000      -0.511418       -13.9164
 199   2.0000      -0.509908       -13.8753
 200   2.0000      -0.504865       -13.7381
 201   2.0000      -0.499343       -13.5878
 202   2.0000      -0.495010       -13.4699
 203   2.0000      -0.492120       -13.3913
 204   2.0000      -0.489215       -13.3122
 205   2.0000      -0.485220       -13.2035
 206   2.0000      -0.480564       -13.0768
 207   2.0000      -0.476333       -12.9617
 208   2.0000      -0.469249       -12.7689
 209   2.0000      -0.467935       -12.7332
 210   2.0000      -0.464208       -12.6317
 211   2.0000      -0.463032       -12.5997
 212   2.0000      -0.462627       -12.5887
 213   2.0000      -0.462387       -12.5822
 214   2.0000      -0.461421       -12.5559
 215   2.0000      -0.459286       -12.4978
 216   2.0000      -0.456802       -12.4302
 217   2.0000      -0.456002       -12.4085
 218   2.0000      -0.455683       -12.3998
 219   2.0000      -0.455186       -12.3862
 220   2.0000      -0.453527       -12.3411
 221   2.0000      -0.453334       -12.3358
 222   2.0000      -0.452940       -12.3251
 223   2.0000      -0.452907       -12.3242
 224   2.0000      -0.452652       -12.3173
 225   2.0000      -0.451438       -12.2843
 226   2.0000      -0.447878       -12.1874
 227   2.0000      -0.446171       -12.1409
 228   2.0000      -0.445897       -12.1335
 229   2.0000      -0.444426       -12.0934
 230   2.0000      -0.441241       -12.0068
 231   2.0000      -0.440330       -11.9820
 232   2.0000      -0.438852       -11.9418
 233   2.0000      -0.438546       -11.9334
 234   2.0000      -0.435842       -11.8599
 235   2.0000      -0.434413       -11.8210
 236   2.0000      -0.429191       -11.6789
 237   2.0000      -0.429147       -11.6777
 238   2.0000      -0.426932       -11.6174
 239   2.0000      -0.425439       -11.5768
 240   2.0000      -0.421160       -11.4603
 241   2.0000      -0.418540       -11.3891
 242   2.0000      -0.412526       -11.2254
 243   2.0000      -0.407745       -11.0953
 244   2.0000      -0.401475       -10.9247
 245   2.0000      -0.395178       -10.7533
 246   2.0000      -0.390671       -10.6307
 247   2.0000      -0.389640       -10.6026
 248   2.0000      -0.382301       -10.4029
 249   2.0000      -0.372444       -10.1347
 250   2.0000      -0.371659       -10.1134
 251   2.0000      -0.366930        -9.9847
 252   2.0000      -0.366062        -9.9611
 253   2.0000      -0.364512        -9.9189
 254   2.0000      -0.361292        -9.8313
 255   2.0000      -0.360724        -9.8158
 256   2.0000      -0.359323        -9.7777
 257   2.0000      -0.352362        -9.5883
 258   2.0000      -0.346931        -9.4405
 259   2.0000      -0.341133        -9.2827
 260   2.0000      -0.336186        -9.1481
 261   2.0000      -0.328921        -8.9504
 262   2.0000      -0.323794        -8.8109
 263   2.0000      -0.313019        -8.5177
 264   2.0000      -0.310999        -8.4627
 265   2.0000      -0.291416        -7.9298
 266   2.0000      -0.260691        -7.0938
 267   0.0000      -0.156014        -4.2454
 268   0.0000      -0.125033        -3.4023
 269   0.0000      -0.105031        -2.8580
 270   0.0000      -0.102827        -2.7981
 271   0.0000      -0.095679        -2.6036

MULLIKEN ATOMIC CHARGES
-----------------------
   0 C :    0.052827
   1 C :   -0.044298
   2 C :   -0.064501
   3 C :   -0.175176
   4 N :    0.207129
   5 C :   -0.064244
   6 C :   -0.173172
   7 N :    0.197923
   8 C :   -0.036626
   9 C :   -0.006664
  10 C :    0.147976
  11 O :   -0.073480
  12 C :   -0.053336
  13 C :    0.310605
  14 C :   -0.337392
  15 C :   -0.191006
  16 N :    0.172425
  17 C :   -0.186710
  18 N :    0.174697
  19 C :   -0.044680
  20 C :   -0.002099
  21 C :    0.003113
  22 C :    0.026119
  23 C :    0.063909
  24 N :   -0.127588
  25 O :   -0.212077
  26 C :    0.144305
  27 C :    0.043391
  28 N :   -0.206011
  29 C :    0.107529
  30 O :   -0.236576
  31 C :    0.193658
  32 C :   -0.149587
  33 C :    0.011900
  34 C :    0.009787
  35 N :    0.096758
  36 C :   -0.115922
  37 C :    0.155918
  38 O :   -0.109211
  39 C :   -0.013097
  40 C :   -0.005146
  41 C :    0.157904
  42 O :   -0.116449
  43 C :   -0.120037
  44 N :    0.096628
  45 C :   -0.152258
  46 S :    0.344126
  47 C :    0.043725
  48 C :    0.028929
  49 C :    0.043867
  50 C :    0.102804
  51 N :   -0.205576
  52 O :   -0.242069
  53 C :    0.195567
  54 C :    0.018160
  55 N :   -0.216118
  56 C :    0.092832
  57 O :   -0.216961
  58 C :    0.159709
  59 C :    0.008013
  60 C :   -0.087243
  61 C :    0.144643
  62 O :   -0.118689
  63 C :   -0.005609
  64 C :   -0.028358
  65 C :   -0.069442
  66 C :   -0.062325
  67 C :   -0.040741
  68 C :    0.047423
  69 C :    0.266607
  70 C :   -0.248591
  71 C :   -0.196669
  72 N :    0.168054
  73 C :   -0.190240
  74 N :    0.166593
  75 C :   -0.171883
  76 N :    0.200930
  77 C :   -0.174577
  78 N :    0.196537
  79 H :    0.020644
  80 H :    0.015054
  81 H :    0.006931
  82 H :    0.054768
  83 H :    0.029408
  84 H :    0.069031
  85 H :    0.053174
  86 H :    0.036286
  87 H :    0.035822
  88 H :    0.023806
  89 H :    0.022187
  90 H :    0.039914
  91 H :    0.045291
  92 H :    0.036399
  93 H :    0.069579
  94 H :    0.031580
  95 H :    0.043622
  96 H :    0.019146
  97 H :    0.017151
  98 H :    0.019619
Sum of atomic charges:   -0.0000000

LOEWDIN ATOMIC CHARGES
----------------------
   0 C :   -0.000840
   1 C :    0.033750
   2 C :   -0.024906
   3 C :   -0.031868
   4 N :   -0.011293
   5 C :   -0.027483
   6 C :   -0.031778
   7 N :   -0.013490
   8 C :    0.047664
   9 C :   -0.027382
  10 C :    0.077854
  11 O :   -0.088483
  12 C :   -0.063114
  13 C :    0.065615
  14 C :   -0.116652
  15 C :   -0.021110
  16 N :   -0.032259
  17 C :   -0.023322
  18 N :   -0.031689
  19 C :    0.057740
  20 C :    0.040340
  21 C :   -0.112147
  22 C :   -0.116561
  23 C :    0.109125
  24 N :   -0.153995
  25 O :   -0.012590
  26 C :    0.081284
  27 C :    0.054402
  28 N :   -0.202476
  29 C :    0.104977
  30 O :   -0.035324
  31 C :    0.091359
  32 C :   -0.171907
  33 C :   -0.028990
  34 C :   -0.029434
  35 N :    0.017989
  36 C :   -0.036406
  37 C :    0.064912
  38 O :   -0.091376
  39 C :   -0.009737
  40 C :   -0.010424
  41 C :    0.066810
  42 O :   -0.094958
  43 C :   -0.035846
  44 N :    0.016360
  45 C :   -0.171983
  46 S :    0.611034
  47 C :    0.053326
  48 C :   -0.110553
  49 C :   -0.101881
  50 C :    0.105263
  51 N :   -0.198295
  52 O :   -0.041425
  53 C :    0.090118
  54 C :    0.049822
  55 N :   -0.174672
  56 C :    0.119601
  57 O :   -0.013878
  58 C :    0.082987
  59 C :    0.057482
  60 C :   -0.055555
  61 C :    0.082976
  62 O :   -0.120866
  63 C :   -0.034754
  64 C :    0.050459
  65 C :   -0.031867
  66 C :   -0.021870
  67 C :    0.029060
  68 C :    0.009655
  69 C :    0.054740
  70 C :   -0.089675
  71 C :   -0.020988
  72 N :   -0.034691
  73 C :   -0.021379
  74 N :   -0.040157
  75 C :   -0.031030
  76 N :   -0.011487
  77 C :   -0.032525
  78 N :   -0.015099
  79 H :    0.051987
  80 H :    0.053351
  81 H :    0.049740
  82 H :    0.024580
  83 H :    0.022783
  84 H :    0.030345
  85 H :    0.033725
  86 H :    0.026460
  87 H :    0.026556
  88 H :    0.048072
  89 H :    0.047433
  90 H :    0.028510
  91 H :    0.030263
  92 H :    0.026390
  93 H :    0.030870
  94 H :    0.025347
  95 H :    0.020183
  96 H :    0.053103
  97 H :    0.054395
  98 H :    0.051675

  Mayer bond orders larger than 0.100000
B(  0-C ,  1-C ) :   1.3503 B(  0-C ,  9-C ) :   1.3379 B(  0-C , 13-C ) :   0.9577
B(  1-C ,  2-C ) :   1.3978 B(  1-C , 79-H ) :   0.9867 B(  2-C ,  3-C ) :   1.0871
B(  2-C ,  5-C ) :   1.4019 B(  3-C ,  4-N ) :   3.0465 B(  5-C ,  6-C ) :   1.0867
B(  5-C ,  8-C ) :   1.3629 B(  6-C ,  7-N ) :   3.0440 B(  8-C ,  9-C ) :   1.3641
B(  8-C , 80-H ) :   1.0148 B(  9-C , 10-C ) :   0.9130 B( 10-C , 11-O ) :   2.2880
B( 10-C , 12-C ) :   0.9067 B( 12-C , 13-C ) :   1.0689 B( 12-C , 19-C ) :   1.5514
B( 13-C , 14-C ) :   1.6484 B( 14-C , 15-C ) :   1.1488 B( 14-C , 17-C ) :   1.1406
B( 15-C , 16-N ) :   2.9629 B( 17-C , 18-N ) :   2.9808 B( 19-C , 20-C ) :   1.1915
B( 19-C , 81-H ) :   0.9348 B( 20-C , 21-C ) :   1.1439 B( 20-C , 24-N ) :   1.4680
B( 21-C , 22-C ) :   1.3130 B( 21-C , 29-C ) :   1.0749 B( 22-C , 23-C ) :   1.0532
B( 22-C , 27-C ) :   1.1626 B( 23-C , 24-N ) :   1.4546 B( 23-C , 25-O ) :   1.3681
B( 25-O , 26-C ) :   0.8879 B( 26-C , 82-H ) :   0.9625 B( 26-C , 83-H ) :   0.9782
B( 26-C , 84-H ) :   0.9533 B( 27-C , 28-N ) :   1.4500 B( 27-C , 32-C ) :   1.1982
B( 28-N , 29-C ) :   1.4702 B( 29-C , 30-O ) :   1.3392 B( 30-O , 31-C ) :   0.9035
B( 31-C , 85-H ) :   0.9794 B( 31-C , 86-H ) :   0.9720 B( 31-C , 87-H ) :   0.9745
B( 32-C , 33-C ) :   1.2910 B( 32-C , 45-C ) :   0.1559 B( 32-C , 46-S ) :   1.1843
B( 33-C , 34-C ) :   1.1947 B( 33-C , 44-N ) :   1.5055 B( 34-C , 35-N ) :   1.5037
B( 34-C , 45-C ) :   1.2952 B( 35-N , 36-C ) :   1.6785 B( 36-C , 37-C ) :   0.8936
B( 36-C , 43-C ) :   1.1255 B( 37-C , 38-O ) :   2.1823 B( 37-C , 39-C ) :   1.0272
B( 39-C , 40-C ) :   1.6865 B( 39-C , 88-H ) :   0.9965 B( 40-C , 41-C ) :   1.0249
B( 40-C , 89-H ) :   0.9948 B( 41-C , 42-O ) :   2.1675 B( 41-C , 43-C ) :   0.8948
B( 43-C , 44-N ) :   1.6856 B( 45-C , 46-S ) :   1.1840 B( 45-C , 47-C ) :   1.1935
B( 47-C , 48-C ) :   1.1985 B( 47-C , 51-N ) :   1.4249 B( 48-C , 49-C ) :   1.2907
B( 48-C , 56-C ) :   1.0552 B( 49-C , 50-C ) :   1.0558 B( 49-C , 54-C ) :   1.2068
B( 50-C , 51-N ) :   1.4948 B( 50-C , 52-O ) :   1.3370 B( 52-O , 53-C ) :   0.9050
B( 53-C , 90-H ) :   0.9740 B( 53-C , 91-H ) :   0.9798 B( 53-C , 92-H ) :   0.9721
B( 54-C , 55-N ) :   1.3510 B( 54-C , 59-C ) :   1.1345 B( 55-N , 56-C ) :   1.4482
B( 56-C , 57-O ) :   1.3651 B( 57-O , 58-C ) :   0.8943 B( 58-C , 93-H ) :   0.9643
B( 58-C , 94-H ) :   0.9793 B( 58-C , 95-H ) :   0.9594 B( 59-C , 60-C ) :   1.6054
B( 59-C , 96-H ) :   0.9561 B( 60-C , 61-C ) :   0.9369 B( 60-C , 69-C ) :   1.0360
B( 61-C , 62-O ) :   2.2926 B( 61-C , 63-C ) :   0.8986 B( 63-C , 64-C ) :   1.3691
B( 63-C , 68-C ) :   1.3285 B( 64-C , 65-C ) :   1.3701 B( 64-C , 97-H ) :   1.0137
B( 65-C , 66-C ) :   1.3996 B( 65-C , 77-C ) :   1.0881 B( 66-C , 67-C ) :   1.3885
B( 66-C , 75-C ) :   1.0857 B( 67-C , 68-C ) :   1.3621 B( 67-C , 98-H ) :   0.9900
B( 68-C , 69-C ) :   0.9803 B( 69-C , 70-C ) :   1.7069 B( 70-C , 71-C ) :   1.1458
B( 70-C , 73-C ) :   1.1361 B( 71-C , 72-N ) :   2.9708 B( 73-C , 74-N ) :   2.9829
B( 75-C , 76-N ) :   3.0437 B( 77-C , 78-N ) :   3.0452

-----------------------------------------------------------------------------
         ABSORPTION SPECTRUM VIA TRANSITION ELECTRIC DIPOLE MOMENTS
-----------------------------------------------------------------------------
State   Energy  Wavelength   fosc         T2         TX        TY        TZ
        (cm-1)    (nm)                  (au**2)     (au)      (au)      (au)
-----------------------------------------------------------------------------
   0    8767.4   1140.6   1.053236231  39.54869   2.01411  -4.85476   3.45301
   1   13239.6    755.3   0.036181266   0.89968   0.04975  -0.83258   0.45168
   2   13869.4    721.0   0.060880621   1.44510   0.46252  -0.90119   0.64733
   3   14726.8    679.0   0.002966821   0.06632   0.21226   0.12650  -0.07256
   4   15594.3    641.3   0.030398398   0.64174   0.52380   0.60263  -0.06485
   5   16240.5    615.7   0.000526889   0.01068  -0.04093  -0.02956   0.09017
   6   18555.5    538.9   0.161764437   2.87003  -0.47346   1.40199  -0.82480
   7   19047.1    525.0   0.061553771   1.06390  -0.79859  -0.65036  -0.05644
   8   20144.5    496.4   0.008162453   0.13340  -0.05278   0.34094  -0.11987
   9   21310.0    469.3   0.023799149   0.36767   0.30134  -0.24632   0.46496
  10   21524.3    464.6   0.082178680   1.25691  -0.86333   0.36691  -0.61396
  11   22191.9    450.6   0.034515172   0.51202  -0.19803  -0.62756   0.28103
  12   22463.1    445.2   0.010002955   0.14660   0.02226  -0.04524  -0.37955
  13   24116.3    414.7   0.127798398   1.74458  -0.43918   1.08675  -0.60884
  14   24313.5    411.3   0.002745681   0.03718   0.02346  -0.15043   0.11831
  15   24461.6    408.8   0.016275613   0.21904   0.22618   0.39945   0.09123
  16   24630.4    406.0   0.014169320   0.18939  -0.06011  -0.36710   0.22586
  17   24867.6    402.1   0.069269107   0.91703  -0.39871   0.83215  -0.25607
  18   24906.0    401.5   0.009932031   0.13128   0.04484  -0.13320  -0.33396
  19   25822.7    387.3   0.051708736   0.65923   0.61798   0.52513   0.03965
  20   26183.9    381.9   0.003344927   0.04206  -0.13629  -0.14722   0.04253
  21   26192.4    381.8   0.005389936   0.06775   0.23807   0.09498   0.04526
  22   26747.0    373.9   0.062103720   0.76440   0.79190   0.28796   0.23317
  23   26814.2    372.9   0.025128252   0.30851   0.29987   0.45363  -0.11320
  24   27227.4    367.3   0.009627030   0.11640  -0.14242  -0.04775  -0.30633
  25   27960.8    357.6   0.002723381   0.03207   0.14959   0.09682   0.01770
  26   28053.4    356.5   0.002413742   0.02833   0.11244   0.01968   0.12367
  27   28239.4    354.1   0.001417276   0.01652   0.05311   0.09695  -0.06560
  28   28439.1    351.6   0.011645409   0.13481   0.03721  -0.28735  -0.22551
  29   28588.4    349.8   0.001298823   0.01496   0.08604  -0.07597  -0.04221
  30   29182.9    342.7   0.042932200   0.48432  -0.49240  -0.49161  -0.01349
  31   29401.0    340.1   0.003647425   0.04084   0.15974   0.05569  -0.11056
  32   29434.7    339.7   0.020747287   0.23205   0.41236   0.23892   0.07019
  33   29589.0    338.0   0.015037599   0.16731  -0.07029  -0.36569   0.16923
  34   29850.8    335.0   0.012135902   0.13384  -0.31360  -0.18376  -0.04158
  35   30403.9    328.9   0.006893747   0.07465  -0.26526   0.05432  -0.03647
  36   30630.8    326.5   0.061174395   0.65749  -0.08445   0.80049   0.09780
  37   30895.8    323.7   0.201928982   2.15167  -0.27743   1.33982  -0.52875
  38   31238.5    320.1   0.001703816   0.01796  -0.10910  -0.05088  -0.05886
  39   31349.5    319.0   0.125073418   1.31344  -0.69680   0.33601  -0.84558
  40   31522.8    317.2   0.103108270   1.07682  -0.10969   0.83151  -0.61105
  41   31767.4    314.8   0.081759782   0.84729  -0.56343   0.04280  -0.72664
  42   31813.5    314.3   0.010911666   0.11292  -0.24683  -0.21470   0.07679
  43   31948.1    313.0   0.017531084   0.18065  -0.34875  -0.20347   0.13275
  44   32083.4    311.7   0.269762884   2.76807   1.53668   0.45538   0.44646
  45   32255.0    310.0   0.167714434   1.71178   0.02391   1.16191  -0.60098
  46   32713.0    305.7   0.008897537   0.08954  -0.03257   0.22268  -0.19721
  47   32919.5    303.8   0.025868468   0.25870   0.22477   0.45442  -0.04099
  48   33122.4    301.9   0.004539060   0.04511   0.19255   0.08960   0.00321
  49   33520.4    298.3   0.007294490   0.07164  -0.01925   0.10890  -0.24374
  50   33564.1    297.9   0.229082343   2.24694   0.93431  -0.85043   0.80670
  51   33850.8    295.4   0.006960121   0.06769   0.11967  -0.23086  -0.00844
  52   34047.1    293.7   0.017167665   0.16600  -0.18488  -0.36260   0.01842
  53   34199.5    292.4   0.163779200   1.57658   1.11388   0.08273   0.57359
  54   34393.4    290.8   0.098542688   0.94325  -0.48887  -0.64587   0.53583
  55   34518.0    289.7   0.038515082   0.36733   0.59288   0.08807   0.08981
  56   34593.7    289.1   0.280522933   2.66960   1.02070  -0.19431   1.26096
  57   34716.2    288.1   0.004480448   0.04249  -0.16812   0.11815  -0.01621
  58   34851.4    286.9   0.025496589   0.24085   0.37469  -0.30251   0.09455
  59   35170.0    284.3   0.038001269   0.35571  -0.54707   0.18042  -0.15451
  60   35278.5    283.5   0.140060298   1.30702   1.04314   0.13813   0.44699
  61   35523.1    281.5   0.005927283   0.05493  -0.21705  -0.08317  -0.03005
  62   36333.7    275.2   0.006490250   0.05881  -0.17798  -0.15482   0.05622
  63   36513.5    273.9   0.017939241   0.16174  -0.36118  -0.17689   0.00184
  64   36605.2    273.2   0.002163661   0.01946   0.03453  -0.13456   0.01264
  65   36691.2    272.5   0.017174220   0.15410   0.23449   0.20384   0.23992
  66   36820.1    271.6   0.118263850   1.05741  -0.88132   0.01330  -0.52962
  67   36898.9    271.0   0.104116485   0.92893   0.21784  -0.26179   0.90163
  68   37135.9    269.3   0.001921989   0.01704  -0.10904  -0.02158  -0.06843
  69   37372.3    267.6   0.054378827   0.47902   0.16992   0.61086  -0.27750
  70   37450.9    267.0   0.046660317   0.41017   0.41702   0.27784   0.39883
  71   37785.1    264.7   0.015930461   0.13880   0.26283  -0.15156   0.21621
  72   38145.2    262.2   0.004095553   0.03535   0.00198   0.10429  -0.15642
  73   38197.6    261.8   0.033725614   0.29067   0.16795   0.37958  -0.34407
  74   38501.7    259.7   0.020756605   0.17748   0.40420   0.08970   0.07783
  75   38572.9    259.2   0.076553003   0.65337   0.75614  -0.13640   0.25103
  76   38599.2    259.1   0.002147449   0.01832  -0.11714  -0.06767  -0.00372
  77   38692.3    258.4   0.021027018   0.17891  -0.32400  -0.27186  -0.00484
  78   38735.9    258.2   0.024384263   0.20724   0.01615   0.43482  -0.13383
  79   38798.0    257.7   0.124208771   1.05395  -0.83841  -0.59244   0.00576
  80   39003.4    256.4   0.012071634   0.10189  -0.10736  -0.05026  -0.29638
  81   39020.0    256.3   0.003192271   0.02693  -0.02829   0.07694  -0.14217
  82   39354.6    254.1   0.094044617   0.78671   0.66343   0.55412   0.19880
  83   39396.9    253.8   0.050581742   0.42268  -0.58277  -0.16722  -0.23471
  84   39441.2    253.5   0.062560742   0.52219  -0.20091   0.69404  -0.01130
  85   39543.4    252.9   0.051293454   0.42704  -0.32192  -0.56851  -0.01407
  86   39620.8    252.4   0.010199933   0.08475   0.16061   0.21473  -0.11334
  87   40013.7    249.9   0.159393414   1.31140   0.97785   0.57272   0.16492
  88   40123.4    249.2   0.043684870   0.35843  -0.33946   0.12478  -0.47710

FINAL SINGLE POINT ENERGY     -3907.742056172140

DIPOLE MOMENT
-------------
                                X             Y             Z
Electronic contribution:     -4.40686      -0.00821      -0.26371
Nuclear contribution   :      5.84550       0.12676       0.50401
                        -----------------------------------------
Total Dipole Moment    :      1.43863       0.11856       0.24030
                        -----------------------------------------
Magnitude (a.u.)       :      1.46337
Magnitude (Debye)      :      3.71960

Rotational constants in cm-1:     0.002333     0.000244     0.000226
Rotational constants in MHz :    69.935397     7.323602     6.762731

                             ****ORCA TERMINATED NORMALLY****
TOTAL RUN TIME: 0 days 0 hours 11 minutes 44 seconds 475 msec
