                         Program Version 4.2.0 -  RELEASE  -
|  1> # ORCA input file
|  2> # SCF done       -197.902756183754          0.000955128938
|  3> ! CAM-B3LYP def2-SVP def2/J RIJCOSX Grid4 TightSCF
|  4> %maxcore 5000
|  5> %tddft
|  6>     Mode sTDDFT
|  7>     Ethresh 5.0
|  8>     maxcore 5000
|  9> end
| 10>
| 11> %pal
| 12>   nprocs 6
| 13>   end
| 14> * xyz 0 1
| 15>    C        5.07320       -11.72371         7.91726
| 16>    C        5.80501       -12.21313         8.96500
| 17>    C        7.00595       -11.59319         9.34126
| 18>    C        7.45849       -10.49342         8.66483
| 19>    C        6.72847        -9.96145         7.58246
| 20>    C        7.18467        -8.81724         6.88911
| 21>    C        6.44664        -8.32242         5.84726
| 22>    C        5.23689        -8.96925         5.45731
| 23>    C        4.77112       -10.07208         6.11300
| 24>    C        5.50973       -10.59268         7.19970
| 25>    C        4.65660        -8.26506         4.29788
| 26>    O        3.61432        -8.49717         3.73069
| 27>    C        5.66449        -7.23054         3.92615
| 28>    C        6.64003        -7.15252         4.99869
| 29>    C        7.42728        -6.07259         5.30181
| 30>    C        7.37169        -4.83616         4.62497
| 31>    N        7.33262        -3.78233         4.17073
| 32>    C        8.33189        -6.04261         6.38186
| 33>    N        9.11063        -5.98350         7.22373
| 34>    C        5.61561        -6.62461         2.71611
| 35>    C        6.67004        -5.89033         2.06949
| 36>    C        6.35068        -4.77400         1.26592
| 37>    O        5.03735        -4.46507         1.16676
| 38>    C        4.66745        -3.29603         0.47341
| 39>    C        7.38014        -4.05792         0.67948
| 40>    C        8.71438        -4.43301         0.83223
| 41>    C        9.03942        -5.55215         1.63612
| 42>    C        8.00761        -6.26146         2.22469
| 43>    O       10.34813        -5.80326         1.83833
| 44>    C       10.72389        -6.96646         2.53554
| 45>    C        9.74578        -3.65548         0.19692
| 46>    C       10.95466        -4.08007        -0.35273
| 47>    C       11.75992        -2.98321        -0.83873
| 48>    N       12.94974        -3.21158        -1.39933
| 49>    C       13.34897        -4.46016        -1.50072
| 50>    C       14.66821        -4.68374        -2.13231
| 51>    O       15.38158        -3.77151        -2.50335
| 52>    C       15.04732        -6.09768        -2.29267
| 53>    C       14.28526        -7.11658        -1.88189
| 54>    C       12.98241        -6.95048        -1.20966
| 55>    O       12.35233        -7.89870        -0.78873
| 56>    C       12.52805        -5.54671        -1.06209
| 57>    N       11.35287        -5.34658        -0.51492
| 58>    C       11.14889        -1.73213        -0.67665
| 59>    S        9.59518        -1.93950         0.04888
| 60>    C       11.68134        -0.44807        -1.00226
| 61>    C       10.90105         0.72322        -0.83370
| 62>    O        9.63893         0.53222        -0.37506
| 63>    C        8.78342         1.64701        -0.24458
| 64>    C       11.44638         1.95523        -1.12843
| 65>    C       12.75304         2.08360        -1.61113
| 66>    C       13.54004         0.90755        -1.77340
| 67>    C       12.99428        -0.32479        -1.47102
| 68>    O       14.79179         1.07844        -2.24497
| 69>    C       15.64584        -0.04515        -2.33505
| 70>    C       13.37433         3.34391        -1.86585
| 71>    C       12.83645         4.55598        -2.18322
| 72>    C       13.63986         5.76060        -2.34020
| 73>    C       14.87043         5.98527        -1.78274
| 74>    C       15.59601         7.18437        -1.94043
| 75>    N       16.23180         8.13555        -2.03636
| 76>    C       15.55031         5.08932        -0.92935
| 77>    N       16.15686         4.43943        -0.20241
| 78>    C       12.86103         6.72672        -3.10088
| 79>    C       11.55721         6.19116        -3.29726
| 80>    C       10.59269         6.87560        -3.97904
| 81>    C       10.89741         8.14854        -4.51114
| 82>    C        9.94495         8.89970        -5.22745
| 83>    C       10.26391        10.12796        -5.73972
| 84>    C       11.54897        10.65989        -5.55649
| 85>    C       12.49701         9.95629        -4.86495
| 86>    C       12.20282         8.68804        -4.32445
| 87>    C       13.17960         7.95773        -3.60949
| 88>    C       11.46580         4.85821        -2.67310
| 89>    O       10.46673         4.16985        -2.61978
| 90>    H        4.14772       -12.19698         7.62339
| 91>    H        5.46271       -13.08031         9.50966
| 92>    H        7.57071       -11.99132        10.17093
| 93>    H        8.38077       -10.01035         8.95265
| 94>    H        8.11404        -8.36270         7.19541
| 95>    H        3.84759       -10.54162         5.80841
| 96>    H        4.69061        -6.73389         2.16083
| 97>    H        3.58402        -3.23580         0.56196
| 98>    H        4.94150        -3.35188        -0.58476
| 99>    H        5.11983        -2.40840         0.92469
|100>    H        7.17137        -3.19517         0.06672
|101>    H        8.22208        -7.13903         2.81392
|102>    H       10.33681        -7.86515         2.04813
|103>    H       10.39660        -6.93527         3.58094
|104>    H       11.81144        -6.98699         2.50022
|105>    H       16.00253        -6.26637        -2.77174
|106>    H       14.60207        -8.14261        -2.01429
|107>    H        7.81298         1.23959         0.03328
|108>    H        8.70035         2.19570        -1.18630
|109>    H        9.13208         2.32179         0.54233
|110>    H       10.87264         2.85080        -0.97574
|111>    H       13.56598        -1.22904        -1.58945
|112>    H       16.59644         0.34339        -2.69540
|113>    H       15.26464        -0.79043        -3.03703
|114>    H       15.79009        -0.51342        -1.35854
|115>    H       14.45707         3.28958        -1.83917
|116>    H        9.60899         6.45035        -4.11337
|117>    H        8.95687         8.48526        -5.36545
|118>    H        9.52806        10.69632        -6.28877
|119>    H       11.78411        11.63075        -5.96629
|120>    H       13.48757        10.36186        -4.71995
|121>    H       14.16144         8.38782        -3.49040
|122> *
|123>
|124>                          ****END OF INPUT****

CARTESIAN COORDINATES (ANGSTROEM)
---------------------------------
  C      5.073200  -11.723710    7.917260
  C      5.805010  -12.213130    8.965000
  C      7.005950  -11.593190    9.341260
  C      7.458490  -10.493420    8.664830
  C      6.728470   -9.961450    7.582460
  C      7.184670   -8.817240    6.889110
  C      6.446640   -8.322420    5.847260
  C      5.236890   -8.969250    5.457310
  C      4.771120  -10.072080    6.113000
  C      5.509730  -10.592680    7.199700
  C      4.656600   -8.265060    4.297880
  O      3.614320   -8.497170    3.730690
  C      5.664490   -7.230540    3.926150
  C      6.640030   -7.152520    4.998690
  C      7.427280   -6.072590    5.301810
  C      7.371690   -4.836160    4.624970
  N      7.332620   -3.782330    4.170730
  C      8.331890   -6.042610    6.381860
  N      9.110630   -5.983500    7.223730
  C      5.615610   -6.624610    2.716110
  C      6.670040   -5.890330    2.069490
  C      6.350680   -4.774000    1.265920
  O      5.037350   -4.465070    1.166760
  C      4.667450   -3.296030    0.473410
  C      7.380140   -4.057920    0.679480
  C      8.714380   -4.433010    0.832230
  C      9.039420   -5.552150    1.636120
  C      8.007610   -6.261460    2.224690
  O     10.348130   -5.803260    1.838330
  C     10.723890   -6.966460    2.535540
  C      9.745780   -3.655480    0.196920
  C     10.954660   -4.080070   -0.352730
  C     11.759920   -2.983210   -0.838730
  N     12.949740   -3.211580   -1.399330
  C     13.348970   -4.460160   -1.500720
  C     14.668210   -4.683740   -2.132310
  O     15.381580   -3.771510   -2.503350
  C     15.047320   -6.097680   -2.292670
  C     14.285260   -7.116580   -1.881890
  C     12.982410   -6.950480   -1.209660
  O     12.352330   -7.898700   -0.788730
  C     12.528050   -5.546710   -1.062090
  N     11.352870   -5.346580   -0.514920
  C     11.148890   -1.732130   -0.676650
  S      9.595180   -1.939500    0.048880
  C     11.681340   -0.448070   -1.002260
  C     10.901050    0.723220   -0.833700
  O      9.638930    0.532220   -0.375060
  C      8.783420    1.647010   -0.244580
  C     11.446380    1.955230   -1.128430
  C     12.753040    2.083600   -1.611130
  C     13.540040    0.907550   -1.773400
  C     12.994280   -0.324790   -1.471020
  O     14.791790    1.078440   -2.244970
  C     15.645840   -0.045150   -2.335050
  C     13.374330    3.343910   -1.865850
  C     12.836450    4.555980   -2.183220
  C     13.639860    5.760600   -2.340200
  C     14.870430    5.985270   -1.782740
  C     15.596010    7.184370   -1.940430
  N     16.231800    8.135550   -2.036360
  C     15.550310    5.089320   -0.929350
  N     16.156860    4.439430   -0.202410
  C     12.861030    6.726720   -3.100880
  C     11.557210    6.191160   -3.297260
  C     10.592690    6.875600   -3.979040
  C     10.897410    8.148540   -4.511140
  C      9.944950    8.899700   -5.227450
  C     10.263910   10.127960   -5.739720
  C     11.548970   10.659890   -5.556490
  C     12.497010    9.956290   -4.864950
  C     12.202820    8.688040   -4.324450
  C     13.179600    7.957730   -3.609490
  C     11.465800    4.858210   -2.673100
  O     10.466730    4.169850   -2.619780
  H      4.147720  -12.196980    7.623390
  H      5.462710  -13.080310    9.509660
  H      7.570710  -11.991320   10.170930
  H      8.380770  -10.010350    8.952650
  H      8.114040   -8.362700    7.195410
  H      3.847590  -10.541620    5.808410
  H      4.690610   -6.733890    2.160830
  H      3.584020   -3.235800    0.561960
  H      4.941500   -3.351880   -0.584760
  H      5.119830   -2.408400    0.924690
  H      7.171370   -3.195170    0.066720
  H      8.222080   -7.139030    2.813920
  H     10.336810   -7.865150    2.048130
  H     10.396600   -6.935270    3.580940
  H     11.811440   -6.986990    2.500220
  H     16.002530   -6.266370   -2.771740
  H     14.602070   -8.142610   -2.014290
  H      7.812980    1.239590    0.033280
  H      8.700350    2.195700   -1.186300
  H      9.132080    2.321790    0.542330
  H     10.872640    2.850800   -0.975740
  H     13.565980   -1.229040   -1.589450
  H     16.596440    0.343390   -2.695400
  H     15.264640   -0.790430   -3.037030
  H     15.790090   -0.513420   -1.358540
  H     14.457070    3.289580   -1.839170
  H      9.608990    6.450350   -4.113370
  H      8.956870    8.485260   -5.365450
  H      9.528060   10.696320   -6.288770
  H     11.784110   11.630750   -5.966290
  H     13.487570   10.361860   -4.719950
  H     14.161440    8.387820   -3.490400

 Total Charge           Charge          ....    0
 Multiplicity           Mult            ....    1
 Number of Electrons    NEL             ....  514
 Basis Dimension        Dim             .... 1214

ORBITAL ENERGIES
----------------

  NO   OCC          E(Eh)            E(eV)
   0   2.0000     -88.985093     -2421.4075
   1   2.0000     -19.260250      -524.0981
   2   2.0000     -19.254486      -523.9412
   3   2.0000     -19.248221      -523.7707
   4   2.0000     -19.241090      -523.5767
   5   2.0000     -19.226183      -523.1710
   6   2.0000     -19.223468      -523.0971
   7   2.0000     -19.212145      -522.7890
   8   2.0000     -19.209488      -522.7168
   9   2.0000     -14.439511      -392.9191
  10   2.0000     -14.434205      -392.7747
  11   2.0000     -14.413460      -392.2102
  12   2.0000     -14.408561      -392.0769
  13   2.0000     -14.406882      -392.0312
  14   2.0000     -14.404307      -391.9611
  15   2.0000     -10.374468      -282.3036
  16   2.0000     -10.372193      -282.2417
  17   2.0000     -10.364338      -282.0280
  18   2.0000     -10.360850      -281.9331
  19   2.0000     -10.340526      -281.3800
  20   2.0000     -10.338782      -281.3326
  21   2.0000     -10.337773      -281.3051
  22   2.0000     -10.337342      -281.2934
  23   2.0000     -10.336522      -281.2711
  24   2.0000     -10.336170      -281.2615
  25   2.0000     -10.332692      -281.1668
  26   2.0000     -10.332393      -281.1587
  27   2.0000     -10.330838      -281.1164
  28   2.0000     -10.329885      -281.0905
  29   2.0000     -10.328615      -281.0559
  30   2.0000     -10.328099      -281.0418
  31   2.0000     -10.323042      -280.9043
  32   2.0000     -10.319216      -280.8002
  33   2.0000     -10.318913      -280.7919
  34   2.0000     -10.317527      -280.7542
  35   2.0000     -10.316151      -280.7167
  36   2.0000     -10.312620      -280.6207
  37   2.0000     -10.312365      -280.6137
  38   2.0000     -10.311411      -280.5878
  39   2.0000     -10.309941      -280.5478
  40   2.0000     -10.309463      -280.5347
  41   2.0000     -10.307599      -280.4840
  42   2.0000     -10.307463      -280.4803
  43   2.0000     -10.306859      -280.4639
  44   2.0000     -10.306712      -280.4599
  45   2.0000     -10.301105      -280.3073
  46   2.0000     -10.300713      -280.2967
  47   2.0000     -10.297767      -280.2165
  48   2.0000     -10.296577      -280.1841
  49   2.0000     -10.295995      -280.1683
  50   2.0000     -10.295647      -280.1588
  51   2.0000     -10.294704      -280.1331
  52   2.0000     -10.294483      -280.1271
  53   2.0000     -10.293434      -280.0986
  54   2.0000     -10.293056      -280.0883
  55   2.0000     -10.292116      -280.0627
  56   2.0000     -10.291299      -280.0405
  57   2.0000     -10.291177      -280.0372
  58   2.0000     -10.289920      -280.0030
  59   2.0000     -10.288453      -279.9630
  60   2.0000     -10.286540      -279.9110
  61   2.0000     -10.285935      -279.8945
  62   2.0000     -10.284949      -279.8677
  63   2.0000     -10.284511      -279.8558
  64   2.0000     -10.284303      -279.8501
  65   2.0000     -10.283872      -279.8384
  66   2.0000     -10.283600      -279.8310
  67   2.0000     -10.283099      -279.8174
  68   2.0000     -10.282578      -279.8032
  69   2.0000     -10.282136      -279.7911
  70   2.0000     -10.281522      -279.7744
  71   2.0000     -10.281444      -279.7723
  72   2.0000     -10.279557      -279.7210
  73   2.0000     -10.275926      -279.6222
  74   2.0000     -10.265241      -279.3314
  75   2.0000      -8.078025      -219.8142
  76   2.0000      -6.046897      -164.5444
  77   2.0000      -6.042456      -164.4236
  78   2.0000      -6.041527      -164.3983
  79   2.0000      -1.164797       -31.6957
  80   2.0000      -1.160122       -31.5685
  81   2.0000      -1.153405       -31.3857
  82   2.0000      -1.151021       -31.3209
  83   2.0000      -1.140384       -31.0314
  84   2.0000      -1.135968       -30.9113
  85   2.0000      -1.126508       -30.6538
  86   2.0000      -1.124533       -30.6001
  87   2.0000      -1.088915       -29.6309
  88   2.0000      -1.015268       -27.6268
  89   2.0000      -1.014739       -27.6125
  90   2.0000      -1.009686       -27.4750
  91   2.0000      -0.995720       -27.0949
  92   2.0000      -0.995127       -27.0788
  93   2.0000      -0.991514       -26.9805
  94   2.0000      -0.989552       -26.9271
  95   2.0000      -0.984159       -26.7803
  96   2.0000      -0.969940       -26.3934
  97   2.0000      -0.966805       -26.3081
  98   2.0000      -0.960985       -26.1497
  99   2.0000      -0.954237       -25.9661
 100   2.0000      -0.935341       -25.4519
 101   2.0000      -0.922724       -25.1086
 102   2.0000      -0.919214       -25.0131
 103   2.0000      -0.908190       -24.7131
 104   2.0000      -0.898950       -24.4617
 105   2.0000      -0.886520       -24.1234
 106   2.0000      -0.880795       -23.9677
 107   2.0000      -0.878520       -23.9058
 108   2.0000      -0.875410       -23.8211
 109   2.0000      -0.865068       -23.5397
 110   2.0000      -0.855963       -23.2919
 111   2.0000      -0.850850       -23.1528
 112   2.0000      -0.847751       -23.0685
 113   2.0000      -0.838310       -22.8116
 114   2.0000      -0.826092       -22.4791
 115   2.0000      -0.823527       -22.4093
 116   2.0000      -0.819627       -22.3032
 117   2.0000      -0.810714       -22.0607
 118   2.0000      -0.809433       -22.0258
 119   2.0000      -0.793504       -21.5924
 120   2.0000      -0.790849       -21.5201
 121   2.0000      -0.781057       -21.2536
 122   2.0000      -0.778907       -21.1951
 123   2.0000      -0.764084       -20.7918
 124   2.0000      -0.758666       -20.6444
 125   2.0000      -0.754964       -20.5436
 126   2.0000      -0.754453       -20.5297
 127   2.0000      -0.739363       -20.1191
 128   2.0000      -0.736521       -20.0418
 129   2.0000      -0.709110       -19.2959
 130   2.0000      -0.702377       -19.1127
 131   2.0000      -0.699950       -19.0466
 132   2.0000      -0.699190       -19.0259
 133   2.0000      -0.695555       -18.9270
 134   2.0000      -0.688279       -18.7290
 135   2.0000      -0.684507       -18.6264
 136   2.0000      -0.680074       -18.5057
 137   2.0000      -0.672417       -18.2974
 138   2.0000      -0.670254       -18.2386
 139   2.0000      -0.666062       -18.1245
 140   2.0000      -0.662906       -18.0386
 141   2.0000      -0.660387       -17.9700
 142   2.0000      -0.644275       -17.5316
 143   2.0000      -0.640305       -17.4236
 144   2.0000      -0.633398       -17.2356
 145   2.0000      -0.630281       -17.1508
 146   2.0000      -0.623122       -16.9560
 147   2.0000      -0.618142       -16.8205
 148   2.0000      -0.612696       -16.6723
 149   2.0000      -0.610154       -16.6031
 150   2.0000      -0.604961       -16.4618
 151   2.0000      -0.602393       -16.3920
 152   2.0000      -0.601587       -16.3700
 153   2.0000      -0.599390       -16.3102
 154   2.0000      -0.594369       -16.1736
 155   2.0000      -0.588656       -16.0181
 156   2.0000      -0.586978       -15.9725
 157   2.0000      -0.580163       -15.7870
 158   2.0000      -0.573846       -15.6151
 159   2.0000      -0.565340       -15.3837
 160   2.0000      -0.563129       -15.3235
 161   2.0000      -0.558946       -15.2097
 162   2.0000      -0.556870       -15.1532
 163   2.0000      -0.552422       -15.0322
 164   2.0000      -0.550372       -14.9764
 165   2.0000      -0.548437       -14.9237
 166   2.0000      -0.547235       -14.8910
 167   2.0000      -0.546255       -14.8643
 168   2.0000      -0.544573       -14.8186
 169   2.0000      -0.544308       -14.8114
 170   2.0000      -0.542548       -14.7635
 171   2.0000      -0.540992       -14.7211
 172   2.0000      -0.536489       -14.5986
 173   2.0000      -0.535578       -14.5738
 174   2.0000      -0.533797       -14.5254
 175   2.0000      -0.528995       -14.3947
 176   2.0000      -0.526898       -14.3376
 177   2.0000      -0.525074       -14.2880
 178   2.0000      -0.523929       -14.2568
 179   2.0000      -0.523649       -14.2492
 180   2.0000      -0.518013       -14.0958
 181   2.0000      -0.515955       -14.0399
 182   2.0000      -0.513079       -13.9616
 183   2.0000      -0.511140       -13.9088
 184   2.0000      -0.509895       -13.8749
 185   2.0000      -0.509355       -13.8603
 186   2.0000      -0.507700       -13.8152
 187   2.0000      -0.503567       -13.7027
 188   2.0000      -0.501226       -13.6390
 189   2.0000      -0.498902       -13.5758
 190   2.0000      -0.497365       -13.5340
 191   2.0000      -0.494747       -13.4627
 192   2.0000      -0.494232       -13.4487
 193   2.0000      -0.491300       -13.3689
 194   2.0000      -0.490973       -13.3601
 195   2.0000      -0.489168       -13.3109
 196   2.0000      -0.485926       -13.2227
 197   2.0000      -0.483119       -13.1463
 198   2.0000      -0.480496       -13.0750
 199   2.0000      -0.479647       -13.0518
 200   2.0000      -0.478709       -13.0263
 201   2.0000      -0.477150       -12.9839
 202   2.0000      -0.470093       -12.7919
 203   2.0000      -0.461975       -12.5710
 204   2.0000      -0.460093       -12.5198
 205   2.0000      -0.457317       -12.4442
 206   2.0000      -0.451523       -12.2866
 207   2.0000      -0.448751       -12.2111
 208   2.0000      -0.446778       -12.1574
 209   2.0000      -0.444218       -12.0878
 210   2.0000      -0.440859       -11.9964
 211   2.0000      -0.439874       -11.9696
 212   2.0000      -0.438242       -11.9252
 213   2.0000      -0.436992       -11.8912
 214   2.0000      -0.436398       -11.8750
 215   2.0000      -0.433550       -11.7975
 216   2.0000      -0.430742       -11.7211
 217   2.0000      -0.429200       -11.6791
 218   2.0000      -0.428061       -11.6481
 219   2.0000      -0.427790       -11.6408
 220   2.0000      -0.426739       -11.6122
 221   2.0000      -0.426115       -11.5952
 222   2.0000      -0.420712       -11.4482
 223   2.0000      -0.418846       -11.3974
 224   2.0000      -0.417493       -11.3606
 225   2.0000      -0.416350       -11.3294
 226   2.0000      -0.412192       -11.2163
 227   2.0000      -0.410081       -11.1589
 228   2.0000      -0.408611       -11.1189
 229   2.0000      -0.405496       -11.0341
 230   2.0000      -0.402170       -10.9436
 231   2.0000      -0.397668       -10.8211
 232   2.0000      -0.396131       -10.7793
 233   2.0000      -0.393474       -10.7070
 234   2.0000      -0.387665       -10.5489
 235   2.0000      -0.379641       -10.3306
 236   2.0000      -0.375773       -10.2253
 237   2.0000      -0.375057       -10.2058
 238   2.0000      -0.371727       -10.1152
 239   2.0000      -0.368781       -10.0350
 240   2.0000      -0.362824        -9.8730
 241   2.0000      -0.358247        -9.7484
 242   2.0000      -0.353668        -9.6238
 243   2.0000      -0.344196        -9.3661
 244   2.0000      -0.335963        -9.1420
 245   2.0000      -0.334174        -9.0933
 246   2.0000      -0.331014        -9.0074
 247   2.0000      -0.323811        -8.8113
 248   2.0000      -0.320499        -8.7212
 249   2.0000      -0.315157        -8.5759
 250   2.0000      -0.309788        -8.4298
 251   2.0000      -0.304941        -8.2979
 252   2.0000      -0.291771        -7.9395
 253   2.0000      -0.288955        -7.8629
 254   2.0000      -0.288129        -7.8404
 255   2.0000      -0.271097        -7.3769
 256   2.0000      -0.243986        -6.6392
 257   0.0000      -0.098033        -2.6676
 258   0.0000      -0.088776        -2.4157
 259   0.0000      -0.078330        -2.1315
 260   0.0000      -0.070241        -1.9114
 261   0.0000      -0.050936        -1.3860

MULLIKEN ATOMIC CHARGES
-----------------------
   0 C :   -0.013585
   1 C :    0.035400
   2 C :    0.034685
   3 C :   -0.015803
   4 C :    0.092269
   5 C :   -0.083033
   6 C :    0.038723
   7 C :    0.009710
   8 C :   -0.080238
   9 C :    0.093762
  10 C :    0.136292
  11 O :   -0.139792
  12 C :   -0.116036
  13 C :    0.261395
  14 C :   -0.353107
  15 C :   -0.172341
  16 N :    0.166145
  17 C :   -0.182615
  18 N :    0.151960
  19 C :    0.061519
  20 C :   -0.029580
  21 C :    0.268475
  22 O :   -0.300957
  23 C :    0.174687
  24 C :   -0.164383
  25 C :    0.088598
  26 C :    0.229920
  27 C :   -0.135091
  28 O :   -0.291796
  29 C :    0.183981
  30 C :   -0.190289
  31 C :    0.063380
  32 C :    0.029055
  33 N :    0.053697
  34 C :   -0.111131
  35 C :    0.147461
  36 O :   -0.122188
  37 C :   -0.014066
  38 C :   -0.019054
  39 C :    0.138893
  40 O :   -0.112021
  41 C :   -0.138944
  42 N :    0.092754
  43 C :   -0.150337
  44 S :    0.246172
  45 C :    0.098285
  46 C :    0.197510
  47 O :   -0.347265
  48 C :    0.178011
  49 C :   -0.106739
  50 C :    0.006296
  51 C :    0.270271
  52 C :   -0.197934
  53 O :   -0.306205
  54 C :    0.182736
  55 C :   -0.015225
  56 C :   -0.076241
  57 C :    0.288501
  58 C :   -0.339415
  59 C :   -0.186342
  60 N :    0.145059
  61 C :   -0.207819
  62 N :    0.161686
  63 C :    0.048669
  64 C :    0.003025
  65 C :   -0.086129
  66 C :    0.099667
  67 C :   -0.017829
  68 C :    0.035617
  69 C :    0.036648
  70 C :   -0.017158
  71 C :    0.094541
  72 C :   -0.084283
  73 C :    0.155039
  74 O :   -0.164555
  75 H :   -0.018133
  76 H :   -0.005776
  77 H :   -0.005197
  78 H :   -0.012046
  79 H :   -0.009972
  80 H :   -0.013019
  81 H :    0.031123
  82 H :    0.044225
  83 H :    0.026339
  84 H :    0.032029
  85 H :   -0.035484
  86 H :   -0.021714
  87 H :    0.032155
  88 H :    0.021115
  89 H :    0.036268
  90 H :    0.013885
  91 H :    0.015329
  92 H :    0.033075
  93 H :    0.048624
  94 H :    0.032639
  95 H :   -0.020603
  96 H :   -0.015668
  97 H :    0.037484
  98 H :    0.041155
  99 H :    0.031666
 100 H :    0.040250
 101 H :   -0.018489
 102 H :   -0.020653
 103 H :   -0.006422
 104 H :   -0.006865
 105 H :   -0.010561
 106 H :   -0.007727
Sum of atomic charges:    0.0000000

LOEWDIN ATOMIC CHARGES
----------------------
   0 C :   -0.009298
   1 C :   -0.013516
   2 C :   -0.013848
   3 C :   -0.006554
   4 C :   -0.006140
   5 C :    0.014415
   6 C :   -0.024073
   7 C :   -0.056696
   8 C :    0.031926
   9 C :   -0.009130
  10 C :    0.083138
  11 O :   -0.141421
  12 C :   -0.091928
  13 C :    0.067157
  14 C :   -0.138867
  15 C :   -0.015521
  16 N :   -0.050622
  17 C :   -0.019558
  18 N :   -0.056103
  19 C :    0.094091
  20 C :   -0.057110
  21 C :    0.065858
  22 O :   -0.092771
  23 C :    0.079310
  24 C :   -0.057595
  25 C :   -0.034650
  26 C :    0.059131
  27 C :   -0.041323
  28 O :   -0.080867
  29 C :    0.079956
  30 C :   -0.171619
  31 C :   -0.044378
  32 C :   -0.039812
  33 N :    0.005128
  34 C :   -0.047525
  35 C :    0.059645
  36 O :   -0.117040
  37 C :   -0.014899
  38 C :   -0.011308
  39 C :    0.057647
  40 O :   -0.108015
  41 C :   -0.053966
  42 N :    0.019057
  43 C :   -0.172369
  44 S :    0.571672
  45 C :   -0.029701
  46 C :    0.035419
  47 O :   -0.112921
  48 C :    0.082298
  49 C :   -0.022023
  50 C :   -0.057991
  51 C :    0.070998
  52 C :   -0.058674
  53 O :   -0.090171
  54 C :    0.084122
  55 C :    0.089922
  56 C :   -0.099361
  57 C :    0.076265
  58 C :   -0.140725
  59 C :   -0.016811
  60 N :   -0.058373
  61 C :   -0.027183
  62 N :   -0.051175
  63 C :   -0.025097
  64 C :   -0.054294
  65 C :    0.028950
  66 C :   -0.009370
  67 C :   -0.010747
  68 C :   -0.014399
  69 C :   -0.014604
  70 C :   -0.005767
  71 C :   -0.006545
  72 C :    0.017999
  73 C :    0.086283
  74 O :   -0.152835
  75 H :    0.031640
  76 H :    0.032454
  77 H :    0.032878
  78 H :    0.033836
  79 H :    0.037664
  80 H :    0.038978
  81 H :    0.048004
  82 H :    0.032158
  83 H :    0.016107
  84 H :    0.020048
  85 H :    0.022617
  86 H :    0.031433
  87 H :    0.020520
  88 H :    0.013573
  89 H :    0.030253
  90 H :    0.044288
  91 H :    0.044453
  92 H :    0.027639
  93 H :    0.026689
  94 H :    0.021038
  95 H :    0.032378
  96 H :    0.031127
  97 H :    0.030347
  98 H :    0.022960
  99 H :    0.021791
 100 H :    0.046807
 101 H :    0.036737
 102 H :    0.030719
 103 H :    0.032028
 104 H :    0.032473
 105 H :    0.034413
 106 H :    0.038849

  Mayer bond orders larger than 0.100000
B(  0-C ,  1-C ) :   1.4910 B(  0-C ,  9-C ) :   1.2432 B(  0-C , 75-H ) :   0.9975
B(  1-C ,  2-C ) :   1.2589 B(  1-C , 76-H ) :   0.9890 B(  2-C ,  3-C ) :   1.4909
B(  2-C , 77-H ) :   0.9889 B(  3-C ,  4-C ) :   1.2416 B(  3-C , 78-H ) :   0.9970
B(  4-C ,  5-C ) :   1.2037 B(  4-C ,  9-C ) :   1.2578 B(  5-C ,  6-C ) :   1.4549
B(  5-C , 79-H ) :   0.9939 B(  6-C ,  7-C ) :   1.2162 B(  6-C , 13-C ) :   1.0039
B(  7-C ,  8-C ) :   1.4740 B(  7-C , 10-C ) :   0.9162 B(  8-C ,  9-C ) :   1.1866
B(  8-C , 80-H ) :   1.0151 B( 10-C , 11-O ) :   2.2825 B( 10-C , 12-C ) :   0.9331
B( 12-C , 13-C ) :   1.0222 B( 12-C , 19-C ) :   1.6956 B( 13-C , 14-C ) :   1.6625
B( 14-C , 15-C ) :   1.1596 B( 14-C , 17-C ) :   1.1359 B( 15-C , 16-N ) :   2.9942
B( 17-C , 18-N ) :   2.9816 B( 19-C , 20-C ) :   1.0463 B( 19-C , 81-H ) :   0.9416
B( 20-C , 21-C ) :   1.3388 B( 20-C , 27-C ) :   1.3103 B( 21-C , 22-O ) :   1.2107
B( 21-C , 24-C ) :   1.2865 B( 22-O , 23-C ) :   0.9560 B( 23-C , 82-H ) :   0.9783
B( 23-C , 83-H ) :   0.9688 B( 23-C , 84-H ) :   0.9695 B( 24-C , 25-C ) :   1.3131
B( 24-C , 85-H ) :   0.9925 B( 25-C , 26-C ) :   1.3494 B( 25-C , 30-C ) :   1.0338
B( 26-C , 27-C ) :   1.3068 B( 26-C , 28-O ) :   1.1963 B( 27-C , 86-H ) :   0.9957
B( 28-O , 29-C ) :   0.9546 B( 29-C , 87-H ) :   0.9668 B( 29-C , 88-H ) :   0.9673
B( 29-C , 89-H ) :   0.9769 B( 30-C , 31-C ) :   1.3503 B( 30-C , 43-C ) :   0.1366
B( 30-C , 44-S ) :   1.1834 B( 31-C , 32-C ) :   1.1746 B( 31-C , 42-N ) :   1.4362
B( 32-C , 33-N ) :   1.4296 B( 32-C , 43-C ) :   1.3220 B( 33-N , 34-C ) :   1.7097
B( 34-C , 35-C ) :   0.9035 B( 34-C , 41-C ) :   1.0934 B( 35-C , 36-O ) :   2.2045
B( 35-C , 37-C ) :   1.0301 B( 37-C , 38-C ) :   1.6823 B( 37-C , 90-H ) :   0.9985
B( 38-C , 39-C ) :   1.0191 B( 38-C , 91-H ) :   0.9984 B( 39-C , 40-O ) :   2.2404
B( 39-C , 41-C ) :   0.8971 B( 41-C , 42-N ) :   1.7107 B( 43-C , 44-S ) :   1.1876
B( 43-C , 45-C ) :   1.1380 B( 45-C , 46-C ) :   1.2780 B( 45-C , 52-C ) :   1.3112
B( 46-C , 47-O ) :   1.1126 B( 46-C , 49-C ) :   1.3422 B( 47-O , 48-C ) :   0.9379
B( 48-C , 92-H ) :   0.9763 B( 48-C , 93-H ) :   0.9698 B( 48-C , 94-H ) :   0.9720
B( 49-C , 50-C ) :   1.2924 B( 49-C , 95-H ) :   0.9823 B( 50-C , 51-C ) :   1.2716
B( 50-C , 55-C ) :   1.1651 B( 51-C , 52-C ) :   1.2797 B( 51-C , 53-O ) :   1.1886
B( 52-C , 96-H ) :   0.9774 B( 53-O , 54-C ) :   0.9375 B( 54-C , 97-H ) :   0.9759
B( 54-C , 98-H ) :   0.9686 B( 54-C , 99-H ) :   0.9709 B( 55-C , 56-C ) :   1.5656
B( 55-C ,100-H ) :   0.9379 B( 56-C , 57-C ) :   1.0581 B( 56-C , 73-C ) :   0.9419
B( 57-C , 58-C ) :   1.6465 B( 57-C , 63-C ) :   0.9877 B( 58-C , 59-C ) :   1.1441
B( 58-C , 61-C ) :   1.1342 B( 59-C , 60-N ) :   2.9718 B( 61-C , 62-N ) :   3.0070
B( 63-C , 64-C ) :   1.2155 B( 63-C , 72-C ) :   1.4513 B( 64-C , 65-C ) :   1.4689
B( 64-C , 73-C ) :   0.9505 B( 65-C , 66-C ) :   1.1786 B( 65-C ,101-H ) :   1.0163
B( 66-C , 67-C ) :   1.2430 B( 66-C , 71-C ) :   1.2600 B( 67-C , 68-C ) :   1.4887
B( 67-C ,102-H ) :   0.9978 B( 68-C , 69-C ) :   1.2607 B( 68-C ,103-H ) :   0.9886
B( 69-C , 70-C ) :   1.4883 B( 69-C ,104-H ) :   0.9885 B( 70-C , 71-C ) :   1.2410
B( 70-C ,105-H ) :   0.9972 B( 71-C , 72-C ) :   1.2013 B( 72-C ,106-H ) :   0.9918
B( 73-C , 74-O ) :   2.1836

-----------------------------------------------------------------------------
         ABSORPTION SPECTRUM VIA TRANSITION ELECTRIC DIPOLE MOMENTS
-----------------------------------------------------------------------------
State   Energy  Wavelength   fosc         T2         TX        TY        TZ
        (cm-1)    (nm)                  (au**2)     (au)      (au)      (au)
-----------------------------------------------------------------------------
   0   15241.0    656.1   1.009671746  21.80934  -1.39856  -4.04394   1.87080
   1   17884.0    559.2   0.217012667   3.99481  -0.98750   1.23468   1.22279
   2   19975.6    500.6   0.095925234   1.58091  -0.16350   0.78571  -0.96791
   3   20650.6    484.2   0.163591238   2.60798  -0.29686  -1.57618   0.18841
   4   22400.6    446.4   0.168106634   2.47059   0.53932   1.44650  -0.29558
   5   23517.7    425.2   0.123909982   1.73455  -1.08258  -0.54540   0.51488
   6   24487.5    408.4   0.025330052   0.34054   0.07723   0.53774  -0.21311
   7   25164.7    397.4   0.005482662   0.07173   0.15197   0.09981   0.19664
   8   25624.9    390.2   0.030012759   0.38558  -0.01265  -0.61279  -0.09955
   9   26198.1    381.7   0.007812239   0.09817  -0.21953   0.09681   0.20151
  10   26659.2    375.1   0.006585171   0.08132   0.07327  -0.26371  -0.08006
  11   26702.9    374.5   0.012536957   0.15456   0.11341  -0.07980  -0.36788
  12   27311.6    366.1   0.016549009   0.19948  -0.15896  -0.28723  -0.30284
  13   27623.8    362.0   0.121685089   1.45021   0.58857  -0.81855   0.65861
  14   27917.3    358.2   0.194332678   2.29165  -0.21375  -1.39383   0.55063
  15   28189.3    354.7   0.009958537   0.11630  -0.24825  -0.14574  -0.18284
  16   28358.7    352.6   0.129988663   1.50902  -0.82778  -0.48757   0.76555
  17   28767.5    347.6   0.006361770   0.07280   0.00417  -0.08885   0.25474
  18   28905.6    346.0   0.023953282   0.27281  -0.41144  -0.21609  -0.23839
  19   29839.2    335.1   0.034418438   0.37973   0.04183   0.23244   0.56917
  20   29899.4    334.5   0.006666345   0.07340  -0.21296  -0.11924   0.11760
  21   30181.9    331.3   0.003809754   0.04156   0.04218  -0.15851   0.12104
  22   30519.2    327.7   0.049558780   0.53459  -0.02229  -0.34689   0.64324
  23   31263.1    319.9   0.038177287   0.40202   0.31287  -0.53508   0.13349
  24   32251.6    310.1   0.104011609   1.06171   0.98610   0.29783   0.02470
  25   32805.4    304.8   0.046391184   0.46555   0.05465  -0.50196   0.45891
  26   33160.2    301.6   0.367073325   3.64428  -0.87029  -1.53424   0.73005
  27   33421.8    299.2   0.072898538   0.71807  -0.13501  -0.63192   0.54820
  28   33463.4    298.8   0.368929308   3.62952  -0.02212  -1.58777   1.05262
  29   33898.1    295.0   0.315361347   3.06273   0.53640  -1.26396   1.08508
  30   34043.8    293.7   0.260791845   2.52192   1.45025  -0.63975   0.09692
  31   34165.7    292.7   0.087075681   0.83904   0.81528   0.35806   0.21483
  32   34437.7    290.4   0.197264026   1.88577   1.32402  -0.27079   0.24376
  33   34827.5    287.1   0.004088569   0.03865  -0.07976  -0.16556  -0.06983
  34   34897.3    286.6   0.354034812   3.33987   0.20121   1.54264  -0.95899
  35   35007.0    285.7   0.210200341   1.97676   0.06470   0.91575  -1.06489
  36   35122.3    284.7   0.003002907   0.02815  -0.09591   0.10959  -0.08329
  37   35315.4    283.2   0.027659212   0.25784  -0.30008  -0.25062   0.32401
  38   35425.2    282.3   0.019032057   0.17687  -0.33817   0.18909  -0.16358
  39   35754.7    279.7   0.089549811   0.82453  -0.32297   0.73802   0.41898
  40   35977.1    278.0   0.157655578   1.44264  -0.17476   1.03030  -0.59211
  41   36263.3    275.8   0.228606784   2.07538   0.40579  -1.32824  -0.38275
  42   36938.2    270.7   0.014078917   0.12548   0.34221   0.08782   0.02569
  43   37140.2    269.2   0.011814492   0.10472  -0.17452   0.19437   0.19102
  44   37378.7    267.5   0.010561524   0.09302  -0.24986  -0.12016  -0.12709
  45   37560.1    266.2   0.002122932   0.01861   0.09032   0.06825  -0.07610
  46   38075.6    262.6   0.091939157   0.79493  -0.81592  -0.35914  -0.01480
  47   38192.7    261.8   0.101143923   0.87184   0.89975  -0.17892   0.17399
  48   38343.1    260.8   0.144238857   1.23843   0.25437   1.01458  -0.37994
  49   38414.9    260.3   0.039449418   0.33808  -0.30560  -0.48284  -0.10747
  50   38739.1    258.1   0.224468534   1.90757   1.26218  -0.05892   0.55768
  51   38832.5    257.5   0.041031424   0.34785  -0.26332  -0.14120   0.50851
  52   39038.1    256.2   0.018046261   0.15219   0.12941  -0.36364   0.05659
  53   39644.3    252.2   0.005361753   0.04452   0.09915   0.16208   0.09179
  54   39911.0    250.6   0.025214341   0.20798  -0.32437  -0.04205  -0.31781
  55   40051.2    249.7   0.005369825   0.04414   0.10850  -0.10146   0.14856

FINAL SINGLE POINT ENERGY     -3629.879502981549

DIPOLE MOMENT
-------------
                                X             Y             Z
Electronic contribution:     10.95229      -0.56768      -0.21353
Nuclear contribution   :    -13.21112      -1.08284      -1.00998
                        -----------------------------------------
Total Dipole Moment    :     -2.25883      -1.65052      -1.22351
                        -----------------------------------------
Magnitude (a.u.)       :      3.05344
Magnitude (Debye)      :      7.76124

Rotational constants in cm-1:     0.001742     0.000299     0.000277
Rotational constants in MHz :    52.221192     8.978773     8.315011

                             ****ORCA TERMINATED NORMALLY****
TOTAL RUN TIME: 0 days 0 hours 10 minutes 29 seconds 728 msec
