                         Program Version 4.2.0 -  RELEASE  -
|  1> # ORCA input file
|  2> # SCF done       -197.424077774039          0.000466563205
|  3> ! CAM-B3LYP def2-SVP def2/J RIJCOSX Grid4 TightSCF
|  4> %maxcore 5000
|  5> %tddft
|  6>     Mode sTDDFT
|  7>     Ethresh 5.0
|  8>     maxcore 5000
|  9> end
| 10>
| 11> %pal
| 12>   nprocs 6
| 13>   end
| 14> * xyz 0 1
| 15>    C      -10.09226       -11.17446         3.49498
| 16>    C      -10.40871       -10.93097         2.18428
| 17>    O      -11.67673       -11.02666         1.70191
| 18>    C      -12.71115       -11.39702         2.58430
| 19>    C       -9.39836       -10.56436         1.22119
| 20>    O       -9.63425       -10.31393        -0.08707
| 21>    C      -10.91309       -10.15688        -0.66132
| 22>    C       -8.05103       -10.46468         1.57210
| 23>    C       -7.72161       -10.72513         2.92955
| 24>    C       -8.74657       -11.07057         3.87921
| 25>    N       -8.16131       -11.24800         5.04699
| 26>    O       -6.86289       -11.02894         4.84452
| 27>    N       -6.57714       -10.71424         3.58184
| 28>    C       -7.03182       -10.11915         0.62881
| 29>    C       -5.67530       -10.01298         0.89253
| 30>    C       -4.94887        -9.66632        -0.24299
| 31>    C       -5.76042        -9.50167        -1.38364
| 32>    S       -7.41175        -9.78032        -1.04773
| 33>    C       -4.93477        -9.16978        -2.48272
| 34>    C       -3.59535        -9.12987        -2.03940
| 35>    C       -3.56470        -9.41853        -0.61373
| 36>    C       -2.46960        -9.42309         0.19810
| 37>    C       -1.18126        -9.10508        -0.28453
| 38>    N       -0.13756        -8.82468        -0.66726
| 39>    C       -2.54284        -9.71499         1.57693
| 40>    N       -2.58067        -9.95043         2.69819
| 41>    C       -2.69596        -8.85031        -3.05813
| 42>    C       -3.33079        -8.66105        -4.28004
| 43>    S       -5.08086        -8.81571        -4.14628
| 44>    C       -2.75002        -8.38410        -5.54533
| 45>    C       -1.35985        -8.44428        -5.81498
| 46>    C       -0.84086        -8.14870        -7.12994
| 47>    N        0.47619        -8.20270        -7.35232
| 48>    C        1.29538        -8.55149        -6.38980
| 49>    C        0.77616        -8.89155        -5.09955
| 50>    N       -0.50886        -8.82125        -4.85066
| 51>    C        1.66209        -9.33398        -4.08456
| 52>    N        2.41872        -9.70203        -3.30779
| 53>    C        2.68583        -8.59879        -6.65078
| 54>    N        3.81498        -8.64872        -6.83884
| 55>    C       -1.65917        -7.80207        -8.23132
| 56>    C       -3.04635        -7.75341        -7.96223
| 57>    C       -3.56626        -8.04701        -6.65004
| 58>    N       -4.89540        -7.95637        -6.61548
| 59>    S       -5.43854        -7.54432        -8.07214
| 60>    N       -4.02332        -7.46173        -8.82028
| 61>    C       -1.10194        -7.55149        -9.50819
| 62>    C       -1.78997        -7.19173       -10.66273
| 63>    C       -0.94214        -7.05423       -11.75091
| 64>    C        0.40854        -7.31258       -11.42903
| 65>    S        0.62817        -7.71064        -9.78015
| 66>    C        1.18139        -7.16542       -12.60301
| 67>    C        0.32649        -6.81525       -13.66885
| 68>    C       -1.03490        -6.72814       -13.16552
| 69>    C       -2.16395        -6.41294       -13.86236
| 70>    C       -2.15216        -6.10785       -15.24023
| 71>    N       -2.17027        -5.85557       -16.35846
| 72>    C       -3.43517        -6.36922       -13.25126
| 73>    N       -4.47472        -6.33226       -12.76793
| 74>    C        1.00134        -6.67019       -14.87717
| 75>    C        2.36025        -6.91233       -14.74375
| 76>    S        2.80865        -7.31113       -13.09809
| 77>    C        3.33155        -6.88359       -15.79389
| 78>    C        4.67871        -7.17674       -15.57698
| 79>    O        4.97781        -7.43687       -14.28437
| 80>    C        6.16022        -8.07363       -13.84829
| 81>    C        5.64390        -7.15520       -16.65005
| 82>    O        6.92593        -7.42649       -16.29061
| 83>    C        7.92384        -7.42573       -17.28566
| 84>    C        5.27524        -6.86585       -17.93762
| 85>    C        3.92552        -6.57213       -18.18657
| 86>    C        2.95118        -6.57052       -17.12673
| 87>    N        1.79128        -6.25767       -17.66686
| 88>    O        2.02075        -6.07604       -18.96708
| 89>    N        3.29716        -6.25952       -19.30239
| 90>    H      -10.82408       -11.44759         4.23316
| 91>    H      -12.82812       -10.66860         3.39168
| 92>    H      -12.53816       -12.39020         3.00827
| 93>    H      -13.61496       -11.41392         1.97762
| 94>    H      -11.49863        -9.39612        -0.14277
| 95>    H      -11.46601       -11.09729        -0.67770
| 96>    H      -10.71504        -9.83201        -1.68286
| 97>    H       -5.26761       -10.18963         1.87095
| 98>    H       -1.62964        -8.78562        -2.95013
| 99>    H       -2.85526        -7.05205       -10.66878
|100>    H        0.55723        -6.40797       -15.81998
|101>    H        6.35607        -8.98866       -14.40935
|102>    H        5.97054        -8.31899       -12.80328
|103>    H        7.02267        -7.40932       -13.91693
|104>    H        7.72435        -8.18018       -18.05198
|105>    H        8.84861        -7.67182       -16.76662
|106>    H        8.01960        -6.44246       -17.75474
|107>    H        5.97214        -6.84303       -18.75554
|108> *
|109>
|110>                          ****END OF INPUT****

CARTESIAN COORDINATES (ANGSTROEM)
---------------------------------
  C    -10.092260  -11.174460    3.494980
  C    -10.408710  -10.930970    2.184280
  O    -11.676730  -11.026660    1.701910
  C    -12.711150  -11.397020    2.584300
  C     -9.398360  -10.564360    1.221190
  O     -9.634250  -10.313930   -0.087070
  C    -10.913090  -10.156880   -0.661320
  C     -8.051030  -10.464680    1.572100
  C     -7.721610  -10.725130    2.929550
  C     -8.746570  -11.070570    3.879210
  N     -8.161310  -11.248000    5.046990
  O     -6.862890  -11.028940    4.844520
  N     -6.577140  -10.714240    3.581840
  C     -7.031820  -10.119150    0.628810
  C     -5.675300  -10.012980    0.892530
  C     -4.948870   -9.666320   -0.242990
  C     -5.760420   -9.501670   -1.383640
  S     -7.411750   -9.780320   -1.047730
  C     -4.934770   -9.169780   -2.482720
  C     -3.595350   -9.129870   -2.039400
  C     -3.564700   -9.418530   -0.613730
  C     -2.469600   -9.423090    0.198100
  C     -1.181260   -9.105080   -0.284530
  N     -0.137560   -8.824680   -0.667260
  C     -2.542840   -9.714990    1.576930
  N     -2.580670   -9.950430    2.698190
  C     -2.695960   -8.850310   -3.058130
  C     -3.330790   -8.661050   -4.280040
  S     -5.080860   -8.815710   -4.146280
  C     -2.750020   -8.384100   -5.545330
  C     -1.359850   -8.444280   -5.814980
  C     -0.840860   -8.148700   -7.129940
  N      0.476190   -8.202700   -7.352320
  C      1.295380   -8.551490   -6.389800
  C      0.776160   -8.891550   -5.099550
  N     -0.508860   -8.821250   -4.850660
  C      1.662090   -9.333980   -4.084560
  N      2.418720   -9.702030   -3.307790
  C      2.685830   -8.598790   -6.650780
  N      3.814980   -8.648720   -6.838840
  C     -1.659170   -7.802070   -8.231320
  C     -3.046350   -7.753410   -7.962230
  C     -3.566260   -8.047010   -6.650040
  N     -4.895400   -7.956370   -6.615480
  S     -5.438540   -7.544320   -8.072140
  N     -4.023320   -7.461730   -8.820280
  C     -1.101940   -7.551490   -9.508190
  C     -1.789970   -7.191730  -10.662730
  C     -0.942140   -7.054230  -11.750910
  C      0.408540   -7.312580  -11.429030
  S      0.628170   -7.710640   -9.780150
  C      1.181390   -7.165420  -12.603010
  C      0.326490   -6.815250  -13.668850
  C     -1.034900   -6.728140  -13.165520
  C     -2.163950   -6.412940  -13.862360
  C     -2.152160   -6.107850  -15.240230
  N     -2.170270   -5.855570  -16.358460
  C     -3.435170   -6.369220  -13.251260
  N     -4.474720   -6.332260  -12.767930
  C      1.001340   -6.670190  -14.877170
  C      2.360250   -6.912330  -14.743750
  S      2.808650   -7.311130  -13.098090
  C      3.331550   -6.883590  -15.793890
  C      4.678710   -7.176740  -15.576980
  O      4.977810   -7.436870  -14.284370
  C      6.160220   -8.073630  -13.848290
  C      5.643900   -7.155200  -16.650050
  O      6.925930   -7.426490  -16.290610
  C      7.923840   -7.425730  -17.285660
  C      5.275240   -6.865850  -17.937620
  C      3.925520   -6.572130  -18.186570
  C      2.951180   -6.570520  -17.126730
  N      1.791280   -6.257670  -17.666860
  O      2.020750   -6.076040  -18.967080
  N      3.297160   -6.259520  -19.302390
  H    -10.824080  -11.447590    4.233160
  H    -12.828120  -10.668600    3.391680
  H    -12.538160  -12.390200    3.008270
  H    -13.614960  -11.413920    1.977620
  H    -11.498630   -9.396120   -0.142770
  H    -11.466010  -11.097290   -0.677700
  H    -10.715040   -9.832010   -1.682860
  H     -5.267610  -10.189630    1.870950
  H     -1.629640   -8.785620   -2.950130
  H     -2.855260   -7.052050  -10.668780
  H      0.557230   -6.407970  -15.819980
  H      6.356070   -8.988660  -14.409350
  H      5.970540   -8.318990  -12.803280
  H      7.022670   -7.409320  -13.916930
  H      7.724350   -8.180180  -18.051980
  H      8.848610   -7.671820  -16.766620
  H      8.019600   -6.442460  -17.754740
  H      5.972140   -6.843030  -18.755540

 Total Charge           Charge          ....    0
 Multiplicity           Mult            ....    1
 Number of Electrons    NEL             ....  544
 Basis Dimension        Dim             .... 1160

ORBITAL ENERGIES
----------------

  NO   OCC          E(Eh)            E(eV)
   0   2.0000     -89.049435     -2423.1583
   1   2.0000     -88.977616     -2421.2040
   2   2.0000     -88.977598     -2421.2035
   3   2.0000     -88.976742     -2421.1802
   4   2.0000     -88.976608     -2421.1766
   5   2.0000     -19.345215      -526.4101
   6   2.0000     -19.345066      -526.4060
   7   2.0000     -19.279924      -524.6334
   8   2.0000     -19.279717      -524.6278
   9   2.0000     -19.278758      -524.6017
  10   2.0000     -19.278238      -524.5875
  11   2.0000     -14.473368      -393.8404
  12   2.0000     -14.473309      -393.8388
  13   2.0000     -14.471888      -393.8001
  14   2.0000     -14.471753      -393.7964
  15   2.0000     -14.467546      -393.6819
  16   2.0000     -14.461667      -393.5220
  17   2.0000     -14.458724      -393.4419
  18   2.0000     -14.458495      -393.4356
  19   2.0000     -14.431576      -392.7031
  20   2.0000     -14.423755      -392.4903
  21   2.0000     -14.420060      -392.3898
  22   2.0000     -14.416429      -392.2910
  23   2.0000     -14.416038      -392.2803
  24   2.0000     -14.414587      -392.2409
  25   2.0000     -10.383892      -282.5601
  26   2.0000     -10.381545      -282.4962
  27   2.0000     -10.374514      -282.3049
  28   2.0000     -10.373525      -282.2780
  29   2.0000     -10.371860      -282.2327
  30   2.0000     -10.370955      -282.2080
  31   2.0000     -10.351886      -281.6891
  32   2.0000     -10.350434      -281.6496
  33   2.0000     -10.350359      -281.6476
  34   2.0000     -10.348705      -281.6026
  35   2.0000     -10.348565      -281.5988
  36   2.0000     -10.347392      -281.5668
  37   2.0000     -10.346965      -281.5552
  38   2.0000     -10.346414      -281.5402
  39   2.0000     -10.339922      -281.3636
  40   2.0000     -10.338745      -281.3316
  41   2.0000     -10.337802      -281.3059
  42   2.0000     -10.335860      -281.2530
  43   2.0000     -10.325423      -280.9690
  44   2.0000     -10.324211      -280.9361
  45   2.0000     -10.324198      -280.9357
  46   2.0000     -10.322789      -280.8974
  47   2.0000     -10.322663      -280.8939
  48   2.0000     -10.322082      -280.8781
  49   2.0000     -10.320910      -280.8462
  50   2.0000     -10.320905      -280.8461
  51   2.0000     -10.319477      -280.8073
  52   2.0000     -10.317696      -280.7588
  53   2.0000     -10.317460      -280.7524
  54   2.0000     -10.317142      -280.7437
  55   2.0000     -10.317072      -280.7418
  56   2.0000     -10.316402      -280.7236
  57   2.0000     -10.316313      -280.7211
  58   2.0000     -10.316221      -280.7187
  59   2.0000     -10.316145      -280.7166
  60   2.0000     -10.314416      -280.6695
  61   2.0000     -10.313425      -280.6426
  62   2.0000     -10.313317      -280.6396
  63   2.0000     -10.313036      -280.6320
  64   2.0000     -10.312910      -280.6286
  65   2.0000     -10.298167      -280.2274
  66   2.0000     -10.297674      -280.2140
  67   2.0000     -10.291887      -280.0565
  68   2.0000     -10.291143      -280.0362
  69   2.0000     -10.290862      -280.0286
  70   2.0000     -10.289819      -280.0002
  71   2.0000     -10.289554      -279.9930
  72   2.0000     -10.288727      -279.9705
  73   2.0000     -10.285107      -279.8720
  74   2.0000     -10.284258      -279.8489
  75   2.0000      -8.140422      -221.5121
  76   2.0000      -8.070635      -219.6131
  77   2.0000      -8.070602      -219.6122
  78   2.0000      -8.070039      -219.5969
  79   2.0000      -8.069053      -219.5701
  80   2.0000      -6.111550      -166.3037
  81   2.0000      -6.103738      -166.0911
  82   2.0000      -6.103152      -166.0752
  83   2.0000      -6.040039      -164.3578
  84   2.0000      -6.039971      -164.3560
  85   2.0000      -6.039447      -164.3417
  86   2.0000      -6.038611      -164.3190
  87   2.0000      -6.035473      -164.2336
  88   2.0000      -6.035415      -164.2320
  89   2.0000      -6.034916      -164.2184
  90   2.0000      -6.033825      -164.1887
  91   2.0000      -6.033212      -164.1721
  92   2.0000      -6.033205      -164.1718
  93   2.0000      -6.032460      -164.1516
  94   2.0000      -6.031502      -164.1255
  95   2.0000      -1.299358       -35.3573
  96   2.0000      -1.299167       -35.3521
  97   2.0000      -1.194103       -32.4932
  98   2.0000      -1.193069       -32.4651
  99   2.0000      -1.172730       -31.9116
 100   2.0000      -1.171413       -31.8758
 101   2.0000      -1.147083       -31.2137
 102   2.0000      -1.124024       -30.5862
 103   2.0000      -1.051507       -28.6130
 104   2.0000      -1.031639       -28.0723
 105   2.0000      -1.031258       -28.0619
 106   2.0000      -1.014322       -27.6011
 107   2.0000      -1.010482       -27.4966
 108   2.0000      -1.008657       -27.4469
 109   2.0000      -1.007885       -27.4259
 110   2.0000      -1.005877       -27.3713
 111   2.0000      -1.003504       -27.3067
 112   2.0000      -0.999982       -27.2109
 113   2.0000      -0.998824       -27.1794
 114   2.0000      -0.997801       -27.1515
 115   2.0000      -0.995402       -27.0863
 116   2.0000      -0.992694       -27.0126
 117   2.0000      -0.989022       -26.9126
 118   2.0000      -0.978995       -26.6398
 119   2.0000      -0.970529       -26.4094
 120   2.0000      -0.947010       -25.7695
 121   2.0000      -0.943168       -25.6649
 122   2.0000      -0.921234       -25.0681
 123   2.0000      -0.920637       -25.0518
 124   2.0000      -0.911886       -24.8137
 125   2.0000      -0.910654       -24.7801
 126   2.0000      -0.902945       -24.5704
 127   2.0000      -0.891056       -24.2469
 128   2.0000      -0.877895       -23.8887
 129   2.0000      -0.871142       -23.7050
 130   2.0000      -0.856125       -23.2964
 131   2.0000      -0.851770       -23.1778
 132   2.0000      -0.843435       -22.9510
 133   2.0000      -0.843359       -22.9490
 134   2.0000      -0.837763       -22.7967
 135   2.0000      -0.834945       -22.7200
 136   2.0000      -0.834392       -22.7050
 137   2.0000      -0.823505       -22.4087
 138   2.0000      -0.820750       -22.3337
 139   2.0000      -0.806733       -21.9523
 140   2.0000      -0.800222       -21.7751
 141   2.0000      -0.777242       -21.1498
 142   2.0000      -0.770372       -20.9629
 143   2.0000      -0.764900       -20.8140
 144   2.0000      -0.754065       -20.5191
 145   2.0000      -0.738697       -20.1010
 146   2.0000      -0.737924       -20.0799
 147   2.0000      -0.734874       -19.9969
 148   2.0000      -0.733653       -19.9637
 149   2.0000      -0.726310       -19.7639
 150   2.0000      -0.715697       -19.4751
 151   2.0000      -0.708469       -19.2784
 152   2.0000      -0.699359       -19.0305
 153   2.0000      -0.695418       -18.9233
 154   2.0000      -0.688090       -18.7239
 155   2.0000      -0.679198       -18.4819
 156   2.0000      -0.672001       -18.2861
 157   2.0000      -0.670075       -18.2337
 158   2.0000      -0.667754       -18.1705
 159   2.0000      -0.658957       -17.9311
 160   2.0000      -0.655937       -17.8489
 161   2.0000      -0.653554       -17.7841
 162   2.0000      -0.644709       -17.5434
 163   2.0000      -0.640234       -17.4216
 164   2.0000      -0.637341       -17.3429
 165   2.0000      -0.635196       -17.2846
 166   2.0000      -0.630285       -17.1509
 167   2.0000      -0.628337       -17.0979
 168   2.0000      -0.623712       -16.9721
 169   2.0000      -0.620557       -16.8862
 170   2.0000      -0.615146       -16.7390
 171   2.0000      -0.606864       -16.5136
 172   2.0000      -0.603660       -16.4264
 173   2.0000      -0.601840       -16.3769
 174   2.0000      -0.601455       -16.3664
 175   2.0000      -0.596479       -16.2310
 176   2.0000      -0.593569       -16.1518
 177   2.0000      -0.589376       -16.0377
 178   2.0000      -0.588010       -16.0006
 179   2.0000      -0.583391       -15.8749
 180   2.0000      -0.574815       -15.6415
 181   2.0000      -0.571391       -15.5483
 182   2.0000      -0.567584       -15.4447
 183   2.0000      -0.566179       -15.4065
 184   2.0000      -0.563017       -15.3205
 185   2.0000      -0.561051       -15.2670
 186   2.0000      -0.559462       -15.2237
 187   2.0000      -0.558830       -15.2065
 188   2.0000      -0.555148       -15.1063
 189   2.0000      -0.544538       -14.8176
 190   2.0000      -0.542743       -14.7688
 191   2.0000      -0.536141       -14.5891
 192   2.0000      -0.535107       -14.5610
 193   2.0000      -0.533845       -14.5267
 194   2.0000      -0.532141       -14.4803
 195   2.0000      -0.530155       -14.4263
 196   2.0000      -0.518023       -14.0961
 197   2.0000      -0.515245       -14.0205
 198   2.0000      -0.511691       -13.9238
 199   2.0000      -0.507656       -13.8140
 200   2.0000      -0.500646       -13.6233
 201   2.0000      -0.499473       -13.5914
 202   2.0000      -0.498484       -13.5644
 203   2.0000      -0.493402       -13.4262
 204   2.0000      -0.492056       -13.3895
 205   2.0000      -0.491281       -13.3684
 206   2.0000      -0.489508       -13.3202
 207   2.0000      -0.485100       -13.2002
 208   2.0000      -0.484148       -13.1744
 209   2.0000      -0.483499       -13.1567
 210   2.0000      -0.483422       -13.1546
 211   2.0000      -0.482420       -13.1273
 212   2.0000      -0.479850       -13.0574
 213   2.0000      -0.471917       -12.8415
 214   2.0000      -0.469917       -12.7871
 215   2.0000      -0.466864       -12.7040
 216   2.0000      -0.465039       -12.6544
 217   2.0000      -0.463819       -12.6212
 218   2.0000      -0.459123       -12.4934
 219   2.0000      -0.457496       -12.4491
 220   2.0000      -0.455672       -12.3995
 221   2.0000      -0.451650       -12.2900
 222   2.0000      -0.450908       -12.2698
 223   2.0000      -0.449679       -12.2364
 224   2.0000      -0.447853       -12.1867
 225   2.0000      -0.445958       -12.1351
 226   2.0000      -0.444133       -12.0855
 227   2.0000      -0.443689       -12.0734
 228   2.0000      -0.443090       -12.0571
 229   2.0000      -0.439276       -11.9533
 230   2.0000      -0.436730       -11.8840
 231   2.0000      -0.434828       -11.8323
 232   2.0000      -0.434035       -11.8107
 233   2.0000      -0.428538       -11.6611
 234   2.0000      -0.427669       -11.6375
 235   2.0000      -0.426456       -11.6045
 236   2.0000      -0.425788       -11.5863
 237   2.0000      -0.424754       -11.5581
 238   2.0000      -0.424049       -11.5390
 239   2.0000      -0.423506       -11.5242
 240   2.0000      -0.420833       -11.4514
 241   2.0000      -0.417383       -11.3576
 242   2.0000      -0.416012       -11.3203
 243   2.0000      -0.413548       -11.2532
 244   2.0000      -0.411207       -11.1895
 245   2.0000      -0.409974       -11.1560
 246   2.0000      -0.408905       -11.1269
 247   2.0000      -0.402942       -10.9646
 248   2.0000      -0.401773       -10.9328
 249   2.0000      -0.397567       -10.8183
 250   2.0000      -0.395994       -10.7755
 251   2.0000      -0.395329       -10.7574
 252   2.0000      -0.393898       -10.7185
 253   2.0000      -0.391252       -10.6465
 254   2.0000      -0.385456       -10.4888
 255   2.0000      -0.385358       -10.4861
 256   2.0000      -0.375197       -10.2096
 257   2.0000      -0.371804       -10.1173
 258   2.0000      -0.363135        -9.8814
 259   2.0000      -0.352274        -9.5859
 260   2.0000      -0.351524        -9.5654
 261   2.0000      -0.339109        -9.2276
 262   2.0000      -0.335354        -9.1254
 263   2.0000      -0.331996        -9.0341
 264   2.0000      -0.319745        -8.7007
 265   2.0000      -0.318667        -8.6714
 266   2.0000      -0.315427        -8.5832
 267   2.0000      -0.309576        -8.4240
 268   2.0000      -0.307854        -8.3771
 269   2.0000      -0.288939        -7.8624
 270   2.0000      -0.259724        -7.0675
 271   2.0000      -0.227579        -6.1927
 272   0.0000      -0.128531        -3.4975
 273   0.0000      -0.091177        -2.4810
 274   0.0000      -0.087961        -2.3935
 275   0.0000      -0.059151        -1.6096
 276   0.0000      -0.058116        -1.5814

MULLIKEN ATOMIC CHARGES
-----------------------
   0 C :   -0.193313
   1 C :    0.223168
   2 O :   -0.329637
   3 C :    0.176494
   4 C :    0.108195
   5 O :   -0.342698
   6 C :    0.213067
   7 C :    0.115745
   8 C :   -0.064661
   9 C :    0.018060
  10 N :    0.054378
  11 O :   -0.097623
  12 N :    0.041869
  13 C :   -0.139045
  14 C :   -0.065312
  15 C :    0.034616
  16 C :   -0.088938
  17 S :    0.190798
  18 C :   -0.072484
  19 C :    0.034814
  20 C :    0.312213
  21 C :   -0.305519
  22 C :   -0.193602
  23 N :    0.179213
  24 C :   -0.195566
  25 N :    0.183308
  26 C :   -0.056492
  27 C :   -0.186325
  28 S :    0.198027
  29 C :    0.200891
  30 C :   -0.071847
  31 C :   -0.061789
  32 N :   -0.016843
  33 C :   -0.100729
  34 C :   -0.122008
  35 N :    0.052068
  36 C :   -0.217743
  37 N :    0.246282
  38 C :   -0.236951
  39 N :    0.245352
  40 C :    0.186875
  41 C :   -0.003935
  42 C :   -0.028188
  43 N :   -0.331419
  44 S :    0.566814
  45 N :   -0.278331
  46 C :   -0.175421
  47 C :   -0.069879
  48 C :    0.033083
  49 C :   -0.058637
  50 S :    0.198935
  51 C :   -0.091894
  52 C :    0.032036
  53 C :    0.315303
  54 C :   -0.312572
  55 C :   -0.196123
  56 N :    0.185555
  57 C :   -0.189301
  58 N :    0.163033
  59 C :   -0.065384
  60 C :   -0.137935
  61 S :    0.200881
  62 C :    0.112794
  63 C :    0.109402
  64 O :   -0.340339
  65 C :    0.207705
  66 C :    0.228109
  67 O :   -0.325742
  68 C :    0.175831
  69 C :   -0.201536
  70 C :    0.020613
  71 C :   -0.063651
  72 N :    0.040284
  73 O :   -0.098721
  74 N :    0.053130
  75 H :   -0.023449
  76 H :    0.036143
  77 H :    0.035228
  78 H :    0.044277
  79 H :    0.027080
  80 H :    0.033499
  81 H :    0.032358
  82 H :    0.024225
  83 H :    0.020873
  84 H :    0.019452
  85 H :    0.024013
  86 H :    0.026133
  87 H :    0.038463
  88 H :    0.036892
  89 H :    0.035961
  90 H :    0.044824
  91 H :    0.035431
  92 H :   -0.022215
Sum of atomic charges:   -0.0000000

LOEWDIN ATOMIC CHARGES
----------------------
   0 C :   -0.083366
   1 C :    0.048723
   2 O :   -0.091135
   3 C :    0.081564
   4 C :    0.051467
   5 O :   -0.096228
   6 C :    0.083598
   7 C :   -0.066226
   8 C :   -0.049504
   9 C :   -0.058804
  10 N :   -0.029051
  11 O :    0.072516
  12 N :   -0.025550
  13 C :   -0.160463
  14 C :   -0.023811
  15 C :   -0.064046
  16 C :   -0.195988
  17 S :    0.495255
  18 C :   -0.173343
  19 C :   -0.074635
  20 C :    0.078698
  21 C :   -0.101819
  22 C :   -0.017639
  23 N :   -0.030482
  24 C :   -0.021321
  25 N :   -0.025623
  26 C :   -0.008471
  27 C :   -0.168614
  28 S :    0.501426
  29 C :   -0.045228
  30 C :   -0.007090
  31 C :   -0.016320
  32 N :   -0.019536
  33 C :   -0.025371
  34 C :   -0.023242
  35 N :    0.010232
  36 C :   -0.039521
  37 N :    0.006460
  38 C :   -0.037585
  39 N :   -0.006107
  40 C :   -0.039014
  41 C :   -0.038469
  42 C :   -0.045919
  43 N :   -0.302701
  44 S :    0.685471
  45 N :   -0.267091
  46 C :   -0.171600
  47 C :   -0.007419
  48 C :   -0.077870
  49 C :   -0.169763
  50 S :    0.503940
  51 C :   -0.196119
  52 C :   -0.063460
  53 C :    0.081322
  54 C :   -0.106007
  55 C :   -0.021946
  56 N :   -0.026844
  57 C :   -0.014681
  58 N :   -0.041848
  59 C :   -0.024347
  60 C :   -0.158935
  61 S :    0.503536
  62 C :   -0.067129
  63 C :    0.051599
  64 O :   -0.095414
  65 C :    0.083902
  66 C :    0.049147
  67 O :   -0.089030
  68 C :    0.081656
  69 C :   -0.083799
  70 C :   -0.058484
  71 C :   -0.049701
  72 N :   -0.026185
  73 O :    0.071585
  74 N :   -0.029051
  75 H :    0.040898
  76 H :    0.021699
  77 H :    0.021999
  78 H :    0.032245
  79 H :    0.019074
  80 H :    0.019655
  81 H :    0.024133
  82 H :    0.039782
  83 H :    0.037262
  84 H :    0.037512
  85 H :    0.039691
  86 H :    0.019188
  87 H :    0.026072
  88 H :    0.020442
  89 H :    0.021584
  90 H :    0.032624
  91 H :    0.022043
  92 H :    0.040948

  Mayer bond orders larger than 0.100000
B(  0-C ,  1-C ) :   1.4354 B(  0-C ,  7-C ) :   0.1080 B(  0-C ,  9-C ) :   1.0969
B(  0-C , 75-H ) :   1.0396 B(  1-C ,  2-O ) :   1.1421 B(  1-C ,  4-C ) :   1.1288
B(  2-O ,  3-C ) :   0.9482 B(  3-C , 76-H ) :   0.9692 B(  3-C , 77-H ) :   0.9693
B(  3-C , 78-H ) :   0.9773 B(  4-C ,  5-O ) :   1.1649 B(  4-C ,  7-C ) :   1.4754
B(  5-O ,  6-C ) :   0.9104 B(  6-C , 79-H ) :   0.9773 B(  6-C , 80-H ) :   0.9770
B(  6-C , 81-H ) :   0.9732 B(  7-C ,  8-C ) :   1.1480 B(  7-C , 13-C ) :   1.1397
B(  8-C ,  9-C ) :   1.1440 B(  8-C , 12-N ) :   1.6055 B(  9-C , 10-N ) :   1.6150
B( 10-N , 11-O ) :   1.0619 B( 10-N , 12-N ) :   0.1758 B( 11-O , 12-N ) :   1.0553
B( 13-C , 14-C ) :   1.4641 B( 13-C , 17-S ) :   1.0993 B( 14-C , 15-C ) :   1.2667
B( 14-C , 82-H ) :   0.9790 B( 15-C , 16-C ) :   1.4188 B( 15-C , 20-C ) :   0.9904
B( 16-C , 17-S ) :   1.0825 B( 16-C , 18-C ) :   1.1986 B( 18-C , 19-C ) :   1.3941
B( 18-C , 28-S ) :   1.1061 B( 19-C , 20-C ) :   0.9891 B( 19-C , 26-C ) :   1.2844
B( 20-C , 21-C ) :   1.7120 B( 21-C , 22-C ) :   1.1360 B( 21-C , 24-C ) :   1.1365
B( 22-C , 23-N ) :   2.9912 B( 24-C , 25-N ) :   2.9938 B( 26-C , 27-C ) :   1.3999
B( 26-C , 83-H ) :   0.9860 B( 27-C , 28-S ) :   1.0866 B( 27-C , 29-C ) :   1.1987
B( 29-C , 30-C ) :   1.2584 B( 29-C , 40-C ) :   0.1178 B( 29-C , 42-C ) :   1.1832
B( 30-C , 31-C ) :   1.0976 B( 30-C , 35-N ) :   1.4527 B( 31-C , 32-N ) :   1.4050
B( 31-C , 40-C ) :   1.2418 B( 32-N , 33-C ) :   1.6850 B( 33-C , 34-C ) :   1.2142
B( 33-C , 38-C ) :   1.1634 B( 34-C , 35-N ) :   1.7249 B( 34-C , 36-C ) :   1.1560
B( 36-C , 37-N ) :   3.0312 B( 38-C , 39-N ) :   3.0406 B( 40-C , 41-C ) :   1.1950
B( 40-C , 46-C ) :   1.2255 B( 41-C , 42-C ) :   1.1079 B( 41-C , 45-N ) :   1.5197
B( 42-C , 43-N ) :   1.4824 B( 43-N , 44-S ) :   1.2662 B( 43-N , 45-N ) :   0.1482
B( 44-S , 45-N ) :   1.2837 B( 46-C , 47-C ) :   1.3999 B( 46-C , 50-S ) :   1.0736
B( 47-C , 48-C ) :   1.2882 B( 47-C , 84-H ) :   0.9835 B( 48-C , 49-C ) :   1.3924
B( 48-C , 53-C ) :   0.9860 B( 49-C , 50-S ) :   1.0894 B( 49-C , 51-C ) :   1.2045
B( 51-C , 52-C ) :   1.4137 B( 51-C , 61-S ) :   1.0845 B( 52-C , 53-C ) :   0.9926
B( 52-C , 59-C ) :   1.2684 B( 53-C , 54-C ) :   1.7059 B( 54-C , 55-C ) :   1.1362
B( 54-C , 57-C ) :   1.1407 B( 55-C , 56-N ) :   2.9957 B( 57-C , 58-N ) :   2.9840
B( 59-C , 60-C ) :   1.4600 B( 59-C , 85-H ) :   0.9794 B( 60-C , 61-S ) :   1.1037
B( 60-C , 62-C ) :   1.1427 B( 62-C , 63-C ) :   1.4756 B( 62-C , 69-C ) :   0.1089
B( 62-C , 71-C ) :   1.1467 B( 63-C , 64-O ) :   1.1697 B( 63-C , 66-C ) :   1.1281
B( 64-O , 65-C ) :   0.9069 B( 65-C , 86-H ) :   0.9768 B( 65-C , 87-H ) :   0.9736
B( 65-C , 88-H ) :   0.9772 B( 66-C , 67-O ) :   1.1470 B( 66-C , 69-C ) :   1.4316
B( 67-O , 68-C ) :   0.9489 B( 68-C , 89-H ) :   0.9690 B( 68-C , 90-H ) :   0.9773
B( 68-C , 91-H ) :   0.9692 B( 69-C , 70-C ) :   1.0948 B( 69-C , 92-H ) :   1.0430
B( 70-C , 71-C ) :   1.1441 B( 70-C , 74-N ) :   1.6152 B( 71-C , 72-N ) :   1.6066
B( 72-N , 73-O ) :   1.0541 B( 72-N , 74-N ) :   0.1756 B( 73-O , 74-N ) :   1.0612

-----------------------------------------------------------------------------
         ABSORPTION SPECTRUM VIA TRANSITION ELECTRIC DIPOLE MOMENTS
-----------------------------------------------------------------------------
State   Energy  Wavelength   fosc         T2         TX        TY        TZ
        (cm-1)    (nm)                  (au**2)     (au)      (au)      (au)
-----------------------------------------------------------------------------
   0    6658.3   1501.9   0.556205994  27.50085  -2.33682  -0.94309   4.59899
   1   12960.1    771.6   0.001377989   0.03500  -0.11696  -0.13055  -0.06544
   2   13389.6    746.8   0.060739015   1.49340  -0.87639  -0.20966   0.82546
   3   15324.6    652.5   0.005439473   0.11685  -0.22815  -0.08246  -0.24083
   4   21178.6    472.2   0.238854489   3.71289  -1.44144  -0.25459   1.25313
   5   21750.9    459.8   0.106177471   1.60706   1.14105   0.13779  -0.53486
   6   22326.8    447.9   0.674995783   9.95291   1.49327   0.50954  -2.73193
   7   23245.4    430.2   0.003440439   0.04872  -0.18192  -0.04757   0.11561
   8   23289.7    429.4   0.002627413   0.03714  -0.12957   0.05508  -0.13160
   9   23849.3    419.3   0.383207649   5.28974   1.85185   0.19679  -1.34969
  10   23960.9    417.3   0.134204570   1.84391   1.06618   0.36102  -0.75949
  11   24470.7    408.7   0.116471890   1.56693   0.66723   0.17072  -1.04527
  12   24670.7    405.3   0.015436725   0.20599   0.30011  -0.31722  -0.12370
  13   25567.7    391.1   0.002017816   0.02598  -0.06216   0.13940   0.05181
  14   27585.1    362.5   0.023264332   0.27765  -0.43807   0.26439   0.12585
  15   28570.6    350.0   0.182922073   2.10777   1.35997   0.09163  -0.49987
  16   29105.8    343.6   0.026767963   0.30277  -0.33804  -0.13806   0.41162
  17   29567.7    338.2   0.300947131   3.35080  -0.08457   0.39652  -1.78506
  18   29864.1    334.9   0.060479511   0.66671  -0.48195  -0.10920   0.65001
  19   30323.4    329.8   0.376959421   4.09253   0.06840   0.38692  -1.98448
  20   30881.3    323.8   0.027176639   0.28972  -0.53172   0.00878  -0.08318
  21   30988.0    322.7   0.002058605   0.02187  -0.02526   0.12178  -0.08002
  22   31190.0    320.6   0.022857555   0.24126  -0.09119   0.07819  -0.47627
  23   31416.7    318.3   0.190160707   1.99267  -1.23213   0.36032  -0.58712
  24   31651.2    315.9   0.010339247   0.10754  -0.23946   0.00047  -0.22405
  25   31987.3    312.6   0.017347792   0.17854   0.09439  -0.25742   0.32151
  26   32132.9    311.2   0.024562384   0.25165  -0.29612   0.30293   0.26870
  27   32412.8    308.5   0.004734545   0.04809  -0.06270   0.20615   0.04074
  28   32644.3    306.3   0.936134930   9.44076  -2.23542   0.51269  -2.04470
  29   33102.9    302.1   0.717671734   7.13733   2.48711   0.17269  -0.96010
  30   33310.6    300.2   0.231386204   2.28681  -1.25706   0.08195  -0.83660
  31   33451.9    298.9   0.164766386   1.62152  -1.01615   0.23152  -0.73169
  32   33951.9    294.5   0.048169703   0.46707  -0.68152   0.04988  -0.01103
  33   35273.9    283.5   0.005493272   0.05127   0.01195  -0.12354   0.18938
  34   36029.5    277.6   0.048148230   0.43994  -0.32030  -0.14528   0.56236
  35   36233.1    276.0   0.016003047   0.14540   0.32108  -0.07220  -0.19261
  36   36373.3    274.9   0.007981067   0.07224  -0.09845   0.07448  -0.23874
  37   36537.0    273.7   0.012315454   0.11097   0.03900   0.02048  -0.33019
  38   37228.0    268.6   0.105966540   0.93708   0.93699  -0.12496  -0.20858
  39   37412.8    267.3   0.022180960   0.19518  -0.02268  -0.29247   0.33035
  40   37567.4    266.2   0.128013729   1.12181   0.64422   0.19377  -0.81808
  41   37744.0    264.9   0.028994290   0.25289  -0.45143   0.17804  -0.13193
  42   38003.1    263.1   0.072849289   0.63108  -0.78084   0.10441  -0.10231
  43   38114.3    262.4   0.041433455   0.35788   0.53862   0.02081  -0.25949
  44   38401.0    260.4   0.136220228   1.16782  -1.05022   0.19290  -0.16629
  45   38616.6    259.0   0.009966599   0.08497  -0.19425   0.15068  -0.15662
  46   38757.4    258.0   0.251299055   2.13458  -0.94653   0.35361  -1.05528
  47   39074.9    255.9   0.208357256   1.75544   1.04914  -0.09509   0.80355
  48   39309.2    254.4   0.214518025   1.79657  -1.12510   0.17014  -0.70837
  49   39476.5    253.3   0.002180527   0.01818   0.05036  -0.08381  -0.09287
  50   39784.5    251.4   0.009200797   0.07614   0.19296   0.07004  -0.18438
  51   40078.5    249.5   0.028814958   0.23669  -0.41230  -0.07522   0.24707

FINAL SINGLE POINT ENERGY     -5120.106845515150

DIPOLE MOMENT
-------------
                                X             Y             Z
Electronic contribution:      2.32517       9.17539       3.50168
Nuclear contribution   :     -4.64684     -10.08294      -4.79656
                        -----------------------------------------
Total Dipole Moment    :     -2.32168      -0.90755      -1.29488
                        -----------------------------------------
Magnitude (a.u.)       :      2.80901
Magnitude (Debye)      :      7.13994

Rotational constants in cm-1:     0.002184     0.000232     0.000211
Rotational constants in MHz :    65.460475     6.970042     6.335742

                             ****ORCA TERMINATED NORMALLY****
TOTAL RUN TIME: 0 days 0 hours 9 minutes 16 seconds 490 msec
