                         Program Version 4.2.0 -  RELEASE  -
|  1> # ORCA input file
|  2> # SCF done       -195.505779437555          0.000949132949
|  3> ! CAM-B3LYP def2-SVP def2/J RIJCOSX Grid4 TightSCF
|  4> %maxcore 5000
|  5> %tddft
|  6>     Mode sTDDFT
|  7>     Ethresh 5.0
|  8>     maxcore 5000
|  9> end
| 10>
| 11> %pal
| 12>   nprocs 6
| 13>   end
| 14> * xyz 0 1
| 15>    C        2.46443        -1.41188         1.98737
| 16>    O        1.87783        -2.16237         2.73612
| 17>    C        3.55389        -0.49117         2.38126
| 18>    C        3.99123         0.24370         1.26676
| 19>    C        5.01731         1.16360         1.41236
| 20>    C        5.58687         1.33221         2.66911
| 21>    C        5.14231         0.59865         3.77168
| 22>    C        4.11506        -0.32449         3.63048
| 23>   Br        5.93236         0.85105         5.46999
| 24>   Br        6.99125         2.58220         2.86772
| 25>    C        3.20607        -0.15983         0.10485
| 26>    C        3.25210         0.43029        -1.12803
| 27>    C        4.12598         1.48883        -1.46018
| 28>    N        4.81989         2.34294        -1.78474
| 29>    C        2.42257         0.10455        -2.22468
| 30>    N        1.78204        -0.07403        -3.16003
| 31>    C        2.31945        -1.23952         0.51989
| 32>    C        1.67134        -2.06201        -0.35258
| 33>    C        0.75071        -3.12647        -0.09455
| 34>    C        0.67850        -4.18473        -1.03807
| 35>    O        1.53138        -4.11763        -2.08453
| 36>    C        1.48063        -5.12149        -3.07329
| 37>    C       -0.21410        -5.22084        -0.81843
| 38>    C       -1.04563        -5.23961         0.29629
| 39>    C       -0.97767        -4.19170         1.24167
| 40>    C       -0.10093        -3.14671         1.01293
| 41>    O       -1.73616        -4.31117         2.35792
| 42>    C       -1.61905        -3.31947         3.35597
| 43>    C       -1.94487        -6.36755         0.50538
| 44>    C       -3.28283        -6.19530         0.89469
| 45>    C       -4.12195        -7.31189         1.26117
| 46>    N       -5.36371        -7.07791         1.72913
| 47>    C       -5.80166        -5.85197         1.80421
| 48>    C       -5.00869        -4.75424         1.31102
| 49>    N       -3.79594        -4.95075         0.87760
| 50>    C       -5.54904        -3.44345         1.29091
| 51>    N       -6.00433        -2.39285         1.31326
| 52>    C       -7.07402        -5.61107         2.38166
| 53>    N       -8.08351        -5.38769         2.87474
| 54>    C       -3.67890        -8.64205         1.14895
| 55>    C       -2.35907        -8.81504         0.70874
| 56>    C       -1.50460        -7.69139         0.38231
| 57>    N       -0.27501        -8.09330         0.03110
| 58>    S       -0.20681        -9.68814         0.12375
| 59>    N       -1.69900        -9.97561         0.60647
| 60>    C       -4.52881        -9.77416         1.49879
| 61>    C       -4.59559       -10.90338         0.64946
| 62>    O       -3.94233       -10.82111        -0.53416
| 63>    C       -4.06595       -11.88179        -1.45049
| 64>    C       -5.35392       -11.98767         1.04599
| 65>    C       -6.10538       -11.97578         2.22728
| 66>    C       -6.07798       -10.81978         3.04369
| 67>    C       -5.27921        -9.74955         2.66718
| 68>    O       -6.85683       -10.84195         4.14270
| 69>    C       -6.96461        -9.67563         4.93007
| 70>    C       -6.84822       -13.11643         2.66922
| 71>    C       -7.35439       -14.15593         1.95561
| 72>    C       -7.70197       -15.41972         2.66137
| 73>    O       -7.79900       -15.58965         3.85238
| 74>    C       -7.83921       -16.43224         1.58887
| 75>    C       -7.71660       -15.80750         0.33411
| 76>    C       -7.56523       -14.36757         0.53737
| 77>    C       -7.82447       -13.40768        -0.40407
| 78>    C       -7.93810       -12.03034        -0.11471
| 79>    N       -8.09769       -10.90816         0.06111
| 80>    C       -8.06469       -13.68821        -1.76479
| 81>    N       -8.21890       -13.86592        -2.88818
| 82>    C       -7.77366       -16.56668        -0.82233
| 83>    C       -7.95780       -17.93989        -0.70726
| 84>    C       -8.09476       -18.55057         0.54159
| 85>    C       -8.03468       -17.79260         1.70434
| 86>   Br       -8.35665       -20.41810         0.67039
| 87>   Br       -8.01409       -18.97939        -2.28573
| 88>    H        5.39032         1.74393         0.58418
| 89>    H        3.76386        -0.89908         4.47355
| 90>    H        1.91928        -1.95615        -1.40233
| 91>    H        2.22789        -4.83837        -3.81257
| 92>    H        0.49729        -5.16270        -3.55004
| 93>    H        1.73057        -6.10209        -2.65793
| 94>    H       -0.29202        -6.03861        -1.51498
| 95>    H       -0.06967        -2.31211         1.68861
| 96>    H       -2.22231        -3.67225         4.19122
| 97>    H       -2.01339        -2.36003         3.00831
| 98>    H       -0.58117        -3.19814         3.67797
| 99>    H       -3.51329       -11.57077        -2.33540
|100>    H       -5.11198       -12.05592        -1.72401
|101>    H       -3.62743       -12.80541        -1.05999
|102>    H       -5.34758       -12.89256         0.46053
|103>    H       -5.21208        -8.87623         3.29299
|104>    H       -7.69912        -9.91127         5.69807
|105>    H       -7.31679        -8.82735         4.33699
|106>    H       -6.01211        -9.42413         5.40619
|107>    H       -6.97390       -13.19683         3.74447
|108>    H       -7.66951       -16.12832        -1.80199
|109>    H       -8.13688       -18.25443         2.67407
|110> *
|111>
|112>                          ****END OF INPUT****

CARTESIAN COORDINATES (ANGSTROEM)
---------------------------------
  C      2.464430   -1.411880    1.987370
  O      1.877830   -2.162370    2.736120
  C      3.553890   -0.491170    2.381260
  C      3.991230    0.243700    1.266760
  C      5.017310    1.163600    1.412360
  C      5.586870    1.332210    2.669110
  C      5.142310    0.598650    3.771680
  C      4.115060   -0.324490    3.630480
  Br     5.932360    0.851050    5.469990
  Br     6.991250    2.582200    2.867720
  C      3.206070   -0.159830    0.104850
  C      3.252100    0.430290   -1.128030
  C      4.125980    1.488830   -1.460180
  N      4.819890    2.342940   -1.784740
  C      2.422570    0.104550   -2.224680
  N      1.782040   -0.074030   -3.160030
  C      2.319450   -1.239520    0.519890
  C      1.671340   -2.062010   -0.352580
  C      0.750710   -3.126470   -0.094550
  C      0.678500   -4.184730   -1.038070
  O      1.531380   -4.117630   -2.084530
  C      1.480630   -5.121490   -3.073290
  C     -0.214100   -5.220840   -0.818430
  C     -1.045630   -5.239610    0.296290
  C     -0.977670   -4.191700    1.241670
  C     -0.100930   -3.146710    1.012930
  O     -1.736160   -4.311170    2.357920
  C     -1.619050   -3.319470    3.355970
  C     -1.944870   -6.367550    0.505380
  C     -3.282830   -6.195300    0.894690
  C     -4.121950   -7.311890    1.261170
  N     -5.363710   -7.077910    1.729130
  C     -5.801660   -5.851970    1.804210
  C     -5.008690   -4.754240    1.311020
  N     -3.795940   -4.950750    0.877600
  C     -5.549040   -3.443450    1.290910
  N     -6.004330   -2.392850    1.313260
  C     -7.074020   -5.611070    2.381660
  N     -8.083510   -5.387690    2.874740
  C     -3.678900   -8.642050    1.148950
  C     -2.359070   -8.815040    0.708740
  C     -1.504600   -7.691390    0.382310
  N     -0.275010   -8.093300    0.031100
  S     -0.206810   -9.688140    0.123750
  N     -1.699000   -9.975610    0.606470
  C     -4.528810   -9.774160    1.498790
  C     -4.595590  -10.903380    0.649460
  O     -3.942330  -10.821110   -0.534160
  C     -4.065950  -11.881790   -1.450490
  C     -5.353920  -11.987670    1.045990
  C     -6.105380  -11.975780    2.227280
  C     -6.077980  -10.819780    3.043690
  C     -5.279210   -9.749550    2.667180
  O     -6.856830  -10.841950    4.142700
  C     -6.964610   -9.675630    4.930070
  C     -6.848220  -13.116430    2.669220
  C     -7.354390  -14.155930    1.955610
  C     -7.701970  -15.419720    2.661370
  O     -7.799000  -15.589650    3.852380
  C     -7.839210  -16.432240    1.588870
  C     -7.716600  -15.807500    0.334110
  C     -7.565230  -14.367570    0.537370
  C     -7.824470  -13.407680   -0.404070
  C     -7.938100  -12.030340   -0.114710
  N     -8.097690  -10.908160    0.061110
  C     -8.064690  -13.688210   -1.764790
  N     -8.218900  -13.865920   -2.888180
  C     -7.773660  -16.566680   -0.822330
  C     -7.957800  -17.939890   -0.707260
  C     -8.094760  -18.550570    0.541590
  C     -8.034680  -17.792600    1.704340
  Br    -8.356650  -20.418100    0.670390
  Br    -8.014090  -18.979390   -2.285730
  H      5.390320    1.743930    0.584180
  H      3.763860   -0.899080    4.473550
  H      1.919280   -1.956150   -1.402330
  H      2.227890   -4.838370   -3.812570
  H      0.497290   -5.162700   -3.550040
  H      1.730570   -6.102090   -2.657930
  H     -0.292020   -6.038610   -1.514980
  H     -0.069670   -2.312110    1.688610
  H     -2.222310   -3.672250    4.191220
  H     -2.013390   -2.360030    3.008310
  H     -0.581170   -3.198140    3.677970
  H     -3.513290  -11.570770   -2.335400
  H     -5.111980  -12.055920   -1.724010
  H     -3.627430  -12.805410   -1.059990
  H     -5.347580  -12.892560    0.460530
  H     -5.212080   -8.876230    3.292990
  H     -7.699120   -9.911270    5.698070
  H     -7.316790   -8.827350    4.336990
  H     -6.012110   -9.424130    5.406190
  H     -6.973900  -13.196830    3.744470
  H     -7.669510  -16.128320   -1.801990
  H     -8.136880  -18.254430    2.674070

 Total Charge           Charge          ....    0
 Multiplicity           Mult            ....    1
 Number of Electrons    NEL             ....  608
 Basis Dimension        Dim             .... 1208

ORBITAL ENERGIES
----------------

  NO   OCC          E(Eh)            E(eV)
   0   2.0000    -482.880200    -13139.8383
   1   2.0000    -482.880055    -13139.8343
   2   2.0000    -482.879419    -13139.8170
   3   2.0000    -482.878295    -13139.7864
   4   2.0000     -89.054734     -2423.3025
   5   2.0000     -62.557819     -1702.2848
   6   2.0000     -62.557647     -1702.2801
   7   2.0000     -62.557032     -1702.2634
   8   2.0000     -62.555894     -1702.2324
   9   2.0000     -56.391766     -1534.4980
  10   2.0000     -56.391600     -1534.4935
  11   2.0000     -56.390994     -1534.4770
  12   2.0000     -56.389857     -1534.4460
  13   2.0000     -56.389118     -1534.4259
  14   2.0000     -56.389018     -1534.4232
  15   2.0000     -56.388943     -1534.4211
  16   2.0000     -56.388849     -1534.4186
  17   2.0000     -56.388322     -1534.4043
  18   2.0000     -56.388229     -1534.4017
  19   2.0000     -56.387187     -1534.3734
  20   2.0000     -56.387086     -1534.3706
  21   2.0000     -19.264283      -524.2078
  22   2.0000     -19.261387      -524.1290
  23   2.0000     -19.256279      -523.9900
  24   2.0000     -19.253674      -523.9191
  25   2.0000     -19.228936      -523.2460
  26   2.0000     -19.223250      -523.0912
  27   2.0000     -14.465357      -393.6224
  28   2.0000     -14.463363      -393.5681
  29   2.0000     -14.458221      -393.4282
  30   2.0000     -14.457752      -393.4154
  31   2.0000     -14.434769      -392.7900
  32   2.0000     -14.432393      -392.7254
  33   2.0000     -14.425474      -392.5371
  34   2.0000     -14.421317      -392.4240
  35   2.0000     -14.420399      -392.3990
  36   2.0000     -14.420076      -392.3902
  37   2.0000     -10.386280      -282.6250
  38   2.0000     -10.383750      -282.5562
  39   2.0000     -10.381227      -282.4876
  40   2.0000     -10.374505      -282.3046
  41   2.0000     -10.357882      -281.8523
  42   2.0000     -10.357308      -281.8367
  43   2.0000     -10.357130      -281.8318
  44   2.0000     -10.356931      -281.8264
  45   2.0000     -10.353172      -281.7241
  46   2.0000     -10.353054      -281.7209
  47   2.0000     -10.351536      -281.6796
  48   2.0000     -10.351303      -281.6733
  49   2.0000     -10.350981      -281.6645
  50   2.0000     -10.350210      -281.6435
  51   2.0000     -10.349367      -281.6206
  52   2.0000     -10.349086      -281.6129
  53   2.0000     -10.348545      -281.5982
  54   2.0000     -10.347198      -281.5616
  55   2.0000     -10.346669      -281.5472
  56   2.0000     -10.343896      -281.4717
  57   2.0000     -10.335331      -281.2387
  58   2.0000     -10.334140      -281.2063
  59   2.0000     -10.331444      -281.1329
  60   2.0000     -10.327848      -281.0350
  61   2.0000     -10.327517      -281.0260
  62   2.0000     -10.326216      -280.9906
  63   2.0000     -10.325605      -280.9740
  64   2.0000     -10.325050      -280.9589
  65   2.0000     -10.323479      -280.9161
  66   2.0000     -10.322603      -280.8923
  67   2.0000     -10.322554      -280.8910
  68   2.0000     -10.322260      -280.8830
  69   2.0000     -10.321866      -280.8723
  70   2.0000     -10.321290      -280.8566
  71   2.0000     -10.320936      -280.8470
  72   2.0000     -10.319309      -280.8027
  73   2.0000     -10.315684      -280.7040
  74   2.0000     -10.315262      -280.6925
  75   2.0000     -10.315173      -280.6901
  76   2.0000     -10.314503      -280.6719
  77   2.0000     -10.307195      -280.4730
  78   2.0000     -10.306818      -280.4628
  79   2.0000     -10.306698      -280.4595
  80   2.0000     -10.306368      -280.4505
  81   2.0000     -10.306159      -280.4448
  82   2.0000     -10.302099      -280.3344
  83   2.0000     -10.298405      -280.2338
  84   2.0000     -10.298169      -280.2274
  85   2.0000     -10.289938      -280.0034
  86   2.0000     -10.288027      -279.9515
  87   2.0000     -10.287888      -279.9477
  88   2.0000     -10.285541      -279.8838
  89   2.0000      -8.787144      -239.1103
  90   2.0000      -8.786951      -239.1051
  91   2.0000      -8.786340      -239.0885
  92   2.0000      -8.785205      -239.0576
  93   2.0000      -8.145991      -221.6637
  94   2.0000      -6.623270      -180.2283
  95   2.0000      -6.623084      -180.2233
  96   2.0000      -6.622507      -180.2076
  97   2.0000      -6.621361      -180.1764
  98   2.0000      -6.609261      -179.8471
  99   2.0000      -6.609067      -179.8419
 100   2.0000      -6.608501      -179.8264
 101   2.0000      -6.608442      -179.8248
 102   2.0000      -6.608295      -179.8209
 103   2.0000      -6.607663      -179.8036
 104   2.0000      -6.607316      -179.7942
 105   2.0000      -6.606523      -179.7726
 106   2.0000      -6.116833      -166.4475
 107   2.0000      -6.109351      -166.2439
 108   2.0000      -6.109002      -166.2344
 109   2.0000      -2.739176       -74.5368
 110   2.0000      -2.738984       -74.5315
 111   2.0000      -2.738412       -74.5160
 112   2.0000      -2.737300       -74.4857
 113   2.0000      -2.735424       -74.4347
 114   2.0000      -2.735205       -74.4287
 115   2.0000      -2.734792       -74.4175
 116   2.0000      -2.734639       -74.4133
 117   2.0000      -2.734607       -74.4124
 118   2.0000      -2.734029       -74.3967
 119   2.0000      -2.733467       -74.3814
 120   2.0000      -2.732866       -74.3651
 121   2.0000      -2.723675       -74.1150
 122   2.0000      -2.723665       -74.1147
 123   2.0000      -2.723470       -74.1094
 124   2.0000      -2.723456       -74.1090
 125   2.0000      -2.722842       -74.0923
 126   2.0000      -2.722816       -74.0916
 127   2.0000      -2.721690       -74.0609
 128   2.0000      -2.721680       -74.0607
 129   2.0000      -1.169815       -31.8323
 130   2.0000      -1.168014       -31.7833
 131   2.0000      -1.164092       -31.6766
 132   2.0000      -1.160002       -31.5653
 133   2.0000      -1.148736       -31.2587
 134   2.0000      -1.144376       -31.1400
 135   2.0000      -1.139177       -30.9986
 136   2.0000      -1.123854       -30.5816
 137   2.0000      -1.051050       -28.6005
 138   2.0000      -1.029555       -28.0156
 139   2.0000      -1.028269       -27.9806
 140   2.0000      -1.018042       -27.7023
 141   2.0000      -1.012980       -27.5646
 142   2.0000      -1.011976       -27.5373
 143   2.0000      -1.008185       -27.4341
 144   2.0000      -1.002156       -27.2701
 145   2.0000      -1.001204       -27.2442
 146   2.0000      -0.999218       -27.1901
 147   2.0000      -0.990136       -26.9430
 148   2.0000      -0.981862       -26.7178
 149   2.0000      -0.981347       -26.7038
 150   2.0000      -0.969632       -26.3850
 151   2.0000      -0.962985       -26.2041
 152   2.0000      -0.927782       -25.2462
 153   2.0000      -0.924875       -25.1671
 154   2.0000      -0.922009       -25.0891
 155   2.0000      -0.917453       -24.9652
 156   2.0000      -0.915043       -24.8996
 157   2.0000      -0.912840       -24.8397
 158   2.0000      -0.908392       -24.7186
 159   2.0000      -0.895405       -24.3652
 160   2.0000      -0.883329       -24.0366
 161   2.0000      -0.867940       -23.6178
 162   2.0000      -0.859545       -23.3894
 163   2.0000      -0.858145       -23.3513
 164   2.0000      -0.856728       -23.3128
 165   2.0000      -0.856443       -23.3050
 166   2.0000      -0.844763       -22.9872
 167   2.0000      -0.834426       -22.7059
 168   2.0000      -0.832231       -22.6462
 169   2.0000      -0.820560       -22.3286
 170   2.0000      -0.817650       -22.2494
 171   2.0000      -0.803000       -21.8507
 172   2.0000      -0.789422       -21.4813
 173   2.0000      -0.785767       -21.3818
 174   2.0000      -0.777175       -21.1480
 175   2.0000      -0.771888       -21.0041
 176   2.0000      -0.771012       -20.9803
 177   2.0000      -0.758243       -20.6329
 178   2.0000      -0.747037       -20.3279
 179   2.0000      -0.737205       -20.0604
 180   2.0000      -0.730807       -19.8863
 181   2.0000      -0.713512       -19.4156
 182   2.0000      -0.710014       -19.3205
 183   2.0000      -0.707329       -19.2474
 184   2.0000      -0.701081       -19.0774
 185   2.0000      -0.697917       -18.9913
 186   2.0000      -0.694454       -18.8971
 187   2.0000      -0.688292       -18.7294
 188   2.0000      -0.680289       -18.5116
 189   2.0000      -0.676288       -18.4027
 190   2.0000      -0.672319       -18.2947
 191   2.0000      -0.665758       -18.1162
 192   2.0000      -0.655332       -17.8325
 193   2.0000      -0.646022       -17.5792
 194   2.0000      -0.639974       -17.4146
 195   2.0000      -0.635777       -17.3004
 196   2.0000      -0.628262       -17.0959
 197   2.0000      -0.625713       -17.0265
 198   2.0000      -0.621312       -16.9067
 199   2.0000      -0.620449       -16.8833
 200   2.0000      -0.615147       -16.7390
 201   2.0000      -0.611309       -16.6346
 202   2.0000      -0.608230       -16.5508
 203   2.0000      -0.603435       -16.4203
 204   2.0000      -0.597986       -16.2720
 205   2.0000      -0.587970       -15.9995
 206   2.0000      -0.585439       -15.9306
 207   2.0000      -0.578888       -15.7523
 208   2.0000      -0.572038       -15.5659
 209   2.0000      -0.570665       -15.5286
 210   2.0000      -0.568547       -15.4710
 211   2.0000      -0.567127       -15.4323
 212   2.0000      -0.565963       -15.4006
 213   2.0000      -0.562430       -15.3045
 214   2.0000      -0.558190       -15.1891
 215   2.0000      -0.556423       -15.1410
 216   2.0000      -0.552349       -15.0302
 217   2.0000      -0.551927       -15.0187
 218   2.0000      -0.550178       -14.9711
 219   2.0000      -0.548919       -14.9368
 220   2.0000      -0.546894       -14.8817
 221   2.0000      -0.542351       -14.7581
 222   2.0000      -0.541435       -14.7332
 223   2.0000      -0.539371       -14.6770
 224   2.0000      -0.534707       -14.5501
 225   2.0000      -0.533077       -14.5058
 226   2.0000      -0.531964       -14.4755
 227   2.0000      -0.529527       -14.4092
 228   2.0000      -0.523598       -14.2478
 229   2.0000      -0.520129       -14.1534
 230   2.0000      -0.511724       -13.9247
 231   2.0000      -0.511497       -13.9185
 232   2.0000      -0.505803       -13.7636
 233   2.0000      -0.504856       -13.7378
 234   2.0000      -0.501335       -13.6420
 235   2.0000      -0.499258       -13.5855
 236   2.0000      -0.496522       -13.5110
 237   2.0000      -0.494129       -13.4459
 238   2.0000      -0.492818       -13.4103
 239   2.0000      -0.491717       -13.3803
 240   2.0000      -0.489951       -13.3322
 241   2.0000      -0.488429       -13.2908
 242   2.0000      -0.485339       -13.2068
 243   2.0000      -0.481433       -13.1004
 244   2.0000      -0.475992       -12.9524
 245   2.0000      -0.467859       -12.7311
 246   2.0000      -0.467005       -12.7079
 247   2.0000      -0.465267       -12.6605
 248   2.0000      -0.464995       -12.6531
 249   2.0000      -0.461979       -12.5711
 250   2.0000      -0.460665       -12.5353
 251   2.0000      -0.459608       -12.5066
 252   2.0000      -0.457123       -12.4389
 253   2.0000      -0.455964       -12.4074
 254   2.0000      -0.453098       -12.3294
 255   2.0000      -0.449072       -12.2199
 256   2.0000      -0.448590       -12.2068
 257   2.0000      -0.447872       -12.1872
 258   2.0000      -0.446599       -12.1526
 259   2.0000      -0.443788       -12.0761
 260   2.0000      -0.442949       -12.0532
 261   2.0000      -0.438062       -11.9203
 262   2.0000      -0.435036       -11.8379
 263   2.0000      -0.434312       -11.8182
 264   2.0000      -0.433955       -11.8085
 265   2.0000      -0.432718       -11.7748
 266   2.0000      -0.432061       -11.7570
 267   2.0000      -0.431908       -11.7528
 268   2.0000      -0.431121       -11.7314
 269   2.0000      -0.429167       -11.6782
 270   2.0000      -0.425063       -11.5666
 271   2.0000      -0.422290       -11.4911
 272   2.0000      -0.419431       -11.4133
 273   2.0000      -0.417248       -11.3539
 274   2.0000      -0.415400       -11.3036
 275   2.0000      -0.412686       -11.2297
 276   2.0000      -0.410439       -11.1686
 277   2.0000      -0.405919       -11.0456
 278   2.0000      -0.403873       -10.9899
 279   2.0000      -0.403846       -10.9892
 280   2.0000      -0.401670       -10.9300
 281   2.0000      -0.398730       -10.8500
 282   2.0000      -0.393283       -10.7018
 283   2.0000      -0.392970       -10.6933
 284   2.0000      -0.388640       -10.5754
 285   2.0000      -0.382066       -10.3965
 286   2.0000      -0.374909       -10.2018
 287   2.0000      -0.366659        -9.9773
 288   2.0000      -0.361727        -9.8431
 289   2.0000      -0.358409        -9.7528
 290   2.0000      -0.353913        -9.6305
 291   2.0000      -0.351912        -9.5760
 292   2.0000      -0.350568        -9.5394
 293   2.0000      -0.348576        -9.4852
 294   2.0000      -0.343976        -9.3601
 295   2.0000      -0.340448        -9.2641
 296   2.0000      -0.339277        -9.2322
 297   2.0000      -0.324097        -8.8191
 298   2.0000      -0.318425        -8.6648
 299   2.0000      -0.313877        -8.5410
 300   2.0000      -0.310247        -8.4423
 301   2.0000      -0.299351        -8.1458
 302   2.0000      -0.279662        -7.6100
 303   2.0000      -0.268972        -7.3191
 304   0.0000      -0.124403        -3.3852
 305   0.0000      -0.093436        -2.5425
 306   0.0000      -0.091156        -2.4805
 307   0.0000      -0.071735        -1.9520
 308   0.0000      -0.067158        -1.8275

MULLIKEN ATOMIC CHARGES
-----------------------
   0 C :    0.155132
   1 O :   -0.146891
   2 C :   -0.019603
   3 C :    0.036381
   4 C :   -0.005016
   5 C :   -0.026740
   6 C :   -0.014270
   7 C :   -0.020762
   8 Br:    0.014708
   9 Br:    0.023895
  10 C :    0.286123
  11 C :   -0.327142
  12 C :   -0.189329
  13 N :    0.156163
  14 C :   -0.201615
  15 N :    0.169080
  16 C :   -0.073227
  17 C :   -0.007008
  18 C :    0.014504
  19 C :    0.239199
  20 O :   -0.304945
  21 C :    0.175369
  22 C :   -0.112057
  23 C :   -0.028716
  24 C :    0.241647
  25 C :   -0.103053
  26 O :   -0.320183
  27 C :    0.168745
  28 C :    0.085326
  29 C :   -0.056772
  30 C :   -0.053035
  31 N :    0.056038
  32 C :   -0.139295
  33 C :   -0.148394
  34 N :    0.084389
  35 C :   -0.201321
  36 N :    0.233229
  37 C :   -0.202224
  38 N :    0.235014
  39 C :    0.097917
  40 C :    0.005545
  41 C :    0.003245
  42 N :   -0.278464
  43 S :    0.547169
  44 N :   -0.255762
  45 C :   -0.022160
  46 C :    0.259660
  47 O :   -0.306887
  48 C :    0.179758
  49 C :   -0.157517
  50 C :    0.014102
  51 C :    0.243304
  52 C :   -0.104706
  53 O :   -0.299350
  54 C :    0.171490
  55 C :    0.048836
  56 C :   -0.110142
  57 C :    0.136064
  58 O :   -0.132047
  59 C :    0.003475
  60 C :    0.019745
  61 C :    0.261575
  62 C :   -0.347070
  63 C :   -0.199535
  64 N :    0.187237
  65 C :   -0.179491
  66 N :    0.160751
  67 C :   -0.012289
  68 C :   -0.024571
  69 C :   -0.016076
  70 C :   -0.021744
  71 Br:    0.015636
  72 Br:    0.020409
  73 H :    0.008779
  74 H :    0.004005
  75 H :    0.039710
  76 H :    0.047466
  77 H :    0.030681
  78 H :    0.029912
  79 H :   -0.029439
  80 H :   -0.020348
  81 H :    0.032096
  82 H :    0.031243
  83 H :    0.043382
  84 H :    0.035910
  85 H :    0.029223
  86 H :    0.025051
  87 H :   -0.022898
  88 H :   -0.032229
  89 H :    0.046790
  90 H :    0.043935
  91 H :    0.024327
  92 H :    0.035389
  93 H :    0.007380
  94 H :    0.008181
Sum of atomic charges:   -0.0000000

LOEWDIN ATOMIC CHARGES
----------------------
   0 C :    0.086325
   1 O :   -0.138756
   2 C :   -0.042526
   3 C :   -0.011860
   4 C :   -0.006484
   5 C :   -0.118228
   6 C :   -0.122943
   7 C :    0.005800
   8 Br:    0.137690
   9 Br:    0.142686
  10 C :    0.074040
  11 C :   -0.128935
  12 C :   -0.019093
  13 N :   -0.044116
  14 C :   -0.025930
  15 N :   -0.040203
  16 C :   -0.097708
  17 C :    0.095760
  18 C :   -0.055106
  19 C :    0.065905
  20 O :   -0.091263
  21 C :    0.081110
  22 C :   -0.045771
  23 C :   -0.011112
  24 C :    0.051981
  25 C :   -0.016706
  26 O :   -0.102116
  27 C :    0.077394
  28 C :   -0.001793
  29 C :   -0.003762
  30 C :   -0.004725
  31 N :    0.007380
  32 C :   -0.027039
  33 C :   -0.030595
  34 N :    0.019962
  35 C :   -0.036196
  36 N :   -0.005478
  37 C :   -0.036688
  38 N :   -0.005134
  39 C :    0.001927
  40 C :   -0.039626
  41 C :   -0.039138
  42 N :   -0.293393
  43 S :    0.690525
  44 N :   -0.271803
  45 C :   -0.012371
  46 C :    0.058774
  47 O :   -0.093249
  48 C :    0.078237
  49 C :   -0.039158
  50 C :   -0.054908
  51 C :    0.066882
  52 C :   -0.034856
  53 O :   -0.088866
  54 C :    0.081685
  55 C :    0.095880
  56 C :   -0.097915
  57 C :    0.084156
  58 O :   -0.131740
  59 C :   -0.043100
  60 C :   -0.010830
  61 C :    0.064318
  62 C :   -0.136094
  63 C :   -0.022480
  64 N :   -0.033661
  65 C :   -0.023313
  66 N :   -0.046796
  67 C :   -0.011036
  68 C :   -0.118556
  69 C :   -0.123383
  70 C :    0.007410
  71 Br:    0.138130
  72 Br:    0.140765
  73 H :    0.045038
  74 H :    0.045152
  75 H :    0.046674
  76 H :    0.033678
  77 H :    0.019428
  78 H :    0.018754
  79 H :    0.031139
  80 H :    0.033135
  81 H :    0.027120
  82 H :    0.019281
  83 H :    0.023451
  84 H :    0.029895
  85 H :    0.018948
  86 H :    0.015654
  87 H :    0.029801
  88 H :    0.029677
  89 H :    0.033640
  90 H :    0.025270
  91 H :    0.015959
  92 H :    0.049593
  93 H :    0.043606
  94 H :    0.046923

  Mayer bond orders larger than 0.100000
B(  0-C ,  1-O ) :   2.2016 B(  0-C ,  2-C ) :   0.9482 B(  0-C , 16-C ) :   0.9423
B(  2-C ,  3-C ) :   1.3266 B(  2-C ,  7-C ) :   1.3701 B(  3-C ,  4-C ) :   1.3615
B(  3-C , 10-C ) :   0.9951 B(  4-C ,  5-C ) :   1.3729 B(  4-C , 73-H ) :   0.9796
B(  5-C ,  6-C ) :   1.4195 B(  5-C ,  9-Br) :   1.0589 B(  6-C ,  7-C ) :   1.3538
B(  6-C ,  8-Br) :   1.0335 B(  7-C , 74-H ) :   1.0080 B( 10-C , 11-C ) :   1.6621
B( 10-C , 16-C ) :   1.0552 B( 11-C , 12-C ) :   1.1348 B( 11-C , 14-C ) :   1.1360
B( 12-C , 13-N ) :   2.9747 B( 14-C , 15-N ) :   2.9967 B( 16-C , 17-C ) :   1.5979
B( 17-C , 18-C ) :   1.1388 B( 17-C , 75-H ) :   0.9341 B( 18-C , 19-C ) :   1.2952
B( 18-C , 25-C ) :   1.3110 B( 19-C , 20-O ) :   1.1761 B( 19-C , 22-C ) :   1.2932
B( 20-O , 21-C ) :   0.9508 B( 21-C , 76-H ) :   0.9780 B( 21-C , 77-H ) :   0.9697
B( 21-C , 78-H ) :   0.9695 B( 22-C , 23-C ) :   1.3543 B( 22-C , 79-H ) :   0.9974
B( 23-C , 24-C ) :   1.3620 B( 23-C , 28-C ) :   0.9545 B( 24-C , 25-C ) :   1.3185
B( 24-C , 26-O ) :   1.1564 B( 25-C , 80-H ) :   0.9836 B( 26-O , 27-C ) :   0.9497
B( 27-C , 81-H ) :   0.9771 B( 27-C , 82-H ) :   0.9692 B( 27-C , 83-H ) :   0.9670
B( 28-C , 29-C ) :   1.3307 B( 28-C , 39-C ) :   0.1391 B( 28-C , 41-C ) :   1.2909
B( 29-C , 30-C ) :   1.0889 B( 29-C , 34-N ) :   1.4156 B( 30-C , 31-N ) :   1.4066
B( 30-C , 39-C ) :   1.3403 B( 31-N , 32-C ) :   1.7699 B( 32-C , 33-C ) :   1.1707
B( 32-C , 37-C ) :   1.1458 B( 33-C , 34-N ) :   1.7685 B( 33-C , 35-C ) :   1.1438
B( 35-C , 36-N ) :   3.0517 B( 37-C , 38-N ) :   3.0430 B( 39-C , 40-C ) :   1.2660
B( 39-C , 45-C ) :   0.9581 B( 40-C , 41-C ) :   1.1005 B( 40-C , 44-N ) :   1.4877
B( 41-C , 42-N ) :   1.4829 B( 42-N , 43-S ) :   1.2961 B( 42-N , 44-N ) :   0.1629
B( 43-S , 44-N ) :   1.3187 B( 45-C , 46-C ) :   1.3565 B( 45-C , 52-C ) :   1.3674
B( 46-C , 47-O ) :   1.1700 B( 46-C , 49-C ) :   1.3273 B( 47-O , 48-C ) :   0.9620
B( 48-C , 84-H ) :   0.9766 B( 48-C , 85-H ) :   0.9693 B( 48-C , 86-H ) :   0.9656
B( 49-C , 50-C ) :   1.2860 B( 49-C , 87-H ) :   0.9882 B( 50-C , 51-C ) :   1.3272
B( 50-C , 55-C ) :   1.0913 B( 51-C , 52-C ) :   1.2788 B( 51-C , 53-O ) :   1.2115
B( 52-C , 88-H ) :   0.9886 B( 53-O , 54-C ) :   0.9458 B( 54-C , 89-H ) :   0.9778
B( 54-C , 90-H ) :   0.9698 B( 54-C , 91-H ) :   0.9693 B( 55-C , 56-C ) :   1.6533
B( 55-C , 92-H ) :   0.9371 B( 56-C , 57-C ) :   0.9419 B( 56-C , 61-C ) :   1.0298
B( 57-C , 58-O ) :   2.2773 B( 57-C , 59-C ) :   0.9169 B( 59-C , 60-C ) :   1.3298
B( 59-C , 70-C ) :   1.3730 B( 60-C , 61-C ) :   1.0060 B( 60-C , 67-C ) :   1.3658
B( 61-C , 62-C ) :   1.6636 B( 62-C , 63-C ) :   1.1615 B( 62-C , 65-C ) :   1.1273
B( 63-C , 64-N ) :   3.0102 B( 65-C , 66-N ) :   2.9820 B( 67-C , 68-C ) :   1.3691
B( 67-C , 93-H ) :   0.9847 B( 68-C , 69-C ) :   1.4222 B( 68-C , 72-Br) :   1.0522
B( 69-C , 70-C ) :   1.3549 B( 69-C , 71-Br) :   1.0341 B( 70-C , 94-H ) :   1.0087

-----------------------------------------------------------------------------
         ABSORPTION SPECTRUM VIA TRANSITION ELECTRIC DIPOLE MOMENTS
-----------------------------------------------------------------------------
State   Energy  Wavelength   fosc         T2         TX        TY        TZ
        (cm-1)    (nm)                  (au**2)     (au)      (au)      (au)
-----------------------------------------------------------------------------
   0   13668.4    731.6   0.344645708   8.30100  -1.63253  -2.37298  -0.06949
   1   15685.5    637.5   0.001742440   0.03657  -0.11967   0.11896   0.09000
   2   20077.2    498.1   0.399264782   6.54686   1.60775   1.98074  -0.19671
   3   20709.4    482.9   0.161877542   2.57333  -0.57050  -1.14796  -0.96439
   4   22297.9    448.5   0.327350790   4.83309   1.32119   1.74653   0.19285
   5   24769.1    403.7   0.024115657   0.32053   0.48084   0.23199  -0.18843
   6   26263.9    380.8   0.087257039   1.09375  -0.50510  -0.62270  -0.67147
   7   26346.9    379.6   0.004208396   0.05259  -0.03625  -0.16112   0.15910
   8   26854.4    372.4   0.072036141   0.88310  -0.71595  -0.59918   0.10724
   9   27157.2    368.2   0.074990410   0.90907  -0.47135  -0.82427   0.08646
  10   27457.5    364.2   0.096053520   1.15167  -0.51365  -0.93797  -0.08973
  11   27888.4    358.6   0.073782215   0.87097  -0.54987  -0.71050   0.25260
  12   28561.0    350.1   0.029076244   0.33515   0.38871  -0.36979  -0.21750
  13   29213.0    342.3   0.070206892   0.79119  -0.73009   0.49549   0.11244
  14   29422.1    339.9   0.166108742   1.85864  -0.16975  -1.29407   0.39395
  15   29989.3    333.5   0.138318762   1.51841  -0.57098  -0.28209  -1.05490
  16   30051.3    332.8   0.012612297   0.13817  -0.27882  -0.21708  -0.11535
  17   30241.5    330.7   0.048271502   0.52549   0.52730  -0.46273   0.18256
  18   30652.3    326.2   0.035943947   0.38605   0.53006  -0.11905   0.30152
  19   30932.7    323.3   0.079619134   0.84737  -0.24465   0.86089  -0.21537
  20   31172.1    320.8   0.027444489   0.28984   0.24309  -0.26847  -0.39834
  21   31705.3    315.4   0.095251018   0.98904   0.73550  -0.01772  -0.66916
  22   31778.4    314.7   0.067747890   0.70184  -0.57886   0.55924   0.23242
  23   32130.9    311.2   0.188310691   1.92942   0.06705  -1.38739  -0.00841
  24   32320.8    309.4   0.047343786   0.48223   0.56176  -0.38410   0.13829
  25   33184.5    301.3   0.108250576   1.07392   0.82654   0.23164  -0.58059
  26   33261.1    300.7   0.066259878   0.65583   0.02396   0.74517  -0.31620
  27   33343.0    299.9   0.152886415   1.50952  -1.13219   0.40788  -0.24761
  28   33619.1    297.4   0.019398165   0.18995  -0.02041  -0.43106   0.06105
  29   34179.5    292.6   0.193116039   1.86007   0.41308  -0.84928   0.98395
  30   34316.1    291.4   0.101099629   0.96990   0.07919   0.97776   0.08730
  31   34441.0    290.4   0.008854938   0.08464   0.25451  -0.00096   0.14094
  32   34684.0    288.3   0.115199352   1.09344   0.24581  -0.48112   0.89529
  33   35006.3    285.7   0.468521228   4.40615   0.43471   0.23686   2.03987
  34   35108.2    284.8   0.335144831   3.14268   0.41994   1.68473  -0.35780
  35   35466.9    282.0   0.045437257   0.42176  -0.09703   0.57260  -0.29064
  36   35692.8    280.2   0.047689914   0.43987   0.11713  -0.46071   0.46249
  37   35928.1    278.3   0.165918784   1.52033  -0.13043  -1.00839   0.69746
  38   36191.7    276.3   0.161071510   1.46516  -0.68908  -0.86978  -0.48354
  39   36891.8    271.1   0.037478623   0.33445   0.37545   0.40831  -0.16360
  40   37167.6    269.1   0.011814526   0.10465   0.10937   0.28074   0.11778
  41   37213.3    268.7   0.393718104   3.48307   1.39661  -1.10813  -0.55191
  42   37416.1    267.3   0.198830228   1.74944   1.12648  -0.66012  -0.21147
  43   37591.2    266.0   0.035067182   0.30711  -0.42925   0.15206  -0.31580
  44   38284.8    261.2   0.113902299   0.97945   0.22332   0.94230   0.20409
  45   38338.6    260.8   0.058714598   0.50418  -0.22666  -0.66033  -0.12948
  46   38544.5    259.4   0.118675005   1.01361  -0.36793  -0.69419  -0.62956
  47   38838.6    257.5   0.224540029   1.90329  -1.37008   0.10635   0.12186
  48   38909.1    257.0   0.005612860   0.04749   0.13380  -0.03453  -0.16851
  49   39159.6    255.4   0.024802315   0.20851   0.32495   0.02994   0.31940
  50   39238.1    254.9   0.044462085   0.37304   0.44292  -0.28050   0.31334
  51   39423.6    253.7   0.291007090   2.43009  -0.76569  -1.33060  -0.27075
  52   39872.7    250.8   0.084436332   0.69715  -0.15908  -0.81966  -0.00198
  53   40232.4    248.6   0.007042430   0.05763  -0.21636  -0.00401  -0.10392

FINAL SINGLE POINT ENERGY    -13683.648250180055

DIPOLE MOMENT
-------------
                                X             Y             Z
Electronic contribution:     60.38836     -50.67414      24.36017
Nuclear contribution   :    -57.83795      47.63938     -23.03730
                        -----------------------------------------
Total Dipole Moment    :      2.55042      -3.03476       1.32287
                        -----------------------------------------
Magnitude (a.u.)       :      4.17904
Magnitude (Debye)      :     10.62228

Rotational constants in cm-1:     0.001740     0.000166     0.000165
Rotational constants in MHz :    52.150989     4.991116     4.946767

                             ****ORCA TERMINATED NORMALLY****
TOTAL RUN TIME: 0 days 0 hours 11 minutes 42 seconds 229 msec
