                         Program Version 4.2.0 -  RELEASE  -
|  1> # ORCA input file
|  2> # SCF done       -184.586378510435          0.000619393863
|  3> ! CAM-B3LYP def2-SVP def2/J RIJCOSX Grid4 TightSCF
|  4> %maxcore 5000
|  5> %tddft
|  6>     Mode sTDDFT
|  7>     Ethresh 5.0
|  8>     maxcore 5000
|  9> end
| 10>
| 11> %pal
| 12>   nprocs 6
| 13>   end
| 14> * xyz 0 1
| 15>    C       12.96817        -3.38447         3.47860
| 16>    C       11.83010        -4.09131         3.22923
| 17>    C       11.47688        -4.06505         1.84012
| 18>    C       12.33207        -3.33981         1.07408
| 19>    S       13.59442        -2.67856         2.03857
| 20>    C       10.29181        -4.88526         1.63846
| 21>    O        9.66628        -5.07048         0.59965
| 22>    C        9.96991        -5.45640         2.96144
| 23>    C       10.88680        -4.94028         3.95369
| 24>    C       10.92721        -5.11051         5.31478
| 25>    N       11.76420        -4.24511         6.13180
| 26>    O       11.67135        -3.05330         5.93953
| 27>    O       12.49811        -4.77759         6.92647
| 28>    N       10.22275        -6.07211         6.09723
| 29>    O        9.88172        -7.11099         5.56159
| 30>    O       10.00116        -5.78378         7.25336
| 31>    C        8.89741        -6.31349         3.10138
| 32>    N        8.12772        -6.60229         2.05159
| 33>    C        7.06802        -7.44794         2.01691
| 34>    S        6.53868        -8.30789         3.42786
| 35>    C        5.28170        -9.03188         2.48085
| 36>    N        4.40301        -9.92530         3.11446
| 37>    O        3.53046       -10.43003         2.43368
| 38>    O        4.58369       -10.12434         4.30076
| 39>    C        5.27602        -8.63716         1.17080
| 40>    C        6.30045        -7.71651         0.87356
| 41>    C        6.54763        -7.12138        -0.41201
| 42>    C        5.84571        -7.38036        -1.53275
| 43>    C        6.15965        -6.76077        -2.78566
| 44>    C        5.56088        -6.97541        -3.96910
| 45>    C        4.44892        -7.93584        -4.23266
| 46>    C        6.10174        -6.29293        -5.20616
| 47>    N        7.07818        -7.15861        -5.83293
| 48>    C        6.78579        -8.05276        -6.79132
| 49>    C        7.58081        -9.12283        -7.08421
| 50>    C        7.34238       -10.03264        -8.12122
| 51>    C        8.11539       -11.15055        -8.33396
| 52>    C        7.97641       -12.13661        -9.33474
| 53>    C        8.89157       -13.14743        -9.25582
| 54>    C        9.79601       -13.01253        -8.18241
| 55>    S        9.47056       -11.55771        -7.28681
| 56>    C       10.81799       -13.86767        -7.79051
| 57>    C       11.23047       -15.07948        -8.37052
| 58>    C       12.26177       -15.68291        -7.70233
| 59>    C       12.70513       -14.97575        -6.56691
| 60>    S       11.78024       -13.50676        -6.37449
| 61>    C       13.71038       -15.34409        -5.68535
| 62>    C       14.05177       -14.57479        -4.58393
| 63>    C       15.02608       -14.89157        -3.65239
| 64>    C       15.39228       -14.11320        -2.50239
| 65>    C       14.86482       -12.90241        -2.10700
| 66>    C       15.28811       -12.18652        -0.97142
| 67>    N       15.58233       -11.54238        -0.06585
| 68>    C       13.83889       -12.19223        -2.75831
| 69>    N       13.00748       -11.53757        -3.20948
| 70>    C       16.44990       -14.83469        -1.79467
| 71>    C       16.73076       -16.02980        -2.49954
| 72>    C       15.85417       -16.10812        -3.68964
| 73>    O       15.84120       -17.00481        -4.51218
| 74>    C       17.67715       -16.93138        -2.08230
| 75>    C       18.38303       -16.64097        -0.90872
| 76>    C       18.09592       -15.44578        -0.21164
| 77>    C       17.13707       -14.53220        -0.63561
| 78>    S       19.08055       -15.28371         1.21216
| 79>    C       19.85276       -16.80539         0.85443
| 80>    C       19.39956       -17.40475        -0.27139
| 81>   Br       21.18624       -17.45919         2.00165
| 82>    H       13.49596        -3.20880         4.39408
| 83>    H       12.30436        -3.16290         0.01760
| 84>    H        8.66279        -6.80380         4.03714
| 85>    H        8.42220        -6.13080         1.17545
| 86>    H        4.55059        -9.00844         0.47126
| 87>    H        7.36676        -6.41729        -0.47597
| 88>    H        5.02555        -8.07989        -1.50473
| 89>    H        6.97265        -6.04467        -2.74972
| 90>    H        4.15827        -8.48823        -3.34637
| 91>    H        4.75242        -8.65080        -4.99937
| 92>    H        3.57642        -7.39996        -4.60769
| 93>    H        6.59138        -5.35036        -4.94727
| 94>    H        5.30346        -6.09435        -5.92402
| 95>    H        7.89132        -7.36289        -5.26601
| 96>    H        5.88727        -7.85680        -7.36173
| 97>    H        8.45390        -9.29642        -6.46823
| 98>    H        6.50377        -9.86420        -8.78378
| 99>    H        7.20569       -12.07385       -10.08290
|100>    H        8.93292       -13.98169        -9.93257
|101>    H       10.76647       -15.47926        -9.25451
|102>    H       12.71097       -16.61623        -7.99149
|103>    H       14.23472       -16.27053        -5.86797
|104>    H       13.49996       -13.65268        -4.44488
|105>    H       17.86757       -17.83435        -2.64099
|106>    H       16.95516       -13.63584        -0.06679
|107>    H       19.76471       -18.34630        -0.63915
|108> *
|109>
|110>                          ****END OF INPUT****

CARTESIAN COORDINATES (ANGSTROEM)
---------------------------------
  C     12.968170   -3.384470    3.478600
  C     11.830100   -4.091310    3.229230
  C     11.476880   -4.065050    1.840120
  C     12.332070   -3.339810    1.074080
  S     13.594420   -2.678560    2.038570
  C     10.291810   -4.885260    1.638460
  O      9.666280   -5.070480    0.599650
  C      9.969910   -5.456400    2.961440
  C     10.886800   -4.940280    3.953690
  C     10.927210   -5.110510    5.314780
  N     11.764200   -4.245110    6.131800
  O     11.671350   -3.053300    5.939530
  O     12.498110   -4.777590    6.926470
  N     10.222750   -6.072110    6.097230
  O      9.881720   -7.110990    5.561590
  O     10.001160   -5.783780    7.253360
  C      8.897410   -6.313490    3.101380
  N      8.127720   -6.602290    2.051590
  C      7.068020   -7.447940    2.016910
  S      6.538680   -8.307890    3.427860
  C      5.281700   -9.031880    2.480850
  N      4.403010   -9.925300    3.114460
  O      3.530460  -10.430030    2.433680
  O      4.583690  -10.124340    4.300760
  C      5.276020   -8.637160    1.170800
  C      6.300450   -7.716510    0.873560
  C      6.547630   -7.121380   -0.412010
  C      5.845710   -7.380360   -1.532750
  C      6.159650   -6.760770   -2.785660
  C      5.560880   -6.975410   -3.969100
  C      4.448920   -7.935840   -4.232660
  C      6.101740   -6.292930   -5.206160
  N      7.078180   -7.158610   -5.832930
  C      6.785790   -8.052760   -6.791320
  C      7.580810   -9.122830   -7.084210
  C      7.342380  -10.032640   -8.121220
  C      8.115390  -11.150550   -8.333960
  C      7.976410  -12.136610   -9.334740
  C      8.891570  -13.147430   -9.255820
  C      9.796010  -13.012530   -8.182410
  S      9.470560  -11.557710   -7.286810
  C     10.817990  -13.867670   -7.790510
  C     11.230470  -15.079480   -8.370520
  C     12.261770  -15.682910   -7.702330
  C     12.705130  -14.975750   -6.566910
  S     11.780240  -13.506760   -6.374490
  C     13.710380  -15.344090   -5.685350
  C     14.051770  -14.574790   -4.583930
  C     15.026080  -14.891570   -3.652390
  C     15.392280  -14.113200   -2.502390
  C     14.864820  -12.902410   -2.107000
  C     15.288110  -12.186520   -0.971420
  N     15.582330  -11.542380   -0.065850
  C     13.838890  -12.192230   -2.758310
  N     13.007480  -11.537570   -3.209480
  C     16.449900  -14.834690   -1.794670
  C     16.730760  -16.029800   -2.499540
  C     15.854170  -16.108120   -3.689640
  O     15.841200  -17.004810   -4.512180
  C     17.677150  -16.931380   -2.082300
  C     18.383030  -16.640970   -0.908720
  C     18.095920  -15.445780   -0.211640
  C     17.137070  -14.532200   -0.635610
  S     19.080550  -15.283710    1.212160
  C     19.852760  -16.805390    0.854430
  C     19.399560  -17.404750   -0.271390
  Br    21.186240  -17.459190    2.001650
  H     13.495960   -3.208800    4.394080
  H     12.304360   -3.162900    0.017600
  H      8.662790   -6.803800    4.037140
  H      8.422200   -6.130800    1.175450
  H      4.550590   -9.008440    0.471260
  H      7.366760   -6.417290   -0.475970
  H      5.025550   -8.079890   -1.504730
  H      6.972650   -6.044670   -2.749720
  H      4.158270   -8.488230   -3.346370
  H      4.752420   -8.650800   -4.999370
  H      3.576420   -7.399960   -4.607690
  H      6.591380   -5.350360   -4.947270
  H      5.303460   -6.094350   -5.924020
  H      7.891320   -7.362890   -5.266010
  H      5.887270   -7.856800   -7.361730
  H      8.453900   -9.296420   -6.468230
  H      6.503770   -9.864200   -8.783780
  H      7.205690  -12.073850  -10.082900
  H      8.932920  -13.981690   -9.932570
  H     10.766470  -15.479260   -9.254510
  H     12.710970  -16.616230   -7.991490
  H     14.234720  -16.270530   -5.867970
  H     13.499960  -13.652680   -4.444880
  H     17.867570  -17.834350   -2.640990
  H     16.955160  -13.635840   -0.066790
  H     19.764710  -18.346300   -0.639150

 Total Charge           Charge          ....    0
 Multiplicity           Mult            ....    1
 Number of Electrons    NEL             ....  530
 Basis Dimension        Dim             .... 1106

ORBITAL ENERGIES
----------------

  NO   OCC          E(Eh)            E(eV)
   0   2.0000    -482.869571    -13139.5490
   1   2.0000     -88.997307     -2421.7398
   2   2.0000     -88.991421     -2421.5797
   3   2.0000     -88.957109     -2420.6460
   4   2.0000     -88.955801     -2420.6104
   5   2.0000     -88.946953     -2420.3697
   6   2.0000     -62.547299     -1701.9985
   7   2.0000     -56.381227     -1534.2112
   8   2.0000     -56.378553     -1534.1384
   9   2.0000     -56.378510     -1534.1373
  10   2.0000     -19.257323      -524.0184
  11   2.0000     -19.256403      -523.9934
  12   2.0000     -19.256206      -523.9880
  13   2.0000     -19.256021      -523.9830
  14   2.0000     -19.246324      -523.7191
  15   2.0000     -19.245029      -523.6839
  16   2.0000     -19.241027      -523.5750
  17   2.0000     -19.185290      -522.0583
  18   2.0000     -14.667673      -399.1277
  19   2.0000     -14.663771      -399.0215
  20   2.0000     -14.657457      -398.8497
  21   2.0000     -14.502841      -394.6424
  22   2.0000     -14.471006      -393.7761
  23   2.0000     -14.389085      -391.5469
  24   2.0000     -14.386160      -391.4673
  25   2.0000     -10.391541      -282.7682
  26   2.0000     -10.379428      -282.4386
  27   2.0000     -10.374026      -282.2916
  28   2.0000     -10.371324      -282.2181
  29   2.0000     -10.362498      -281.9779
  30   2.0000     -10.355143      -281.7778
  31   2.0000     -10.352618      -281.7091
  32   2.0000     -10.339350      -281.3480
  33   2.0000     -10.339219      -281.3444
  34   2.0000     -10.335429      -281.2413
  35   2.0000     -10.331947      -281.1466
  36   2.0000     -10.330875      -281.1174
  37   2.0000     -10.330074      -281.0956
  38   2.0000     -10.319105      -280.7971
  39   2.0000     -10.315720      -280.7050
  40   2.0000     -10.314689      -280.6770
  41   2.0000     -10.313329      -280.6399
  42   2.0000     -10.312046      -280.6050
  43   2.0000     -10.310518      -280.5635
  44   2.0000     -10.310325      -280.5582
  45   2.0000     -10.310031      -280.5502
  46   2.0000     -10.306191      -280.4457
  47   2.0000     -10.305638      -280.4307
  48   2.0000     -10.305254      -280.4202
  49   2.0000     -10.304583      -280.4020
  50   2.0000     -10.302746      -280.3520
  51   2.0000     -10.302662      -280.3497
  52   2.0000     -10.302415      -280.3430
  53   2.0000     -10.299002      -280.2501
  54   2.0000     -10.294233      -280.1203
  55   2.0000     -10.294138      -280.1177
  56   2.0000     -10.293938      -280.1123
  57   2.0000     -10.292318      -280.0682
  58   2.0000     -10.291743      -280.0526
  59   2.0000     -10.291374      -280.0425
  60   2.0000     -10.284520      -279.8560
  61   2.0000     -10.284432      -279.8536
  62   2.0000     -10.282005      -279.7876
  63   2.0000     -10.281697      -279.7792
  64   2.0000     -10.280684      -279.7516
  65   2.0000     -10.278120      -279.6819
  66   2.0000     -10.276827      -279.6467
  67   2.0000     -10.276732      -279.6441
  68   2.0000     -10.265728      -279.3446
  69   2.0000     -10.257841      -279.1300
  70   2.0000     -10.256031      -279.0808
  71   2.0000      -8.776729      -238.8269
  72   2.0000      -8.092591      -220.2106
  73   2.0000      -8.087390      -220.0691
  74   2.0000      -8.053412      -219.1445
  75   2.0000      -8.051746      -219.0992
  76   2.0000      -8.042875      -218.8578
  77   2.0000      -6.612949      -179.9475
  78   2.0000      -6.598485      -179.5539
  79   2.0000      -6.598346      -179.5501
  80   2.0000      -6.062200      -164.9609
  81   2.0000      -6.057866      -164.8429
  82   2.0000      -6.056645      -164.8097
  83   2.0000      -6.054068      -164.7396
  84   2.0000      -6.051853      -164.6793
  85   2.0000      -6.050101      -164.6316
  86   2.0000      -6.022985      -163.8938
  87   2.0000      -6.021435      -163.8516
  88   2.0000      -6.018974      -163.7846
  89   2.0000      -6.017194      -163.7362
  90   2.0000      -6.014585      -163.6652
  91   2.0000      -6.012979      -163.6215
  92   2.0000      -6.012415      -163.6061
  93   2.0000      -6.008394      -163.4967
  94   2.0000      -6.004201      -163.3826
  95   2.0000      -2.728799       -74.2544
  96   2.0000      -2.724775       -74.1449
  97   2.0000      -2.724682       -74.1424
  98   2.0000      -2.713181       -73.8294
  99   2.0000      -2.713158       -73.8288
 100   2.0000      -1.348016       -36.6814
 101   2.0000      -1.330536       -36.2057
 102   2.0000      -1.327612       -36.1262
 103   2.0000      -1.161540       -31.6071
 104   2.0000      -1.157485       -31.4968
 105   2.0000      -1.154830       -31.4245
 106   2.0000      -1.146921       -31.2093
 107   2.0000      -1.111228       -30.2380
 108   2.0000      -1.098451       -29.8904
 109   2.0000      -1.071924       -29.1685
 110   2.0000      -1.030578       -28.0435
 111   2.0000      -1.018142       -27.7051
 112   2.0000      -1.003542       -27.3078
 113   2.0000      -0.998898       -27.1814
 114   2.0000      -0.987696       -26.8766
 115   2.0000      -0.986633       -26.8477
 116   2.0000      -0.978544       -26.6275
 117   2.0000      -0.967199       -26.3188
 118   2.0000      -0.962392       -26.1880
 119   2.0000      -0.948038       -25.7974
 120   2.0000      -0.945501       -25.7284
 121   2.0000      -0.927270       -25.2323
 122   2.0000      -0.919490       -25.0206
 123   2.0000      -0.914745       -24.8915
 124   2.0000      -0.900093       -24.4928
 125   2.0000      -0.891210       -24.2510
 126   2.0000      -0.883889       -24.0518
 127   2.0000      -0.870817       -23.6961
 128   2.0000      -0.868241       -23.6260
 129   2.0000      -0.862770       -23.4772
 130   2.0000      -0.861152       -23.4331
 131   2.0000      -0.860605       -23.4182
 132   2.0000      -0.852335       -23.1932
 133   2.0000      -0.847166       -23.0526
 134   2.0000      -0.825693       -22.4682
 135   2.0000      -0.822562       -22.3830
 136   2.0000      -0.818953       -22.2849
 137   2.0000      -0.812966       -22.1219
 138   2.0000      -0.806648       -21.9500
 139   2.0000      -0.803469       -21.8635
 140   2.0000      -0.797777       -21.7086
 141   2.0000      -0.785653       -21.3787
 142   2.0000      -0.773380       -21.0447
 143   2.0000      -0.757711       -20.6184
 144   2.0000      -0.749609       -20.3979
 145   2.0000      -0.739808       -20.1312
 146   2.0000      -0.732499       -19.9323
 147   2.0000      -0.726557       -19.7706
 148   2.0000      -0.710778       -19.3413
 149   2.0000      -0.702671       -19.1207
 150   2.0000      -0.693525       -18.8718
 151   2.0000      -0.687679       -18.7127
 152   2.0000      -0.679965       -18.5028
 153   2.0000      -0.672219       -18.2920
 154   2.0000      -0.671246       -18.2655
 155   2.0000      -0.663997       -18.0683
 156   2.0000      -0.660271       -17.9669
 157   2.0000      -0.656454       -17.8630
 158   2.0000      -0.651226       -17.7208
 159   2.0000      -0.645993       -17.5784
 160   2.0000      -0.642450       -17.4820
 161   2.0000      -0.639716       -17.4076
 162   2.0000      -0.638709       -17.3802
 163   2.0000      -0.638313       -17.3694
 164   2.0000      -0.637575       -17.3493
 165   2.0000      -0.632874       -17.2214
 166   2.0000      -0.628666       -17.1069
 167   2.0000      -0.627125       -17.0649
 168   2.0000      -0.626852       -17.0575
 169   2.0000      -0.618141       -16.8205
 170   2.0000      -0.606961       -16.5162
 171   2.0000      -0.603374       -16.4186
 172   2.0000      -0.601712       -16.3734
 173   2.0000      -0.598424       -16.2840
 174   2.0000      -0.597817       -16.2674
 175   2.0000      -0.596057       -16.2195
 176   2.0000      -0.593406       -16.1474
 177   2.0000      -0.593142       -16.1402
 178   2.0000      -0.588353       -16.0099
 179   2.0000      -0.576614       -15.6905
 180   2.0000      -0.574322       -15.6281
 181   2.0000      -0.570173       -15.5152
 182   2.0000      -0.564614       -15.3639
 183   2.0000      -0.560342       -15.2477
 184   2.0000      -0.558698       -15.2030
 185   2.0000      -0.549594       -14.9552
 186   2.0000      -0.545057       -14.8318
 187   2.0000      -0.543473       -14.7886
 188   2.0000      -0.539441       -14.6789
 189   2.0000      -0.537924       -14.6377
 190   2.0000      -0.536040       -14.5864
 191   2.0000      -0.533452       -14.5160
 192   2.0000      -0.521535       -14.1917
 193   2.0000      -0.519186       -14.1278
 194   2.0000      -0.513094       -13.9620
 195   2.0000      -0.512842       -13.9551
 196   2.0000      -0.507679       -13.8147
 197   2.0000      -0.507049       -13.7975
 198   2.0000      -0.506215       -13.7748
 199   2.0000      -0.505118       -13.7450
 200   2.0000      -0.502775       -13.6812
 201   2.0000      -0.500370       -13.6158
 202   2.0000      -0.494333       -13.4515
 203   2.0000      -0.492013       -13.3884
 204   2.0000      -0.489932       -13.3317
 205   2.0000      -0.488850       -13.3023
 206   2.0000      -0.486827       -13.2472
 207   2.0000      -0.486137       -13.2285
 208   2.0000      -0.484410       -13.1815
 209   2.0000      -0.481906       -13.1133
 210   2.0000      -0.475544       -12.9402
 211   2.0000      -0.474454       -12.9105
 212   2.0000      -0.473517       -12.8851
 213   2.0000      -0.470649       -12.8070
 214   2.0000      -0.468711       -12.7543
 215   2.0000      -0.466026       -12.6812
 216   2.0000      -0.464428       -12.6377
 217   2.0000      -0.461676       -12.5628
 218   2.0000      -0.457381       -12.4460
 219   2.0000      -0.454357       -12.3637
 220   2.0000      -0.447384       -12.1739
 221   2.0000      -0.447370       -12.1736
 222   2.0000      -0.438596       -11.9348
 223   2.0000      -0.437682       -11.9099
 224   2.0000      -0.436012       -11.8645
 225   2.0000      -0.431961       -11.7543
 226   2.0000      -0.429450       -11.6859
 227   2.0000      -0.425103       -11.5676
 228   2.0000      -0.424583       -11.5535
 229   2.0000      -0.418793       -11.3959
 230   2.0000      -0.417092       -11.3496
 231   2.0000      -0.416891       -11.3442
 232   2.0000      -0.407537       -11.0896
 233   2.0000      -0.403409       -10.9773
 234   2.0000      -0.401137       -10.9155
 235   2.0000      -0.400303       -10.8928
 236   2.0000      -0.397422       -10.8144
 237   2.0000      -0.397223       -10.8090
 238   2.0000      -0.392750       -10.6873
 239   2.0000      -0.389770       -10.6062
 240   2.0000      -0.388932       -10.5834
 241   2.0000      -0.385982       -10.5031
 242   2.0000      -0.385360       -10.4862
 243   2.0000      -0.381276       -10.3751
 244   2.0000      -0.379120       -10.3164
 245   2.0000      -0.374611       -10.1937
 246   2.0000      -0.373995       -10.1769
 247   2.0000      -0.371167       -10.1000
 248   2.0000      -0.363362        -9.8876
 249   2.0000      -0.362907        -9.8752
 250   2.0000      -0.359398        -9.7797
 251   2.0000      -0.357688        -9.7332
 252   2.0000      -0.347416        -9.4537
 253   2.0000      -0.347224        -9.4484
 254   2.0000      -0.340523        -9.2661
 255   2.0000      -0.329390        -8.9631
 256   2.0000      -0.325293        -8.8517
 257   2.0000      -0.316654        -8.6166
 258   2.0000      -0.310804        -8.4574
 259   2.0000      -0.306219        -8.3326
 260   2.0000      -0.293225        -7.9790
 261   2.0000      -0.278710        -7.5841
 262   2.0000      -0.273442        -7.4407
 263   2.0000      -0.266843        -7.2612
 264   2.0000      -0.211206        -5.7472
 265   0.0000      -0.100450        -2.7334
 266   0.0000      -0.094963        -2.5841
 267   0.0000      -0.072148        -1.9632
 268   0.0000      -0.051496        -1.4013
 269   0.0000      -0.045907        -1.2492

MULLIKEN ATOMIC CHARGES
-----------------------
   0 C :   -0.124422
   1 C :    0.046813
   2 C :    0.022939
   3 C :   -0.123153
   4 S :    0.165214
   5 C :    0.182984
   6 O :   -0.225652
   7 C :   -0.126999
   8 C :    0.253822
   9 C :    0.029524
  10 N :    0.208892
  11 O :   -0.224070
  12 O :   -0.203530
  13 N :    0.257510
  14 O :   -0.254100
  15 O :   -0.215423
  16 C :    0.032661
  17 N :   -0.007491
  18 C :   -0.117717
  19 S :    0.185050
  20 C :    0.004404
  21 N :    0.274701
  22 O :   -0.245297
  23 O :   -0.251599
  24 C :    0.004058
  25 C :    0.145096
  26 C :   -0.045895
  27 C :    0.011376
  28 C :    0.013413
  29 C :   -0.188210
  30 C :    0.097023
  31 C :    0.187374
  32 N :   -0.124100
  33 C :    0.065898
  34 C :   -0.041431
  35 C :    0.025152
  36 C :   -0.055734
  37 C :    0.055078
  38 C :    0.007758
  39 C :   -0.018771
  40 S :    0.094296
  41 C :   -0.062458
  42 C :    0.045911
  43 C :    0.015222
  44 C :    0.008286
  45 S :    0.096788
  46 C :   -0.029405
  47 C :   -0.043364
  48 C :   -0.095448
  49 C :    0.335265
  50 C :   -0.380149
  51 C :   -0.194343
  52 N :    0.125200
  53 C :   -0.190228
  54 N :    0.115685
  55 C :    0.010394
  56 C :   -0.008518
  57 C :    0.130735
  58 O :   -0.170088
  59 C :   -0.081173
  60 C :    0.119727
  61 C :   -0.093615
  62 C :   -0.029235
  63 S :    0.173497
  64 C :   -0.124956
  65 C :    0.037227
  66 Br:    0.007275
  67 H :    0.053032
  68 H :    0.040882
  69 H :    0.053406
  70 H :    0.187564
  71 H :    0.011984
  72 H :   -0.006876
  73 H :   -0.013159
  74 H :   -0.019770
  75 H :    0.014687
  76 H :    0.031412
  77 H :    0.028976
  78 H :    0.026180
  79 H :    0.016005
  80 H :    0.130652
  81 H :    0.012635
  82 H :    0.005740
  83 H :   -0.009163
  84 H :   -0.007317
  85 H :   -0.010953
  86 H :   -0.011517
  87 H :   -0.008016
  88 H :    0.009517
  89 H :    0.010317
  90 H :   -0.019565
  91 H :   -0.012729
  92 H :   -0.009599
Sum of atomic charges:   -0.0000000

LOEWDIN ATOMIC CHARGES
----------------------
   0 C :   -0.143231
   1 C :   -0.060942
   2 C :   -0.090334
   3 C :   -0.138278
   4 S :    0.497476
   5 C :    0.100455
   6 O :   -0.176708
   7 C :   -0.144755
   8 C :    0.062118
   9 C :   -0.075639
  10 N :    0.269874
  11 O :   -0.188658
  12 O :   -0.173596
  13 N :    0.279229
  14 O :   -0.211266
  15 O :   -0.181840
  16 C :    0.119271
  17 N :    0.083827
  18 C :   -0.112155
  19 S :    0.478417
  20 C :   -0.197790
  21 N :    0.273358
  22 O :   -0.212365
  23 O :   -0.217589
  24 C :    0.002418
  25 C :   -0.083474
  26 C :   -0.025068
  27 C :   -0.015507
  28 C :   -0.044477
  29 C :   -0.039689
  30 C :   -0.047729
  31 C :    0.049669
  32 N :    0.026460
  33 C :    0.065774
  34 C :   -0.125895
  35 C :    0.001782
  36 C :   -0.186432
  37 C :   -0.006671
  38 C :   -0.057922
  39 C :   -0.137026
  40 S :    0.399343
  41 C :   -0.213088
  42 C :   -0.007500
  43 C :   -0.058229
  44 C :   -0.101048
  45 S :    0.410844
  46 C :   -0.086373
  47 C :    0.045330
  48 C :   -0.123338
  49 C :    0.073574
  50 C :   -0.171159
  51 C :   -0.019645
  52 N :   -0.083603
  53 C :   -0.020052
  54 N :   -0.084335
  55 C :   -0.016729
  56 C :   -0.047112
  57 C :    0.079430
  58 O :   -0.165286
  59 C :    0.013889
  60 C :   -0.038375
  61 C :   -0.147659
  62 C :   -0.016626
  63 S :    0.422449
  64 C :   -0.277696
  65 C :   -0.071005
  66 Br:    0.124157
  67 H :    0.031605
  68 H :    0.036816
  69 H :    0.026230
  70 H :    0.082005
  71 H :    0.044237
  72 H :    0.031135
  73 H :    0.025258
  74 H :    0.027631
  75 H :    0.031297
  76 H :    0.037195
  77 H :    0.038451
  78 H :    0.031874
  79 H :    0.030405
  80 H :    0.086979
  81 H :    0.031303
  82 H :    0.022900
  83 H :    0.035630
  84 H :    0.035482
  85 H :    0.032443
  86 H :    0.032907
  87 H :    0.035431
  88 H :    0.036292
  89 H :    0.028818
  90 H :    0.037168
  91 H :    0.038927
  92 H :    0.036332

  Mayer bond orders larger than 0.100000
B(  0-C ,  1-C ) :   1.5434 B(  0-C ,  4-S ) :   1.1943 B(  0-C , 67-H ) :   0.9572
B(  1-C ,  2-C ) :   1.2419 B(  1-C ,  8-C ) :   1.0175 B(  2-C ,  3-C ) :   1.5400
B(  2-C ,  5-C ) :   1.0035 B(  3-C ,  4-S ) :   1.1877 B(  3-C , 68-H ) :   0.9731
B(  5-C ,  6-O ) :   2.0169 B(  5-C ,  7-C ) :   1.0074 B(  6-O , 70-H ) :   0.1453
B(  7-C ,  8-C ) :   1.1331 B(  7-C , 16-C ) :   1.4434 B(  8-C ,  9-C ) :   1.5604
B(  9-C , 10-N ) :   0.8809 B(  9-C , 13-N ) :   0.9526 B( 10-N , 11-O ) :   1.5172
B( 10-N , 12-O ) :   1.5438 B( 11-O , 12-O ) :   0.2874 B( 13-N , 14-O ) :   1.4633
B( 13-N , 15-O ) :   1.5388 B( 14-O , 15-O ) :   0.2561 B( 16-C , 17-N ) :   1.3551
B( 16-C , 69-H ) :   0.9237 B( 17-N , 18-C ) :   1.1948 B( 17-N , 70-H ) :   0.8180
B( 18-C , 19-S ) :   1.1374 B( 18-C , 25-C ) :   1.3800 B( 19-S , 20-C ) :   1.0862
B( 20-C , 21-N ) :   0.9597 B( 20-C , 24-C ) :   1.5128 B( 21-N , 22-O ) :   1.5347
B( 21-N , 23-O ) :   1.5205 B( 22-O , 23-O ) :   0.2644 B( 24-C , 25-C ) :   1.2152
B( 24-C , 71-H ) :   0.9976 B( 25-C , 26-C ) :   1.0439 B( 26-C , 27-C ) :   1.7450
B( 26-C , 72-H ) :   0.9811 B( 27-C , 28-C ) :   1.0947 B( 27-C , 73-H ) :   0.9731
B( 28-C , 29-C ) :   1.7596 B( 28-C , 74-H ) :   0.9780 B( 29-C , 30-C ) :   1.0781
B( 29-C , 31-C ) :   1.0286 B( 30-C , 75-H ) :   0.9530 B( 30-C , 76-H ) :   0.9442
B( 30-C , 77-H ) :   0.9450 B( 31-C , 32-N ) :   1.0062 B( 31-C , 78-H ) :   0.9434
B( 31-C , 79-H ) :   0.9343 B( 32-N , 33-C ) :   1.2820 B( 32-N , 80-H ) :   0.9328
B( 33-C , 34-C ) :   1.5233 B( 33-C , 81-H ) :   0.9687 B( 34-C , 35-C ) :   1.2230
B( 34-C , 82-H ) :   0.9618 B( 35-C , 36-C ) :   1.5285 B( 35-C , 83-H ) :   0.9811
B( 36-C , 37-C ) :   1.1800 B( 36-C , 40-S ) :   1.0169 B( 37-C , 38-C ) :   1.5444
B( 37-C , 84-H ) :   0.9983 B( 38-C , 39-C ) :   1.2262 B( 38-C , 85-H ) :   0.9952
B( 39-C , 40-S ) :   1.1066 B( 39-C , 41-C ) :   1.4116 B( 41-C , 42-C ) :   1.2583
B( 41-C , 45-S ) :   1.0431 B( 42-C , 43-C ) :   1.4949 B( 42-C , 86-H ) :   0.9949
B( 43-C , 44-C ) :   1.2187 B( 43-C , 87-H ) :   1.0014 B( 44-C , 45-S ) :   1.1034
B( 44-C , 46-C ) :   1.3547 B( 46-C , 47-C ) :   1.3217 B( 46-C , 88-H ) :   0.9810
B( 47-C , 48-C ) :   1.4180 B( 47-C , 89-H ) :   0.9415 B( 48-C , 49-C ) :   1.1471
B( 48-C , 57-C ) :   0.9784 B( 49-C , 50-C ) :   1.5502 B( 49-C , 55-C ) :   0.9825
B( 50-C , 51-C ) :   1.1547 B( 50-C , 53-C ) :   1.1597 B( 51-C , 52-N ) :   2.9591
B( 53-C , 54-N ) :   2.9541 B( 55-C , 56-C ) :   1.2798 B( 55-C , 62-C ) :   1.4238
B( 56-C , 57-C ) :   0.9301 B( 56-C , 59-C ) :   1.4379 B( 57-C , 58-O ) :   2.1839
B( 59-C , 60-C ) :   1.2320 B( 59-C , 90-H ) :   1.0163 B( 60-C , 61-C ) :   1.3222
B( 60-C , 65-C ) :   1.1599 B( 61-C , 62-C ) :   1.3165 B( 61-C , 63-S ) :   1.0807
B( 62-C , 91-H ) :   0.9793 B( 63-S , 64-C ) :   1.0850 B( 64-C , 65-C ) :   1.6211
B( 64-C , 66-Br) :   1.0085 B( 65-C , 92-H ) :   1.0001

-----------------------------------------------------------------------------
         ABSORPTION SPECTRUM VIA TRANSITION ELECTRIC DIPOLE MOMENTS
-----------------------------------------------------------------------------
State   Energy  Wavelength   fosc         T2         TX        TY        TZ
        (cm-1)    (nm)                  (au**2)     (au)      (au)      (au)
-----------------------------------------------------------------------------
   0   11497.0    869.8   1.041378032  29.81943  -4.17973   2.73744  -2.20357
   1   15604.6    640.8   0.030914427   0.65220   0.41280   0.18982   0.66766
   2   21084.6    474.3   0.245849652   3.83866  -0.01891  -1.55204  -1.19560
   3   21332.7    468.8   0.770392935  11.88892   2.54284   1.33044   1.91123
   4   21498.4    465.2   0.017711866   0.27123  -0.05844  -0.41673  -0.30684
   5   23171.7    431.6   0.205695863   2.92243   0.65144  -1.38015  -0.77021
   6   24521.9    407.8   0.371815636   4.99171   0.26855  -1.26660  -1.82080
   7   25742.3    388.5   0.197003772   2.51943   0.54356  -1.39085  -0.53807
   8   26263.4    380.8   0.221022505   2.77052  -1.37585  -0.93464   0.06310
   9   26738.6    374.0   0.432965357   5.33077   0.68234   0.35785   2.17649
  10   27425.0    364.6   0.026712941   0.32066  -0.39037  -0.40495  -0.06555
  11   27973.2    357.5   0.000069811   0.00082  -0.00057  -0.00132   0.02863
  12   28588.8    349.8   0.039101104   0.45027  -0.10864  -0.64525   0.14873
  13   28913.8    345.9   0.059279512   0.67496  -0.17616  -0.16720   0.78484
  14   29068.3    344.0   0.006937527   0.07857   0.03985  -0.26362  -0.08653
  15   29486.6    339.1   0.000894099   0.00998   0.02918  -0.06804   0.06709
  16   29698.3    336.7   0.012456756   0.13809  -0.22160  -0.14046  -0.26315
  17   30109.9    332.1   0.122153163   1.33558  -0.81156  -0.62369   0.53663
  18   30900.6    323.6   0.126443988   1.34712  -0.96622  -0.56491  -0.30729
  19   30962.0    323.0   0.022231746   0.23639   0.00707  -0.24551  -0.41960
  20   31690.0    315.6   0.228303384   2.37173  -0.17284  -0.65198   1.38448
  21   31899.9    313.5   0.074691486   0.77083  -0.53791  -0.68283   0.12338
  22   32074.5    311.8   0.000600621   0.00616   0.06393  -0.00938   0.04460
  23   32117.4    311.4   0.153923295   1.57775  -0.89938   0.23443  -0.84493
  24   32771.0    305.1   0.316571108   3.18022   1.24269  -0.94320   0.86389
  25   32895.0    304.0   0.056467135   0.56512  -0.54605  -0.51059   0.07903
  26   33280.5    300.5   0.085940713   0.85013  -0.55900  -0.44419   0.58339
  27   33331.1    300.0   0.006486054   0.06406  -0.14743   0.16001  -0.12932
  28   33635.4    297.3   0.225118406   2.20339   1.05899  -0.96869   0.37890
  29   33970.1    294.4   0.014498571   0.14051   0.13291   0.21293  -0.27840
  30   34353.7    291.1   0.001394189   0.01336  -0.08788   0.07128  -0.02359
  31   34519.1    289.7   0.013864919   0.13223   0.23984   0.20147  -0.18472
  32   34744.1    287.8   0.004041054   0.03829   0.05991  -0.03222  -0.18347
  33   34842.8    287.0   0.139030188   1.31362   0.56407   0.36270  -0.92946
  34   35056.6    285.3   0.136021351   1.27736  -0.56711   0.97754   0.01251
  35   35619.8    280.7   0.117199904   1.08321   0.47206   0.60168  -0.70594
  36   36113.1    276.9   0.005895054   0.05374  -0.05377  -0.10260   0.20080
  37   36560.1    273.5   0.063571207   0.57244  -0.00288  -0.32515  -0.68316
  38   36571.9    273.4   0.094851903   0.85383   0.18376   0.78764   0.44687
  39   36721.3    272.3   0.007466840   0.06694   0.19797  -0.16299   0.03437
  40   36787.8    271.8   0.024337382   0.21779   0.18798   0.23381  -0.35748
  41   37240.3    268.5   0.031007634   0.27411  -0.20158   0.48012   0.05450
  42   37383.0    267.5   0.018616142   0.16394   0.38617   0.10720  -0.05762
  43   37527.4    266.5   0.036662628   0.32163  -0.32670  -0.13730   0.44277
  44   37532.7    266.4   0.000378918   0.00332   0.02300   0.02815  -0.04475
  45   37753.9    264.9   0.276623364   2.41214   0.11714  -0.49169   1.46856
  46   37955.1    263.5   0.297611621   2.58140  -0.06159  -0.01124  -1.60545
  47   38152.7    262.1   0.059861064   0.51653  -0.50040   0.50717   0.09439
  48   38592.2    259.1   0.042332300   0.36112   0.10179  -0.57769   0.13050
  49   38805.0    257.7   0.129209290   1.09618   0.29519  -0.99151   0.16110
  50   39901.0    250.6   0.025159650   0.20759   0.13106   0.21806   0.37797
  51   40008.5    249.9   0.027331334   0.22490  -0.24082  -0.10764  -0.39410
  52   40306.0    248.1   0.046871743   0.38284   0.10772   0.31463   0.52177

FINAL SINGLE POINT ENERGY     -7314.092435004058

DIPOLE MOMENT
-------------
                                X             Y             Z
Electronic contribution:    145.74131     -77.88748      90.87044
Nuclear contribution   :   -149.26593      80.97793     -96.66934
                        -----------------------------------------
Total Dipole Moment    :     -3.52462       3.09045      -5.79890
                        -----------------------------------------
Magnitude (a.u.)       :      7.45661
Magnitude (Debye)      :     18.95320

Rotational constants in cm-1:     0.000584     0.000380     0.000263
Rotational constants in MHz :    17.498177    11.390373     7.891074

                             ****ORCA TERMINATED NORMALLY****
TOTAL RUN TIME: 0 days 0 hours 9 minutes 32 seconds 318 msec
