                         Program Version 4.2.0 -  RELEASE  -
|  1> # ORCA input file
|  2> # SCF done       -215.439835431456          0.000313301987
|  3> ! CAM-B3LYP def2-SVP def2/J RIJCOSX Grid4 TightSCF
|  4> %maxcore 5000
|  5> %tddft
|  6>     Mode sTDDFT
|  7>     Ethresh 5.0
|  8>     maxcore 5000
|  9> end
| 10>
| 11> %pal
| 12>   nprocs 6
| 13>   end
| 14> * xyz 0 1
| 15>    C       -3.36523        -1.39480        -1.18221
| 16>    C       -3.59412        -2.68277        -0.77891
| 17>    C       -2.70221        -3.75057        -1.01793
| 18>    N       -2.01423        -4.65476        -1.17951
| 19>    C       -4.76693        -3.14846        -0.14339
| 20>    N       -5.70036        -3.62020         0.32860
| 21>    C       -2.23575        -0.94907        -1.98707
| 22>    C       -2.47033         0.38725        -2.39290
| 23>    C       -1.59556         1.08281        -3.19265
| 24>    C       -0.43610         0.42647        -3.61506
| 25>    C       -0.20013        -0.90401        -3.19168
| 26>    C       -1.08349        -1.60576        -2.38084
| 27>    S        1.29902        -1.51504        -3.82140
| 28>    C        1.57596        -0.00029        -4.64326
| 29>    C        0.60043         0.91952        -4.45296
| 30>   Br        3.12695         0.21955        -5.67324
| 31>    C       -3.75486         0.86081        -1.84050
| 32>    O       -4.27062         1.93040        -2.07326
| 33>    C       -4.24449        -0.25136        -0.97544
| 34>    C       -5.24101        -0.20975        -0.04523
| 35>    C       -6.12887         0.84715         0.25858
| 36>    O       -6.20395         1.99770        -0.45295
| 37>    C       -7.05878         0.92242         1.28774
| 38>    C       -7.60047         0.21283         2.46005
| 39>    O       -7.31679        -0.85133         2.93721
| 40>    N       -8.56060         1.09193         2.95203
| 41>    C       -8.69104         2.29325         2.25243
| 42>    O       -9.45561         3.17740         2.53042
| 43>    C       -7.70292         2.16962         1.17491
| 44>    C       -7.13921         2.81498         0.07887
| 45>    C       -7.36308         4.09391        -0.48103
| 46>    C       -6.63603         4.53127        -1.54531
| 47>    C       -6.73205         5.79443        -2.15063
| 48>    S       -7.79322         7.07583        -1.66529
| 49>    C       -7.19667         8.17961        -2.86352
| 50>    C       -6.18879         7.56295        -3.62922
| 51>    C       -5.93845         6.22026        -3.23117
| 52>    N       -5.02217         5.46131        -3.84956
| 53>    C       -4.34407         6.00999        -4.82647
| 54>    C       -3.31140         5.17738        -5.50967
| 55>    C       -3.53805         3.68285        -5.29569
| 56>    O       -2.40601         2.99011        -5.79329
| 57>    C       -4.57689         7.37053        -5.21407
| 58>    C       -3.79974         8.01490        -6.32848
| 59>    N       -4.04805         7.31186        -7.58252
| 60>    N       -5.48321         8.11708        -4.63407
| 61>    C       -7.72194         9.48327        -2.95322
| 62>    C       -7.30507        10.39823        -3.87158
| 63>    C       -7.85052        11.69950        -3.94116
| 64>    O       -7.40317        12.56642        -4.88844
| 65>    C       -8.82675        12.34373        -3.19108
| 66>    C       -9.77411        12.19855        -2.08353
| 67>    O       -9.99791        11.26977        -1.35015
| 68>    N      -10.41527        13.43543        -2.03036
| 69>    C       -9.99364        14.36566        -2.97587
| 70>    O      -10.41793        15.48454        -3.09776
| 71>    C       -8.95621        13.64486        -3.72290
| 72>    C       -8.06610        13.74775        -4.77520
| 73>    C       -7.85758        14.82550        -5.66923
| 74>    C       -7.00119        14.79564        -6.71942
| 75>    C       -6.79932        15.86686        -7.62967
| 76>    C       -7.61897        16.89947        -7.96372
| 77>    C       -9.02307        17.18877        -7.73949
| 78>    C      -10.04648        16.28684        -7.61431
| 79>    C      -11.40855        16.65162        -7.55020
| 80>    N      -12.52867        16.89492        -7.50270
| 81>    C       -9.88289        14.88770        -7.62907
| 82>    N       -9.81558        13.74235        -7.66303
| 83>    C       -9.20286        18.62336        -7.94206
| 84>    C       -8.02271        19.15743        -8.51911
| 85>    C       -7.01746        18.08707        -8.64224
| 86>    O       -5.91794        18.14803        -9.14047
| 87>    C       -7.90459        20.48222        -8.86482
| 88>    C       -8.99608        21.32067        -8.61663
| 89>    C      -10.16195        20.78183        -8.01917
| 90>    C      -10.28519        19.44067        -7.67750
| 91>    S      -11.38062        21.99656        -7.78678
| 92>    C      -10.32689        23.19462        -8.49070
| 93>    C       -9.12192        22.71230        -8.87807
| 94>   Br      -10.91557        24.96761        -8.64620
| 95>    H       -1.79145         2.10054        -3.48942
| 96>    H       -0.85944        -2.61582        -2.08176
| 97>    H        0.59853         1.90160        -4.88945
| 98>    H       -5.39036        -1.07010         0.59532
| 99>    H       -9.11811         0.87995         3.76746
|100>    H       -8.11972         4.70465        -0.01081
|101>    H       -5.88955         3.87575        -1.97886
|102>    H       -2.32647         5.43574        -5.10847
|103>    H       -3.30246         5.40967        -6.57580
|104>    H       -4.44646         3.37551        -5.82781
|105>    H       -3.68241         3.47613        -4.22756
|106>    H       -2.62400         2.05617        -5.86590
|107>    H       -2.72969         7.93765        -6.11012
|108>    H       -4.07562         9.08026        -6.35489
|109>    H       -5.02645         7.39338        -7.83925
|110>    H       -3.49790         7.72413        -8.32766
|111>    H       -8.49734         9.74771        -2.24559
|112>    H       -6.53477        10.14004        -4.58241
|113>    H      -11.14148        13.63731        -1.35766
|114>    H       -8.43786        15.70879        -5.44235
|115>    H       -6.37550        13.92292        -6.84809
|116>    H       -5.82153        15.91034        -8.10190
|117>    H       -6.99848        20.86051        -9.31127
|118>    H      -11.18770        19.07642        -7.21538
|119>    H       -8.35263        23.31162        -9.32964
|120> *
|121>
|122>                          ****END OF INPUT****

CARTESIAN COORDINATES (ANGSTROEM)
---------------------------------
  C     -3.365230   -1.394800   -1.182210
  C     -3.594120   -2.682770   -0.778910
  C     -2.702210   -3.750570   -1.017930
  N     -2.014230   -4.654760   -1.179510
  C     -4.766930   -3.148460   -0.143390
  N     -5.700360   -3.620200    0.328600
  C     -2.235750   -0.949070   -1.987070
  C     -2.470330    0.387250   -2.392900
  C     -1.595560    1.082810   -3.192650
  C     -0.436100    0.426470   -3.615060
  C     -0.200130   -0.904010   -3.191680
  C     -1.083490   -1.605760   -2.380840
  S      1.299020   -1.515040   -3.821400
  C      1.575960   -0.000290   -4.643260
  C      0.600430    0.919520   -4.452960
  Br     3.126950    0.219550   -5.673240
  C     -3.754860    0.860810   -1.840500
  O     -4.270620    1.930400   -2.073260
  C     -4.244490   -0.251360   -0.975440
  C     -5.241010   -0.209750   -0.045230
  C     -6.128870    0.847150    0.258580
  O     -6.203950    1.997700   -0.452950
  C     -7.058780    0.922420    1.287740
  C     -7.600470    0.212830    2.460050
  O     -7.316790   -0.851330    2.937210
  N     -8.560600    1.091930    2.952030
  C     -8.691040    2.293250    2.252430
  O     -9.455610    3.177400    2.530420
  C     -7.702920    2.169620    1.174910
  C     -7.139210    2.814980    0.078870
  C     -7.363080    4.093910   -0.481030
  C     -6.636030    4.531270   -1.545310
  C     -6.732050    5.794430   -2.150630
  S     -7.793220    7.075830   -1.665290
  C     -7.196670    8.179610   -2.863520
  C     -6.188790    7.562950   -3.629220
  C     -5.938450    6.220260   -3.231170
  N     -5.022170    5.461310   -3.849560
  C     -4.344070    6.009990   -4.826470
  C     -3.311400    5.177380   -5.509670
  C     -3.538050    3.682850   -5.295690
  O     -2.406010    2.990110   -5.793290
  C     -4.576890    7.370530   -5.214070
  C     -3.799740    8.014900   -6.328480
  N     -4.048050    7.311860   -7.582520
  N     -5.483210    8.117080   -4.634070
  C     -7.721940    9.483270   -2.953220
  C     -7.305070   10.398230   -3.871580
  C     -7.850520   11.699500   -3.941160
  O     -7.403170   12.566420   -4.888440
  C     -8.826750   12.343730   -3.191080
  C     -9.774110   12.198550   -2.083530
  O     -9.997910   11.269770   -1.350150
  N    -10.415270   13.435430   -2.030360
  C     -9.993640   14.365660   -2.975870
  O    -10.417930   15.484540   -3.097760
  C     -8.956210   13.644860   -3.722900
  C     -8.066100   13.747750   -4.775200
  C     -7.857580   14.825500   -5.669230
  C     -7.001190   14.795640   -6.719420
  C     -6.799320   15.866860   -7.629670
  C     -7.618970   16.899470   -7.963720
  C     -9.023070   17.188770   -7.739490
  C    -10.046480   16.286840   -7.614310
  C    -11.408550   16.651620   -7.550200
  N    -12.528670   16.894920   -7.502700
  C     -9.882890   14.887700   -7.629070
  N     -9.815580   13.742350   -7.663030
  C     -9.202860   18.623360   -7.942060
  C     -8.022710   19.157430   -8.519110
  C     -7.017460   18.087070   -8.642240
  O     -5.917940   18.148030   -9.140470
  C     -7.904590   20.482220   -8.864820
  C     -8.996080   21.320670   -8.616630
  C    -10.161950   20.781830   -8.019170
  C    -10.285190   19.440670   -7.677500
  S    -11.380620   21.996560   -7.786780
  C    -10.326890   23.194620   -8.490700
  C     -9.121920   22.712300   -8.878070
  Br   -10.915570   24.967610   -8.646200
  H     -1.791450    2.100540   -3.489420
  H     -0.859440   -2.615820   -2.081760
  H      0.598530    1.901600   -4.889450
  H     -5.390360   -1.070100    0.595320
  H     -9.118110    0.879950    3.767460
  H     -8.119720    4.704650   -0.010810
  H     -5.889550    3.875750   -1.978860
  H     -2.326470    5.435740   -5.108470
  H     -3.302460    5.409670   -6.575800
  H     -4.446460    3.375510   -5.827810
  H     -3.682410    3.476130   -4.227560
  H     -2.624000    2.056170   -5.865900
  H     -2.729690    7.937650   -6.110120
  H     -4.075620    9.080260   -6.354890
  H     -5.026450    7.393380   -7.839250
  H     -3.497900    7.724130   -8.327660
  H     -8.497340    9.747710   -2.245590
  H     -6.534770   10.140040   -4.582410
  H    -11.141480   13.637310   -1.357660
  H     -8.437860   15.708790   -5.442350
  H     -6.375500   13.922920   -6.848090
  H     -5.821530   15.910340   -8.101900
  H     -6.998480   20.860510   -9.311270
  H    -11.187700   19.076420   -7.215380
  H     -8.352630   23.311620   -9.329640

 Total Charge           Charge          ....    0
 Multiplicity           Mult            ....    1
 Number of Electrons    NEL             ....  620
 Basis Dimension        Dim             .... 1293

ORBITAL ENERGIES
----------------

  NO   OCC          E(Eh)            E(eV)
   0   2.0000    -482.888068    -13140.0523
   1   2.0000    -482.886542    -13140.0108
   2   2.0000     -88.989065     -2421.5156
   3   2.0000     -88.978859     -2421.2379
   4   2.0000     -88.977112     -2421.1903
   5   2.0000     -62.565821     -1702.5026
   6   2.0000     -62.564270     -1702.4603
   7   2.0000     -56.399774     -1534.7159
   8   2.0000     -56.398219     -1534.6736
   9   2.0000     -56.397050     -1534.6418
  10   2.0000     -56.397018     -1534.6409
  11   2.0000     -56.395504     -1534.5997
  12   2.0000     -56.395473     -1534.5988
  13   2.0000     -19.318792      -525.6910
  14   2.0000     -19.311836      -525.5018
  15   2.0000     -19.221287      -523.0378
  16   2.0000     -19.220731      -523.0227
  17   2.0000     -19.219911      -523.0004
  18   2.0000     -19.218516      -522.9624
  19   2.0000     -19.217225      -522.9273
  20   2.0000     -19.214233      -522.8459
  21   2.0000     -19.211957      -522.7839
  22   2.0000     -14.461564      -393.5192
  23   2.0000     -14.457745      -393.4152
  24   2.0000     -14.438916      -392.9029
  25   2.0000     -14.431316      -392.6961
  26   2.0000     -14.421040      -392.4164
  27   2.0000     -14.418594      -392.3499
  28   2.0000     -14.417522      -392.3207
  29   2.0000     -14.415625      -392.2691
  30   2.0000     -14.407533      -392.0489
  31   2.0000     -10.408470      -283.2289
  32   2.0000     -10.407384      -283.1993
  33   2.0000     -10.406002      -283.1617
  34   2.0000     -10.403879      -283.1039
  35   2.0000     -10.374141      -282.2947
  36   2.0000     -10.373678      -282.2821
  37   2.0000     -10.372110      -282.2395
  38   2.0000     -10.370629      -282.1991
  39   2.0000     -10.367825      -282.1229
  40   2.0000     -10.366873      -282.0969
  41   2.0000     -10.361833      -281.9598
  42   2.0000     -10.360066      -281.9117
  43   2.0000     -10.348620      -281.6003
  44   2.0000     -10.347726      -281.5759
  45   2.0000     -10.346313      -281.5375
  46   2.0000     -10.344383      -281.4850
  47   2.0000     -10.336077      -281.2589
  48   2.0000     -10.335854      -281.2529
  49   2.0000     -10.329678      -281.0848
  50   2.0000     -10.328804      -281.0611
  51   2.0000     -10.327941      -281.0376
  52   2.0000     -10.327715      -281.0314
  53   2.0000     -10.326980      -281.0114
  54   2.0000     -10.326413      -280.9960
  55   2.0000     -10.322271      -280.8833
  56   2.0000     -10.321572      -280.8642
  57   2.0000     -10.321032      -280.8496
  58   2.0000     -10.320008      -280.8217
  59   2.0000     -10.319209      -280.8000
  60   2.0000     -10.317221      -280.7459
  61   2.0000     -10.315162      -280.6898
  62   2.0000     -10.313207      -280.6366
  63   2.0000     -10.311503      -280.5903
  64   2.0000     -10.311290      -280.5845
  65   2.0000     -10.311264      -280.5838
  66   2.0000     -10.310044      -280.5506
  67   2.0000     -10.309635      -280.5394
  68   2.0000     -10.309096      -280.5248
  69   2.0000     -10.308038      -280.4960
  70   2.0000     -10.307469      -280.4805
  71   2.0000     -10.305799      -280.4350
  72   2.0000     -10.305577      -280.4290
  73   2.0000     -10.305462      -280.4259
  74   2.0000     -10.304617      -280.4029
  75   2.0000     -10.304309      -280.3945
  76   2.0000     -10.301716      -280.3239
  77   2.0000     -10.301276      -280.3120
  78   2.0000     -10.300884      -280.3013
  79   2.0000     -10.299658      -280.2679
  80   2.0000     -10.297239      -280.2021
  81   2.0000     -10.297228      -280.2018
  82   2.0000     -10.296692      -280.1872
  83   2.0000     -10.296637      -280.1857
  84   2.0000     -10.296349      -280.1779
  85   2.0000     -10.295204      -280.1467
  86   2.0000     -10.294976      -280.1405
  87   2.0000     -10.265472      -279.3377
  88   2.0000      -8.795279      -239.3317
  89   2.0000      -8.793710      -239.2890
  90   2.0000      -8.083865      -219.9731
  91   2.0000      -8.074826      -219.7272
  92   2.0000      -8.073090      -219.6799
  93   2.0000      -6.631608      -180.4552
  94   2.0000      -6.630018      -180.4120
  95   2.0000      -6.616998      -180.0577
  96   2.0000      -6.616801      -180.0523
  97   2.0000      -6.615438      -180.0152
  98   2.0000      -6.615241      -180.0099
  99   2.0000      -6.052649      -164.7009
 100   2.0000      -6.048736      -164.5945
 101   2.0000      -6.046851      -164.5432
 102   2.0000      -6.044527      -164.4799
 103   2.0000      -6.042791      -164.4327
 104   2.0000      -6.040230      -164.3630
 105   2.0000      -6.038506      -164.3161
 106   2.0000      -6.036053      -164.2493
 107   2.0000      -6.034303      -164.2017
 108   2.0000      -2.747454       -74.7620
 109   2.0000      -2.745874       -74.7190
 110   2.0000      -2.743397       -74.6516
 111   2.0000      -2.743223       -74.6469
 112   2.0000      -2.741839       -74.6092
 113   2.0000      -2.741621       -74.6033
 114   2.0000      -2.731622       -74.3312
 115   2.0000      -2.731604       -74.3307
 116   2.0000      -2.730060       -74.2887
 117   2.0000      -2.730052       -74.2885
 118   2.0000      -1.235804       -33.6279
 119   2.0000      -1.234624       -33.5958
 120   2.0000      -1.163483       -31.6600
 121   2.0000      -1.160598       -31.5815
 122   2.0000      -1.143282       -31.1103
 123   2.0000      -1.140314       -31.0295
 124   2.0000      -1.137232       -30.9457
 125   2.0000      -1.135528       -30.8993
 126   2.0000      -1.097136       -29.8546
 127   2.0000      -1.094058       -29.7708
 128   2.0000      -1.050635       -28.5892
 129   2.0000      -1.047552       -28.5053
 130   2.0000      -1.027252       -27.9530
 131   2.0000      -1.025262       -27.8988
 132   2.0000      -1.020610       -27.7722
 133   2.0000      -1.017358       -27.6837
 134   2.0000      -1.014857       -27.6157
 135   2.0000      -1.002713       -27.2852
 136   2.0000      -0.998412       -27.1682
 137   2.0000      -0.995139       -27.0791
 138   2.0000      -0.993908       -27.0456
 139   2.0000      -0.992400       -27.0046
 140   2.0000      -0.981920       -26.7194
 141   2.0000      -0.951631       -25.8952
 142   2.0000      -0.949409       -25.8347
 143   2.0000      -0.941690       -25.6247
 144   2.0000      -0.936192       -25.4751
 145   2.0000      -0.932935       -25.3865
 146   2.0000      -0.930641       -25.3240
 147   2.0000      -0.919754       -25.0278
 148   2.0000      -0.912588       -24.8328
 149   2.0000      -0.910436       -24.7742
 150   2.0000      -0.905987       -24.6531
 151   2.0000      -0.895316       -24.3628
 152   2.0000      -0.889882       -24.2149
 153   2.0000      -0.888185       -24.1688
 154   2.0000      -0.887488       -24.1498
 155   2.0000      -0.879118       -23.9220
 156   2.0000      -0.866993       -23.5921
 157   2.0000      -0.851035       -23.1578
 158   2.0000      -0.835129       -22.7250
 159   2.0000      -0.833690       -22.6859
 160   2.0000      -0.831078       -22.6148
 161   2.0000      -0.827808       -22.5258
 162   2.0000      -0.810564       -22.0566
 163   2.0000      -0.793214       -21.5844
 164   2.0000      -0.790476       -21.5100
 165   2.0000      -0.780132       -21.2285
 166   2.0000      -0.776508       -21.1298
 167   2.0000      -0.771666       -20.9981
 168   2.0000      -0.769465       -20.9382
 169   2.0000      -0.764008       -20.7897
 170   2.0000      -0.762371       -20.7452
 171   2.0000      -0.760226       -20.6868
 172   2.0000      -0.749424       -20.3929
 173   2.0000      -0.740214       -20.1423
 174   2.0000      -0.727204       -19.7882
 175   2.0000      -0.716728       -19.5032
 176   2.0000      -0.711130       -19.3508
 177   2.0000      -0.707255       -19.2454
 178   2.0000      -0.704521       -19.1710
 179   2.0000      -0.699671       -19.0390
 180   2.0000      -0.691577       -18.8188
 181   2.0000      -0.691207       -18.8087
 182   2.0000      -0.686370       -18.6771
 183   2.0000      -0.680610       -18.5204
 184   2.0000      -0.669046       -18.2057
 185   2.0000      -0.662698       -18.0329
 186   2.0000      -0.658884       -17.9291
 187   2.0000      -0.657385       -17.8884
 188   2.0000      -0.649742       -17.6804
 189   2.0000      -0.637075       -17.3357
 190   2.0000      -0.633187       -17.2299
 191   2.0000      -0.628962       -17.1149
 192   2.0000      -0.626008       -17.0345
 193   2.0000      -0.623605       -16.9692
 194   2.0000      -0.611440       -16.6381
 195   2.0000      -0.608482       -16.5576
 196   2.0000      -0.604657       -16.4535
 197   2.0000      -0.603026       -16.4092
 198   2.0000      -0.602514       -16.3952
 199   2.0000      -0.600215       -16.3327
 200   2.0000      -0.598211       -16.2781
 201   2.0000      -0.592999       -16.1363
 202   2.0000      -0.591946       -16.1077
 203   2.0000      -0.591781       -16.1032
 204   2.0000      -0.588538       -16.0149
 205   2.0000      -0.585673       -15.9370
 206   2.0000      -0.582062       -15.8387
 207   2.0000      -0.579766       -15.7762
 208   2.0000      -0.567951       -15.4547
 209   2.0000      -0.565832       -15.3971
 210   2.0000      -0.564474       -15.3601
 211   2.0000      -0.562835       -15.3155
 212   2.0000      -0.556567       -15.1450
 213   2.0000      -0.553808       -15.0699
 214   2.0000      -0.551569       -15.0090
 215   2.0000      -0.550829       -14.9888
 216   2.0000      -0.550146       -14.9702
 217   2.0000      -0.545033       -14.8311
 218   2.0000      -0.543961       -14.8019
 219   2.0000      -0.542145       -14.7525
 220   2.0000      -0.539839       -14.6898
 221   2.0000      -0.539088       -14.6693
 222   2.0000      -0.536430       -14.5970
 223   2.0000      -0.534414       -14.5421
 224   2.0000      -0.533933       -14.5291
 225   2.0000      -0.529263       -14.4020
 226   2.0000      -0.526022       -14.3138
 227   2.0000      -0.524776       -14.2799
 228   2.0000      -0.521710       -14.1965
 229   2.0000      -0.519474       -14.1356
 230   2.0000      -0.518805       -14.1174
 231   2.0000      -0.515517       -14.0279
 232   2.0000      -0.511685       -13.9236
 233   2.0000      -0.510216       -13.8837
 234   2.0000      -0.509361       -13.8604
 235   2.0000      -0.508920       -13.8484
 236   2.0000      -0.506286       -13.7767
 237   2.0000      -0.503641       -13.7048
 238   2.0000      -0.500952       -13.6316
 239   2.0000      -0.496423       -13.5083
 240   2.0000      -0.495986       -13.4965
 241   2.0000      -0.494897       -13.4668
 242   2.0000      -0.494765       -13.4632
 243   2.0000      -0.490444       -13.3457
 244   2.0000      -0.487001       -13.2520
 245   2.0000      -0.486287       -13.2325
 246   2.0000      -0.482762       -13.1366
 247   2.0000      -0.478083       -13.0093
 248   2.0000      -0.477368       -12.9898
 249   2.0000      -0.474620       -12.9151
 250   2.0000      -0.473557       -12.8861
 251   2.0000      -0.469006       -12.7623
 252   2.0000      -0.467457       -12.7201
 253   2.0000      -0.465935       -12.6787
 254   2.0000      -0.460414       -12.5285
 255   2.0000      -0.459120       -12.4933
 256   2.0000      -0.457483       -12.4487
 257   2.0000      -0.456523       -12.4226
 258   2.0000      -0.453743       -12.3470
 259   2.0000      -0.451352       -12.2819
 260   2.0000      -0.450323       -12.2539
 261   2.0000      -0.449829       -12.2405
 262   2.0000      -0.449020       -12.2185
 263   2.0000      -0.445799       -12.1308
 264   2.0000      -0.444043       -12.0830
 265   2.0000      -0.442741       -12.0476
 266   2.0000      -0.440528       -11.9874
 267   2.0000      -0.439480       -11.9589
 268   2.0000      -0.436312       -11.8726
 269   2.0000      -0.431457       -11.7406
 270   2.0000      -0.430451       -11.7132
 271   2.0000      -0.426310       -11.6005
 272   2.0000      -0.425073       -11.5668
 273   2.0000      -0.424594       -11.5538
 274   2.0000      -0.414212       -11.2713
 275   2.0000      -0.411276       -11.1914
 276   2.0000      -0.409685       -11.1481
 277   2.0000      -0.406642       -11.0653
 278   2.0000      -0.405199       -11.0260
 279   2.0000      -0.397775       -10.8240
 280   2.0000      -0.396329       -10.7847
 281   2.0000      -0.391646       -10.6572
 282   2.0000      -0.390141       -10.6163
 283   2.0000      -0.388749       -10.5784
 284   2.0000      -0.383601       -10.4383
 285   2.0000      -0.377471       -10.2715
 286   2.0000      -0.377098       -10.2613
 287   2.0000      -0.376638       -10.2488
 288   2.0000      -0.375897       -10.2287
 289   2.0000      -0.374521       -10.1912
 290   2.0000      -0.370211       -10.0739
 291   2.0000      -0.365313        -9.9407
 292   2.0000      -0.363655        -9.8955
 293   2.0000      -0.355036        -9.6610
 294   2.0000      -0.354292        -9.6408
 295   2.0000      -0.349992        -9.5238
 296   2.0000      -0.349264        -9.5040
 297   2.0000      -0.344554        -9.3758
 298   2.0000      -0.339059        -9.2263
 299   2.0000      -0.335365        -9.1257
 300   2.0000      -0.334227        -9.0948
 301   2.0000      -0.332306        -9.0425
 302   2.0000      -0.322437        -8.7740
 303   2.0000      -0.318933        -8.6786
 304   2.0000      -0.317645        -8.6436
 305   2.0000      -0.310987        -8.4624
 306   2.0000      -0.297861        -8.1052
 307   2.0000      -0.295376        -8.0376
 308   2.0000      -0.283169        -7.7054
 309   2.0000      -0.245306        -6.6751
 310   0.0000      -0.113321        -3.0836
 311   0.0000      -0.099663        -2.7120
 312   0.0000      -0.088425        -2.4062
 313   0.0000      -0.066315        -1.8045
 314   0.0000      -0.063870        -1.7380

MULLIKEN ATOMIC CHARGES
-----------------------
   0 C :    0.293856
   1 C :   -0.337969
   2 C :   -0.182320
   3 N :    0.149463
   4 C :   -0.206512
   5 N :    0.177994
   6 C :    0.020848
   7 C :   -0.002029
   8 C :   -0.099229
   9 C :    0.106533
  10 C :   -0.090750
  11 C :   -0.020339
  12 S :    0.187303
  13 C :   -0.122373
  14 C :    0.040856
  15 Br:    0.024653
  16 C :    0.140513
  17 O :   -0.119964
  18 C :   -0.060698
  19 C :   -0.049431
  20 C :    0.076266
  21 O :   -0.173589
  22 C :   -0.021312
  23 C :    0.172896
  24 O :   -0.122766
  25 N :   -0.168971
  26 C :    0.168561
  27 O :   -0.135451
  28 C :   -0.044605
  29 C :    0.106814
  30 C :   -0.050989
  31 C :    0.010496
  32 C :   -0.136870
  33 S :    0.212565
  34 C :   -0.159949
  35 C :    0.052360
  36 C :    0.040172
  37 N :    0.011279
  38 C :   -0.128671
  39 C :    0.095978
  40 C :    0.163560
  41 O :   -0.313223
  42 C :   -0.174602
  43 C :    0.230570
  44 N :   -0.230510
  45 N :    0.013092
  46 C :    0.030595
  47 C :   -0.012671
  48 C :    0.159436
  49 O :   -0.200682
  50 C :   -0.088954
  51 C :    0.196434
  52 O :   -0.153293
  53 N :   -0.164708
  54 C :    0.169250
  55 O :   -0.138778
  56 C :   -0.016702
  57 C :    0.075069
  58 C :    0.005739
  59 C :    0.019106
  60 C :    0.046639
  61 C :   -0.116116
  62 C :    0.263916
  63 C :   -0.326195
  64 C :   -0.175959
  65 N :    0.158759
  66 C :   -0.194568
  67 N :    0.165348
  68 C :   -0.005177
  69 C :    0.008598
  70 C :    0.131380
  71 O :   -0.142216
  72 C :   -0.072222
  73 C :    0.111762
  74 C :   -0.089199
  75 C :   -0.015966
  76 S :    0.190008
  77 C :   -0.126544
  78 C :    0.042724
  79 Br:    0.026488
  80 H :   -0.015841
  81 H :   -0.004623
  82 H :    0.005080
  83 H :    0.036426
  84 H :    0.141755
  85 H :    0.014210
  86 H :    0.044603
  87 H :    0.019319
  88 H :    0.030926
  89 H :   -0.005550
  90 H :    0.029425
  91 H :    0.171604
  92 H :    0.012566
  93 H :    0.005526
  94 H :    0.101301
  95 H :    0.105855
  96 H :   -0.004061
  97 H :   -0.000417
  98 H :    0.141524
  99 H :    0.031432
 100 H :    0.014193
 101 H :    0.027894
 102 H :   -0.007990
 103 H :    0.001917
 104 H :   -0.001880
Sum of atomic charges:   -0.0000000

LOEWDIN ATOMIC CHARGES
----------------------
   0 C :    0.071351
   1 C :   -0.132846
   2 C :   -0.017119
   3 N :   -0.049651
   4 C :   -0.030045
   5 N :   -0.034856
   6 C :   -0.021535
   7 C :   -0.054646
   8 C :    0.017027
   9 C :   -0.033265
  10 C :   -0.143718
  11 C :   -0.010411
  12 S :    0.431952
  13 C :   -0.271353
  14 C :   -0.067752
  15 Br:    0.137619
  16 C :    0.080988
  17 O :   -0.130803
  18 C :   -0.078698
  19 C :    0.044999
  20 C :    0.039208
  21 O :    0.044266
  22 C :   -0.056977
  23 C :    0.083848
  24 O :   -0.139582
  25 N :   -0.006358
  26 C :    0.085314
  27 O :   -0.153490
  28 C :   -0.107341
  29 C :    0.092317
  30 C :   -0.060722
  31 C :    0.017342
  32 C :   -0.191155
  33 S :    0.514634
  34 C :   -0.170785
  35 C :   -0.046885
  36 C :   -0.034161
  37 N :   -0.037616
  38 C :    0.024374
  39 C :   -0.054186
  40 C :    0.073707
  41 O :   -0.147831
  42 C :    0.000006
  43 C :    0.020851
  44 N :   -0.102295
  45 N :   -0.038591
  46 C :   -0.006123
  47 C :   -0.035307
  48 C :    0.082405
  49 O :    0.022286
  50 C :   -0.104463
  51 C :    0.090453
  52 O :   -0.159352
  53 N :   -0.002164
  54 C :    0.086159
  55 O :   -0.154570
  56 C :   -0.076265
  57 C :    0.059056
  58 C :    0.012409
  59 C :   -0.023801
  60 C :    0.059977
  61 C :   -0.083077
  62 C :    0.064643
  63 C :   -0.135033
  64 C :   -0.019441
  65 N :   -0.046606
  66 C :   -0.015258
  67 N :   -0.044007
  68 C :   -0.017906
  69 C :   -0.053743
  70 C :    0.083948
  71 O :   -0.140305
  72 C :    0.023648
  73 C :   -0.032741
  74 C :   -0.142234
  75 C :   -0.009705
  76 S :    0.435734
  77 C :   -0.271110
  78 C :   -0.070182
  79 Br:    0.139045
  80 H :    0.039910
  81 H :    0.041209
  82 H :    0.042110
  83 H :    0.060422
  84 H :    0.096631
  85 H :    0.039540
  86 H :    0.051940
  87 H :    0.040281
  88 H :    0.034014
  89 H :    0.007788
  90 H :    0.003155
  91 H :    0.075590
  92 H :    0.031613
  93 H :    0.016142
  94 H :    0.059178
  95 H :    0.061830
  96 H :    0.034977
  97 H :    0.036630
  98 H :    0.096911
  99 H :    0.048249
 100 H :    0.038958
 101 H :    0.047918
 102 H :    0.041856
 103 H :    0.042319
 104 H :    0.039331

  Mayer bond orders larger than 0.100000
B(  0-C ,  1-C ) :   1.6474 B(  0-C ,  6-C ) :   1.0076 B(  0-C , 18-C ) :   1.0504
B(  1-C ,  2-C ) :   1.1403 B(  1-C ,  4-C ) :   1.1355 B(  2-C ,  3-N ) :   2.9730
B(  4-C ,  5-N ) :   2.9998 B(  6-C ,  7-C ) :   1.2718 B(  6-C , 11-C ) :   1.4053
B(  7-C ,  8-C ) :   1.3971 B(  7-C , 16-C ) :   0.9403 B(  8-C ,  9-C ) :   1.2594
B(  8-C , 80-H ) :   1.0184 B(  9-C , 10-C ) :   1.2983 B(  9-C , 14-C ) :   1.1692
B( 10-C , 11-C ) :   1.3328 B( 10-C , 12-S ) :   1.0879 B( 11-C , 81-H ) :   0.9806
B( 12-S , 13-C ) :   1.0837 B( 13-C , 14-C ) :   1.6106 B( 13-C , 15-Br) :   1.0195
B( 14-C , 82-H ) :   1.0002 B( 16-C , 17-O ) :   2.2046 B( 16-C , 18-C ) :   0.9322
B( 18-C , 19-C ) :   1.5606 B( 19-C , 20-C ) :   1.2182 B( 19-C , 83-H ) :   0.9325
B( 20-C , 21-O ) :   1.1497 B( 20-C , 22-C ) :   1.3701 B( 21-O , 29-C ) :   1.1971
B( 22-C , 23-C ) :   0.8630 B( 22-C , 28-C ) :   1.3243 B( 23-C , 24-O ) :   2.2682
B( 23-C , 25-N ) :   1.0883 B( 25-N , 26-C ) :   1.0690 B( 25-N , 84-H ) :   0.9135
B( 26-C , 27-O ) :   2.2785 B( 26-C , 28-C ) :   0.8786 B( 28-C , 29-C ) :   1.3200
B( 29-C , 30-C ) :   1.2161 B( 30-C , 31-C ) :   1.5272 B( 30-C , 85-H ) :   0.9647
B( 31-C , 32-C ) :   1.2015 B( 31-C , 86-H ) :   0.9789 B( 32-C , 33-S ) :   1.1336
B( 32-C , 34-C ) :   0.1286 B( 32-C , 36-C ) :   1.2995 B( 33-S , 34-C ) :   1.1802
B( 34-C , 35-C ) :   1.2867 B( 34-C , 46-C ) :   1.1899 B( 35-C , 36-C ) :   1.2399
B( 35-C , 45-N ) :   1.3782 B( 36-C , 37-N ) :   1.4322 B( 37-N , 38-C ) :   1.6940
B( 38-C , 39-C ) :   1.0208 B( 38-C , 42-C ) :   1.1356 B( 39-C , 40-C ) :   1.0907
B( 39-C , 87-H ) :   0.8944 B( 39-C , 88-H ) :   0.8835 B( 40-C , 41-O ) :   1.0581
B( 40-C , 89-H ) :   0.9551 B( 40-C , 90-H ) :   0.9293 B( 41-O , 91-H ) :   0.9709
B( 42-C , 43-C ) :   1.0770 B( 42-C , 45-N ) :   1.7335 B( 43-C , 44-N ) :   1.0731
B( 43-C , 92-H ) :   0.9055 B( 43-C , 93-H ) :   0.9176 B( 44-N , 94-H ) :   0.9687
B( 44-N , 95-H ) :   0.9677 B( 46-C , 47-C ) :   1.5919 B( 46-C , 96-H ) :   0.9377
B( 47-C , 48-C ) :   1.1649 B( 47-C , 97-H ) :   0.9587 B( 48-C , 49-O ) :   1.1525
B( 48-C , 50-C ) :   1.3815 B( 49-O , 57-C ) :   1.1470 B( 50-C , 51-C ) :   0.8891
B( 50-C , 56-C ) :   1.2994 B( 51-C , 52-O ) :   2.1726 B( 51-C , 53-N ) :   1.0941
B( 53-N , 54-C ) :   1.0821 B( 53-N , 98-H ) :   0.9149 B( 54-C , 55-O ) :   2.2647
B( 54-C , 56-C ) :   0.8734 B( 56-C , 57-C ) :   1.3963 B( 57-C , 58-C ) :   1.2225
B( 58-C , 59-C ) :   1.6113 B( 58-C , 99-H ) :   0.9429 B( 59-C , 60-C ) :   1.1257
B( 59-C ,100-H ) :   0.9670 B( 60-C , 61-C ) :   1.6862 B( 60-C ,101-H ) :   0.9280
B( 61-C , 62-C ) :   1.0261 B( 61-C , 70-C ) :   0.9409 B( 62-C , 63-C ) :   1.6533
B( 62-C , 68-C ) :   1.0117 B( 63-C , 64-C ) :   1.1234 B( 63-C , 66-C ) :   1.1712
B( 64-C , 65-N ) :   2.9941 B( 66-C , 67-N ) :   2.9858 B( 68-C , 69-C ) :   1.2746
B( 68-C , 75-C ) :   1.4164 B( 69-C , 70-C ) :   0.9219 B( 69-C , 72-C ) :   1.4214
B( 70-C , 71-O ) :   2.2626 B( 72-C , 73-C ) :   1.2548 B( 72-C ,102-H ) :   1.0160
B( 73-C , 74-C ) :   1.3041 B( 73-C , 78-C ) :   1.1653 B( 74-C , 75-C ) :   1.3299
B( 74-C , 76-S ) :   1.0867 B( 75-C ,103-H ) :   0.9822 B( 76-S , 77-C ) :   1.0879
B( 77-C , 78-C ) :   1.6174 B( 77-C , 79-Br) :   1.0209 B( 78-C ,104-H ) :   0.9994

-----------------------------------------------------------------------------
         ABSORPTION SPECTRUM VIA TRANSITION ELECTRIC DIPOLE MOMENTS
-----------------------------------------------------------------------------
State   Energy  Wavelength   fosc         T2         TX        TY        TZ
        (cm-1)    (nm)                  (au**2)     (au)      (au)      (au)
-----------------------------------------------------------------------------
   0   14181.7    705.1   1.839020885  42.69092  -1.67961   5.97449  -2.04337
   1   18302.3    546.4   0.159395571   2.86712   0.64690   0.30858  -1.53408
   2   20332.1    491.8   0.055808175   0.90363  -0.72011  -0.40416   0.47088
   3   23387.0    427.6   0.007709745   0.10853  -0.07814   0.04079  -0.31743
   4   25125.2    398.0   0.011230533   0.14715   0.30495   0.09152  -0.21397
   5   25672.3    389.5   0.045293938   0.58083  -0.45596   0.51691   0.32516
   6   25797.2    387.6   0.007490365   0.09559  -0.06922  -0.02720   0.30010
   7   25951.6    385.3   0.026460136   0.33566   0.32217   0.21370  -0.43151
   8   26412.7    378.6   0.226354659   2.82132   1.14083   1.18187  -0.35074
   9   26967.3    370.8   0.022196169   0.27097  -0.36924   0.28039   0.23667
  10   27613.0    362.1   0.499510947   5.95535   0.66528  -2.21890   0.76763
  11   27732.7    360.6   0.043196677   0.51278   0.23027  -0.67690  -0.03960
  12   28756.3    347.8   0.021512184   0.24628  -0.02471   0.45606  -0.19412
  13   28856.2    346.5   0.009891514   0.11285   0.13179   0.21471  -0.22222
  14   28942.1    345.5   0.011476079   0.13054   0.16179  -0.27381   0.17145
  15   29282.2    341.5   0.606346878   6.81700  -1.67619   0.17817   1.99390
  16   29777.6    335.8   0.011307400   0.12501   0.15041  -0.29953  -0.11257
  17   30214.8    331.0   0.003871067   0.04218   0.14326   0.07993   0.12355
  18   31074.0    321.8   0.019488639   0.20647  -0.31715  -0.10911   0.30656
  19   32012.2    312.4   0.480053847   4.93686   1.51882   1.00436  -1.27330
  20   32389.4    308.7   0.040287726   0.40949   0.17679   0.46847  -0.39847
  21   32510.2    307.6   0.434332501   4.39823  -0.56397  -1.94330   0.55115
  22   32719.8    305.6   0.235219680   2.36667   0.76628  -1.06097  -0.80859
  23   32898.7    304.0   0.289707864   2.89906  -1.21536  -0.44283   1.10718
  24   32995.5    303.1   0.005937421   0.05924   0.13234   0.01923  -0.20336
  25   33486.0    298.6   0.236084753   2.32103   0.63431   1.27418  -0.54328
  26   33527.1    298.3   0.055959136   0.54948   0.04905  -0.67300   0.30682
  27   34039.1    293.8   0.026591092   0.25718  -0.09060   0.48103  -0.13257
  28   34373.9    290.9   0.006956767   0.06663  -0.12459   0.00817  -0.22592
  29   34582.3    289.2   0.014108010   0.13430   0.29674   0.12387  -0.17579
  30   34622.4    288.8   0.002043718   0.01943  -0.12577   0.01630   0.05786
  31   34846.0    287.0   0.260988285   2.46572  -0.81438  -0.37995   1.28769
  32   35116.0    284.8   0.001323011   0.01240  -0.10965  -0.00766   0.01791
  33   35601.6    280.9   0.105476770   0.97535   0.83819  -0.00157  -0.52229
  34   35827.8    279.1   0.016071058   0.14767   0.23155  -0.30663  -0.00564
  35   36085.2    277.1   0.037850743   0.34532  -0.02562   0.57197  -0.13234
  36   36180.4    276.4   0.029689166   0.27015  -0.10699  -0.44505   0.24623
  37   36281.7    275.6   0.142213043   1.29041   0.60012   0.71971  -0.64210
  38   36782.7    271.9   0.010645492   0.09528   0.15270  -0.12691  -0.23634
  39   36943.6    270.7   0.002089305   0.01862   0.07142   0.03639  -0.11042
  40   37177.3    269.0   0.016182131   0.14330   0.16439  -0.27308  -0.20421
  41   37329.5    267.9   0.009365018   0.08259  -0.27795  -0.05971   0.04210
  42   37413.2    267.3   0.039611371   0.34855  -0.54650  -0.18178   0.12979
  43   37500.6    266.7   0.000928899   0.00815  -0.02839   0.05688  -0.06414
  44   38061.9    262.7   0.021917627   0.18957  -0.02742  -0.43438   0.01175
  45   38734.0    258.2   0.092909951   0.78967  -0.65174  -0.22289   0.56145
  46   38842.4    257.5   0.228346606   1.93537  -1.03623   0.86546   0.33551
  47   38981.1    256.5   0.029876383   0.25232   0.21534   0.43399  -0.13268
  48   39207.1    255.1   0.060121371   0.50482   0.59354  -0.26978  -0.28241
  49   39260.3    254.7   0.005006519   0.04198   0.11954   0.11863  -0.11671
  50   39471.4    253.3   0.079778402   0.66539   0.69811  -0.27185  -0.32269
  51   39596.0    252.6   0.010015422   0.08327   0.25630   0.07062  -0.11223
  52   40013.7    249.9   0.037691327   0.31010   0.52847  -0.01155  -0.17517
  53   40222.2    248.6   0.037954630   0.31065   0.47414   0.08819  -0.27940
  54   40249.0    248.5   0.048573618   0.39730   0.52555   0.05297  -0.34393

FINAL SINGLE POINT ENERGY     -9694.835128523746

DIPOLE MOMENT
-------------
                                X             Y             Z
Electronic contribution:     27.51625      88.60227     -44.02628
Nuclear contribution   :    -25.39100     -84.97758      42.36904
                        -----------------------------------------
Total Dipole Moment    :      2.12525       3.62469      -1.65725
                        -----------------------------------------
Magnitude (a.u.)       :      4.51680
Magnitude (Debye)      :     11.48081

Rotational constants in cm-1:     0.001116     0.000148     0.000132
Rotational constants in MHz :    33.452882     4.442023     3.970111

                             ****ORCA TERMINATED NORMALLY****
TOTAL RUN TIME: 0 days 0 hours 12 minutes 12 seconds 807 msec
