                         Program Version 4.2.0 -  RELEASE  -
|  1> # ORCA input file
|  2> # SCF done       -191.067955447040          0.000494667287
|  3> ! CAM-B3LYP def2-SVP def2/J RIJCOSX Grid4 TightSCF
|  4> %maxcore 5000
|  5> %tddft
|  6>     Mode sTDDFT
|  7>     Ethresh 5.0
|  8>     maxcore 5000
|  9> end
| 10>
| 11> %pal
| 12>   nprocs 6
| 13>   end
| 14> * xyz 0 1
| 15>    C      -17.42542        -8.75822        -3.62425
| 16>    C      -16.29026        -9.33616        -3.09737
| 17>    C      -16.02925       -10.71945        -3.11045
| 18>    N      -15.75464       -11.83503        -3.08712
| 19>    C      -15.20147        -8.63682        -2.54797
| 20>    N      -14.24619        -8.14663        -2.13398
| 21>    C      -18.47738        -9.47760        -4.34091
| 22>    C      -19.37815        -8.53012        -4.88616
| 23>    C      -20.47089        -8.89244        -5.63276
| 24>    C      -20.69419       -10.25866        -5.84278
| 25>    C      -19.79353       -11.19677        -5.28886
| 26>    C      -18.68082       -10.82844        -4.54004
| 27>    S      -20.25849       -12.82856        -5.66470
| 28>    C      -21.63875       -12.23495        -6.54930
| 29>    C      -21.74714       -10.88539        -6.56404
| 30>   Br      -22.80649       -13.45339        -7.36934
| 31>    C      -18.93312        -7.17094        -4.51028
| 32>    O      -19.42492        -6.12211        -4.88984
| 33>    C      -17.75985        -7.36206        -3.64429
| 34>    C      -17.11711        -6.34621        -2.95692
| 35>    C      -17.50472        -5.01518        -2.96919
| 36>    C      -16.77459        -4.00446        -2.36531
| 37>    C      -17.05790        -2.62483        -2.41070
| 38>    C      -16.07458        -1.83513        -1.88081
| 39>    C      -14.98285        -2.56322        -1.37404
| 40>    S      -15.25768        -4.28297        -1.54253
| 41>    C      -13.78885        -2.06762        -0.87012
| 42>    C      -13.34125        -0.73110        -0.87333
| 43>    C      -12.06570        -0.58991        -0.41339
| 44>    C      -11.43689        -1.80079        -0.02641
| 45>    S      -12.56287        -3.12830        -0.21843
| 46>    C      -10.15156        -1.85036         0.47270
| 47>    C       -9.32551        -2.88430         0.93220
| 48>    S       -8.07166        -2.34584         2.04502
| 49>    C       -7.64592        -3.96429         2.42113
| 50>    C       -8.36527        -4.88344         1.73023
| 51>    C       -8.15704        -6.35452         1.86932
| 52>    C       -9.30017        -4.29036         0.81680
| 53>    C       -9.97526        -5.09314        -0.13411
| 54>    C      -10.47767        -4.68350        -1.33591
| 55>    C      -11.22098        -5.53576        -2.17056
| 56>    C      -11.98137        -5.07303        -3.21302
| 57>    C      -12.88905        -5.86658        -3.91514
| 58>    C      -13.92551        -5.34348        -4.65788
| 59>    C      -14.99325        -6.03671        -5.26427
| 60>    C      -16.00356        -5.23087        -5.71096
| 61>    C      -15.76936        -3.86025        -5.48655
| 62>    S      -14.20001        -3.61192        -4.77572
| 63>    C      -16.63585        -2.79085        -5.66299
| 64>    C      -17.97982        -2.80024        -6.07687
| 65>    C      -18.57567        -1.56917        -6.01790
| 66>    C      -17.73556        -0.54588        -5.53416
| 67>    S      -16.13507        -1.17305        -5.23229
| 68>    C      -18.06657         0.77330        -5.26311
| 69>    C      -17.19974         1.61744        -4.58778
| 70>    C      -17.35349         2.94149        -4.22209
| 71>    C      -18.24010         3.97554        -4.66806
| 72>    C      -18.90876         4.03649        -5.87088
| 73>    C      -19.75010         5.09835        -6.25178
| 74>    N      -20.46462         5.92538        -6.60666
| 75>    C      -18.75351         3.10390        -6.91388
| 76>    N      -18.63285         2.40679        -7.81904
| 77>    C      -18.15053         5.07475        -3.70454
| 78>    C      -17.11413         4.78546        -2.78192
| 79>    C      -16.55379         3.45417        -3.09384
| 80>    O      -15.65814         2.87282        -2.51052
| 81>    C      -16.75782         5.65012        -1.77731
| 82>    C      -17.46247         6.85504        -1.67121
| 83>    C      -18.50283         7.12789        -2.58816
| 84>    C      -18.86005         6.25477        -3.61019
| 85>    S      -19.24728         8.66619        -2.27209
| 86>    C      -18.16110         8.91958        -0.93178
| 87>    C      -17.28718         7.90596        -0.72891
| 88>   Br      -18.28303        10.49966         0.07292
| 89>    H      -21.13768        -8.14848        -6.03989
| 90>    H      -18.02426       -11.58231        -4.13893
| 91>    H      -22.53670       -10.35229        -7.06156
| 92>    H      -16.25183        -6.59980        -2.35572
| 93>    H      -18.39655        -4.73167        -3.50892
| 94>    H      -17.96686        -2.25422        -2.85084
| 95>    H      -16.11032        -0.76110        -1.85059
| 96>    H      -13.94659         0.07886        -1.23772
| 97>    H      -11.54583         0.35030        -0.36037
| 98>    H       -9.72164        -0.86502         0.62845
| 99>    H       -6.86987        -4.14761         3.13865
|100>    H       -7.41531        -6.55650         2.63744
|101>    H       -7.80929        -6.78218         0.92982
|102>    H       -9.08771        -6.84788         2.14642
|103>    H      -10.06040        -6.14342         0.11012
|104>    H      -10.32240        -3.66435        -1.66135
|105>    H      -11.29528        -6.58078        -1.90139
|106>    H      -11.96995        -4.01166        -3.43375
|107>    H      -12.86283        -6.93853        -3.77657
|108>    H      -14.99932        -7.11082        -5.32316
|109>    H      -16.91176        -5.58377        -6.16458
|110>    H      -18.48233        -3.70490        -6.36878
|111>    H      -19.60017        -1.37642        -6.28172
|112>    H      -19.05811         1.10105        -5.53640
|113>    H      -16.30077         1.15798        -4.18260
|114>    H      -15.95895         5.40872        -1.09369
|115>    H      -19.66234         6.50713        -4.28336
|116>    H      -16.54861         7.89758         0.05179
|117> *
|118>
|119>                          ****END OF INPUT****

CARTESIAN COORDINATES (ANGSTROEM)
---------------------------------
  C    -17.425420   -8.758220   -3.624250
  C    -16.290260   -9.336160   -3.097370
  C    -16.029250  -10.719450   -3.110450
  N    -15.754640  -11.835030   -3.087120
  C    -15.201470   -8.636820   -2.547970
  N    -14.246190   -8.146630   -2.133980
  C    -18.477380   -9.477600   -4.340910
  C    -19.378150   -8.530120   -4.886160
  C    -20.470890   -8.892440   -5.632760
  C    -20.694190  -10.258660   -5.842780
  C    -19.793530  -11.196770   -5.288860
  C    -18.680820  -10.828440   -4.540040
  S    -20.258490  -12.828560   -5.664700
  C    -21.638750  -12.234950   -6.549300
  C    -21.747140  -10.885390   -6.564040
  Br   -22.806490  -13.453390   -7.369340
  C    -18.933120   -7.170940   -4.510280
  O    -19.424920   -6.122110   -4.889840
  C    -17.759850   -7.362060   -3.644290
  C    -17.117110   -6.346210   -2.956920
  C    -17.504720   -5.015180   -2.969190
  C    -16.774590   -4.004460   -2.365310
  C    -17.057900   -2.624830   -2.410700
  C    -16.074580   -1.835130   -1.880810
  C    -14.982850   -2.563220   -1.374040
  S    -15.257680   -4.282970   -1.542530
  C    -13.788850   -2.067620   -0.870120
  C    -13.341250   -0.731100   -0.873330
  C    -12.065700   -0.589910   -0.413390
  C    -11.436890   -1.800790   -0.026410
  S    -12.562870   -3.128300   -0.218430
  C    -10.151560   -1.850360    0.472700
  C     -9.325510   -2.884300    0.932200
  S     -8.071660   -2.345840    2.045020
  C     -7.645920   -3.964290    2.421130
  C     -8.365270   -4.883440    1.730230
  C     -8.157040   -6.354520    1.869320
  C     -9.300170   -4.290360    0.816800
  C     -9.975260   -5.093140   -0.134110
  C    -10.477670   -4.683500   -1.335910
  C    -11.220980   -5.535760   -2.170560
  C    -11.981370   -5.073030   -3.213020
  C    -12.889050   -5.866580   -3.915140
  C    -13.925510   -5.343480   -4.657880
  C    -14.993250   -6.036710   -5.264270
  C    -16.003560   -5.230870   -5.710960
  C    -15.769360   -3.860250   -5.486550
  S    -14.200010   -3.611920   -4.775720
  C    -16.635850   -2.790850   -5.662990
  C    -17.979820   -2.800240   -6.076870
  C    -18.575670   -1.569170   -6.017900
  C    -17.735560   -0.545880   -5.534160
  S    -16.135070   -1.173050   -5.232290
  C    -18.066570    0.773300   -5.263110
  C    -17.199740    1.617440   -4.587780
  C    -17.353490    2.941490   -4.222090
  C    -18.240100    3.975540   -4.668060
  C    -18.908760    4.036490   -5.870880
  C    -19.750100    5.098350   -6.251780
  N    -20.464620    5.925380   -6.606660
  C    -18.753510    3.103900   -6.913880
  N    -18.632850    2.406790   -7.819040
  C    -18.150530    5.074750   -3.704540
  C    -17.114130    4.785460   -2.781920
  C    -16.553790    3.454170   -3.093840
  O    -15.658140    2.872820   -2.510520
  C    -16.757820    5.650120   -1.777310
  C    -17.462470    6.855040   -1.671210
  C    -18.502830    7.127890   -2.588160
  C    -18.860050    6.254770   -3.610190
  S    -19.247280    8.666190   -2.272090
  C    -18.161100    8.919580   -0.931780
  C    -17.287180    7.905960   -0.728910
  Br   -18.283030   10.499660    0.072920
  H    -21.137680   -8.148480   -6.039890
  H    -18.024260  -11.582310   -4.138930
  H    -22.536700  -10.352290   -7.061560
  H    -16.251830   -6.599800   -2.355720
  H    -18.396550   -4.731670   -3.508920
  H    -17.966860   -2.254220   -2.850840
  H    -16.110320   -0.761100   -1.850590
  H    -13.946590    0.078860   -1.237720
  H    -11.545830    0.350300   -0.360370
  H     -9.721640   -0.865020    0.628450
  H     -6.869870   -4.147610    3.138650
  H     -7.415310   -6.556500    2.637440
  H     -7.809290   -6.782180    0.929820
  H     -9.087710   -6.847880    2.146420
  H    -10.060400   -6.143420    0.110120
  H    -10.322400   -3.664350   -1.661350
  H    -11.295280   -6.580780   -1.901390
  H    -11.969950   -4.011660   -3.433750
  H    -12.862830   -6.938530   -3.776570
  H    -14.999320   -7.110820   -5.323160
  H    -16.911760   -5.583770   -6.164580
  H    -18.482330   -3.704900   -6.368780
  H    -19.600170   -1.376420   -6.281720
  H    -19.058110    1.101050   -5.536400
  H    -16.300770    1.157980   -4.182600
  H    -15.958950    5.408720   -1.093690
  H    -19.662340    6.507130   -4.283360
  H    -16.548610    7.897580    0.051790

 Total Charge           Charge          ....    0
 Multiplicity           Mult            ....    1
 Number of Electrons    NEL             ....  608
 Basis Dimension        Dim             .... 1240

ORBITAL ENERGIES
----------------

  NO   OCC          E(Eh)            E(eV)
   0   2.0000    -482.882219    -13139.8932
   1   2.0000    -482.877274    -13139.7586
   2   2.0000     -88.971926     -2421.0492
   3   2.0000     -88.971441     -2421.0360
   4   2.0000     -88.966444     -2420.9000
   5   2.0000     -88.964931     -2420.8588
   6   2.0000     -88.964776     -2420.8546
   7   2.0000     -88.963530     -2420.8207
   8   2.0000     -88.961091     -2420.7544
   9   2.0000     -62.559923     -1702.3421
  10   2.0000     -62.554996     -1702.2080
  11   2.0000     -56.393869     -1534.5552
  12   2.0000     -56.391163     -1534.4816
  13   2.0000     -56.391126     -1534.4806
  14   2.0000     -56.388932     -1534.4209
  15   2.0000     -56.386242     -1534.3477
  16   2.0000     -56.386202     -1534.3466
  17   2.0000     -19.210832      -522.7533
  18   2.0000     -19.198889      -522.4283
  19   2.0000     -14.416115      -392.2824
  20   2.0000     -14.405967      -392.0063
  21   2.0000     -14.397223      -391.7684
  22   2.0000     -14.394363      -391.6905
  23   2.0000     -10.360155      -281.9142
  24   2.0000     -10.354453      -281.7590
  25   2.0000     -10.348650      -281.6011
  26   2.0000     -10.348170      -281.5880
  27   2.0000     -10.338163      -281.3157
  28   2.0000     -10.336623      -281.2738
  29   2.0000     -10.333373      -281.1854
  30   2.0000     -10.331476      -281.1338
  31   2.0000     -10.329329      -281.0753
  32   2.0000     -10.328271      -281.0465
  33   2.0000     -10.327172      -281.0166
  34   2.0000     -10.326946      -281.0105
  35   2.0000     -10.324622      -280.9473
  36   2.0000     -10.321835      -280.8714
  37   2.0000     -10.321799      -280.8704
  38   2.0000     -10.320281      -280.8291
  39   2.0000     -10.320037      -280.8225
  40   2.0000     -10.319513      -280.8082
  41   2.0000     -10.319335      -280.8034
  42   2.0000     -10.318593      -280.7832
  43   2.0000     -10.312995      -280.6309
  44   2.0000     -10.310818      -280.5716
  45   2.0000     -10.307484      -280.4809
  46   2.0000     -10.306769      -280.4614
  47   2.0000     -10.306355      -280.4502
  48   2.0000     -10.305609      -280.4299
  49   2.0000     -10.303445      -280.3710
  50   2.0000     -10.303358      -280.3686
  51   2.0000     -10.302026      -280.3324
  52   2.0000     -10.302024      -280.3323
  53   2.0000     -10.301547      -280.3193
  54   2.0000     -10.301294      -280.3124
  55   2.0000     -10.300301      -280.2854
  56   2.0000     -10.299624      -280.2670
  57   2.0000     -10.298928      -280.2481
  58   2.0000     -10.298857      -280.2461
  59   2.0000     -10.298006      -280.2230
  60   2.0000     -10.296798      -280.1901
  61   2.0000     -10.296536      -280.1830
  62   2.0000     -10.295701      -280.1603
  63   2.0000     -10.295225      -280.1473
  64   2.0000     -10.294603      -280.1304
  65   2.0000     -10.294550      -280.1290
  66   2.0000     -10.293828      -280.1093
  67   2.0000     -10.293609      -280.1033
  68   2.0000     -10.293582      -280.1026
  69   2.0000     -10.292804      -280.0814
  70   2.0000     -10.290993      -280.0321
  71   2.0000     -10.290876      -280.0290
  72   2.0000     -10.289243      -279.9845
  73   2.0000     -10.288653      -279.9685
  74   2.0000     -10.286987      -279.9231
  75   2.0000     -10.286004      -279.8964
  76   2.0000     -10.281425      -279.7718
  77   2.0000     -10.281414      -279.7715
  78   2.0000     -10.278820      -279.7009
  79   2.0000     -10.278509      -279.6924
  80   2.0000     -10.278073      -279.6806
  81   2.0000     -10.271501      -279.5018
  82   2.0000      -8.789340      -239.1701
  83   2.0000      -8.784424      -239.0363
  84   2.0000      -8.067370      -219.5243
  85   2.0000      -8.067201      -219.5197
  86   2.0000      -8.062674      -219.3965
  87   2.0000      -8.060855      -219.3470
  88   2.0000      -8.060175      -219.3285
  89   2.0000      -8.059399      -219.3074
  90   2.0000      -8.056661      -219.2329
  91   2.0000      -6.625616      -180.2922
  92   2.0000      -6.620671      -180.1576
  93   2.0000      -6.611077      -179.8965
  94   2.0000      -6.610907      -179.8919
  95   2.0000      -6.606172      -179.7631
  96   2.0000      -6.606009      -179.7587
  97   2.0000      -6.037072      -164.2771
  98   2.0000      -6.036816      -164.2701
  99   2.0000      -6.032774      -164.1601
 100   2.0000      -6.032548      -164.1540
 101   2.0000      -6.032054      -164.1405
 102   2.0000      -6.030546      -164.0995
 103   2.0000      -6.029770      -164.0784
 104   2.0000      -6.029005      -164.0576
 105   2.0000      -6.028618      -164.0470
 106   2.0000      -6.028599      -164.0465
 107   2.0000      -6.027789      -164.0245
 108   2.0000      -6.026277      -163.9833
 109   2.0000      -6.026220      -163.9818
 110   2.0000      -6.025768      -163.9695
 111   2.0000      -6.024984      -163.9482
 112   2.0000      -6.024634      -163.9386
 113   2.0000      -6.022215      -163.8728
 114   2.0000      -6.022105      -163.8698
 115   2.0000      -6.021445      -163.8518
 116   2.0000      -6.020598      -163.8288
 117   2.0000      -6.018009      -163.7584
 118   2.0000      -2.741496       -74.5999
 119   2.0000      -2.737402       -74.4885
 120   2.0000      -2.737275       -74.4850
 121   2.0000      -2.736538       -74.4650
 122   2.0000      -2.732446       -74.3536
 123   2.0000      -2.732399       -74.3523
 124   2.0000      -2.725723       -74.1707
 125   2.0000      -2.725706       -74.1702
 126   2.0000      -2.720838       -74.0378
 127   2.0000      -2.720820       -74.0373
 128   2.0000      -1.123125       -30.5618
 129   2.0000      -1.111372       -30.2420
 130   2.0000      -1.017825       -27.6964
 131   2.0000      -1.016873       -27.6705
 132   2.0000      -1.012268       -27.5452
 133   2.0000      -1.009826       -27.4788
 134   2.0000      -1.008868       -27.4527
 135   2.0000      -1.001608       -27.2551
 136   2.0000      -0.996279       -27.1101
 137   2.0000      -0.990765       -26.9601
 138   2.0000      -0.990510       -26.9531
 139   2.0000      -0.989002       -26.9121
 140   2.0000      -0.982664       -26.7396
 141   2.0000      -0.974998       -26.5310
 142   2.0000      -0.972870       -26.4731
 143   2.0000      -0.938124       -25.5277
 144   2.0000      -0.935983       -25.4694
 145   2.0000      -0.929521       -25.2936
 146   2.0000      -0.919071       -25.0092
 147   2.0000      -0.912015       -24.8172
 148   2.0000      -0.904899       -24.6236
 149   2.0000      -0.902675       -24.5630
 150   2.0000      -0.899844       -24.4860
 151   2.0000      -0.893773       -24.3208
 152   2.0000      -0.881254       -23.9801
 153   2.0000      -0.880399       -23.9569
 154   2.0000      -0.876780       -23.8584
 155   2.0000      -0.872515       -23.7423
 156   2.0000      -0.869026       -23.6474
 157   2.0000      -0.863853       -23.5066
 158   2.0000      -0.861364       -23.4389
 159   2.0000      -0.853991       -23.2383
 160   2.0000      -0.842332       -22.9210
 161   2.0000      -0.841176       -22.8896
 162   2.0000      -0.835639       -22.7389
 163   2.0000      -0.830165       -22.5899
 164   2.0000      -0.824155       -22.4264
 165   2.0000      -0.817111       -22.2347
 166   2.0000      -0.813763       -22.1436
 167   2.0000      -0.802656       -21.8414
 168   2.0000      -0.784672       -21.3520
 169   2.0000      -0.780140       -21.2287
 170   2.0000      -0.760050       -20.6820
 171   2.0000      -0.757845       -20.6220
 172   2.0000      -0.751589       -20.4518
 173   2.0000      -0.745013       -20.2728
 174   2.0000      -0.733524       -19.9602
 175   2.0000      -0.726302       -19.7637
 176   2.0000      -0.711690       -19.3661
 177   2.0000      -0.705251       -19.1908
 178   2.0000      -0.693169       -18.8621
 179   2.0000      -0.688972       -18.7479
 180   2.0000      -0.686546       -18.6819
 181   2.0000      -0.684647       -18.6302
 182   2.0000      -0.673861       -18.3367
 183   2.0000      -0.671108       -18.2618
 184   2.0000      -0.669405       -18.2154
 185   2.0000      -0.661108       -17.9897
 186   2.0000      -0.657493       -17.8913
 187   2.0000      -0.653017       -17.7695
 188   2.0000      -0.649304       -17.6685
 189   2.0000      -0.646926       -17.6038
 190   2.0000      -0.639452       -17.4004
 191   2.0000      -0.634516       -17.2660
 192   2.0000      -0.633175       -17.2296
 193   2.0000      -0.628940       -17.1143
 194   2.0000      -0.623821       -16.9750
 195   2.0000      -0.619522       -16.8580
 196   2.0000      -0.617978       -16.8160
 197   2.0000      -0.617258       -16.7964
 198   2.0000      -0.608958       -16.5706
 199   2.0000      -0.604650       -16.4534
 200   2.0000      -0.593601       -16.1527
 201   2.0000      -0.590216       -16.0606
 202   2.0000      -0.586950       -15.9717
 203   2.0000      -0.585859       -15.9420
 204   2.0000      -0.580638       -15.8000
 205   2.0000      -0.570770       -15.5314
 206   2.0000      -0.564536       -15.3618
 207   2.0000      -0.560879       -15.2623
 208   2.0000      -0.550711       -14.9856
 209   2.0000      -0.545990       -14.8571
 210   2.0000      -0.541761       -14.7421
 211   2.0000      -0.539281       -14.6746
 212   2.0000      -0.538438       -14.6517
 213   2.0000      -0.535751       -14.5785
 214   2.0000      -0.534257       -14.5379
 215   2.0000      -0.529473       -14.4077
 216   2.0000      -0.528010       -14.3679
 217   2.0000      -0.526335       -14.3223
 218   2.0000      -0.525256       -14.2930
 219   2.0000      -0.524220       -14.2647
 220   2.0000      -0.522739       -14.2244
 221   2.0000      -0.520907       -14.1746
 222   2.0000      -0.517423       -14.0798
 223   2.0000      -0.514067       -13.9885
 224   2.0000      -0.512184       -13.9372
 225   2.0000      -0.509018       -13.8511
 226   2.0000      -0.507526       -13.8105
 227   2.0000      -0.505813       -13.7639
 228   2.0000      -0.504914       -13.7394
 229   2.0000      -0.503069       -13.6892
 230   2.0000      -0.499868       -13.6021
 231   2.0000      -0.495507       -13.4834
 232   2.0000      -0.492800       -13.4098
 233   2.0000      -0.489977       -13.3330
 234   2.0000      -0.489183       -13.3114
 235   2.0000      -0.488412       -13.2904
 236   2.0000      -0.487558       -13.2671
 237   2.0000      -0.486719       -13.2443
 238   2.0000      -0.485299       -13.2057
 239   2.0000      -0.481251       -13.0955
 240   2.0000      -0.479903       -13.0588
 241   2.0000      -0.478536       -13.0216
 242   2.0000      -0.477909       -13.0046
 243   2.0000      -0.474251       -12.9050
 244   2.0000      -0.474091       -12.9007
 245   2.0000      -0.468976       -12.7615
 246   2.0000      -0.466269       -12.6878
 247   2.0000      -0.464569       -12.6416
 248   2.0000      -0.460452       -12.5295
 249   2.0000      -0.456653       -12.4262
 250   2.0000      -0.454112       -12.3570
 251   2.0000      -0.453854       -12.3500
 252   2.0000      -0.452802       -12.3214
 253   2.0000      -0.448516       -12.2047
 254   2.0000      -0.446876       -12.1601
 255   2.0000      -0.445203       -12.1146
 256   2.0000      -0.444542       -12.0966
 257   2.0000      -0.443052       -12.0561
 258   2.0000      -0.438458       -11.9310
 259   2.0000      -0.435974       -11.8635
 260   2.0000      -0.435065       -11.8387
 261   2.0000      -0.433873       -11.8063
 262   2.0000      -0.431465       -11.7408
 263   2.0000      -0.430519       -11.7150
 264   2.0000      -0.428654       -11.6643
 265   2.0000      -0.427832       -11.6419
 266   2.0000      -0.425515       -11.5788
 267   2.0000      -0.425033       -11.5657
 268   2.0000      -0.422269       -11.4905
 269   2.0000      -0.421446       -11.4681
 270   2.0000      -0.419707       -11.4208
 271   2.0000      -0.413825       -11.2608
 272   2.0000      -0.410345       -11.1660
 273   2.0000      -0.406942       -11.0735
 274   2.0000      -0.404283       -11.0011
 275   2.0000      -0.403821       -10.9885
 276   2.0000      -0.403275       -10.9737
 277   2.0000      -0.394173       -10.7260
 278   2.0000      -0.391811       -10.6617
 279   2.0000      -0.388065       -10.5598
 280   2.0000      -0.381180       -10.3724
 281   2.0000      -0.378138       -10.2897
 282   2.0000      -0.372609       -10.1392
 283   2.0000      -0.371747       -10.1157
 284   2.0000      -0.366982        -9.9861
 285   2.0000      -0.359014        -9.7693
 286   2.0000      -0.357299        -9.7226
 287   2.0000      -0.355957        -9.6861
 288   2.0000      -0.350596        -9.5402
 289   2.0000      -0.345239        -9.3944
 290   2.0000      -0.334468        -9.1013
 291   2.0000      -0.331360        -9.0168
 292   2.0000      -0.328114        -8.9284
 293   2.0000      -0.323383        -8.7997
 294   2.0000      -0.320191        -8.7128
 295   2.0000      -0.311296        -8.4708
 296   2.0000      -0.308583        -8.3970
 297   2.0000      -0.303304        -8.2533
 298   2.0000      -0.294267        -8.0074
 299   2.0000      -0.288854        -7.8601
 300   2.0000      -0.281488        -7.6597
 301   2.0000      -0.270472        -7.3599
 302   2.0000      -0.236713        -6.4413
 303   2.0000      -0.221028        -6.0145
 304   0.0000      -0.123332        -3.3560
 305   0.0000      -0.100211        -2.7269
 306   0.0000      -0.070361        -1.9146
 307   0.0000      -0.061276        -1.6674
 308   0.0000      -0.050240        -1.3671

MULLIKEN ATOMIC CHARGES
-----------------------
   0 C :    0.323259
   1 C :   -0.380767
   2 C :   -0.189945
   3 N :    0.136393
   4 C :   -0.188641
   5 N :    0.118380
   6 C :    0.013596
   7 C :   -0.004645
   8 C :   -0.078271
   9 C :    0.116820
  10 C :   -0.095700
  11 C :   -0.024140
  12 S :    0.182309
  13 C :   -0.123761
  14 C :    0.037347
  15 Br:    0.018672
  16 C :    0.129714
  17 O :   -0.182848
  18 C :   -0.109859
  19 C :   -0.028867
  20 C :   -0.019416
  21 C :   -0.004795
  22 C :    0.040640
  23 C :    0.048100
  24 C :   -0.055074
  25 S :    0.107070
  26 C :   -0.040589
  27 C :    0.020161
  28 C :    0.045079
  29 C :   -0.060599
  30 S :    0.132018
  31 C :    0.032819
  32 C :   -0.178753
  33 S :    0.112992
  34 C :   -0.105493
  35 C :   -0.091023
  36 C :    0.113643
  37 C :    0.162329
  38 C :   -0.062339
  39 C :    0.018309
  40 C :    0.029619
  41 C :   -0.017932
  42 C :    0.051553
  43 C :   -0.059865
  44 C :    0.061838
  45 C :    0.048394
  46 C :   -0.027292
  47 S :    0.090692
  48 C :   -0.087833
  49 C :    0.056350
  50 C :    0.022802
  51 C :   -0.029664
  52 S :    0.098528
  53 C :    0.012158
  54 C :   -0.010844
  55 C :   -0.121339
  56 C :    0.301782
  57 C :   -0.355844
  58 C :   -0.177490
  59 N :    0.129098
  60 C :   -0.218633
  61 N :    0.155390
  62 C :    0.007036
  63 C :   -0.005278
  64 C :    0.137257
  65 O :   -0.182889
  66 C :   -0.081149
  67 C :    0.118117
  68 C :   -0.091215
  69 C :   -0.028815
  70 S :    0.178723
  71 C :   -0.125094
  72 C :    0.034876
  73 Br:    0.012791
  74 H :   -0.015087
  75 H :   -0.008548
  76 H :   -0.004266
  77 H :    0.014800
  78 H :    0.013729
  79 H :   -0.000467
  80 H :    0.010498
  81 H :    0.014753
  82 H :    0.002027
  83 H :    0.003507
  84 H :    0.025908
  85 H :    0.014031
  86 H :    0.035049
  87 H :    0.037362
  88 H :   -0.006208
  89 H :    0.015533
  90 H :    0.015967
  91 H :    0.006447
  92 H :    0.016883
  93 H :    0.004558
  94 H :    0.002998
  95 H :    0.009818
  96 H :    0.000093
  97 H :    0.006859
  98 H :    0.008297
  99 H :   -0.019628
 100 H :   -0.007835
 101 H :   -0.007027
Sum of atomic charges:   -0.0000000

LOEWDIN ATOMIC CHARGES
----------------------
   0 C :    0.074746
   1 C :   -0.173140
   2 C :   -0.022247
   3 N :   -0.070786
   4 C :   -0.011016
   5 N :   -0.084892
   6 C :   -0.019703
   7 C :   -0.049967
   8 C :    0.016370
   9 C :   -0.035789
  10 C :   -0.146595
  11 C :   -0.013104
  12 S :    0.429969
  13 C :   -0.273883
  14 C :   -0.070973
  15 Br:    0.132766
  16 C :    0.081104
  17 O :   -0.174210
  18 C :   -0.125197
  19 C :    0.049474
  20 C :   -0.077835
  21 C :   -0.104448
  22 C :   -0.044873
  23 C :   -0.003602
  24 C :   -0.189531
  25 S :    0.416035
  26 C :   -0.147119
  27 C :   -0.043442
  28 C :   -0.006804
  29 C :   -0.170653
  30 S :    0.454460
  31 C :   -0.047497
  32 C :   -0.165280
  33 S :    0.430859
  34 C :   -0.176221
  35 C :   -0.053897
  36 C :   -0.044165
  37 C :   -0.049332
  38 C :   -0.025199
  39 C :   -0.031495
  40 C :    0.013928
  41 C :   -0.038499
  42 C :    0.001201
  43 C :   -0.159449
  44 C :   -0.004014
  45 C :   -0.029185
  46 C :   -0.136880
  47 S :    0.401113
  48 C :   -0.200659
  49 C :    0.001609
  50 C :   -0.048605
  51 C :   -0.101617
  52 S :    0.418400
  53 C :   -0.073376
  54 C :    0.041177
  55 C :   -0.119930
  56 C :    0.066829
  57 C :   -0.157845
  58 C :   -0.019998
  59 N :   -0.069670
  60 C :   -0.023971
  61 N :   -0.064373
  62 C :   -0.014121
  63 C :   -0.051832
  64 C :    0.079551
  65 O :   -0.182649
  66 C :    0.015345
  67 C :   -0.038582
  68 C :   -0.145439
  69 C :   -0.016677
  70 S :    0.427355
  71 C :   -0.276245
  72 C :   -0.071911
  73 Br:    0.128222
  74 H :    0.038802
  75 H :    0.040324
  76 H :    0.038182
  77 H :    0.030008
  78 H :    0.035714
  79 H :    0.037757
  80 H :    0.039960
  81 H :    0.042911
  82 H :    0.039134
  83 H :    0.039501
  84 H :    0.026095
  85 H :    0.035753
  86 H :    0.038455
  87 H :    0.037858
  88 H :    0.033130
  89 H :    0.028752
  90 H :    0.039016
  91 H :    0.021096
  92 H :    0.040812
  93 H :    0.039392
  94 H :    0.037113
  95 H :    0.041452
  96 H :    0.039660
  97 H :    0.037853
  98 H :    0.025330
  99 H :    0.037158
 100 H :    0.039920
 101 H :    0.036774

  Mayer bond orders larger than 0.100000
B(  0-C ,  1-C ) :   1.5513 B(  0-C ,  6-C ) :   0.9892 B(  0-C , 18-C ) :   1.1281
B(  1-C ,  2-C ) :   1.1447 B(  1-C ,  4-C ) :   1.1789 B(  2-C ,  3-N ) :   2.9675
B(  4-C ,  5-N ) :   2.9084 B(  6-C ,  7-C ) :   1.2732 B(  6-C , 11-C ) :   1.4244
B(  7-C ,  8-C ) :   1.4344 B(  7-C , 16-C ) :   0.9379 B(  8-C ,  9-C ) :   1.2348
B(  8-C , 74-H ) :   1.0161 B(  9-C , 10-C ) :   1.3189 B(  9-C , 14-C ) :   1.1634
B( 10-C , 11-C ) :   1.3147 B( 10-C , 12-S ) :   1.0851 B( 11-C , 75-H ) :   0.9805
B( 12-S , 13-C ) :   1.0871 B( 13-C , 14-C ) :   1.6183 B( 13-C , 15-Br) :   1.0152
B( 14-C , 76-H ) :   0.9997 B( 16-C , 17-O ) :   2.1404 B( 16-C , 18-C ) :   0.9862
B( 18-C , 19-C ) :   1.4218 B( 19-C , 20-C ) :   1.3104 B( 19-C , 77-H ) :   0.9454
B( 20-C , 21-C ) :   1.3702 B( 20-C , 78-H ) :   0.9806 B( 21-C , 22-C ) :   1.2171
B( 21-C , 25-S ) :   1.0974 B( 22-C , 23-C ) :   1.4911 B( 22-C , 79-H ) :   0.9996
B( 23-C , 24-C ) :   1.2466 B( 23-C , 80-H ) :   0.9979 B( 24-C , 25-S ) :   1.0471
B( 24-C , 26-C ) :   1.4204 B( 26-C , 27-C ) :   1.2139 B( 26-C , 30-S ) :   1.0783
B( 27-C , 28-C ) :   1.5519 B( 27-C , 81-H ) :   0.9940 B( 28-C , 29-C ) :   1.1589
B( 28-C , 82-H ) :   1.0004 B( 29-C , 30-S ) :   1.0500 B( 29-C , 31-C ) :   1.5507
B( 31-C , 32-C ) :   1.2326 B( 31-C , 83-H ) :   0.9337 B( 32-C , 33-S ) :   1.1184
B( 32-C , 37-C ) :   1.3276 B( 33-S , 34-C ) :   1.1362 B( 34-C , 35-C ) :   1.6053
B( 34-C , 84-H ) :   0.9657 B( 35-C , 36-C ) :   1.0965 B( 35-C , 37-C ) :   1.2154
B( 36-C , 85-H ) :   0.9504 B( 36-C , 86-H ) :   0.9417 B( 36-C , 87-H ) :   0.9426
B( 37-C , 38-C ) :   1.1761 B( 38-C , 39-C ) :   1.5620 B( 38-C , 88-H ) :   0.9586
B( 39-C , 40-C ) :   1.1776 B( 39-C , 89-H ) :   0.9791 B( 40-C , 41-C ) :   1.5452
B( 40-C , 90-H ) :   0.9948 B( 41-C , 42-C ) :   1.2047 B( 41-C , 91-H ) :   0.9744
B( 42-C , 43-C ) :   1.5115 B( 42-C , 92-H ) :   0.9703 B( 43-C , 44-C ) :   1.1835
B( 43-C , 47-S ) :   1.0232 B( 44-C , 45-C ) :   1.5202 B( 44-C , 93-H ) :   1.0029
B( 45-C , 46-C ) :   1.2220 B( 45-C , 94-H ) :   0.9967 B( 46-C , 47-S ) :   1.1046
B( 46-C , 48-C ) :   1.4132 B( 48-C , 49-C ) :   1.2497 B( 48-C , 52-S ) :   1.0492
B( 49-C , 50-C ) :   1.5056 B( 49-C , 95-H ) :   0.9913 B( 50-C , 51-C ) :   1.2017
B( 50-C , 96-H ) :   1.0031 B( 51-C , 52-S ) :   1.1016 B( 51-C , 53-C ) :   1.4389
B( 53-C , 54-C ) :   1.2774 B( 53-C , 97-H ) :   0.9680 B( 54-C , 55-C ) :   1.4695
B( 54-C , 98-H ) :   0.9296 B( 55-C , 56-C ) :   1.1068 B( 55-C , 64-C ) :   0.9886
B( 56-C , 57-C ) :   1.5874 B( 56-C , 62-C ) :   0.9971 B( 57-C , 58-C ) :   1.1348
B( 57-C , 60-C ) :   1.1713 B( 58-C , 59-N ) :   2.9687 B( 60-C , 61-N ) :   3.0036
B( 62-C , 63-C ) :   1.2757 B( 62-C , 69-C ) :   1.4282 B( 63-C , 64-C ) :   0.9232
B( 63-C , 66-C ) :   1.4321 B( 64-C , 65-O ) :   2.2054 B( 66-C , 67-C ) :   1.2407
B( 66-C , 99-H ) :   1.0169 B( 67-C , 68-C ) :   1.3200 B( 67-C , 72-C ) :   1.1598
B( 68-C , 69-C ) :   1.3135 B( 68-C , 70-S ) :   1.0828 B( 69-C ,100-H ) :   0.9819
B( 70-S , 71-C ) :   1.0857 B( 71-C , 72-C ) :   1.6214 B( 71-C , 73-Br) :   1.0121
B( 72-C ,101-H ) :   1.0003

-----------------------------------------------------------------------------
         ABSORPTION SPECTRUM VIA TRANSITION ELECTRIC DIPOLE MOMENTS
-----------------------------------------------------------------------------
State   Energy  Wavelength   fosc         T2         TX        TY        TZ
        (cm-1)    (nm)                  (au**2)     (au)      (au)      (au)
-----------------------------------------------------------------------------
   0    6682.5   1496.4   0.293880333  14.47793   0.11519  -3.70913   0.84082
   1    9257.5   1080.2   0.079578873   2.82996   1.11298   1.13271   0.55516
   2   12270.7    815.0   1.059292297  28.41992   4.71673  -1.58747   1.91109
   3   14613.4    684.3   0.193698048   4.36364   0.01520  -1.98891  -0.63849
   4   17529.4    570.5   0.319105997   5.99298  -0.23207  -2.26407  -0.90173
   5   18489.2    540.9   0.864818466  15.39867   0.38922   3.66463   1.34820
   6   20211.5    494.8   0.102724405   1.67321   0.48053  -1.17531  -0.24688
   7   20473.2    488.4   0.182021359   2.92693  -0.51261  -1.36890  -0.88898
   8   21567.0    463.7   0.019997584   0.30526  -0.30659  -0.40390  -0.21937
   9   22222.6    450.0   0.254182411   3.76552   0.87583   1.35440   1.07892
  10   23024.5    434.3   0.116733009   1.66909   1.06654  -0.72898   0.01297
  11   23465.4    426.2   0.120181004   1.68610   0.46034   0.84220   0.87458
  12   23761.7    420.8   0.225568949   3.12519   1.45604   0.50938   0.86352
  13   24246.1    412.4   0.000802306   0.01089   0.04190   0.09201   0.02593
  14   24952.2    400.8   0.208103604   2.74565   1.36814   0.43526   0.82729
  15   25665.6    389.6   0.034877814   0.44738  -0.23782   0.62431   0.03247
  16   26177.7    382.0   0.415126867   5.22065   1.62904   0.12957   1.59690
  17   26449.8    378.1   0.079144759   0.98509  -0.79066   0.49444  -0.33981
  18   26797.5    373.2   0.002008266   0.02467  -0.13147  -0.07504  -0.04193
  19   27055.5    369.6   0.013323482   0.16212  -0.18756  -0.11109  -0.33853
  20   27416.4    364.7   0.175016807   2.10158   1.11142  -0.88577   0.28590
  21   27834.1    359.3   0.001373380   0.01624   0.00855  -0.10794  -0.06723
  22   27916.4    358.2   0.021393136   0.25228  -0.41252   0.25986  -0.12076
  23   28583.6    349.9   0.103131218   1.18782  -0.25714  -0.64873  -0.83717
  24   28961.3    345.3   0.027647741   0.31428  -0.15887  -0.52625  -0.11003
  25   29103.7    343.6   0.303652393   3.43483   0.68251   1.25798   1.17750
  26   29591.1    337.9   0.041286278   0.45932   0.32447   0.30929   0.50832
  27   29663.2    337.1   0.009170967   0.10178  -0.21379   0.21469   0.09992
  28   29812.6    335.4   0.102249216   1.12911   0.78383  -0.33217   0.63591
  29   30254.2    330.5   0.033857076   0.36842   0.34027   0.45134   0.22119
  30   30598.4    326.8   0.184042428   1.98014   0.74441   0.73654   0.93995
  31   31282.5    319.7   0.051796136   0.54509  -0.67936  -0.14691  -0.24895
  32   31647.3    316.0   0.095105145   0.98933  -0.20988   0.35085   0.90675
  33   31860.6    313.9   0.197751119   2.04334  -0.71742  -0.97549  -0.75964
  34   32077.6    311.7   0.190425013   1.95433  -0.50161  -1.00807  -0.82857
  35   32146.4    311.1   0.013134282   0.13451   0.07775  -0.30085  -0.19482
  36   32335.7    309.3   0.015251820   0.15528  -0.10223   0.05600  -0.37642
  37   32512.1    307.6   0.155037887   1.56989  -1.00346  -0.18711  -0.72660
  38   32868.5    304.2   0.064741734   0.64845   0.37556   0.42803   0.56939
  39   33127.6    301.9   0.049551047   0.49242  -0.39357  -0.18184  -0.55177
  40   33341.2    299.9   0.022403808   0.22122  -0.03562  -0.24044  -0.40266
  41   33580.7    297.8   0.016538682   0.16214  -0.18666  -0.11897  -0.33637
  42   33705.4    296.7   0.141024018   1.37743  -0.17285  -0.67943  -0.94124
  43   33827.7    295.6   0.030716031   0.29893   0.21891   0.45027   0.21969
  44   33957.7    294.5   0.100268691   0.97208   0.28631   0.57129   0.75082
  45   34057.7    293.6   0.086171897   0.83296   0.46235   0.43532   0.65551
  46   34094.8    293.3   0.157561840   1.52138   1.03356   0.25449   0.62319
  47   34328.0    291.3   0.002087027   0.02001   0.03586   0.10245   0.09074
  48   34465.1    290.1   0.010954173   0.10463  -0.22038   0.16900  -0.16585
  49   34711.5    288.1   0.124343435   1.17930  -0.85405   0.29141  -0.60413
  50   35194.7    284.1   0.049469988   0.46274  -0.45375   0.31431  -0.39758
  51   35351.6    282.9   0.053907427   0.50201  -0.47904  -0.39595  -0.34023
  52   35572.3    281.1   0.026870896   0.24868   0.42035  -0.04469   0.26455
  53   35766.8    279.6   0.045109586   0.41521   0.50074  -0.32730   0.23947
  54   35946.4    278.2   0.025576796   0.23424  -0.23566   0.12298  -0.40445
  55   36035.7    277.5   0.001944913   0.01777  -0.00337   0.03512  -0.12854
  56   36455.0    274.3   0.043003637   0.38835   0.30003  -0.42654  -0.34117
  57   36958.7    270.6   0.019307412   0.17198   0.22789  -0.34617  -0.01463
  58   37191.0    268.9   0.133326277   1.18020  -0.92383   0.43960  -0.36535
  59   37490.7    266.7   0.038354447   0.33680  -0.35334   0.23047  -0.39854
  60   37622.2    265.8   0.088029728   0.77030   0.48303  -0.01925   0.73254
  61   37764.1    264.8   0.066905235   0.58325   0.28211  -0.68019   0.20251
  62   37901.8    263.8   0.017127606   0.14877  -0.09859  -0.16822  -0.33279
  63   38206.7    261.7   0.079267522   0.68302  -0.31436   0.72907   0.22946
  64   38269.0    261.3   0.053477427   0.46004   0.41830  -0.39618   0.35793
  65   38731.8    258.2   0.020182608   0.17155  -0.13599  -0.32676  -0.21514
  66   38858.1    257.3   0.025875111   0.21922  -0.00557  -0.41437   0.21792
  67   39078.1    255.9   0.148730318   1.25297  -0.79614   0.32099  -0.71840
  68   39253.9    254.8   0.028851627   0.24197  -0.11379  -0.46498   0.11319
  69   39349.9    254.1   0.008185868   0.06849   0.06892   0.21780   0.12766
  70   39768.6    251.5   0.046341222   0.38362   0.40152   0.00380   0.47158
  71   39850.0    250.9   0.016442835   0.13584  -0.21154   0.13304  -0.27091
  72   40168.8    248.9   0.033124936   0.27148  -0.25804   0.25038  -0.37711

FINAL SINGLE POINT ENERGY    -10565.470606910987

DIPOLE MOMENT
-------------
                                X             Y             Z
Electronic contribution:   -119.82230      37.88467     -23.78491
Nuclear contribution   :    122.55752     -39.32686      26.59507
                        -----------------------------------------
Total Dipole Moment    :      2.73521      -1.44219       2.81016
                        -----------------------------------------
Magnitude (a.u.)       :      4.17831
Magnitude (Debye)      :     10.62043

Rotational constants in cm-1:     0.000700     0.000278     0.000209
Rotational constants in MHz :    20.977639     8.329011     6.276858

                             ****ORCA TERMINATED NORMALLY****
TOTAL RUN TIME: 0 days 0 hours 12 minutes 52 seconds 483 msec
