                         Program Version 4.2.0 -  RELEASE  -
|  1> # ORCA input file
|  2> # SCF done       -195.826949202599          0.000780279044
|  3> ! CAM-B3LYP def2-SVP def2/J RIJCOSX Grid4 TightSCF
|  4> %maxcore 5000
|  5> %tddft
|  6>     Mode sTDDFT
|  7>     Ethresh 5.0
|  8>     maxcore 5000
|  9> end
| 10>
| 11> %pal
| 12>   nprocs 6
| 13>   end
| 14> * xyz 0 1
| 15>    C       -4.31155         1.16819        -7.88398
| 16>    C       -4.22529         2.49782        -7.55439
| 17>    C       -3.28409         3.39078        -8.10692
| 18>    N       -2.54130         4.16135        -8.52114
| 19>    C       -5.08027         3.14690        -6.64329
| 20>    N       -5.76365         3.72470        -5.92190
| 21>    C       -3.49146         0.47088        -8.87009
| 22>    C       -3.93588        -0.87421        -8.97431
| 23>    C       -3.36155        -1.78030        -9.83228
| 24>    C       -2.29712        -1.34180       -10.62723
| 25>    C       -1.85895         0.00008       -10.51628
| 26>    C       -2.44048         0.91710        -9.64809
| 27>    S       -0.53303         0.32920       -11.58748
| 28>    C       -0.58337        -1.31570       -12.16379
| 29>    C       -1.54446        -2.07475       -11.58366
| 30>   Br        0.63402        -1.87523       -13.47492
| 31>    C       -5.05339        -1.07851        -8.04489
| 32>    O       -5.68949        -2.10562        -7.84437
| 33>    C       -5.25544         0.20651        -7.36540
| 34>    C       -6.19456         0.36237        -6.37943
| 35>    N       -7.01071        -0.64784        -6.04329
| 36>    C       -8.02074        -0.61578        -5.12786
| 37>    S       -8.46295        -2.09474        -4.33371
| 38>    C       -9.61792        -1.21883        -3.38518
| 39>    N      -10.39151        -1.93224        -2.45470
| 40>    O      -11.18286        -1.30016        -1.78280
| 41>    O      -10.20513        -3.13286        -2.39434
| 42>    C       -9.65983         0.11823        -3.67028
| 43>    C       -8.75622         0.49110        -4.68707
| 44>    C       -8.66720         1.80763        -5.26024
| 45>    C       -9.05229         2.94132        -4.63889
| 46>    C       -8.96104         4.22274        -5.25469
| 47>    O       -8.58289         4.28987        -6.56477
| 48>    C       -8.59307         5.54653        -6.95746
| 49>    C       -8.98930         6.36737        -5.92689
| 50>    N       -9.14223         7.76483        -5.97803
| 51>    O       -8.83231         8.33281        -7.00211
| 52>    O       -9.58969         8.31319        -4.97910
| 53>    C       -9.22493         5.51576        -4.79243
| 54>    N       -9.63454         5.99254        -3.58874
| 55>    C       -9.64396         5.36548        -2.39132
| 56>    C      -10.23284         5.89157        -1.27787
| 57>    C      -10.25886         5.31864         0.02000
| 58>    C      -10.95213         6.05067         0.93219
| 59>    C      -11.51594         7.23949         0.41120
| 60>    S      -11.12498         7.41344        -1.28095
| 61>    C      -12.29548         8.16763         1.07771
| 62>    C      -12.71238         8.13835         2.42581
| 63>    C      -13.50131         9.19331         2.77761
| 64>    C      -13.74801        10.10645         1.72719
| 65>    S      -12.92874         9.58925         0.27503
| 66>    C      -14.50980        11.25653         1.80388
| 67>    C      -14.73553        12.10133         0.72346
| 68>    C      -15.44632        13.28215         0.69478
| 69>    C      -15.93773        13.78756        -0.60777
| 70>    O      -15.62123        13.39018        -1.70898
| 71>    C      -16.92792        14.83159        -0.27547
| 72>    C      -17.74004        15.54274        -1.10890
| 73>    C      -18.64991        16.47307        -0.55668
| 74>    C      -18.70007        16.64205         0.85692
| 75>    C      -19.61548        17.56259         1.40239
| 76>    C      -20.43116        18.27352         0.56679
| 77>    C      -20.39555        18.12348        -0.82549
| 78>    C      -19.51307        17.23290        -1.37147
| 79>    F      -21.30775        19.15431         1.08727
| 80>    C      -17.83803        15.89581         1.69594
| 81>    C      -16.96025        15.00812         1.13741
| 82>    C      -15.94791        14.13456         1.73601
| 83>    C      -15.45378        14.27397         3.01317
| 84>    C      -14.29382        13.64039         3.49868
| 85>    N      -13.33475        13.19247         3.94595
| 86>    C      -15.98840        15.15843         3.96956
| 87>    N      -16.38941        15.84269         4.80091
| 88>    H       -3.72219        -2.79521        -9.89052
| 89>    H       -2.06980         1.92733        -9.59905
| 90>    H       -1.71573        -3.10891       -11.82029
| 91>    H       -6.28698         1.28330        -5.82238
| 92>    H       -6.78937        -1.53720        -6.52104
| 93>    H      -10.34787         0.78611        -3.18557
| 94>    H       -8.27462         1.88147        -6.26350
| 95>    H       -9.44125         2.90674        -3.63495
| 96>    H       -8.31942         5.78307        -7.96714
| 97>    H       -9.90683         6.98023        -3.61258
| 98>    H       -9.13509         4.41665        -2.32158
| 99>    H       -9.76724         4.38626         0.23291
|100>    H      -11.07820         5.76972         1.96169
|101>    H      -12.42729         7.34726         3.09557
|102>    H      -13.91044         9.34910         3.75967
|103>    H      -14.96495        11.46798         2.76013
|104>    H      -14.38936        11.76359        -0.24977
|105>    H      -17.69148        15.39723        -2.17769
|106>    H      -19.66826        17.70669         2.47028
|107>    H      -21.06308        18.71186        -1.43488
|108>    H      -19.46662        17.09911        -2.44187
|109>    H      -17.90365        16.04239         2.76227
|110> *
|111>
|112>                          ****END OF INPUT****

CARTESIAN COORDINATES (ANGSTROEM)
---------------------------------
  C     -4.311550    1.168190   -7.883980
  C     -4.225290    2.497820   -7.554390
  C     -3.284090    3.390780   -8.106920
  N     -2.541300    4.161350   -8.521140
  C     -5.080270    3.146900   -6.643290
  N     -5.763650    3.724700   -5.921900
  C     -3.491460    0.470880   -8.870090
  C     -3.935880   -0.874210   -8.974310
  C     -3.361550   -1.780300   -9.832280
  C     -2.297120   -1.341800  -10.627230
  C     -1.858950    0.000080  -10.516280
  C     -2.440480    0.917100   -9.648090
  S     -0.533030    0.329200  -11.587480
  C     -0.583370   -1.315700  -12.163790
  C     -1.544460   -2.074750  -11.583660
  Br     0.634020   -1.875230  -13.474920
  C     -5.053390   -1.078510   -8.044890
  O     -5.689490   -2.105620   -7.844370
  C     -5.255440    0.206510   -7.365400
  C     -6.194560    0.362370   -6.379430
  N     -7.010710   -0.647840   -6.043290
  C     -8.020740   -0.615780   -5.127860
  S     -8.462950   -2.094740   -4.333710
  C     -9.617920   -1.218830   -3.385180
  N    -10.391510   -1.932240   -2.454700
  O    -11.182860   -1.300160   -1.782800
  O    -10.205130   -3.132860   -2.394340
  C     -9.659830    0.118230   -3.670280
  C     -8.756220    0.491100   -4.687070
  C     -8.667200    1.807630   -5.260240
  C     -9.052290    2.941320   -4.638890
  C     -8.961040    4.222740   -5.254690
  O     -8.582890    4.289870   -6.564770
  C     -8.593070    5.546530   -6.957460
  C     -8.989300    6.367370   -5.926890
  N     -9.142230    7.764830   -5.978030
  O     -8.832310    8.332810   -7.002110
  O     -9.589690    8.313190   -4.979100
  C     -9.224930    5.515760   -4.792430
  N     -9.634540    5.992540   -3.588740
  C     -9.643960    5.365480   -2.391320
  C    -10.232840    5.891570   -1.277870
  C    -10.258860    5.318640    0.020000
  C    -10.952130    6.050670    0.932190
  C    -11.515940    7.239490    0.411200
  S    -11.124980    7.413440   -1.280950
  C    -12.295480    8.167630    1.077710
  C    -12.712380    8.138350    2.425810
  C    -13.501310    9.193310    2.777610
  C    -13.748010   10.106450    1.727190
  S    -12.928740    9.589250    0.275030
  C    -14.509800   11.256530    1.803880
  C    -14.735530   12.101330    0.723460
  C    -15.446320   13.282150    0.694780
  C    -15.937730   13.787560   -0.607770
  O    -15.621230   13.390180   -1.708980
  C    -16.927920   14.831590   -0.275470
  C    -17.740040   15.542740   -1.108900
  C    -18.649910   16.473070   -0.556680
  C    -18.700070   16.642050    0.856920
  C    -19.615480   17.562590    1.402390
  C    -20.431160   18.273520    0.566790
  C    -20.395550   18.123480   -0.825490
  C    -19.513070   17.232900   -1.371470
  F    -21.307750   19.154310    1.087270
  C    -17.838030   15.895810    1.695940
  C    -16.960250   15.008120    1.137410
  C    -15.947910   14.134560    1.736010
  C    -15.453780   14.273970    3.013170
  C    -14.293820   13.640390    3.498680
  N    -13.334750   13.192470    3.945950
  C    -15.988400   15.158430    3.969560
  N    -16.389410   15.842690    4.800910
  H     -3.722190   -2.795210   -9.890520
  H     -2.069800    1.927330   -9.599050
  H     -1.715730   -3.108910  -11.820290
  H     -6.286980    1.283300   -5.822380
  H     -6.789370   -1.537200   -6.521040
  H    -10.347870    0.786110   -3.185570
  H     -8.274620    1.881470   -6.263500
  H     -9.441250    2.906740   -3.634950
  H     -8.319420    5.783070   -7.967140
  H     -9.906830    6.980230   -3.612580
  H     -9.135090    4.416650   -2.321580
  H     -9.767240    4.386260    0.232910
  H    -11.078200    5.769720    1.961690
  H    -12.427290    7.347260    3.095570
  H    -13.910440    9.349100    3.759670
  H    -14.964950   11.467980    2.760130
  H    -14.389360   11.763590   -0.249770
  H    -17.691480   15.397230   -2.177690
  H    -19.668260   17.706690    2.470280
  H    -21.063080   18.711860   -1.434880
  H    -19.466620   17.099110   -2.441870
  H    -17.903650   16.042390    2.762270

 Total Charge           Charge          ....    0
 Multiplicity           Mult            ....    1
 Number of Electrons    NEL             ....  554
 Basis Dimension        Dim             .... 1166

ORBITAL ENERGIES
----------------

  NO   OCC          E(Eh)            E(eV)
   0   2.0000    -482.897024    -13140.2961
   1   2.0000     -89.005552     -2421.9642
   2   2.0000     -88.989821     -2421.5361
   3   2.0000     -88.967151     -2420.9193
   4   2.0000     -88.955162     -2420.5930
   5   2.0000     -62.574742     -1702.7453
   6   2.0000     -56.408711     -1534.9591
   7   2.0000     -56.405959     -1534.8842
   8   2.0000     -56.405935     -1534.8835
   9   2.0000     -24.770963      -674.0522
  10   2.0000     -19.336434      -526.1711
  11   2.0000     -19.266872      -524.2782
  12   2.0000     -19.265093      -524.2298
  13   2.0000     -19.256296      -523.9905
  14   2.0000     -19.255544      -523.9700
  15   2.0000     -19.245777      -523.7042
  16   2.0000     -19.188255      -522.1390
  17   2.0000     -14.676464      -399.3669
  18   2.0000     -14.667639      -399.1268
  19   2.0000     -14.510957      -394.8632
  20   2.0000     -14.489613      -394.2824
  21   2.0000     -14.439486      -392.9184
  22   2.0000     -14.429112      -392.6361
  23   2.0000     -14.393007      -391.6536
  24   2.0000     -14.391239      -391.6055
  25   2.0000     -10.392803      -282.8026
  26   2.0000     -10.387309      -282.6531
  27   2.0000     -10.384027      -282.5637
  28   2.0000     -10.383527      -282.5501
  29   2.0000     -10.372317      -282.2451
  30   2.0000     -10.365846      -282.0690
  31   2.0000     -10.365069      -282.0479
  32   2.0000     -10.363674      -282.0099
  33   2.0000     -10.362412      -281.9756
  34   2.0000     -10.357274      -281.8358
  35   2.0000     -10.357217      -281.8342
  36   2.0000     -10.353015      -281.7199
  37   2.0000     -10.349968      -281.6369
  38   2.0000     -10.342705      -281.4393
  39   2.0000     -10.340872      -281.3894
  40   2.0000     -10.339541      -281.3532
  41   2.0000     -10.336790      -281.2784
  42   2.0000     -10.332365      -281.1580
  43   2.0000     -10.328529      -281.0536
  44   2.0000     -10.325934      -280.9830
  45   2.0000     -10.325495      -280.9710
  46   2.0000     -10.323358      -280.9129
  47   2.0000     -10.322947      -280.9017
  48   2.0000     -10.322353      -280.8855
  49   2.0000     -10.322230      -280.8822
  50   2.0000     -10.318876      -280.7909
  51   2.0000     -10.318386      -280.7776
  52   2.0000     -10.317251      -280.7467
  53   2.0000     -10.316495      -280.7261
  54   2.0000     -10.315812      -280.7075
  55   2.0000     -10.312222      -280.6098
  56   2.0000     -10.311356      -280.5863
  57   2.0000     -10.310903      -280.5739
  58   2.0000     -10.310845      -280.5724
  59   2.0000     -10.310104      -280.5522
  60   2.0000     -10.300485      -280.2904
  61   2.0000     -10.300338      -280.2864
  62   2.0000     -10.297072      -280.1976
  63   2.0000     -10.294982      -280.1407
  64   2.0000     -10.291789      -280.0538
  65   2.0000     -10.287691      -279.9423
  66   2.0000     -10.285722      -279.8887
  67   2.0000     -10.285197      -279.8744
  68   2.0000     -10.282759      -279.8081
  69   2.0000     -10.281507      -279.7740
  70   2.0000     -10.279666      -279.7239
  71   2.0000     -10.278528      -279.6930
  72   2.0000     -10.277634      -279.6686
  73   2.0000     -10.272770      -279.5363
  74   2.0000     -10.272380      -279.5257
  75   2.0000     -10.268665      -279.4246
  76   2.0000     -10.267463      -279.3919
  77   2.0000      -8.804183      -239.5740
  78   2.0000      -8.101271      -220.4468
  79   2.0000      -8.085811      -220.0261
  80   2.0000      -8.063429      -219.4171
  81   2.0000      -8.051427      -219.0905
  82   2.0000      -6.640574      -180.6992
  83   2.0000      -6.625895      -180.2998
  84   2.0000      -6.625641      -180.2929
  85   2.0000      -6.070847      -165.1962
  86   2.0000      -6.066496      -165.0778
  87   2.0000      -6.062783      -164.9767
  88   2.0000      -6.055479      -164.7780
  89   2.0000      -6.051180      -164.6610
  90   2.0000      -6.047077      -164.5493
  91   2.0000      -6.033208      -164.1719
  92   2.0000      -6.029162      -164.0618
  93   2.0000      -6.024233      -163.9277
  94   2.0000      -6.021019      -163.8402
  95   2.0000      -6.017040      -163.7320
  96   2.0000      -6.012543      -163.6096
  97   2.0000      -2.756379       -75.0049
  98   2.0000      -2.752304       -74.8940
  99   2.0000      -2.752185       -74.8908
 100   2.0000      -2.740485       -74.5724
 101   2.0000      -2.740452       -74.5715
 102   2.0000      -1.345454       -36.6117
 103   2.0000      -1.338023       -36.4094
 104   2.0000      -1.285276       -34.9741
 105   2.0000      -1.258513       -34.2459
 106   2.0000      -1.165496       -31.7148
 107   2.0000      -1.160951       -31.5911
 108   2.0000      -1.157463       -31.4962
 109   2.0000      -1.116168       -30.3725
 110   2.0000      -1.102941       -30.0125
 111   2.0000      -1.094607       -29.7858
 112   2.0000      -1.040331       -28.3088
 113   2.0000      -1.031031       -28.0558
 114   2.0000      -1.027323       -27.9549
 115   2.0000      -1.013263       -27.5723
 116   2.0000      -1.010233       -27.4898
 117   2.0000      -1.006129       -27.3782
 118   2.0000      -0.995726       -27.0951
 119   2.0000      -0.986692       -26.8492
 120   2.0000      -0.979934       -26.6654
 121   2.0000      -0.971057       -26.4238
 122   2.0000      -0.967357       -26.3231
 123   2.0000      -0.957882       -26.0653
 124   2.0000      -0.955727       -26.0067
 125   2.0000      -0.948551       -25.8114
 126   2.0000      -0.926561       -25.2130
 127   2.0000      -0.923425       -25.1277
 128   2.0000      -0.913549       -24.8589
 129   2.0000      -0.908755       -24.7285
 130   2.0000      -0.901960       -24.5436
 131   2.0000      -0.900450       -24.5025
 132   2.0000      -0.893520       -24.3139
 133   2.0000      -0.884033       -24.0558
 134   2.0000      -0.872939       -23.7539
 135   2.0000      -0.866928       -23.5903
 136   2.0000      -0.863030       -23.4842
 137   2.0000      -0.860382       -23.4122
 138   2.0000      -0.852010       -23.1844
 139   2.0000      -0.845136       -22.9973
 140   2.0000      -0.837481       -22.7890
 141   2.0000      -0.833784       -22.6884
 142   2.0000      -0.830222       -22.5915
 143   2.0000      -0.816088       -22.2069
 144   2.0000      -0.806971       -21.9588
 145   2.0000      -0.803014       -21.8511
 146   2.0000      -0.790602       -21.5134
 147   2.0000      -0.778983       -21.1972
 148   2.0000      -0.776206       -21.1216
 149   2.0000      -0.750813       -20.4307
 150   2.0000      -0.744241       -20.2518
 151   2.0000      -0.737192       -20.0600
 152   2.0000      -0.735706       -20.0196
 153   2.0000      -0.730832       -19.8870
 154   2.0000      -0.716649       -19.5010
 155   2.0000      -0.709171       -19.2975
 156   2.0000      -0.707469       -19.2512
 157   2.0000      -0.696940       -18.9647
 158   2.0000      -0.691016       -18.8035
 159   2.0000      -0.690345       -18.7852
 160   2.0000      -0.684995       -18.6397
 161   2.0000      -0.677670       -18.4403
 162   2.0000      -0.670503       -18.2453
 163   2.0000      -0.667705       -18.1692
 164   2.0000      -0.661758       -18.0073
 165   2.0000      -0.657989       -17.9048
 166   2.0000      -0.657165       -17.8824
 167   2.0000      -0.655780       -17.8447
 168   2.0000      -0.651049       -17.7159
 169   2.0000      -0.649116       -17.6633
 170   2.0000      -0.648748       -17.6533
 171   2.0000      -0.639142       -17.3919
 172   2.0000      -0.638477       -17.3738
 173   2.0000      -0.633622       -17.2417
 174   2.0000      -0.627670       -17.0798
 175   2.0000      -0.620860       -16.8945
 176   2.0000      -0.615780       -16.7562
 177   2.0000      -0.614216       -16.7137
 178   2.0000      -0.612806       -16.6753
 179   2.0000      -0.611903       -16.6507
 180   2.0000      -0.608454       -16.5569
 181   2.0000      -0.601713       -16.3734
 182   2.0000      -0.597966       -16.2715
 183   2.0000      -0.596028       -16.2187
 184   2.0000      -0.592224       -16.1152
 185   2.0000      -0.591135       -16.0856
 186   2.0000      -0.577940       -15.7266
 187   2.0000      -0.574170       -15.6239
 188   2.0000      -0.572509       -15.5788
 189   2.0000      -0.569616       -15.5000
 190   2.0000      -0.565409       -15.3856
 191   2.0000      -0.561667       -15.2837
 192   2.0000      -0.561198       -15.2710
 193   2.0000      -0.558492       -15.1974
 194   2.0000      -0.553074       -15.0499
 195   2.0000      -0.550353       -14.9759
 196   2.0000      -0.544191       -14.8082
 197   2.0000      -0.543186       -14.7808
 198   2.0000      -0.542532       -14.7631
 199   2.0000      -0.537518       -14.6266
 200   2.0000      -0.537033       -14.6134
 201   2.0000      -0.533969       -14.5300
 202   2.0000      -0.530776       -14.4431
 203   2.0000      -0.525318       -14.2946
 204   2.0000      -0.523902       -14.2561
 205   2.0000      -0.520570       -14.1654
 206   2.0000      -0.516096       -14.0437
 207   2.0000      -0.514620       -14.0035
 208   2.0000      -0.512340       -13.9415
 209   2.0000      -0.511623       -13.9220
 210   2.0000      -0.510676       -13.8962
 211   2.0000      -0.506271       -13.7763
 212   2.0000      -0.505110       -13.7447
 213   2.0000      -0.503100       -13.6901
 214   2.0000      -0.497282       -13.5317
 215   2.0000      -0.495233       -13.4760
 216   2.0000      -0.492063       -13.3897
 217   2.0000      -0.490008       -13.3338
 218   2.0000      -0.487227       -13.2581
 219   2.0000      -0.481123       -13.0920
 220   2.0000      -0.478623       -13.0240
 221   2.0000      -0.475758       -12.9460
 222   2.0000      -0.474312       -12.9067
 223   2.0000      -0.472877       -12.8676
 224   2.0000      -0.471751       -12.8370
 225   2.0000      -0.471241       -12.8231
 226   2.0000      -0.468499       -12.7485
 227   2.0000      -0.464535       -12.6406
 228   2.0000      -0.464209       -12.6318
 229   2.0000      -0.460428       -12.5289
 230   2.0000      -0.459918       -12.5150
 231   2.0000      -0.454845       -12.3770
 232   2.0000      -0.450824       -12.2676
 233   2.0000      -0.448650       -12.2084
 234   2.0000      -0.446109       -12.1393
 235   2.0000      -0.445642       -12.1265
 236   2.0000      -0.439555       -11.9609
 237   2.0000      -0.436470       -11.8769
 238   2.0000      -0.431234       -11.7345
 239   2.0000      -0.428755       -11.6670
 240   2.0000      -0.427915       -11.6442
 241   2.0000      -0.427178       -11.6241
 242   2.0000      -0.422985       -11.5100
 243   2.0000      -0.421454       -11.4683
 244   2.0000      -0.416291       -11.3278
 245   2.0000      -0.411658       -11.2018
 246   2.0000      -0.410494       -11.1701
 247   2.0000      -0.407796       -11.0967
 248   2.0000      -0.404509       -11.0072
 249   2.0000      -0.403428       -10.9778
 250   2.0000      -0.403121       -10.9695
 251   2.0000      -0.402677       -10.9574
 252   2.0000      -0.398593       -10.8463
 253   2.0000      -0.396072       -10.7777
 254   2.0000      -0.395581       -10.7643
 255   2.0000      -0.393137       -10.6978
 256   2.0000      -0.386551       -10.5186
 257   2.0000      -0.386282       -10.5113
 258   2.0000      -0.384090       -10.4516
 259   2.0000      -0.383333       -10.4310
 260   2.0000      -0.374509       -10.1909
 261   2.0000      -0.369759       -10.0617
 262   2.0000      -0.367279        -9.9942
 263   2.0000      -0.361552        -9.8383
 264   2.0000      -0.356663        -9.7053
 265   2.0000      -0.352774        -9.5995
 266   2.0000      -0.342295        -9.3143
 267   2.0000      -0.333174        -9.0661
 268   2.0000      -0.332619        -9.0510
 269   2.0000      -0.316752        -8.6193
 270   2.0000      -0.313010        -8.5174
 271   2.0000      -0.308529        -8.3955
 272   2.0000      -0.299498        -8.1498
 273   2.0000      -0.292094        -7.9483
 274   2.0000      -0.280916        -7.6441
 275   2.0000      -0.272035        -7.4024
 276   2.0000      -0.221570        -6.0292
 277   0.0000      -0.103492        -2.8162
 278   0.0000      -0.098348        -2.6762
 279   0.0000      -0.082128        -2.2348
 280   0.0000      -0.065082        -1.7710
 281   0.0000      -0.061175        -1.6647

MULLIKEN ATOMIC CHARGES
-----------------------
   0 C :    0.333678
   1 C :   -0.350011
   2 C :   -0.189790
   3 N :    0.154704
   4 C :   -0.193315
   5 N :    0.134158
   6 C :    0.009238
   7 C :   -0.015642
   8 C :   -0.062432
   9 C :    0.116929
  10 C :   -0.094315
  11 C :   -0.016641
  12 S :    0.195733
  13 C :   -0.123446
  14 C :    0.038363
  15 Br:    0.033446
  16 C :    0.175302
  17 O :   -0.210211
  18 C :   -0.143184
  19 C :    0.018140
  20 N :   -0.003400
  21 C :   -0.119067
  22 S :    0.206861
  23 C :   -0.002134
  24 N :    0.277456
  25 O :   -0.242334
  26 O :   -0.253296
  27 C :   -0.010916
  28 C :    0.121096
  29 C :   -0.042972
  30 C :   -0.043005
  31 C :    0.037256
  32 O :   -0.161686
  33 C :    0.103936
  34 C :    0.110684
  35 N :    0.289520
  36 O :   -0.224280
  37 O :   -0.263864
  38 C :    0.069907
  39 N :   -0.003604
  40 C :    0.046199
  41 C :   -0.060321
  42 C :    0.053378
  43 C :    0.019074
  44 C :   -0.029387
  45 S :    0.094546
  46 C :   -0.066655
  47 C :    0.040296
  48 C :    0.034701
  49 C :   -0.014410
  50 S :    0.107660
  51 C :   -0.006003
  52 C :    0.022085
  53 C :   -0.133954
  54 C :    0.135136
  55 O :   -0.157508
  56 C :    0.004647
  57 C :   -0.086852
  58 C :    0.101467
  59 C :    0.101411
  60 C :   -0.099803
  61 C :    0.299618
  62 C :   -0.033256
  63 C :   -0.013385
  64 F :   -0.195966
  65 C :   -0.091970
  66 C :    0.042725
  67 C :    0.295692
  68 C :   -0.353283
  69 C :   -0.220759
  70 N :    0.156412
  71 C :   -0.178689
  72 N :    0.130516
  73 H :   -0.006777
  74 H :   -0.003938
  75 H :    0.000090
  76 H :    0.056746
  77 H :    0.169965
  78 H :    0.014201
  79 H :    0.014415
  80 H :   -0.012883
  81 H :    0.033886
  82 H :    0.156308
  83 H :    0.019828
  84 H :   -0.004499
  85 H :   -0.005969
  86 H :   -0.006301
  87 H :    0.000111
  88 H :    0.005881
  89 H :    0.013590
  90 H :   -0.017348
  91 H :   -0.004495
  92 H :   -0.001804
  93 H :   -0.012743
  94 H :   -0.008490
Sum of atomic charges:   -0.0000000

LOEWDIN ATOMIC CHARGES
----------------------
   0 C :    0.083166
   1 C :   -0.154469
   2 C :   -0.022353
   3 N :   -0.051181
   4 C :   -0.013756
   5 N :   -0.067776
   6 C :   -0.020632
   7 C :   -0.052139
   8 C :    0.026077
   9 C :   -0.031903
  10 C :   -0.143918
  11 C :   -0.005444
  12 S :    0.441014
  13 C :   -0.269414
  14 C :   -0.069533
  15 Br:    0.144223
  16 C :    0.094890
  17 O :   -0.170790
  18 C :   -0.150017
  19 C :    0.117078
  20 N :    0.071069
  21 C :   -0.119784
  22 S :    0.477312
  23 C :   -0.198985
  24 N :    0.273272
  25 O :   -0.208960
  26 O :   -0.218473
  27 C :   -0.002650
  28 C :   -0.083654
  29 C :   -0.033898
  30 C :   -0.031902
  31 C :   -0.002525
  32 O :    0.057238
  33 C :    0.104952
  34 C :   -0.097842
  35 N :    0.295056
  36 O :   -0.186686
  37 O :   -0.212835
  38 C :    0.002185
  39 N :    0.055718
  40 C :    0.024099
  41 C :   -0.198919
  42 C :   -0.008578
  43 C :   -0.048584
  44 C :   -0.141407
  45 S :    0.381730
  46 C :   -0.202456
  47 C :   -0.006463
  48 C :   -0.041369
  49 C :   -0.098040
  50 S :    0.401892
  51 C :   -0.074725
  52 C :    0.052386
  53 C :   -0.111738
  54 C :    0.075957
  55 O :   -0.161182
  56 C :   -0.055618
  57 C :    0.026602
  58 C :   -0.020732
  59 C :    0.001608
  60 C :   -0.043803
  61 C :    0.089358
  62 C :   -0.042804
  63 C :    0.001650
  64 F :   -0.070146
  65 C :    0.004740
  66 C :   -0.013705
  67 C :    0.068100
  68 C :   -0.156472
  69 C :   -0.024090
  70 N :   -0.066124
  71 C :   -0.019125
  72 N :   -0.069618
  73 H :    0.042791
  74 H :    0.042477
  75 H :    0.040158
  76 H :    0.044329
  77 H :    0.086115
  78 H :    0.044685
  79 H :    0.031807
  80 H :    0.031450
  81 H :    0.042567
  82 H :    0.077512
  83 H :    0.034692
  84 H :    0.036541
  85 H :    0.035197
  86 H :    0.034927
  87 H :    0.039562
  88 H :    0.037345
  89 H :    0.033780
  90 H :    0.037070
  91 H :    0.041923
  92 H :    0.039328
  93 H :    0.033856
  94 H :    0.037729

  Mayer bond orders larger than 0.100000
B(  0-C ,  1-C ) :   1.6160 B(  0-C ,  6-C ) :   1.0074 B(  0-C , 18-C ) :   1.1067
B(  1-C ,  2-C ) :   1.1413 B(  1-C ,  4-C ) :   1.1544 B(  2-C ,  3-N ) :   2.9727
B(  4-C ,  5-N ) :   2.9427 B(  6-C ,  7-C ) :   1.2681 B(  6-C , 11-C ) :   1.4216
B(  7-C ,  8-C ) :   1.4265 B(  7-C , 16-C ) :   0.9780 B(  8-C ,  9-C ) :   1.2420
B(  8-C , 73-H ) :   1.0173 B(  9-C , 10-C ) :   1.3035 B(  9-C , 14-C ) :   1.1667
B( 10-C , 11-C ) :   1.3236 B( 10-C , 12-S ) :   1.0924 B( 11-C , 74-H ) :   0.9800
B( 12-S , 13-C ) :   1.0890 B( 13-C , 14-C ) :   1.6151 B( 13-C , 15-Br) :   1.0237
B( 14-C , 75-H ) :   0.9999 B( 16-C , 17-O ) :   2.0620 B( 16-C , 18-C ) :   0.9904
B( 17-O , 77-H ) :   0.1406 B( 18-C , 19-C ) :   1.4575 B( 19-C , 20-N ) :   1.3467
B( 19-C , 76-H ) :   0.9288 B( 20-N , 21-C ) :   1.1449 B( 20-N , 77-H ) :   0.8333
B( 21-C , 22-S ) :   1.1427 B( 21-C , 28-C ) :   1.3959 B( 22-S , 23-C ) :   1.0999
B( 23-C , 24-N ) :   0.9566 B( 23-C , 27-C ) :   1.4971 B( 24-N , 25-O ) :   1.5405
B( 24-N , 26-O ) :   1.5198 B( 25-O , 26-O ) :   0.2657 B( 27-C , 28-C ) :   1.2256
B( 27-C , 78-H ) :   1.0004 B( 28-C , 29-C ) :   1.0403 B( 29-C , 30-C ) :   1.6992
B( 29-C , 79-H ) :   0.9754 B( 30-C , 31-C ) :   1.1584 B( 30-C , 80-H ) :   0.9592
B( 31-C , 32-O ) :   1.0851 B( 31-C , 38-C ) :   1.3702 B( 32-O , 33-C ) :   1.2258
B( 33-C , 34-C ) :   1.4354 B( 33-C , 81-H ) :   1.0133 B( 34-C , 35-N ) :   0.9491
B( 34-C , 38-C ) :   1.2383 B( 35-N , 36-O ) :   1.5626 B( 35-N , 37-O ) :   1.4637
B( 36-O , 37-O ) :   0.2604 B( 37-O , 82-H ) :   0.1077 B( 38-C , 39-N ) :   1.2257
B( 39-N , 40-C ) :   1.1956 B( 39-N , 82-H ) :   0.8511 B( 40-C , 41-C ) :   1.5707
B( 40-C , 83-H ) :   0.9555 B( 41-C , 42-C ) :   1.1589 B( 41-C , 45-S ) :   1.0112
B( 42-C , 43-C ) :   1.5974 B( 42-C , 84-H ) :   0.9943 B( 43-C , 44-C ) :   1.1961
B( 43-C , 85-H ) :   0.9939 B( 44-C , 45-S ) :   1.0822 B( 44-C , 46-C ) :   1.4750
B( 46-C , 47-C ) :   1.2196 B( 46-C , 50-S ) :   1.0368 B( 47-C , 48-C ) :   1.5430
B( 47-C , 86-H ) :   0.9935 B( 48-C , 49-C ) :   1.1855 B( 48-C , 87-H ) :   1.0006
B( 49-C , 50-S ) :   1.0911 B( 49-C , 51-C ) :   1.4856 B( 51-C , 52-C ) :   1.2373
B( 51-C , 88-H ) :   0.9620 B( 52-C , 53-C ) :   1.5098 B( 52-C , 89-H ) :   0.9382
B( 53-C , 54-C ) :   0.9672 B( 53-C , 67-C ) :   1.0959 B( 54-C , 55-O ) :   2.2464
B( 54-C , 56-C ) :   0.9180 B( 56-C , 57-C ) :   1.4841 B( 56-C , 66-C ) :   1.2185
B( 57-C , 58-C ) :   1.1825 B( 57-C , 90-H ) :   1.0142 B( 58-C , 59-C ) :   1.2613
B( 58-C , 63-C ) :   1.2388 B( 59-C , 60-C ) :   1.2065 B( 59-C , 65-C ) :   1.1968
B( 60-C , 61-C ) :   1.4396 B( 60-C , 91-H ) :   1.0057 B( 61-C , 62-C ) :   1.2598
B( 61-C , 64-F ) :   1.0834 B( 62-C , 63-C ) :   1.4569 B( 62-C , 92-H ) :   0.9924
B( 63-C , 93-H ) :   0.9957 B( 65-C , 66-C ) :   1.4723 B( 65-C , 94-H ) :   0.9912
B( 66-C , 67-C ) :   0.9875 B( 67-C , 68-C ) :   1.5882 B( 68-C , 69-C ) :   1.1696
B( 68-C , 71-C ) :   1.1386 B( 69-C , 70-N ) :   3.0099 B( 71-C , 72-N ) :   2.9691

-----------------------------------------------------------------------------
         ABSORPTION SPECTRUM VIA TRANSITION ELECTRIC DIPOLE MOMENTS
-----------------------------------------------------------------------------
State   Energy  Wavelength   fosc         T2         TX        TY        TZ
        (cm-1)    (nm)                  (au**2)     (au)      (au)      (au)
-----------------------------------------------------------------------------
   0   12580.2    794.9   1.837908714  48.09619  -3.72660   5.16693   2.74070
   1   16184.6    617.9   0.023674315   0.48156   0.44174   0.19155  -0.49974
   2   19511.2    512.5   0.070421514   1.18822   0.18044  -0.93257   0.53478
   3   21193.8    471.8   0.011808397   0.18342  -0.23716   0.16482   0.31625
   4   22181.8    450.8   0.304548999   4.51997  -1.44453   0.40397   1.50668
   5   22295.7    448.5   0.131052441   1.93509  -0.98728  -0.64668   0.73632
   6   24082.3    415.2   0.023790675   0.32523   0.17153   0.34078   0.42388
   7   24304.4    411.4   0.034860196   0.47219   0.23715   0.20151   0.61266
   8   26054.2    383.8   0.016282061   0.20573  -0.44237   0.10021  -0.00195
   9   26648.9    375.2   0.083494847   1.03147   0.58851  -0.19457   0.80453
  10   26934.7    371.3   0.161534535   1.97437  -0.46782   0.17071   1.31392
  11   27054.2    369.6   0.026523225   0.32275   0.44406  -0.13164   0.32899
  12   27960.8    357.6   0.187549591   2.20822   1.17112   0.84386  -0.35298
  13   28395.9    352.2   0.023569778   0.27326   0.50581  -0.05132   0.12156
  14   28780.0    347.5   0.110906505   1.26865  -0.82804  -0.41517   0.64081
  15   29038.4    344.4   0.088477749   1.00308   0.07367  -0.20044   0.97851
  16   29136.9    343.2   0.551553670   6.23189  -1.59416   0.98269   1.65072
  17   30178.6    331.4   0.188482971   2.05612   0.13061  -1.35776   0.44220
  18   30750.1    325.2   0.097728306   1.04628   0.53719   0.52554  -0.69392
  19   31444.3    318.0   0.150500732   1.57569  -0.63037   0.95947   0.50768
  20   32040.4    312.1   0.010577650   0.10868   0.18731  -0.21991  -0.15887
  21   32455.6    308.1   0.027015550   0.27403   0.51062  -0.09789  -0.06099
  22   32811.5    304.8   0.226002907   2.26759   1.09258   0.09507  -1.03190
  23   32968.8    303.3   0.068649541   0.68550   0.34726   0.46720  -0.58876
  24   33217.0    301.1   0.457539489   4.53465  -0.90425   1.18269  -1.52257
  25   33677.0    296.9   0.191326941   1.87033   0.61320  -1.11991   0.49003
  26   33997.9    294.1   0.388166025   3.75873   0.24242  -1.71437  -0.87230
  27   34075.9    293.5   0.036772332   0.35526   0.41544  -0.06992  -0.42165
  28   34207.4    292.3   0.054992598   0.52925  -0.00979  -0.71330   0.14265
  29   34410.3    290.6   0.084222539   0.80578  -0.38550   0.68497  -0.43356
  30   34810.1    287.3   0.050456265   0.47718   0.62850   0.26391   0.11191
  31   35162.2    284.4   0.116883970   1.09434   0.20194  -0.82600  -0.60933
  32   35863.5    278.8   0.030743510   0.28221   0.10665   0.27820  -0.43982
  33   36039.1    277.5   0.084598166   0.77279   0.58352  -0.34501   0.55969
  34   36411.1    274.6   0.225789875   2.04148   0.73852  -1.17465   0.34096
  35   36905.3    271.0   0.066005410   0.58880   0.15302  -0.74373   0.11070
  36   37105.5    269.5   0.061142482   0.54248  -0.12029  -0.09409   0.72052
  37   37339.5    267.8   0.077462161   0.68296   0.25897  -0.54267   0.56693
  38   37452.6    267.0   0.049456331   0.43473  -0.05138  -0.62152   0.21400
  39   37780.5    264.7   0.025122219   0.21891   0.23822   0.15077   0.37341
  40   38233.6    261.6   0.109622228   0.94391   0.05859   0.73948  -0.62741
  41   38530.4    259.5   0.081430789   0.69576   0.75066   0.35756  -0.06655
  42   38673.1    258.6   0.014165826   0.12059  -0.10003  -0.09624   0.31831
  43   38928.0    256.9   0.157588713   1.33272  -0.83412   0.45617  -0.65488
  44   38976.1    256.6   0.254117500   2.14641   0.29227   0.63504  -1.28752
  45   39123.8    255.6   0.081871463   0.68892   0.52461   0.56918  -0.29955
  46   39319.3    254.3   0.093095048   0.77946  -0.42811  -0.57459  -0.51579
  47   39703.1    251.9   0.020705263   0.17168  -0.22064  -0.29438  -0.19065
  48   39881.4    250.7   0.007523933   0.06211  -0.15660  -0.19302   0.01813

FINAL SINGLE POINT ENERGY     -7221.369706159691

DIPOLE MOMENT
-------------
                                X             Y             Z
Electronic contribution:    122.57073     -89.52687    -114.42294
Nuclear contribution   :   -119.56349      83.08754     110.20779
                        -----------------------------------------
Total Dipole Moment    :      3.00724      -6.43933      -4.21514
                        -----------------------------------------
Magnitude (a.u.)       :      8.26292
Magnitude (Debye)      :     21.00269

Rotational constants in cm-1:     0.001529     0.000159     0.000149
Rotational constants in MHz :    45.839926     4.753994     4.471511

                             ****ORCA TERMINATED NORMALLY****
TOTAL RUN TIME: 0 days 0 hours 9 minutes 42 seconds 136 msec
