                         Program Version 4.2.0 -  RELEASE  -
|  1> # ORCA input file
|  2> # SCF done       -207.974654252700          0.000240307899
|  3> ! CAM-B3LYP def2-SVP def2/J RIJCOSX Grid4 TightSCF
|  4> %maxcore 5000
|  5> %tddft
|  6>     Mode sTDDFT
|  7>     Ethresh 5.0
|  8>     maxcore 5000
|  9> end
| 10>
| 11> %pal
| 12>   nprocs 6
| 13>   end
| 14> * xyz 0 1
| 15>    C       -5.14667        -0.07636        -0.80631
| 16>    C       -5.43435         0.24169         0.61318
| 17>    O       -5.74800        -0.50813         1.51135
| 18>    C       -5.25880         1.70324         0.73750
| 19>    C       -4.89199         2.24688        -0.50433
| 20>    C       -4.81274         1.16914        -1.48591
| 21>    C       -4.47666         1.33903        -2.80387
| 22>    C       -4.16148         2.58752        -3.38448
| 23>    N       -3.89343         3.56207        -3.92817
| 24>    C       -4.38463         0.33396        -3.79078
| 25>    N       -4.28254        -0.40793        -4.66205
| 26>    C       -4.67593         3.61484        -0.60750
| 27>    C       -4.82913         4.40381         0.52151
| 28>    C       -5.19312         3.84513         1.74294
| 29>    C       -5.41425         2.47855         1.86784
| 30>   Cl       -5.37125         4.86463         3.11800
| 31>    C       -5.16569        -1.29710        -1.42529
| 32>    C       -5.44640        -2.59255        -0.94880
| 33>    C       -5.81528        -3.09341         0.29604
| 34>    C       -5.96711        -4.47113         0.28145
| 35>    C       -5.71468        -5.04809        -0.98829
| 36>    S       -5.29859        -3.88565        -2.15326
| 37>    C       -5.87404        -6.44790        -0.89398
| 38>    C       -6.22649        -6.76375         0.43650
| 39>    C       -6.30538        -5.53553         1.21277
| 40>    C       -6.63340        -5.42343         2.53095
| 41>    C       -6.94290        -6.55329         3.31973
| 42>    N       -7.19582        -7.46462         3.96781
| 43>    C       -6.69867        -4.18883         3.21419
| 44>    N       -6.76645        -3.20740         3.80178
| 45>    C       -6.38742        -8.12599         0.63867
| 46>    C       -6.16396        -8.85621        -0.52450
| 47>    S       -5.75663        -7.83373        -1.88970
| 48>    C       -6.22342       -10.26891        -0.65999
| 49>    C       -5.99967       -10.90511        -1.90075
| 50>    C       -6.03144       -12.32936        -2.05359
| 51>    N       -5.81062       -12.86645        -3.26971
| 52>    C       -5.57234       -12.09459        -4.28012
| 53>    C       -5.53801       -10.68274        -4.12819
| 54>    N       -5.74609       -10.13274        -2.97599
| 55>    F       -5.29366        -9.88846        -5.16320
| 56>    F       -5.36336       -12.66176        -5.46209
| 57>    C       -6.28037       -13.20452        -0.97312
| 58>    C       -6.52058       -12.57478         0.27187
| 59>    C       -6.49473       -11.13731         0.42471
| 60>    N       -6.74580       -10.77858         1.68490
| 61>    S       -6.98879       -12.08457         2.57822
| 62>    N       -6.79075       -13.18143         1.42902
| 63>    C       -6.27233       -14.61471        -1.13903
| 64>    C       -6.46863       -15.56807        -0.14469
| 65>    C       -6.38029       -16.86023        -0.63940
| 66>    C       -6.11627       -16.89812        -2.02688
| 67>    S       -5.97539       -15.33820        -2.70968
| 68>    C       -6.03287       -18.25236        -2.42522
| 69>    C       -6.24412       -19.07047        -1.29295
| 70>    C       -6.45961       -18.22092        -0.13483
| 71>    C       -6.65331       -18.62633         1.15306
| 72>    C       -6.67002       -19.99538         1.49420
| 73>    N       -6.68222       -21.11288         1.75112
| 74>    C       -6.84373       -17.71288         2.21138
| 75>    N       -7.00677       -16.97401         3.07260
| 76>    C       -6.14727       -20.42433        -1.57729
| 77>    C       -5.85810       -20.66007        -2.91538
| 78>    S       -5.74374       -19.16244        -3.83300
| 79>    C       -5.70179       -21.89304        -3.58457
| 80>    C       -5.44075       -23.12373        -3.06256
| 81>    C       -5.73669       -24.32714        -3.89248
| 82>    O       -5.98542       -24.34405        -5.07410
| 83>    C       -5.71178       -25.46212        -2.94555
| 84>    C       -5.30236       -25.00605        -1.67865
| 85>    C       -4.98145       -23.58344        -1.76732
| 86>    C       -4.16627       -22.91078        -0.89530
| 87>    C       -3.64494       -23.47544         0.28877
| 88>    N       -3.19048       -23.88459         1.25924
| 89>    C       -3.66772       -21.61285        -1.12123
| 90>    N       -3.21429       -20.56939        -1.27514
| 91>    C       -5.24264       -25.89445        -0.61531
| 92>    C       -5.57715       -27.22136        -0.83618
| 93>    C       -5.96055       -27.66097        -2.09955
| 94>    C       -6.03755       -26.78296        -3.17538
| 95>   Cl       -6.35167       -29.32110        -2.33201
| 96>    H       -4.39335         4.07627        -1.53899
| 97>    H       -4.66433         5.46780         0.45587
| 98>    H       -5.69685         2.02971         2.80695
| 99>    H       -4.91408        -1.29235        -2.47920
|100>    H       -5.95434        -2.45788         1.15279
|101>    H       -6.64832        -8.60107         1.56611
|102>    H       -6.66072       -15.29476         0.87646
|103>    H       -6.31825       -21.21317        -0.86764
|104>    H       -5.87197       -21.88144        -4.65710
|105>    H       -4.95724       -25.57220         0.37296
|106>    H       -5.54023       -27.92599        -0.02033
|107>    H       -6.33886       -27.11436        -4.15641
|108> *
|109>
|110>                          ****END OF INPUT****

CARTESIAN COORDINATES (ANGSTROEM)
---------------------------------
  C     -5.146670   -0.076360   -0.806310
  C     -5.434350    0.241690    0.613180
  O     -5.748000   -0.508130    1.511350
  C     -5.258800    1.703240    0.737500
  C     -4.891990    2.246880   -0.504330
  C     -4.812740    1.169140   -1.485910
  C     -4.476660    1.339030   -2.803870
  C     -4.161480    2.587520   -3.384480
  N     -3.893430    3.562070   -3.928170
  C     -4.384630    0.333960   -3.790780
  N     -4.282540   -0.407930   -4.662050
  C     -4.675930    3.614840   -0.607500
  C     -4.829130    4.403810    0.521510
  C     -5.193120    3.845130    1.742940
  C     -5.414250    2.478550    1.867840
  Cl    -5.371250    4.864630    3.118000
  C     -5.165690   -1.297100   -1.425290
  C     -5.446400   -2.592550   -0.948800
  C     -5.815280   -3.093410    0.296040
  C     -5.967110   -4.471130    0.281450
  C     -5.714680   -5.048090   -0.988290
  S     -5.298590   -3.885650   -2.153260
  C     -5.874040   -6.447900   -0.893980
  C     -6.226490   -6.763750    0.436500
  C     -6.305380   -5.535530    1.212770
  C     -6.633400   -5.423430    2.530950
  C     -6.942900   -6.553290    3.319730
  N     -7.195820   -7.464620    3.967810
  C     -6.698670   -4.188830    3.214190
  N     -6.766450   -3.207400    3.801780
  C     -6.387420   -8.125990    0.638670
  C     -6.163960   -8.856210   -0.524500
  S     -5.756630   -7.833730   -1.889700
  C     -6.223420  -10.268910   -0.659990
  C     -5.999670  -10.905110   -1.900750
  C     -6.031440  -12.329360   -2.053590
  N     -5.810620  -12.866450   -3.269710
  C     -5.572340  -12.094590   -4.280120
  C     -5.538010  -10.682740   -4.128190
  N     -5.746090  -10.132740   -2.975990
  F     -5.293660   -9.888460   -5.163200
  F     -5.363360  -12.661760   -5.462090
  C     -6.280370  -13.204520   -0.973120
  C     -6.520580  -12.574780    0.271870
  C     -6.494730  -11.137310    0.424710
  N     -6.745800  -10.778580    1.684900
  S     -6.988790  -12.084570    2.578220
  N     -6.790750  -13.181430    1.429020
  C     -6.272330  -14.614710   -1.139030
  C     -6.468630  -15.568070   -0.144690
  C     -6.380290  -16.860230   -0.639400
  C     -6.116270  -16.898120   -2.026880
  S     -5.975390  -15.338200   -2.709680
  C     -6.032870  -18.252360   -2.425220
  C     -6.244120  -19.070470   -1.292950
  C     -6.459610  -18.220920   -0.134830
  C     -6.653310  -18.626330    1.153060
  C     -6.670020  -19.995380    1.494200
  N     -6.682220  -21.112880    1.751120
  C     -6.843730  -17.712880    2.211380
  N     -7.006770  -16.974010    3.072600
  C     -6.147270  -20.424330   -1.577290
  C     -5.858100  -20.660070   -2.915380
  S     -5.743740  -19.162440   -3.833000
  C     -5.701790  -21.893040   -3.584570
  C     -5.440750  -23.123730   -3.062560
  C     -5.736690  -24.327140   -3.892480
  O     -5.985420  -24.344050   -5.074100
  C     -5.711780  -25.462120   -2.945550
  C     -5.302360  -25.006050   -1.678650
  C     -4.981450  -23.583440   -1.767320
  C     -4.166270  -22.910780   -0.895300
  C     -3.644940  -23.475440    0.288770
  N     -3.190480  -23.884590    1.259240
  C     -3.667720  -21.612850   -1.121230
  N     -3.214290  -20.569390   -1.275140
  C     -5.242640  -25.894450   -0.615310
  C     -5.577150  -27.221360   -0.836180
  C     -5.960550  -27.660970   -2.099550
  C     -6.037550  -26.782960   -3.175380
  Cl    -6.351670  -29.321100   -2.332010
  H     -4.393350    4.076270   -1.538990
  H     -4.664330    5.467800    0.455870
  H     -5.696850    2.029710    2.806950
  H     -4.914080   -1.292350   -2.479200
  H     -5.954340   -2.457880    1.152790
  H     -6.648320   -8.601070    1.566110
  H     -6.660720  -15.294760    0.876460
  H     -6.318250  -21.213170   -0.867640
  H     -5.871970  -21.881440   -4.657100
  H     -4.957240  -25.572200    0.372960
  H     -5.540230  -27.925990   -0.020330
  H     -6.338860  -27.114360   -4.156410

 Total Charge           Charge          ....    0
 Multiplicity           Mult            ....    1
 Number of Electrons    NEL             ....  592
 Basis Dimension        Dim             .... 1222

ORBITAL ENERGIES
----------------

  NO   OCC          E(Eh)            E(eV)
   0   2.0000    -101.598728     -2764.6419
   1   2.0000    -101.597394     -2764.6057
   2   2.0000     -89.057026     -2423.3649
   3   2.0000     -89.000963     -2421.8393
   4   2.0000     -88.998810     -2421.7807
   5   2.0000     -88.994561     -2421.6651
   6   2.0000     -88.994239     -2421.6563
   7   2.0000     -24.837787      -675.8705
   8   2.0000     -24.837629      -675.8663
   9   2.0000     -19.227036      -523.1942
  10   2.0000     -19.225079      -523.1410
  11   2.0000     -14.480044      -394.0220
  12   2.0000     -14.479727      -394.0134
  13   2.0000     -14.465237      -393.6191
  14   2.0000     -14.464763      -393.6062
  15   2.0000     -14.436498      -392.8371
  16   2.0000     -14.434676      -392.7875
  17   2.0000     -14.433744      -392.7621
  18   2.0000     -14.430450      -392.6725
  19   2.0000     -14.423913      -392.4946
  20   2.0000     -14.423827      -392.4923
  21   2.0000     -14.418994      -392.3608
  22   2.0000     -14.418320      -392.3424
  23   2.0000     -10.455518      -284.5091
  24   2.0000     -10.455011      -284.4953
  25   2.0000     -10.377308      -282.3809
  26   2.0000     -10.375840      -282.3409
  27   2.0000     -10.370524      -282.1963
  28   2.0000     -10.369557      -282.1700
  29   2.0000     -10.365422      -282.0575
  30   2.0000     -10.364978      -282.0454
  31   2.0000     -10.357874      -281.8521
  32   2.0000     -10.357266      -281.8355
  33   2.0000     -10.357021      -281.8289
  34   2.0000     -10.356121      -281.8044
  35   2.0000     -10.352439      -281.7042
  36   2.0000     -10.351151      -281.6691
  37   2.0000     -10.351053      -281.6665
  38   2.0000     -10.349964      -281.6368
  39   2.0000     -10.349122      -281.6139
  40   2.0000     -10.348350      -281.5929
  41   2.0000     -10.347778      -281.5774
  42   2.0000     -10.347566      -281.5716
  43   2.0000     -10.336861      -281.2803
  44   2.0000     -10.336809      -281.2789
  45   2.0000     -10.336346      -281.2663
  46   2.0000     -10.335700      -281.2487
  47   2.0000     -10.334803      -281.2243
  48   2.0000     -10.334694      -281.2213
  49   2.0000     -10.334429      -281.2141
  50   2.0000     -10.333993      -281.2022
  51   2.0000     -10.333805      -281.1971
  52   2.0000     -10.333307      -281.1836
  53   2.0000     -10.332693      -281.1669
  54   2.0000     -10.332306      -281.1563
  55   2.0000     -10.331428      -281.1325
  56   2.0000     -10.329513      -281.0803
  57   2.0000     -10.326659      -281.0027
  58   2.0000     -10.325040      -280.9586
  59   2.0000     -10.321467      -280.8614
  60   2.0000     -10.321147      -280.8527
  61   2.0000     -10.317964      -280.7661
  62   2.0000     -10.314875      -280.6820
  63   2.0000     -10.313371      -280.6411
  64   2.0000     -10.312455      -280.6162
  65   2.0000     -10.312258      -280.6108
  66   2.0000     -10.311330      -280.5855
  67   2.0000     -10.310401      -280.5603
  68   2.0000     -10.309386      -280.5326
  69   2.0000     -10.307528      -280.4821
  70   2.0000     -10.307433      -280.4795
  71   2.0000     -10.307426      -280.4793
  72   2.0000     -10.306654      -280.4583
  73   2.0000     -10.306239      -280.4470
  74   2.0000     -10.305464      -280.4259
  75   2.0000     -10.304842      -280.4090
  76   2.0000     -10.304661      -280.4041
  77   2.0000     -10.304428      -280.3977
  78   2.0000     -10.304245      -280.3928
  79   2.0000     -10.304162      -280.3905
  80   2.0000     -10.301344      -280.3138
  81   2.0000      -9.553868      -259.9740
  82   2.0000      -9.552512      -259.9371
  83   2.0000      -8.147980      -221.7178
  84   2.0000      -8.095725      -220.2959
  85   2.0000      -8.093616      -220.2385
  86   2.0000      -8.087406      -220.0695
  87   2.0000      -8.087085      -220.0608
  88   2.0000      -7.324070      -199.2981
  89   2.0000      -7.322702      -199.2608
  90   2.0000      -7.314129      -199.0276
  91   2.0000      -7.313597      -199.0131
  92   2.0000      -7.312797      -198.9913
  93   2.0000      -7.312236      -198.9760
  94   2.0000      -6.119060      -166.5081
  95   2.0000      -6.111101      -166.2915
  96   2.0000      -6.110942      -166.2872
  97   2.0000      -6.064842      -165.0327
  98   2.0000      -6.062662      -164.9734
  99   2.0000      -6.060707      -164.9202
 100   2.0000      -6.058555      -164.8617
 101   2.0000      -6.058247      -164.8533
 102   2.0000      -6.056879      -164.8161
 103   2.0000      -6.056547      -164.8070
 104   2.0000      -6.056210      -164.7979
 105   2.0000      -6.052162      -164.6877
 106   2.0000      -6.051866      -164.6797
 107   2.0000      -6.049883      -164.6257
 108   2.0000      -6.049549      -164.6166
 109   2.0000      -1.366795       -37.1924
 110   2.0000      -1.352763       -36.8106
 111   2.0000      -1.155183       -31.4341
 112   2.0000      -1.142778       -31.0966
 113   2.0000      -1.140873       -31.0447
 114   2.0000      -1.138567       -30.9820
 115   2.0000      -1.066223       -29.0134
 116   2.0000      -1.052732       -28.6463
 117   2.0000      -1.051041       -28.6003
 118   2.0000      -1.028213       -27.9791
 119   2.0000      -1.026595       -27.9351
 120   2.0000      -1.026118       -27.9221
 121   2.0000      -1.024657       -27.8823
 122   2.0000      -1.014263       -27.5995
 123   2.0000      -1.012895       -27.5623
 124   2.0000      -1.011844       -27.5337
 125   2.0000      -1.010851       -27.5067
 126   2.0000      -1.010701       -27.5026
 127   2.0000      -1.008588       -27.4451
 128   2.0000      -1.001307       -27.2469
 129   2.0000      -0.999344       -27.1935
 130   2.0000      -0.998699       -27.1760
 131   2.0000      -0.989908       -26.9368
 132   2.0000      -0.986967       -26.8567
 133   2.0000      -0.985157       -26.8075
 134   2.0000      -0.966575       -26.3019
 135   2.0000      -0.961458       -26.1626
 136   2.0000      -0.939463       -25.5641
 137   2.0000      -0.938038       -25.5253
 138   2.0000      -0.928324       -25.2610
 139   2.0000      -0.922305       -25.0972
 140   2.0000      -0.910557       -24.7775
 141   2.0000      -0.905422       -24.6378
 142   2.0000      -0.904692       -24.6179
 143   2.0000      -0.896750       -24.4018
 144   2.0000      -0.885189       -24.0872
 145   2.0000      -0.882802       -24.0223
 146   2.0000      -0.873693       -23.7744
 147   2.0000      -0.868092       -23.6220
 148   2.0000      -0.863967       -23.5097
 149   2.0000      -0.863344       -23.4928
 150   2.0000      -0.861034       -23.4299
 151   2.0000      -0.859934       -23.4000
 152   2.0000      -0.836385       -22.7592
 153   2.0000      -0.823768       -22.4159
 154   2.0000      -0.814165       -22.1545
 155   2.0000      -0.800859       -21.7925
 156   2.0000      -0.792442       -21.5634
 157   2.0000      -0.784549       -21.3487
 158   2.0000      -0.781208       -21.2577
 159   2.0000      -0.774474       -21.0745
 160   2.0000      -0.774356       -21.0713
 161   2.0000      -0.766932       -20.8693
 162   2.0000      -0.764753       -20.8100
 163   2.0000      -0.744401       -20.2562
 164   2.0000      -0.727214       -19.7885
 165   2.0000      -0.719962       -19.5912
 166   2.0000      -0.713148       -19.4057
 167   2.0000      -0.707226       -19.2446
 168   2.0000      -0.702846       -19.1254
 169   2.0000      -0.701065       -19.0770
 170   2.0000      -0.699039       -19.0218
 171   2.0000      -0.696937       -18.9646
 172   2.0000      -0.693847       -18.8805
 173   2.0000      -0.690125       -18.7792
 174   2.0000      -0.689335       -18.7578
 175   2.0000      -0.684163       -18.6170
 176   2.0000      -0.678069       -18.4512
 177   2.0000      -0.675683       -18.3863
 178   2.0000      -0.659755       -17.9528
 179   2.0000      -0.656589       -17.8667
 180   2.0000      -0.648420       -17.6444
 181   2.0000      -0.645950       -17.5772
 182   2.0000      -0.641663       -17.4605
 183   2.0000      -0.640665       -17.4334
 184   2.0000      -0.637529       -17.3480
 185   2.0000      -0.628305       -17.0970
 186   2.0000      -0.624532       -16.9944
 187   2.0000      -0.622911       -16.9503
 188   2.0000      -0.621370       -16.9083
 189   2.0000      -0.617963       -16.8156
 190   2.0000      -0.613168       -16.6851
 191   2.0000      -0.605347       -16.4723
 192   2.0000      -0.596802       -16.2398
 193   2.0000      -0.593229       -16.1426
 194   2.0000      -0.590216       -16.0606
 195   2.0000      -0.587960       -15.9992
 196   2.0000      -0.582549       -15.8520
 197   2.0000      -0.580864       -15.8061
 198   2.0000      -0.570889       -15.5347
 199   2.0000      -0.568322       -15.4648
 200   2.0000      -0.565636       -15.3917
 201   2.0000      -0.558672       -15.2022
 202   2.0000      -0.554944       -15.1008
 203   2.0000      -0.554139       -15.0789
 204   2.0000      -0.553639       -15.0653
 205   2.0000      -0.548676       -14.9302
 206   2.0000      -0.547730       -14.9045
 207   2.0000      -0.545520       -14.8444
 208   2.0000      -0.544527       -14.8173
 209   2.0000      -0.541638       -14.7387
 210   2.0000      -0.540984       -14.7209
 211   2.0000      -0.539691       -14.6857
 212   2.0000      -0.537177       -14.6173
 213   2.0000      -0.535777       -14.5792
 214   2.0000      -0.532759       -14.4971
 215   2.0000      -0.529746       -14.4151
 216   2.0000      -0.523188       -14.2367
 217   2.0000      -0.521983       -14.2039
 218   2.0000      -0.512895       -13.9566
 219   2.0000      -0.512577       -13.9479
 220   2.0000      -0.511668       -13.9232
 221   2.0000      -0.511426       -13.9166
 222   2.0000      -0.508760       -13.8441
 223   2.0000      -0.506777       -13.7901
 224   2.0000      -0.503630       -13.7045
 225   2.0000      -0.499796       -13.6001
 226   2.0000      -0.499078       -13.5806
 227   2.0000      -0.497413       -13.5353
 228   2.0000      -0.495916       -13.4946
 229   2.0000      -0.495567       -13.4851
 230   2.0000      -0.491329       -13.3697
 231   2.0000      -0.488647       -13.2968
 232   2.0000      -0.485701       -13.2166
 233   2.0000      -0.484501       -13.1839
 234   2.0000      -0.479203       -13.0398
 235   2.0000      -0.474733       -12.9181
 236   2.0000      -0.473230       -12.8773
 237   2.0000      -0.472505       -12.8575
 238   2.0000      -0.470795       -12.8110
 239   2.0000      -0.468092       -12.7374
 240   2.0000      -0.466427       -12.6921
 241   2.0000      -0.464133       -12.6297
 242   2.0000      -0.463880       -12.6228
 243   2.0000      -0.463372       -12.6090
 244   2.0000      -0.462234       -12.5780
 245   2.0000      -0.456610       -12.4250
 246   2.0000      -0.456212       -12.4142
 247   2.0000      -0.455376       -12.3914
 248   2.0000      -0.454975       -12.3805
 249   2.0000      -0.452776       -12.3206
 250   2.0000      -0.451960       -12.2985
 251   2.0000      -0.447058       -12.1651
 252   2.0000      -0.447020       -12.1640
 253   2.0000      -0.445583       -12.1249
 254   2.0000      -0.443984       -12.0814
 255   2.0000      -0.442489       -12.0407
 256   2.0000      -0.441425       -12.0118
 257   2.0000      -0.441120       -12.0035
 258   2.0000      -0.438651       -11.9363
 259   2.0000      -0.437649       -11.9090
 260   2.0000      -0.433223       -11.7886
 261   2.0000      -0.432609       -11.7719
 262   2.0000      -0.432194       -11.7606
 263   2.0000      -0.431721       -11.7477
 264   2.0000      -0.430545       -11.7157
 265   2.0000      -0.427732       -11.6392
 266   2.0000      -0.423290       -11.5183
 267   2.0000      -0.423021       -11.5110
 268   2.0000      -0.421510       -11.4699
 269   2.0000      -0.415010       -11.2930
 270   2.0000      -0.412325       -11.2199
 271   2.0000      -0.408195       -11.1075
 272   2.0000      -0.406556       -11.0629
 273   2.0000      -0.405160       -11.0250
 274   2.0000      -0.396361       -10.7855
 275   2.0000      -0.394560       -10.7365
 276   2.0000      -0.390229       -10.6187
 277   2.0000      -0.387628       -10.5479
 278   2.0000      -0.381461       -10.3801
 279   2.0000      -0.381126       -10.3710
 280   2.0000      -0.363236        -9.8842
 281   2.0000      -0.360865        -9.8196
 282   2.0000      -0.355457        -9.6725
 283   2.0000      -0.355350        -9.6696
 284   2.0000      -0.354201        -9.6383
 285   2.0000      -0.353418        -9.6170
 286   2.0000      -0.348820        -9.4919
 287   2.0000      -0.347009        -9.4426
 288   2.0000      -0.342936        -9.3318
 289   2.0000      -0.328443        -8.9374
 290   2.0000      -0.326988        -8.8978
 291   2.0000      -0.318473        -8.6661
 292   2.0000      -0.314210        -8.5501
 293   2.0000      -0.308245        -8.3878
 294   2.0000      -0.282833        -7.6963
 295   2.0000      -0.250944        -6.8285
 296   0.0000      -0.139497        -3.7959
 297   0.0000      -0.112194        -3.0530
 298   0.0000      -0.104360        -2.8398
 299   0.0000      -0.091683        -2.4948
 300   0.0000      -0.091208        -2.4819

MULLIKEN ATOMIC CHARGES
-----------------------
   0 C :   -0.085196
   1 C :    0.155354
   2 O :   -0.140271
   3 C :   -0.025201
   4 C :    0.032054
   5 C :    0.320077
   6 C :   -0.361598
   7 C :   -0.189968
   8 N :    0.154576
   9 C :   -0.178790
  10 N :    0.148062
  11 C :   -0.026417
  12 C :    0.046617
  13 C :    0.072110
  14 C :   -0.011466
  15 Cl:   -0.064957
  16 C :    0.042508
  17 C :   -0.113168
  18 C :   -0.017463
  19 C :   -0.004296
  20 C :   -0.083532
  21 S :    0.206717
  22 C :   -0.070942
  23 C :    0.043815
  24 C :    0.319159
  25 C :   -0.302949
  26 C :   -0.187792
  27 N :    0.171588
  28 C :   -0.195804
  29 N :    0.196357
  30 C :   -0.065263
  31 C :   -0.175548
  32 S :    0.211830
  33 C :    0.178145
  34 C :   -0.054601
  35 C :   -0.056683
  36 N :   -0.046067
  37 C :    0.152432
  38 C :    0.153226
  39 N :   -0.048096
  40 F :   -0.129941
  41 F :   -0.131024
  42 C :    0.183478
  43 C :   -0.010067
  44 C :   -0.008264
  45 N :   -0.286031
  46 S :    0.588201
  47 N :   -0.285756
  48 C :   -0.181174
  49 C :   -0.058940
  50 C :    0.041732
  51 C :   -0.070660
  52 S :    0.210738
  53 C :   -0.075241
  54 C :   -0.003444
  55 C :    0.310195
  56 C :   -0.289650
  57 C :   -0.187462
  58 N :    0.168712
  59 C :   -0.186778
  60 N :    0.178081
  61 C :   -0.002622
  62 C :   -0.112184
  63 S :    0.218191
  64 C :    0.082409
  65 C :   -0.136439
  66 C :    0.136405
  67 O :   -0.136525
  68 C :   -0.008817
  69 C :    0.015159
  70 C :    0.264610
  71 C :   -0.329427
  72 C :   -0.174368
  73 N :    0.166661
  74 C :   -0.200068
  75 N :    0.169547
  76 C :   -0.023443
  77 C :    0.047917
  78 C :    0.067743
  79 C :   -0.011317
  80 Cl:   -0.066233
  81 H :    0.007581
  82 H :    0.000531
  83 H :    0.001991
  84 H :   -0.002826
  85 H :    0.037547
  86 H :    0.022965
  87 H :    0.023699
  88 H :    0.025461
  89 H :    0.023016
  90 H :    0.015407
  91 H :    0.003033
  92 H :   -0.000861
Sum of atomic charges:   -0.0000000

LOEWDIN ATOMIC CHARGES
----------------------
   0 C :   -0.098896
   1 C :    0.088406
   2 O :   -0.128068
   3 C :   -0.036560
   4 C :   -0.020535
   5 C :    0.077188
   6 C :   -0.140755
   7 C :   -0.018531
   8 N :   -0.050659
   9 C :   -0.022720
  10 N :   -0.051546
  11 C :    0.009266
  12 C :   -0.018555
  13 C :   -0.105315
  14 C :   -0.003873
  15 Cl:    0.146560
  16 C :    0.041311
  17 C :   -0.175963
  18 C :    0.015575
  19 C :   -0.071713
  20 C :   -0.157412
  21 S :    0.498641
  22 C :   -0.192809
  23 C :   -0.058627
  24 C :    0.074667
  25 C :   -0.094271
  26 C :   -0.015094
  27 N :   -0.031230
  28 C :   -0.024315
  29 N :   -0.014802
  30 C :   -0.014097
  31 C :   -0.157450
  32 S :    0.513524
  33 C :   -0.043865
  34 C :   -0.014631
  35 C :   -0.017070
  36 N :   -0.054931
  37 C :    0.064886
  38 C :    0.066301
  39 N :   -0.055891
  40 F :   -0.019809
  41 F :   -0.020773
  42 C :   -0.038201
  43 C :   -0.038129
  44 C :   -0.036752
  45 N :   -0.273171
  46 S :    0.706271
  47 N :   -0.272619
  48 C :   -0.162207
  49 C :   -0.008967
  50 C :   -0.063477
  51 C :   -0.184108
  52 S :    0.515192
  53 C :   -0.158611
  54 C :   -0.062056
  55 C :    0.081781
  56 C :   -0.098053
  57 C :   -0.013072
  58 N :   -0.033532
  59 C :   -0.016878
  60 N :   -0.028865
  61 C :    0.008252
  62 C :   -0.180513
  63 S :    0.502014
  64 C :    0.042699
  65 C :   -0.091683
  66 C :    0.084523
  67 O :   -0.135561
  68 C :   -0.040419
  69 C :   -0.015387
  70 C :    0.064505
  71 C :   -0.133170
  72 C :   -0.020116
  73 N :   -0.041618
  74 C :   -0.015406
  75 N :   -0.044334
  76 C :    0.009533
  77 C :   -0.015523
  78 C :   -0.106821
  79 C :   -0.004473
  80 Cl:    0.145380
  81 H :    0.042847
  82 H :    0.039884
  83 H :    0.045273
  84 H :    0.041856
  85 H :    0.042658
  86 H :    0.038195
  87 H :    0.038780
  88 H :    0.042717
  89 H :    0.046552
  90 H :    0.044691
  91 H :    0.040595
  92 H :    0.043965

  Mayer bond orders larger than 0.100000
B(  0-C ,  1-C ) :   0.9384 B(  0-C ,  5-C ) :   1.0842 B(  0-C , 16-C ) :   1.5954
B(  1-C ,  2-O ) :   2.1660 B(  1-C ,  3-C ) :   0.9514 B(  2-O , 85-H ) :   0.1020
B(  3-C ,  4-C ) :   1.3324 B(  3-C , 14-C ) :   1.3655 B(  4-C ,  5-C ) :   0.9922
B(  4-C , 11-C ) :   1.3567 B(  5-C ,  6-C ) :   1.6164 B(  6-C ,  7-C ) :   1.1485
B(  6-C ,  9-C ) :   1.1411 B(  7-C ,  8-N ) :   2.9720 B(  9-C , 10-N ) :   2.9529
B( 11-C , 12-C ) :   1.3782 B( 11-C , 81-H ) :   0.9819 B( 12-C , 13-C ) :   1.3796
B( 12-C , 82-H ) :   0.9877 B( 13-C , 14-C ) :   1.3292 B( 13-C , 15-Cl) :   0.9916
B( 14-C , 83-H ) :   1.0123 B( 16-C , 17-C ) :   1.2291 B( 16-C , 84-H ) :   0.8998
B( 17-C , 18-C ) :   1.3872 B( 17-C , 21-S ) :   1.0776 B( 18-C , 19-C ) :   1.3126
B( 18-C , 85-H ) :   0.9703 B( 19-C , 20-C ) :   1.3661 B( 19-C , 24-C ) :   0.9933
B( 20-C , 21-S ) :   1.1643 B( 20-C , 22-C ) :   1.2118 B( 22-C , 23-C ) :   1.3984
B( 22-C , 32-S ) :   1.0805 B( 23-C , 24-C ) :   0.9921 B( 23-C , 30-C ) :   1.2803
B( 24-C , 25-C ) :   1.7126 B( 25-C , 26-C ) :   1.1416 B( 25-C , 28-C ) :   1.1347
B( 26-C , 27-N ) :   2.9812 B( 28-C , 29-N ) :   2.9995 B( 30-C , 31-C ) :   1.4145
B( 30-C , 86-H ) :   0.9798 B( 31-C , 32-S ) :   1.1003 B( 31-C , 33-C ) :   1.1884
B( 33-C , 34-C ) :   1.2958 B( 33-C , 42-C ) :   0.1295 B( 33-C , 44-C ) :   1.1966
B( 34-C , 35-C ) :   1.1252 B( 34-C , 39-N ) :   1.3773 B( 35-C , 36-N ) :   1.3785
B( 35-C , 42-C ) :   1.2925 B( 36-N , 37-C ) :   1.6528 B( 37-C , 38-C ) :   1.1073
B( 37-C , 41-F ) :   1.1915 B( 38-C , 39-N ) :   1.6533 B( 38-C , 40-F ) :   1.1924
B( 42-C , 43-C ) :   1.1962 B( 42-C , 48-C ) :   1.1935 B( 43-C , 44-C ) :   1.1052
B( 43-C , 47-N ) :   1.5087 B( 44-C , 45-N ) :   1.5093 B( 45-N , 46-S ) :   1.2855
B( 45-N , 47-N ) :   0.1484 B( 46-S , 47-N ) :   1.2879 B( 48-C , 49-C ) :   1.4138
B( 48-C , 52-S ) :   1.0951 B( 49-C , 50-C ) :   1.2827 B( 49-C , 87-H ) :   0.9805
B( 50-C , 51-C ) :   1.3994 B( 50-C , 55-C ) :   0.9920 B( 51-C , 52-S ) :   1.0884
B( 51-C , 53-C ) :   1.2070 B( 53-C , 54-C ) :   1.3981 B( 53-C , 63-S ) :   1.1521
B( 54-C , 55-C ) :   0.9962 B( 54-C , 61-C ) :   1.3650 B( 55-C , 56-C ) :   1.7165
B( 56-C , 57-C ) :   1.1338 B( 56-C , 59-C ) :   1.1371 B( 57-C , 58-N ) :   2.9825
B( 59-C , 60-N ) :   2.9874 B( 61-C , 62-C ) :   1.3899 B( 61-C , 88-H ) :   0.9794
B( 62-C , 63-S ) :   1.0909 B( 62-C , 64-C ) :   1.1355 B( 64-C , 65-C ) :   1.6725
B( 64-C , 89-H ) :   0.9286 B( 65-C , 66-C ) :   0.9457 B( 65-C , 70-C ) :   1.0344
B( 66-C , 67-O ) :   2.2683 B( 66-C , 68-C ) :   0.9199 B( 68-C , 69-C ) :   1.3332
B( 68-C , 79-C ) :   1.3677 B( 69-C , 70-C ) :   1.0045 B( 69-C , 76-C ) :   1.3677
B( 70-C , 71-C ) :   1.6550 B( 71-C , 72-C ) :   1.1252 B( 71-C , 74-C ) :   1.1725
B( 72-C , 73-N ) :   2.9989 B( 74-C , 75-N ) :   2.9971 B( 76-C , 77-C ) :   1.3722
B( 76-C , 90-H ) :   0.9855 B( 77-C , 78-C ) :   1.3818 B( 77-C , 91-H ) :   0.9893
B( 78-C , 79-C ) :   1.3356 B( 78-C , 80-Cl) :   0.9916 B( 79-C , 92-H ) :   1.0114

-----------------------------------------------------------------------------
         ABSORPTION SPECTRUM VIA TRANSITION ELECTRIC DIPOLE MOMENTS
-----------------------------------------------------------------------------
State   Energy  Wavelength   fosc         T2         TX        TY        TZ
        (cm-1)    (nm)                  (au**2)     (au)      (au)      (au)
-----------------------------------------------------------------------------
   0    9589.3   1042.8   1.188670147  40.80843   0.07285   6.37282   0.43615
   1   13852.4    721.9   0.009721685   0.23104  -0.29689  -0.33585   0.17351
   2   14981.5    667.5   0.000757962   0.01666   0.06787  -0.05148  -0.09695
   3   17886.1    559.1   0.006686769   0.12308   0.34713   0.00419  -0.05058
   4   20118.0    497.1   0.594440264   9.72747  -0.59558   3.06099   0.05565
   5   21230.1    471.0   0.718447594  11.14087  -0.67127  -3.22346   0.54732
   6   22962.4    435.5   0.082329068   1.18035   0.06636  -1.01712   0.37605
   7   24741.5    404.2   0.065909072   0.87699  -0.27509  -0.81833   0.36284
   8   25069.3    398.9   0.054902976   0.72099   0.16940  -0.75192  -0.35625
   9   25873.1    386.5   0.020352770   0.25897  -0.04852   0.09249  -0.49806
  10   26033.7    384.1   0.052229873   0.66048  -0.03722   0.49333   0.64476
  11   26382.2    379.0   0.015886165   0.19824   0.32830   0.17939  -0.24141
  12   26587.4    376.1   0.127036850   1.57300   0.00330   1.13507   0.53348
  13   26861.8    372.3   0.012635462   0.15486   0.09737   0.20072   0.32417
  14   27511.7    363.5   0.072036679   0.86201   0.19946   0.90668   0.01278
  15   27781.4    360.0   0.263350335   3.12072  -0.02912   1.46744   0.98310
  16   28746.3    347.9   0.000103733   0.00119  -0.01478  -0.00424  -0.03085
  17   29311.8    341.2   0.022054859   0.24771  -0.48671   0.09394  -0.04462
  18   29663.2    337.1   0.033712695   0.37415  -0.15498  -0.58232   0.10504
  19   29842.9    335.1   0.052690299   0.58125   0.10519  -0.18791  -0.73135
  20   29986.0    333.5   0.185068391   2.03184  -0.55927  -0.16425   1.30080
  21   30375.3    329.2   0.052655560   0.57069  -0.02156   0.74400  -0.12919
  22   30630.8    326.5   0.006971403   0.07493  -0.07460  -0.20527   0.16501
  23   30791.2    324.8   0.015461566   0.16531  -0.04853  -0.38028  -0.13544
  24   31141.4    321.1   0.282381493   2.98520  -0.41554  -1.24056   1.12851
  25   31285.7    319.6   0.207060603   2.17885   0.11472   1.40633  -0.43351
  26   31585.7    316.6   0.357168441   3.72270  -0.02487   1.65220   0.99615
  27   31643.0    316.0   0.029976391   0.31187   0.01624   0.44840   0.33248
  28   32151.4    311.0   0.071916013   0.73638   0.40218  -0.75569  -0.05968
  29   32358.4    309.0   0.362799348   3.69110  -0.32276  -1.88197   0.21236
  30   32418.5    308.5   0.000890782   0.00905  -0.04251  -0.07852   0.03277
  31   32544.6    307.3   0.483907327   4.89508  -0.18912   0.60090   2.12090
  32   32797.5    304.9   0.025198963   0.25294   0.07595  -0.20875   0.45121
  33   33062.0    302.5   0.068427144   0.68136  -0.36777  -0.73898  -0.00366
  34   33424.8    299.2   0.051084888   0.50315   0.25761   0.15239  -0.64309
  35   33526.4    298.3   0.032017081   0.31439  -0.01233   0.21410  -0.51807
  36   34133.0    293.0   0.020906290   0.20164   0.01019   0.23494   0.38254
  37   34347.2    291.1   0.208288949   1.99642  -0.26100   0.11431   1.38392
  38   34527.0    289.6   0.124533991   1.18742   0.13931  -0.65536  -0.85937
  39   34643.9    288.7   0.208278935   1.97922   0.33948   0.78654   1.11594
  40   34765.5    287.6   0.044955624   0.42571   0.33199   0.51950  -0.21356
  41   34770.1    287.6   0.067424511   0.63839  -0.37097  -0.65245   0.27400
  42   35178.8    284.3   0.041683831   0.39009   0.18583  -0.35075  -0.48221
  43   35328.4    283.1   0.179215915   1.67005   0.08686  -0.15906  -1.27953
  44   35437.1    282.2   0.061495546   0.57130   0.23439   0.11359  -0.70955
  45   35826.1    279.1   0.631060422   5.79892   0.27680  -0.96340  -2.18956
  46   35947.4    278.2   0.242233864   2.21841   0.37621   1.39699   0.35396
  47   36183.8    276.4   0.150801060   1.37204  -0.34042  -1.01350   0.47851
  48   36352.1    275.1   0.154711360   1.40110   0.53594   0.68003  -0.80711
  49   36463.5    274.2   0.148023324   1.33643   0.17996   0.24190   1.11603
  50   36872.7    271.2   0.000943858   0.00843   0.00611  -0.02385   0.08844
  51   36915.7    270.9   0.026830143   0.23927   0.15816   0.12488   0.44571
  52   37313.9    268.0   0.034213043   0.30185   0.10812   0.51233  -0.16639
  53   37424.8    267.2   0.165309191   1.45416   0.24410   0.00698  -1.18090
  54   37633.7    265.7   0.011450315   0.10016  -0.01510  -0.31556   0.01892
  55   37785.1    264.7   0.035041483   0.30531   0.06961  -0.35879   0.41440
  56   38072.3    262.7   0.009316696   0.08056   0.21332   0.06086  -0.17707
  57   38209.6    261.7   0.050154406   0.43213   0.04803  -0.25505  -0.60396
  58   38504.9    259.7   0.000184055   0.00157   0.00914  -0.02563   0.02887
  59   38555.2    259.4   0.003810337   0.03254  -0.00812   0.11475  -0.13893
  60   38838.9    257.5   0.013228607   0.11213  -0.16547   0.27239   0.10273
  61   39219.2    255.0   0.009568472   0.08032   0.01076   0.28212   0.02471
  62   39385.8    253.9   0.016001143   0.13375  -0.03535  -0.20951   0.29767
  63   39617.0    252.4   0.000731857   0.00608   0.02151  -0.03846  -0.06434
  64   39892.0    250.7   0.069039484   0.56975   0.18414   0.39169  -0.61841
  65   39984.6    250.1   0.039306895   0.32363   0.26754   0.03798   0.50061
  66   40131.7    249.2   0.081943656   0.67221   0.34009   0.39953  -0.63002
  67   40245.6    248.5   0.084952844   0.69492  -0.13881  -0.58180   0.58066

FINAL SINGLE POINT ENERGY     -6130.803869063393

DIPOLE MOMENT
-------------
                                X             Y             Z
Electronic contribution:     -1.44179      -1.64821     -10.22965
Nuclear contribution   :      0.31261       0.80682       8.80583
                        -----------------------------------------
Total Dipole Moment    :     -1.12918      -0.84138      -1.42383
                        -----------------------------------------
Magnitude (a.u.)       :      2.00256
Magnitude (Debye)      :      5.09011

Rotational constants in cm-1:     0.002433     0.000151     0.000144
Rotational constants in MHz :    72.951762     4.534014     4.316969

                             ****ORCA TERMINATED NORMALLY****
TOTAL RUN TIME: 0 days 0 hours 10 minutes 48 seconds 508 msec
