                         Program Version 4.2.0 -  RELEASE  -
|  1> # ORCA input file
|  2> # SCF done       -195.744049052689          0.000717055115
|  3> ! CAM-B3LYP def2-SVP def2/J RIJCOSX Grid4 TightSCF
|  4> %maxcore 5000
|  5> %tddft
|  6>     Mode sTDDFT
|  7>     Ethresh 5.0
|  8>     maxcore 5000
|  9> end
| 10>
| 11> %pal
| 12>   nprocs 6
| 13>   end
| 14> * xyz 0 1
| 15>    C       11.88901        -1.21282        -9.15871
| 16>    C       11.72202        -0.82408       -10.45231
| 17>    S       10.04720        -0.68326       -10.84049
| 18>    C        9.56080        -1.15018        -9.25434
| 19>    C       10.64408        -1.39919        -8.47466
| 20>    C       10.90958        -1.81706        -7.09700
| 21>    O       10.09177        -2.06733        -6.22922
| 22>    C       12.37870        -1.87174        -6.97464
| 23>    C       12.97985        -1.50177        -8.24723
| 24>    C       14.30585        -1.42872        -8.58333
| 25>    C       14.70678        -1.05346        -9.88324
| 26>    N       15.04675        -0.75048       -10.93623
| 27>    C       15.39751        -1.70339        -7.73647
| 28>    N       16.33047        -1.91268        -7.10058
| 29>    C       13.07285        -2.21336        -5.84305
| 30>    C       12.61579        -2.60068        -4.57317
| 31>    C       13.50602        -2.92131        -3.53901
| 32>    C       12.85715        -3.29232        -2.37847
| 33>    C       11.44701        -3.25803        -2.51886
| 34>    S       10.93519        -2.76706        -4.06812
| 35>    C       10.87267        -3.66115        -1.29301
| 36>    C       11.90826        -3.95026        -0.37645
| 37>    C       13.18811        -3.73176        -1.03092
| 38>    C       14.43102        -3.91638        -0.50318
| 39>    C       15.60609        -3.67068        -1.24600
| 40>    N       16.56394        -3.47100        -1.84334
| 41>    C       14.63462        -4.37799         0.81566
| 42>    N       14.81687        -4.76262         1.87964
| 43>    C       11.43529        -4.36141         0.86144
| 44>    C       10.04529        -4.39843         0.90439
| 45>    S        9.32252        -3.91126        -0.62475
| 46>    C        9.19642        -4.78888         1.97650
| 47>    C        9.64188        -5.14293         3.27564
| 48>    C        8.74175        -5.59194         4.30414
| 49>    N        9.24126        -5.91430         5.51693
| 50>    C       10.50883        -5.80910         5.74313
| 51>    C       11.39607        -5.35445         4.73100
| 52>    N       10.95936        -5.04359         3.55563
| 53>    F       12.69463        -5.22697         4.96431
| 54>    F       10.95281        -6.13116         6.94964
| 55>    C        7.34414        -5.70713         4.09311
| 56>    C        6.89980        -5.30504         2.81467
| 57>    C        7.79888        -4.85767         1.78700
| 58>    N        7.14613        -4.54120         0.66769
| 59>    S        5.57376        -4.77560         0.88012
| 60>    N        5.63291        -5.29443         2.39737
| 61>    C        6.41336        -6.19646         5.05061
| 62>    C        6.65186        -6.68116         6.33280
| 63>    C        5.48740        -7.10477         6.95692
| 64>    C        4.34133        -6.93834         6.14878
| 65>    S        4.70783        -6.26230         4.62414
| 66>    C        3.21935        -7.41250         6.86162
| 67>    C        3.64943        -7.89018         8.12257
| 68>    C        5.08604        -7.68928         8.22848
| 69>    C        5.88361        -7.96805         9.29739
| 70>    C        7.27725        -7.73831         9.28030
| 71>    N        8.41017        -7.56558         9.28108
| 72>    C        5.38226        -8.48168        10.51414
| 73>    N        5.00026        -8.87345        11.52103
| 74>    C        2.62168        -8.42837         8.88264
| 75>    C        1.39678        -8.36480         8.22787
| 76>    S        1.54421        -7.59412         6.64050
| 77>    C        0.09524        -8.74991         8.60774
| 78>    C       -0.33355        -9.55775         9.62477
| 79>    C        0.49777       -10.45289        10.48276
| 80>    O        1.70374       -10.55808        10.50311
| 81>    C       -0.46974       -11.23655        11.25983
| 82>    C       -0.42640       -12.22184        12.19215
| 83>    S       -2.01890       -12.67543        12.67232
| 84>    C       -2.74905       -11.53163        11.60876
| 85>    C       -1.80150       -10.83667        10.92041
| 86>    C       -1.74021        -9.78366         9.92817
| 87>    C       -2.83573        -9.12083         9.43810
| 88>    C       -4.14007        -9.46838         9.84885
| 89>    N       -5.20809        -9.74036        10.16806
| 90>    C       -2.82583        -8.04850         8.52519
| 91>    N       -2.89172        -7.16497         7.79384
| 92>    H       12.45593        -0.61064       -11.20330
| 93>    H        8.52069        -1.20985        -9.00365
| 94>    H       14.15431        -2.19388        -5.91325
| 95>    H       14.57303        -2.87561        -3.66860
| 96>    H       12.04076        -4.62867         1.70661
| 97>    H        7.63783        -6.71368         6.75608
| 98>    H        2.73598        -8.85945         9.86005
| 99>    H       -0.67575        -8.34503         7.96171
|100>    H        0.42731       -12.70233        12.62625
|101>    H       -3.81723       -11.45858        11.56639
|102> *
|103>
|104>                          ****END OF INPUT****

CARTESIAN COORDINATES (ANGSTROEM)
---------------------------------
  C     11.889010   -1.212820   -9.158710
  C     11.722020   -0.824080  -10.452310
  S     10.047200   -0.683260  -10.840490
  C      9.560800   -1.150180   -9.254340
  C     10.644080   -1.399190   -8.474660
  C     10.909580   -1.817060   -7.097000
  O     10.091770   -2.067330   -6.229220
  C     12.378700   -1.871740   -6.974640
  C     12.979850   -1.501770   -8.247230
  C     14.305850   -1.428720   -8.583330
  C     14.706780   -1.053460   -9.883240
  N     15.046750   -0.750480  -10.936230
  C     15.397510   -1.703390   -7.736470
  N     16.330470   -1.912680   -7.100580
  C     13.072850   -2.213360   -5.843050
  C     12.615790   -2.600680   -4.573170
  C     13.506020   -2.921310   -3.539010
  C     12.857150   -3.292320   -2.378470
  C     11.447010   -3.258030   -2.518860
  S     10.935190   -2.767060   -4.068120
  C     10.872670   -3.661150   -1.293010
  C     11.908260   -3.950260   -0.376450
  C     13.188110   -3.731760   -1.030920
  C     14.431020   -3.916380   -0.503180
  C     15.606090   -3.670680   -1.246000
  N     16.563940   -3.471000   -1.843340
  C     14.634620   -4.377990    0.815660
  N     14.816870   -4.762620    1.879640
  C     11.435290   -4.361410    0.861440
  C     10.045290   -4.398430    0.904390
  S      9.322520   -3.911260   -0.624750
  C      9.196420   -4.788880    1.976500
  C      9.641880   -5.142930    3.275640
  C      8.741750   -5.591940    4.304140
  N      9.241260   -5.914300    5.516930
  C     10.508830   -5.809100    5.743130
  C     11.396070   -5.354450    4.731000
  N     10.959360   -5.043590    3.555630
  F     12.694630   -5.226970    4.964310
  F     10.952810   -6.131160    6.949640
  C      7.344140   -5.707130    4.093110
  C      6.899800   -5.305040    2.814670
  C      7.798880   -4.857670    1.787000
  N      7.146130   -4.541200    0.667690
  S      5.573760   -4.775600    0.880120
  N      5.632910   -5.294430    2.397370
  C      6.413360   -6.196460    5.050610
  C      6.651860   -6.681160    6.332800
  C      5.487400   -7.104770    6.956920
  C      4.341330   -6.938340    6.148780
  S      4.707830   -6.262300    4.624140
  C      3.219350   -7.412500    6.861620
  C      3.649430   -7.890180    8.122570
  C      5.086040   -7.689280    8.228480
  C      5.883610   -7.968050    9.297390
  C      7.277250   -7.738310    9.280300
  N      8.410170   -7.565580    9.281080
  C      5.382260   -8.481680   10.514140
  N      5.000260   -8.873450   11.521030
  C      2.621680   -8.428370    8.882640
  C      1.396780   -8.364800    8.227870
  S      1.544210   -7.594120    6.640500
  C      0.095240   -8.749910    8.607740
  C     -0.333550   -9.557750    9.624770
  C      0.497770  -10.452890   10.482760
  O      1.703740  -10.558080   10.503110
  C     -0.469740  -11.236550   11.259830
  C     -0.426400  -12.221840   12.192150
  S     -2.018900  -12.675430   12.672320
  C     -2.749050  -11.531630   11.608760
  C     -1.801500  -10.836670   10.920410
  C     -1.740210   -9.783660    9.928170
  C     -2.835730   -9.120830    9.438100
  C     -4.140070   -9.468380    9.848850
  N     -5.208090   -9.740360   10.168060
  C     -2.825830   -8.048500    8.525190
  N     -2.891720   -7.164970    7.793840
  H     12.455930   -0.610640  -11.203300
  H      8.520690   -1.209850   -9.003650
  H     14.154310   -2.193880   -5.913250
  H     14.573030   -2.875610   -3.668600
  H     12.040760   -4.628670    1.706610
  H      7.637830   -6.713680    6.756080
  H      2.735980   -8.859450    9.860050
  H     -0.675750   -8.345030    7.961710
  H      0.427310  -12.702330   12.626250
  H     -3.817230  -11.458580   11.566390

 Total Charge           Charge          ....    0
 Multiplicity           Mult            ....    1
 Number of Electrons    NEL             ....  564
 Basis Dimension        Dim             .... 1156

ORBITAL ENERGIES
----------------

  NO   OCC          E(Eh)            E(eV)
   0   2.0000     -89.065615     -2423.5986
   1   2.0000     -88.999199     -2421.7913
   2   2.0000     -88.994345     -2421.6592
   3   2.0000     -88.994334     -2421.6590
   4   2.0000     -88.993446     -2421.6348
   5   2.0000     -88.989583     -2421.5297
   6   2.0000     -88.986317     -2421.4408
   7   2.0000     -24.825010      -675.5229
   8   2.0000     -24.824828      -675.5179
   9   2.0000     -19.230696      -523.2938
  10   2.0000     -19.221363      -523.0399
  11   2.0000     -14.474304      -393.8658
  12   2.0000     -14.474140      -393.8614
  13   2.0000     -14.467039      -393.6682
  14   2.0000     -14.466894      -393.6642
  15   2.0000     -14.432673      -392.7330
  16   2.0000     -14.432107      -392.7176
  17   2.0000     -14.431903      -392.7121
  18   2.0000     -14.430913      -392.6851
  19   2.0000     -14.421052      -392.4168
  20   2.0000     -14.420828      -392.4107
  21   2.0000     -14.417615      -392.3233
  22   2.0000     -14.416463      -392.2919
  23   2.0000     -10.444743      -284.2159
  24   2.0000     -10.444377      -284.2059
  25   2.0000     -10.382910      -282.5333
  26   2.0000     -10.377278      -282.3801
  27   2.0000     -10.369527      -282.1692
  28   2.0000     -10.368153      -282.1318
  29   2.0000     -10.364767      -282.0397
  30   2.0000     -10.364448      -282.0310
  31   2.0000     -10.359644      -281.9003
  32   2.0000     -10.359372      -281.8929
  33   2.0000     -10.356197      -281.8064
  34   2.0000     -10.356158      -281.8054
  35   2.0000     -10.348937      -281.6089
  36   2.0000     -10.348652      -281.6011
  37   2.0000     -10.346946      -281.5547
  38   2.0000     -10.345734      -281.5217
  39   2.0000     -10.344026      -281.4752
  40   2.0000     -10.338258      -281.3183
  41   2.0000     -10.338187      -281.3164
  42   2.0000     -10.337693      -281.3029
  43   2.0000     -10.335804      -281.2515
  44   2.0000     -10.335516      -281.2437
  45   2.0000     -10.334970      -281.2288
  46   2.0000     -10.333765      -281.1960
  47   2.0000     -10.332923      -281.1731
  48   2.0000     -10.332746      -281.1683
  49   2.0000     -10.332406      -281.1591
  50   2.0000     -10.332400      -281.1589
  51   2.0000     -10.331890      -281.1450
  52   2.0000     -10.331839      -281.1436
  53   2.0000     -10.331477      -281.1338
  54   2.0000     -10.330192      -281.0988
  55   2.0000     -10.329733      -281.0863
  56   2.0000     -10.327083      -281.0142
  57   2.0000     -10.324688      -280.9491
  58   2.0000     -10.324143      -280.9342
  59   2.0000     -10.323714      -280.9225
  60   2.0000     -10.323309      -280.9115
  61   2.0000     -10.320226      -280.8276
  62   2.0000     -10.319179      -280.7991
  63   2.0000     -10.317679      -280.7583
  64   2.0000     -10.312664      -280.6218
  65   2.0000     -10.311750      -280.5970
  66   2.0000     -10.310968      -280.5757
  67   2.0000     -10.310852      -280.5725
  68   2.0000     -10.310743      -280.5696
  69   2.0000     -10.309112      -280.5252
  70   2.0000     -10.307502      -280.4814
  71   2.0000     -10.307225      -280.4738
  72   2.0000     -10.305678      -280.4318
  73   2.0000     -10.304857      -280.4094
  74   2.0000     -10.304642      -280.4036
  75   2.0000     -10.298344      -280.2322
  76   2.0000     -10.293407      -280.0978
  77   2.0000      -8.156407      -221.9471
  78   2.0000      -8.094031      -220.2498
  79   2.0000      -8.087621      -220.0754
  80   2.0000      -8.086758      -220.0519
  81   2.0000      -8.086629      -220.0484
  82   2.0000      -8.085356      -220.0137
  83   2.0000      -8.082002      -219.9224
  84   2.0000      -6.127494      -166.7376
  85   2.0000      -6.119838      -166.5292
  86   2.0000      -6.119102      -166.5092
  87   2.0000      -6.063133      -164.9862
  88   2.0000      -6.059010      -164.8740
  89   2.0000      -6.057065      -164.8211
  90   2.0000      -6.056547      -164.8070
  91   2.0000      -6.056142      -164.7960
  92   2.0000      -6.056054      -164.7936
  93   2.0000      -6.054599      -164.7540
  94   2.0000      -6.052429      -164.6950
  95   2.0000      -6.051537      -164.6707
  96   2.0000      -6.051315      -164.6646
  97   2.0000      -6.051233      -164.6624
  98   2.0000      -6.050022      -164.6295
  99   2.0000      -6.049859      -164.6250
 100   2.0000      -6.049218      -164.6076
 101   2.0000      -6.049210      -164.6074
 102   2.0000      -6.048116      -164.5776
 103   2.0000      -6.046491      -164.5334
 104   2.0000      -6.044823      -164.4880
 105   2.0000      -1.354643       -36.8617
 106   2.0000      -1.340472       -36.4761
 107   2.0000      -1.163035       -31.6478
 108   2.0000      -1.146959       -31.2103
 109   2.0000      -1.138081       -30.9688
 110   2.0000      -1.127529       -30.6816
 111   2.0000      -1.054616       -28.6976
 112   2.0000      -1.051200       -28.6046
 113   2.0000      -1.048730       -28.5374
 114   2.0000      -1.029618       -28.0173
 115   2.0000      -1.026994       -27.9459
 116   2.0000      -1.025514       -27.9057
 117   2.0000      -1.024498       -27.8780
 118   2.0000      -1.021667       -27.8010
 119   2.0000      -1.012150       -27.5420
 120   2.0000      -1.011062       -27.5124
 121   2.0000      -1.010480       -27.4966
 122   2.0000      -1.009331       -27.4653
 123   2.0000      -1.008451       -27.4413
 124   2.0000      -1.000334       -27.2205
 125   2.0000      -0.997966       -27.1560
 126   2.0000      -0.997114       -27.1329
 127   2.0000      -0.987930       -26.8829
 128   2.0000      -0.970760       -26.4157
 129   2.0000      -0.968298       -26.3487
 130   2.0000      -0.962057       -26.1789
 131   2.0000      -0.959220       -26.1017
 132   2.0000      -0.928635       -25.2694
 133   2.0000      -0.922781       -25.1102
 134   2.0000      -0.909022       -24.7357
 135   2.0000      -0.904920       -24.6241
 136   2.0000      -0.903665       -24.5900
 137   2.0000      -0.898652       -24.4536
 138   2.0000      -0.886020       -24.1098
 139   2.0000      -0.883930       -24.0529
 140   2.0000      -0.872819       -23.7506
 141   2.0000      -0.865125       -23.5413
 142   2.0000      -0.861378       -23.4393
 143   2.0000      -0.860252       -23.4087
 144   2.0000      -0.848110       -23.0783
 145   2.0000      -0.844405       -22.9774
 146   2.0000      -0.834355       -22.7040
 147   2.0000      -0.822068       -22.3696
 148   2.0000      -0.812786       -22.1170
 149   2.0000      -0.798554       -21.7298
 150   2.0000      -0.793337       -21.5878
 151   2.0000      -0.781244       -21.2587
 152   2.0000      -0.776853       -21.1393
 153   2.0000      -0.767201       -20.8766
 154   2.0000      -0.764084       -20.7918
 155   2.0000      -0.761398       -20.7187
 156   2.0000      -0.758145       -20.6302
 157   2.0000      -0.740565       -20.1518
 158   2.0000      -0.720270       -19.5995
 159   2.0000      -0.711178       -19.3521
 160   2.0000      -0.705871       -19.2077
 161   2.0000      -0.699115       -19.0239
 162   2.0000      -0.696973       -18.9656
 163   2.0000      -0.691738       -18.8231
 164   2.0000      -0.689295       -18.7567
 165   2.0000      -0.688386       -18.7319
 166   2.0000      -0.684721       -18.6322
 167   2.0000      -0.680852       -18.5269
 168   2.0000      -0.676005       -18.3950
 169   2.0000      -0.674885       -18.3645
 170   2.0000      -0.670259       -18.2387
 171   2.0000      -0.667160       -18.1543
 172   2.0000      -0.653076       -17.7711
 173   2.0000      -0.648538       -17.6476
 174   2.0000      -0.643378       -17.5072
 175   2.0000      -0.639679       -17.4066
 176   2.0000      -0.635344       -17.2886
 177   2.0000      -0.633610       -17.2414
 178   2.0000      -0.630145       -17.1471
 179   2.0000      -0.626825       -17.0568
 180   2.0000      -0.621911       -16.9231
 181   2.0000      -0.620827       -16.8936
 182   2.0000      -0.617723       -16.8091
 183   2.0000      -0.608471       -16.5573
 184   2.0000      -0.606340       -16.4994
 185   2.0000      -0.599610       -16.3162
 186   2.0000      -0.588181       -16.0052
 187   2.0000      -0.585637       -15.9360
 188   2.0000      -0.580500       -15.7962
 189   2.0000      -0.575299       -15.6547
 190   2.0000      -0.574926       -15.6445
 191   2.0000      -0.563953       -15.3459
 192   2.0000      -0.555729       -15.1221
 193   2.0000      -0.554811       -15.0972
 194   2.0000      -0.554010       -15.0754
 195   2.0000      -0.549725       -14.9588
 196   2.0000      -0.547802       -14.9065
 197   2.0000      -0.547067       -14.8864
 198   2.0000      -0.544234       -14.8094
 199   2.0000      -0.543647       -14.7934
 200   2.0000      -0.534768       -14.5518
 201   2.0000      -0.533737       -14.5237
 202   2.0000      -0.531634       -14.4665
 203   2.0000      -0.529394       -14.4055
 204   2.0000      -0.525327       -14.2949
 205   2.0000      -0.522548       -14.2193
 206   2.0000      -0.518824       -14.1179
 207   2.0000      -0.516087       -14.0434
 208   2.0000      -0.510908       -13.9025
 209   2.0000      -0.508558       -13.8386
 210   2.0000      -0.507682       -13.8147
 211   2.0000      -0.505755       -13.7623
 212   2.0000      -0.505107       -13.7447
 213   2.0000      -0.503420       -13.6987
 214   2.0000      -0.502356       -13.6698
 215   2.0000      -0.501364       -13.6428
 216   2.0000      -0.500352       -13.6153
 217   2.0000      -0.498268       -13.5586
 218   2.0000      -0.496574       -13.5125
 219   2.0000      -0.495731       -13.4895
 220   2.0000      -0.492092       -13.3905
 221   2.0000      -0.488853       -13.3024
 222   2.0000      -0.483962       -13.1693
 223   2.0000      -0.481433       -13.1005
 224   2.0000      -0.479785       -13.0556
 225   2.0000      -0.476570       -12.9681
 226   2.0000      -0.473289       -12.8789
 227   2.0000      -0.468843       -12.7579
 228   2.0000      -0.466163       -12.6849
 229   2.0000      -0.465069       -12.6552
 230   2.0000      -0.462435       -12.5835
 231   2.0000      -0.462198       -12.5770
 232   2.0000      -0.457992       -12.4626
 233   2.0000      -0.457011       -12.4359
 234   2.0000      -0.453035       -12.3277
 235   2.0000      -0.452751       -12.3200
 236   2.0000      -0.452532       -12.3140
 237   2.0000      -0.451428       -12.2840
 238   2.0000      -0.450085       -12.2474
 239   2.0000      -0.449387       -12.2284
 240   2.0000      -0.445559       -12.1243
 241   2.0000      -0.442804       -12.0493
 242   2.0000      -0.442128       -12.0309
 243   2.0000      -0.441897       -12.0246
 244   2.0000      -0.441618       -12.0170
 245   2.0000      -0.441455       -12.0126
 246   2.0000      -0.440933       -11.9984
 247   2.0000      -0.440329       -11.9820
 248   2.0000      -0.431567       -11.7435
 249   2.0000      -0.431374       -11.7383
 250   2.0000      -0.430452       -11.7132
 251   2.0000      -0.430315       -11.7095
 252   2.0000      -0.429009       -11.6739
 253   2.0000      -0.427940       -11.6448
 254   2.0000      -0.426221       -11.5981
 255   2.0000      -0.424337       -11.5468
 256   2.0000      -0.419064       -11.4033
 257   2.0000      -0.415194       -11.2980
 258   2.0000      -0.414900       -11.2900
 259   2.0000      -0.413229       -11.2445
 260   2.0000      -0.412963       -11.2373
 261   2.0000      -0.411998       -11.2110
 262   2.0000      -0.396233       -10.7820
 263   2.0000      -0.392430       -10.6786
 264   2.0000      -0.384370       -10.4592
 265   2.0000      -0.382505       -10.4085
 266   2.0000      -0.367968       -10.0129
 267   2.0000      -0.361114        -9.8264
 268   2.0000      -0.355787        -9.6815
 269   2.0000      -0.353475        -9.6185
 270   2.0000      -0.349978        -9.5234
 271   2.0000      -0.347187        -9.4474
 272   2.0000      -0.343633        -9.3507
 273   2.0000      -0.342082        -9.3085
 274   2.0000      -0.339270        -9.2320
 275   2.0000      -0.327372        -8.9082
 276   2.0000      -0.325916        -8.8686
 277   2.0000      -0.324046        -8.8177
 278   2.0000      -0.317755        -8.6465
 279   2.0000      -0.306226        -8.3328
 280   2.0000      -0.281557        -7.6615
 281   2.0000      -0.250966        -6.8291
 282   0.0000      -0.140016        -3.8100
 283   0.0000      -0.111145        -3.0244
 284   0.0000      -0.103824        -2.8252
 285   0.0000      -0.090436        -2.4609
 286   0.0000      -0.090252        -2.4559

MULLIKEN ATOMIC CHARGES
-----------------------
   0 C :    0.028356
   1 C :   -0.134080
   2 S :    0.161501
   3 C :   -0.139958
   4 C :    0.031934
   5 C :    0.188036
   6 O :   -0.184699
   7 C :   -0.110782
   8 C :    0.310045
   9 C :   -0.338120
  10 C :   -0.194622
  11 N :    0.155662
  12 C :   -0.185813
  13 N :    0.155044
  14 C :   -0.035288
  15 C :   -0.047987
  16 C :   -0.066346
  17 C :    0.051299
  18 C :   -0.071610
  19 S :    0.242285
  20 C :   -0.075763
  21 C :    0.046983
  22 C :    0.310183
  23 C :   -0.301574
  24 C :   -0.196924
  25 N :    0.182915
  26 C :   -0.191296
  27 N :    0.184173
  28 C :   -0.061719
  29 C :   -0.175441
  30 S :    0.212013
  31 C :    0.199215
  32 C :   -0.074647
  33 C :   -0.070112
  34 N :   -0.005245
  35 C :    0.155118
  36 C :    0.156753
  37 N :   -0.005541
  38 F :   -0.123118
  39 F :   -0.122139
  40 C :    0.203313
  41 C :   -0.020997
  42 C :   -0.018805
  43 N :   -0.332364
  44 S :    0.572107
  45 N :   -0.334977
  46 C :   -0.171646
  47 C :   -0.070539
  48 C :    0.052383
  49 C :   -0.071953
  50 S :    0.208971
  51 C :   -0.086010
  52 C :   -0.013612
  53 C :    0.313948
  54 C :   -0.301554
  55 C :   -0.194760
  56 N :    0.181203
  57 C :   -0.189466
  58 N :    0.190638
  59 C :    0.012921
  60 C :   -0.111013
  61 S :    0.206239
  62 C :    0.029564
  63 C :   -0.104573
  64 C :    0.171519
  65 O :   -0.146072
  66 C :    0.028417
  67 C :   -0.132613
  68 S :    0.160261
  69 C :   -0.134961
  70 C :    0.030779
  71 C :    0.294367
  72 C :   -0.342395
  73 C :   -0.196088
  74 N :    0.154647
  75 C :   -0.187634
  76 N :    0.153893
  77 H :    0.053540
  78 H :    0.039446
  79 H :    0.016850
  80 H :    0.030356
  81 H :    0.026844
  82 H :    0.026996
  83 H :    0.037265
  84 H :    0.011379
  85 H :    0.042387
  86 H :    0.053105
Sum of atomic charges:   -0.0000000

LOEWDIN ATOMIC CHARGES
----------------------
   0 C :   -0.062044
   1 C :   -0.149035
   2 S :    0.488883
   3 C :   -0.139814
   4 C :   -0.091666
   5 C :    0.085338
   6 O :   -0.172892
   7 C :   -0.108553
   8 C :    0.075914
   9 C :   -0.141909
  10 C :   -0.015063
  11 N :   -0.054411
  12 C :   -0.025154
  13 N :   -0.045819
  14 C :    0.054773
  15 C :   -0.182192
  16 C :    0.011484
  17 C :   -0.073082
  18 C :   -0.166810
  19 S :    0.546126
  20 C :   -0.187213
  21 C :   -0.060624
  22 C :    0.075922
  23 C :   -0.099133
  24 C :   -0.019896
  25 N :   -0.024809
  26 C :   -0.019179
  27 N :   -0.026344
  28 C :   -0.012620
  29 C :   -0.155741
  30 S :    0.516561
  31 C :   -0.043549
  32 C :   -0.004170
  33 C :   -0.003542
  34 N :   -0.032220
  35 C :    0.066476
  36 C :    0.066131
  37 N :   -0.031831
  38 F :   -0.012597
  39 F :   -0.011950
  40 C :   -0.044836
  41 C :   -0.047637
  42 C :   -0.047904
  43 N :   -0.300413
  44 S :    0.686728
  45 N :   -0.302101
  46 C :   -0.155075
  47 C :   -0.013313
  48 C :   -0.059512
  49 C :   -0.190247
  50 S :    0.514427
  51 C :   -0.159574
  52 C :   -0.070166
  53 C :    0.074353
  54 C :   -0.093291
  55 C :   -0.018351
  56 N :   -0.025459
  57 C :   -0.020990
  58 N :   -0.018619
  59 C :    0.020051
  60 C :   -0.175232
  61 S :    0.493949
  62 C :    0.040471
  63 C :   -0.093457
  64 C :    0.084989
  65 O :   -0.134490
  66 C :   -0.091046
  67 C :   -0.137617
  68 S :    0.489868
  69 C :   -0.150202
  70 C :   -0.064616
  71 C :    0.076808
  72 C :   -0.145325
  73 C :   -0.015365
  74 N :   -0.055740
  75 C :   -0.025196
  76 N :   -0.054054
  77 H :    0.036704
  78 H :    0.035798
  79 H :    0.054353
  80 H :    0.048604
  81 H :    0.038824
  82 H :    0.038851
  83 H :    0.044765
  84 H :    0.043181
  85 H :    0.037226
  86 H :    0.036132

  Mayer bond orders larger than 0.100000
B(  0-C ,  1-C ) :   1.5400 B(  0-C ,  4-C ) :   1.2248 B(  0-C ,  8-C ) :   0.9914
B(  1-C ,  2-S ) :   1.1764 B(  1-C , 77-H ) :   0.9553 B(  2-S ,  3-C ) :   1.1925
B(  3-C ,  4-C ) :   1.5323 B(  3-C , 78-H ) :   0.9726 B(  4-C ,  5-C ) :   0.9726
B(  5-C ,  6-O ) :   2.1167 B(  5-C ,  7-C ) :   0.9745 B(  7-C ,  8-C ) :   1.0854
B(  7-C , 14-C ) :   1.5048 B(  8-C ,  9-C ) :   1.6412 B(  9-C , 10-C ) :   1.1513
B(  9-C , 12-C ) :   1.1380 B( 10-C , 11-N ) :   2.9906 B( 12-C , 13-N ) :   2.9616
B( 14-C , 15-C ) :   1.2667 B( 14-C , 79-H ) :   0.9423 B( 15-C , 16-C ) :   1.3219
B( 15-C , 19-S ) :   1.0714 B( 16-C , 17-C ) :   1.3333 B( 16-C , 80-H ) :   1.0094
B( 17-C , 18-C ) :   1.3484 B( 17-C , 22-C ) :   0.9814 B( 18-C , 19-S ) :   1.1201
B( 18-C , 20-C ) :   1.2109 B( 20-C , 21-C ) :   1.3925 B( 20-C , 30-S ) :   1.0961
B( 21-C , 22-C ) :   0.9939 B( 21-C , 28-C ) :   1.2717 B( 22-C , 23-C ) :   1.7168
B( 23-C , 24-C ) :   1.1354 B( 23-C , 26-C ) :   1.1379 B( 24-C , 25-N ) :   2.9934
B( 26-C , 27-N ) :   2.9907 B( 28-C , 29-C ) :   1.4030 B( 28-C , 81-H ) :   0.9868
B( 29-C , 30-S ) :   1.1075 B( 29-C , 31-C ) :   1.1845 B( 31-C , 32-C ) :   1.2906
B( 31-C , 40-C ) :   0.1277 B( 31-C , 42-C ) :   1.1949 B( 32-C , 33-C ) :   1.1087
B( 32-C , 37-N ) :   1.4395 B( 33-C , 34-N ) :   1.4393 B( 33-C , 40-C ) :   1.2928
B( 34-N , 35-C ) :   1.6583 B( 35-C , 36-C ) :   1.0984 B( 35-C , 39-F ) :   1.1932
B( 36-C , 37-N ) :   1.6580 B( 36-C , 38-F ) :   1.1929 B( 40-C , 41-C ) :   1.1901
B( 40-C , 46-C ) :   1.1841 B( 41-C , 42-C ) :   1.1245 B( 41-C , 45-N ) :   1.4664
B( 42-C , 43-N ) :   1.4670 B( 43-N , 44-S ) :   1.2780 B( 43-N , 45-N ) :   0.1528
B( 44-S , 45-N ) :   1.2753 B( 46-C , 47-C ) :   1.4017 B( 46-C , 50-S ) :   1.1071
B( 47-C , 48-C ) :   1.2705 B( 47-C , 82-H ) :   0.9882 B( 48-C , 49-C ) :   1.3967
B( 48-C , 53-C ) :   0.9911 B( 49-C , 50-S ) :   1.0911 B( 49-C , 51-C ) :   1.2102
B( 51-C , 52-C ) :   1.3728 B( 51-C , 61-S ) :   1.1604 B( 52-C , 53-C ) :   0.9920
B( 52-C , 59-C ) :   1.3314 B( 53-C , 54-C ) :   1.7168 B( 54-C , 55-C ) :   1.1400
B( 54-C , 57-C ) :   1.1353 B( 55-C , 56-N ) :   2.9893 B( 57-C , 58-N ) :   2.9949
B( 59-C , 60-C ) :   1.3981 B( 59-C , 83-H ) :   0.9720 B( 60-C , 61-S ) :   1.0769
B( 60-C , 62-C ) :   1.2055 B( 62-C , 63-C ) :   1.6071 B( 62-C , 84-H ) :   0.9172
B( 63-C , 64-C ) :   0.9323 B( 63-C , 71-C ) :   1.0878 B( 64-C , 65-O ) :   2.1896
B( 64-C , 66-C ) :   0.9583 B( 66-C , 67-C ) :   1.5389 B( 66-C , 70-C ) :   1.2230
B( 67-C , 68-S ) :   1.1905 B( 67-C , 85-H ) :   0.9711 B( 68-S , 69-C ) :   1.1808
B( 69-C , 70-C ) :   1.5303 B( 69-C , 86-H ) :   0.9564 B( 70-C , 71-C ) :   0.9987
B( 71-C , 72-C ) :   1.6349 B( 72-C , 73-C ) :   1.1527 B( 72-C , 75-C ) :   1.1369
B( 73-C , 74-N ) :   2.9923 B( 75-C , 76-N ) :   2.9755

-----------------------------------------------------------------------------
         ABSORPTION SPECTRUM VIA TRANSITION ELECTRIC DIPOLE MOMENTS
-----------------------------------------------------------------------------
State   Energy  Wavelength   fosc         T2         TX        TY        TZ
        (cm-1)    (nm)                  (au**2)     (au)      (au)      (au)
-----------------------------------------------------------------------------
   0    9702.5   1030.7   1.293132436  43.87679  -3.94813  -2.17114   4.85543
   1   14386.7    695.1   0.039177244   0.89650  -0.67881  -0.06459  -0.65692
   2   15269.5    654.9   0.002580518   0.05564   0.07630  -0.06295   0.21413
   3   17732.1    563.9   0.051573043   0.95750  -0.73761  -0.12207  -0.63129
   4   21000.9    476.2   1.323960110  20.75452  -2.66021  -1.56642   3.35024
   5   21392.5    467.5   0.327771369   5.04411   1.67345   0.04183   1.49730
   6   23051.4    433.8   0.114445011   1.63446  -0.81320  -0.42039   0.89243
   7   24931.8    401.1   0.043074530   0.56878  -0.43601   0.19213  -0.58460
   8   25034.2    399.5   0.019484178   0.25623  -0.40842  -0.07031   0.29065
   9   25785.7    387.8   0.006102866   0.07792   0.27234   0.03509  -0.05019
  10   25901.4    386.1   0.011061446   0.14059   0.08457  -0.11452   0.34688
  11   27113.7    368.8   0.022787903   0.27669  -0.05058  -0.32357   0.41162
  12   27704.5    361.0   0.000542590   0.00645   0.01017  -0.04419   0.06627
  13   27728.7    360.6   0.001359309   0.01614  -0.09040   0.08818  -0.01384
  14   28143.1    355.3   0.007884822   0.09224  -0.07030   0.24406  -0.16652
  15   28184.9    354.8   0.000671378   0.00784  -0.03196  -0.04659  -0.06819
  16   28752.4    347.8   0.018713012   0.21426   0.45224  -0.09862  -0.00399
  17   29553.4    338.4   0.016258381   0.18111   0.16587  -0.25571   0.29701
  18   29621.3    337.6   0.149534931   1.66193   0.92502  -0.20337   0.87460
  19   29741.3    336.2   0.011719720   0.12973   0.12254  -0.27343   0.19987
  20   29771.7    335.9   0.130675676   1.44499   0.77893  -0.40217   0.82251
  21   30632.4    326.5   0.047929200   0.51510   0.31451  -0.28180   0.58033
  22   30804.1    324.6   0.003192951   0.03412  -0.06441  -0.16847   0.03990
  23   31024.4    322.3   0.068803630   0.73010   0.42332  -0.36527   0.64612
  24   31090.4    321.6   0.161176500   1.70668  -1.21554  -0.29486  -0.37710
  25   31336.4    319.1   0.065998550   0.69336  -0.64397   0.02131  -0.52746
  26   31830.2    314.2   0.601293867   6.21903   0.81493   0.84150  -2.20154
  27   31947.4    313.0   0.406725911   4.19124  -2.01630  -0.21808  -0.27968
  28   32207.3    310.5   0.256082128   2.61758   1.13671   0.48383  -1.04469
  29   32264.7    309.9   0.067387655   0.68759  -0.21918   0.28969  -0.74540
  30   32615.0    306.6   0.090171557   0.91018   0.01191  -0.69164   0.65701
  31   33169.9    301.5   0.035006182   0.34744   0.56044   0.14242  -0.11428
  32   33318.8    300.1   0.097823892   0.96656   0.34931   0.40131  -0.82674
  33   33764.2    296.2   0.066897529   0.65227   0.31544  -0.27886   0.68921
  34   34016.5    294.0   0.199152093   1.92740  -0.89540   0.82217  -0.67059
  35   34324.0    291.3   0.039754896   0.38130  -0.47545  -0.04288  -0.39168
  36   34376.8    290.9   0.004214572   0.04036  -0.15328   0.04339  -0.12240
  37   34537.0    289.5   0.031432682   0.29962   0.05249  -0.23034   0.49377
  38   34664.7    288.5   0.014639504   0.13903   0.29990  -0.13777   0.17353
  39   34877.0    286.7   0.003184329   0.03006  -0.07537  -0.14775   0.05048
  40   35049.8    285.3   0.020762431   0.19501  -0.43570  -0.05649  -0.04456
  41   35229.9    283.8   0.110368324   1.03136   0.87755  -0.09414   0.50240
  42   35562.2    281.2   0.031965496   0.29592   0.49544  -0.13376   0.18047
  43   35768.2    279.6   0.036146397   0.33269  -0.08568   0.26696  -0.50407
  44   36127.2    276.8   0.851133942   7.75603   2.07832  -0.31201   1.82737
  45   36352.1    275.1   0.178553886   1.61702   0.63270   0.44442  -1.00955
  46   36418.6    274.6   0.000870881   0.00787   0.08843   0.00150  -0.00706
  47   37369.4    267.6   0.185670954   1.63570  -1.06150   0.21379  -0.68060
  48   37467.8    266.9   0.067221109   0.59064   0.75394   0.12676   0.07836
  49   37511.2    266.6   0.017953022   0.15756   0.25489  -0.17118   0.25158
  50   37750.6    264.9   0.017521090   0.15280   0.35029   0.13469  -0.10934
  51   37770.0    264.8   0.003670046   0.03199  -0.16716  -0.01637   0.06148
  52   37867.1    264.1   0.016547164   0.14386  -0.32669  -0.01503  -0.19211
  53   38140.4    262.2   0.027467977   0.23709  -0.15497   0.06235  -0.45737
  54   38219.3    261.6   0.003313123   0.02854   0.14561  -0.07359  -0.04384
  55   38286.1    261.2   0.144406803   1.24171   1.09125  -0.09976   0.20232
  56   38401.7    260.4   0.028414498   0.24359   0.00037  -0.03794   0.49209
  57   38545.2    259.4   0.038159452   0.32592   0.03494   0.45894  -0.33775
  58   38723.1    258.2   0.015953653   0.13563  -0.02000  -0.23942   0.27913
  59   38859.0    257.3   0.453796485   3.84454   0.86329  -1.22719   1.26225
  60   39081.9    255.9   0.016471263   0.13875  -0.35166  -0.08467   0.08897
  61   39136.2    255.5   0.020525003   0.17266   0.35976  -0.12107   0.16902
  62   39322.8    254.3   0.312641353   2.61745  -1.52111   0.41954  -0.35730
  63   39817.6    251.1   0.043418463   0.35898   0.24140   0.36564  -0.40868
  64   39898.2    250.6   0.009842629   0.08121  -0.25752  -0.04757  -0.11240

FINAL SINGLE POINT ENERGY     -5853.350718115888

DIPOLE MOMENT
-------------
                                X             Y             Z
Electronic contribution:     10.15175       2.90342       7.67617
Nuclear contribution   :    -13.04199      -3.18302      -8.97907
                        -----------------------------------------
Total Dipole Moment    :     -2.89024      -0.27960      -1.30290
                        -----------------------------------------
Magnitude (a.u.)       :      3.18264
Magnitude (Debye)      :      8.08964

Rotational constants in cm-1:     0.001635     0.000187     0.000170
Rotational constants in MHz :    49.004628     5.611985     5.081906

                             ****ORCA TERMINATED NORMALLY****
TOTAL RUN TIME: 0 days 0 hours 9 minutes 23 seconds 233 msec
