                         Program Version 4.2.0 -  RELEASE  -
|  1> # ORCA input file
|  2> # SCF done       -216.554946889085          0.000536127329
|  3> ! CAM-B3LYP def2-SVP def2/J RIJCOSX Grid4 TightSCF
|  4> %maxcore 5000
|  5> %tddft
|  6>     Mode sTDDFT
|  7>     Ethresh 5.0
|  8>     maxcore 5000
|  9> end
| 10>
| 11> %pal
| 12>   nprocs 6
| 13>   end
| 14> * xyz 0 1
| 15>    C        2.70861         8.24290        -2.81441
| 16>    C        1.53150         7.73945        -2.33044
| 17>    C        1.51861         6.53691        -1.60772
| 18>    C        2.68226         5.85430        -1.37950
| 19>    C        3.91215         6.34384        -1.86494
| 20>    C        5.11548         5.63964        -1.63434
| 21>    C        6.29783         6.14774        -2.10240
| 22>    C        6.30122         7.37050        -2.83332
| 23>    C        5.15362         8.06602        -3.08314
| 24>    C        3.92487         7.56633        -2.59622
| 25>    C        7.68202         7.69787        -3.22015
| 26>    O        8.07144         8.61000        -3.90964
| 27>    C        8.53727         6.67537        -2.53699
| 28>    C        7.66547         5.64361        -2.01662
| 29>    C        7.99446         4.35530        -1.67585
| 30>    C        9.26512         3.76574        -1.81237
| 31>    N       10.25792         3.19491        -1.90366
| 32>    C        7.08350         3.43201        -1.12823
| 33>    N        6.41286         2.65590        -0.60954
| 34>    C        9.86320         6.95564        -2.42386
| 35>    C       10.84803         6.39292        -1.57475
| 36>    C       10.67174         5.63080        -0.44908
| 37>    C       11.87268         5.24702         0.17400
| 38>    C       12.10625         4.34485         1.23730
| 39>    C       13.44121         4.27960         1.69574
| 40>    C       14.45096         4.95068         0.95787
| 41>    N       14.25677         5.65220        -0.13624
| 42>    C       13.00109         5.81379        -0.49203
| 43>    S       12.54775         6.72945        -1.88431
| 44>    S       16.04382         4.73893         1.62744
| 45>    C       15.35445         3.83304         2.94151
| 46>    C       14.01051         3.66488         2.85099
| 47>    F       13.29466         3.07017         3.81793
| 48>    F       16.13288         3.39457         3.92083
| 49>    C       11.10759         3.41857         1.70734
| 50>    C        9.71683         3.51478         1.82160
| 51>    C        9.10422         2.28786         2.26334
| 52>    N        7.79641         2.18627         2.49187
| 53>    C        7.06038         3.24391         2.24553
| 54>    C        5.60432         3.15643         2.52084
| 55>    O        5.08758         2.19478         3.04123
| 56>    C        4.83016         4.35754         2.14591
| 57>    C        5.37141         5.46206         1.62245
| 58>    C        6.80461         5.59453         1.32373
| 59>    O        7.26067         6.54195         0.71297
| 60>    C        7.64721         4.44930         1.74816
| 61>    N        8.94350         4.58115         1.57827
| 62>    C       10.01797         1.24316         2.42772
| 63>    S       11.60396         1.79258         2.07285
| 64>    C        9.70503        -0.07841         2.82433
| 65>    C       10.58864        -1.11794         2.97891
| 66>    C        9.95815        -2.30212         3.40812
| 67>    C       10.51154        -3.57455         3.64881
| 68>    C        9.63227        -4.55839         4.11211
| 69>    C        8.25033        -4.24298         4.20122
| 70>    N        7.71526        -3.07602         3.92384
| 71>    C        8.55115        -2.12675         3.55523
| 72>    S        8.04304        -0.51234         3.17607
| 73>    S        7.29125        -5.59586         4.73346
| 74>    C        8.73970        -6.54799         4.89874
| 75>    C        9.87465        -5.89216         4.55257
| 76>    F       11.10092        -6.42326         4.67833
| 77>    F        8.65866        -7.79506         5.34525
| 78>    C       11.92201        -3.76785         3.38398
| 79>    C       12.47114        -4.77587         2.68029
| 80>    C       13.89471        -4.94428         2.40355
| 81>    C       14.82713        -3.94432         2.39147
| 82>    C       16.19224        -4.14873         2.09643
| 83>    N       17.31104        -4.26608         1.87216
| 84>    C       14.51306        -2.58042         2.57546
| 85>    N       14.28648        -1.45793         2.66367
| 86>    C       14.09585        -6.32787         2.00761
| 87>    C       12.81986        -6.93569         1.81288
| 88>    C       12.69878        -8.23359         1.40675
| 89>    C       13.86593        -8.99749         1.18342
| 90>    C       13.80085       -10.34149         0.76621
| 91>    C       14.94356       -11.06451         0.55533
| 92>    C       16.20188       -10.47558         0.75203
| 93>    C       16.30066        -9.17273         1.15780
| 94>    C       15.14421        -8.39831         1.38419
| 95>    C       15.24093        -7.05125         1.79856
| 96>    C       11.75736        -5.96377         2.11487
| 97>    O       10.56873        -6.07961         1.92248
| 98>    H        2.72414         9.16818        -3.37126
| 99>    H        0.60384         8.26449        -2.50183
|100>    H        0.58125         6.15330        -1.23385
|101>    H        2.67841         4.92546        -0.82754
|102>    H        5.06762         4.71620        -1.07903
|103>    H        5.18257         8.98783        -3.64475
|104>    H       10.19751         7.78362        -3.04305
|105>    H        9.70930         5.44973        -0.00664
|106>    H        3.76645         4.28789         2.33037
|107>    H        4.76613         6.31968         1.35967
|108>    H       11.64492        -1.01502         2.79774
|109>    H       12.56115        -2.97593         3.75294
|110>    H       11.72361        -8.67391         1.26143
|111>    H       12.82984       -10.78993         0.61619
|112>    H       14.88442       -12.09405         0.23581
|113>    H       17.09308       -11.06022         0.58041
|114>    H       17.26681        -8.71427         1.30895
|115>    H       16.21968        -6.62328         1.95068
|116> *
|117>
|118>                          ****END OF INPUT****

CARTESIAN COORDINATES (ANGSTROEM)
---------------------------------
  C      2.708610    8.242900   -2.814410
  C      1.531500    7.739450   -2.330440
  C      1.518610    6.536910   -1.607720
  C      2.682260    5.854300   -1.379500
  C      3.912150    6.343840   -1.864940
  C      5.115480    5.639640   -1.634340
  C      6.297830    6.147740   -2.102400
  C      6.301220    7.370500   -2.833320
  C      5.153620    8.066020   -3.083140
  C      3.924870    7.566330   -2.596220
  C      7.682020    7.697870   -3.220150
  O      8.071440    8.610000   -3.909640
  C      8.537270    6.675370   -2.536990
  C      7.665470    5.643610   -2.016620
  C      7.994460    4.355300   -1.675850
  C      9.265120    3.765740   -1.812370
  N     10.257920    3.194910   -1.903660
  C      7.083500    3.432010   -1.128230
  N      6.412860    2.655900   -0.609540
  C      9.863200    6.955640   -2.423860
  C     10.848030    6.392920   -1.574750
  C     10.671740    5.630800   -0.449080
  C     11.872680    5.247020    0.174000
  C     12.106250    4.344850    1.237300
  C     13.441210    4.279600    1.695740
  C     14.450960    4.950680    0.957870
  N     14.256770    5.652200   -0.136240
  C     13.001090    5.813790   -0.492030
  S     12.547750    6.729450   -1.884310
  S     16.043820    4.738930    1.627440
  C     15.354450    3.833040    2.941510
  C     14.010510    3.664880    2.850990
  F     13.294660    3.070170    3.817930
  F     16.132880    3.394570    3.920830
  C     11.107590    3.418570    1.707340
  C      9.716830    3.514780    1.821600
  C      9.104220    2.287860    2.263340
  N      7.796410    2.186270    2.491870
  C      7.060380    3.243910    2.245530
  C      5.604320    3.156430    2.520840
  O      5.087580    2.194780    3.041230
  C      4.830160    4.357540    2.145910
  C      5.371410    5.462060    1.622450
  C      6.804610    5.594530    1.323730
  O      7.260670    6.541950    0.712970
  C      7.647210    4.449300    1.748160
  N      8.943500    4.581150    1.578270
  C     10.017970    1.243160    2.427720
  S     11.603960    1.792580    2.072850
  C      9.705030   -0.078410    2.824330
  C     10.588640   -1.117940    2.978910
  C      9.958150   -2.302120    3.408120
  C     10.511540   -3.574550    3.648810
  C      9.632270   -4.558390    4.112110
  C      8.250330   -4.242980    4.201220
  N      7.715260   -3.076020    3.923840
  C      8.551150   -2.126750    3.555230
  S      8.043040   -0.512340    3.176070
  S      7.291250   -5.595860    4.733460
  C      8.739700   -6.547990    4.898740
  C      9.874650   -5.892160    4.552570
  F     11.100920   -6.423260    4.678330
  F      8.658660   -7.795060    5.345250
  C     11.922010   -3.767850    3.383980
  C     12.471140   -4.775870    2.680290
  C     13.894710   -4.944280    2.403550
  C     14.827130   -3.944320    2.391470
  C     16.192240   -4.148730    2.096430
  N     17.311040   -4.266080    1.872160
  C     14.513060   -2.580420    2.575460
  N     14.286480   -1.457930    2.663670
  C     14.095850   -6.327870    2.007610
  C     12.819860   -6.935690    1.812880
  C     12.698780   -8.233590    1.406750
  C     13.865930   -8.997490    1.183420
  C     13.800850  -10.341490    0.766210
  C     14.943560  -11.064510    0.555330
  C     16.201880  -10.475580    0.752030
  C     16.300660   -9.172730    1.157800
  C     15.144210   -8.398310    1.384190
  C     15.240930   -7.051250    1.798560
  C     11.757360   -5.963770    2.114870
  O     10.568730   -6.079610    1.922480
  H      2.724140    9.168180   -3.371260
  H      0.603840    8.264490   -2.501830
  H      0.581250    6.153300   -1.233850
  H      2.678410    4.925460   -0.827540
  H      5.067620    4.716200   -1.079030
  H      5.182570    8.987830   -3.644750
  H     10.197510    7.783620   -3.043050
  H      9.709300    5.449730   -0.006640
  H      3.766450    4.287890    2.330370
  H      4.766130    6.319680    1.359670
  H     11.644920   -1.015020    2.797740
  H     12.561150   -2.975930    3.752940
  H     11.723610   -8.673910    1.261430
  H     12.829840  -10.789930    0.616190
  H     14.884420  -12.094050    0.235810
  H     17.093080  -11.060220    0.580410
  H     17.266810   -8.714270    1.308950
  H     16.219680   -6.623280    1.950680

 Total Charge           Charge          ....    0
 Multiplicity           Mult            ....    1
 Number of Electrons    NEL             ....  594
 Basis Dimension        Dim             .... 1272

ORBITAL ENERGIES
----------------

  NO   OCC          E(Eh)            E(eV)
   0   2.0000     -88.998675     -2421.7771
   1   2.0000     -88.972047     -2421.0525
   2   2.0000     -88.966580     -2420.9037
   3   2.0000     -88.956073     -2420.6178
   4   2.0000     -88.954525     -2420.5757
   5   2.0000     -24.811040      -675.1427
   6   2.0000     -24.809976      -675.1138
   7   2.0000     -24.801210      -674.8752
   8   2.0000     -24.800489      -674.8556
   9   2.0000     -19.236981      -523.4649
  10   2.0000     -19.226236      -523.1725
  11   2.0000     -19.221115      -523.0331
  12   2.0000     -19.213122      -522.8156
  13   2.0000     -14.451470      -393.2445
  14   2.0000     -14.449604      -393.1937
  15   2.0000     -14.428204      -392.6114
  16   2.0000     -14.427697      -392.5976
  17   2.0000     -14.425680      -392.5427
  18   2.0000     -14.424169      -392.5016
  19   2.0000     -14.422628      -392.4597
  20   2.0000     -14.417239      -392.3130
  21   2.0000     -10.391933      -282.7789
  22   2.0000     -10.389561      -282.7143
  23   2.0000     -10.384052      -282.5644
  24   2.0000     -10.375590      -282.3342
  25   2.0000     -10.373188      -282.2688
  26   2.0000     -10.371245      -282.2159
  27   2.0000     -10.366557      -282.0883
  28   2.0000     -10.363348      -282.0010
  29   2.0000     -10.353717      -281.7390
  30   2.0000     -10.352415      -281.7035
  31   2.0000     -10.349257      -281.6176
  32   2.0000     -10.347190      -281.5614
  33   2.0000     -10.345596      -281.5180
  34   2.0000     -10.345562      -281.5171
  35   2.0000     -10.343986      -281.4742
  36   2.0000     -10.341774      -281.4140
  37   2.0000     -10.340922      -281.3908
  38   2.0000     -10.338438      -281.3232
  39   2.0000     -10.335905      -281.2543
  40   2.0000     -10.335250      -281.2365
  41   2.0000     -10.333534      -281.1898
  42   2.0000     -10.333428      -281.1869
  43   2.0000     -10.331587      -281.1368
  44   2.0000     -10.331295      -281.1288
  45   2.0000     -10.328221      -281.0452
  46   2.0000     -10.324686      -280.9490
  47   2.0000     -10.324615      -280.9471
  48   2.0000     -10.323042      -280.9043
  49   2.0000     -10.318942      -280.7927
  50   2.0000     -10.318923      -280.7922
  51   2.0000     -10.315927      -280.7107
  52   2.0000     -10.313958      -280.6571
  53   2.0000     -10.312935      -280.6292
  54   2.0000     -10.311920      -280.6016
  55   2.0000     -10.311816      -280.5988
  56   2.0000     -10.309832      -280.5448
  57   2.0000     -10.309230      -280.5284
  58   2.0000     -10.305726      -280.4331
  59   2.0000     -10.303264      -280.3661
  60   2.0000     -10.303065      -280.3607
  61   2.0000     -10.302728      -280.3515
  62   2.0000     -10.302476      -280.3446
  63   2.0000     -10.301259      -280.3115
  64   2.0000     -10.300308      -280.2856
  65   2.0000     -10.299010      -280.2503
  66   2.0000     -10.298063      -280.2245
  67   2.0000     -10.298047      -280.2241
  68   2.0000     -10.297801      -280.2174
  69   2.0000     -10.296526      -280.1827
  70   2.0000     -10.296031      -280.1693
  71   2.0000     -10.294341      -280.1233
  72   2.0000     -10.290641      -280.0226
  73   2.0000     -10.290096      -280.0078
  74   2.0000     -10.289896      -280.0023
  75   2.0000     -10.289537      -279.9925
  76   2.0000     -10.289415      -279.9892
  77   2.0000     -10.288250      -279.9575
  78   2.0000     -10.288165      -279.9552
  79   2.0000     -10.287790      -279.9450
  80   2.0000     -10.287602      -279.9399
  81   2.0000     -10.287189      -279.9286
  82   2.0000     -10.285862      -279.8925
  83   2.0000      -8.092631      -220.2117
  84   2.0000      -8.069317      -219.5773
  85   2.0000      -8.063815      -219.4276
  86   2.0000      -8.052810      -219.1281
  87   2.0000      -8.049675      -219.0428
  88   2.0000      -6.061387      -164.9387
  89   2.0000      -6.057199      -164.8248
  90   2.0000      -6.055970      -164.7913
  91   2.0000      -6.038821      -164.3247
  92   2.0000      -6.035023      -164.2213
  93   2.0000      -6.033411      -164.1775
  94   2.0000      -6.030095      -164.0872
  95   2.0000      -6.029537      -164.0720
  96   2.0000      -6.024502      -163.9350
  97   2.0000      -6.022190      -163.8721
  98   2.0000      -6.019265      -163.7925
  99   2.0000      -6.018314      -163.7667
 100   2.0000      -6.014983      -163.6760
 101   2.0000      -6.014117      -163.6524
 102   2.0000      -6.011005      -163.5678
 103   2.0000      -1.330033       -36.1920
 104   2.0000      -1.328408       -36.1478
 105   2.0000      -1.311523       -35.6884
 106   2.0000      -1.310866       -35.6705
 107   2.0000      -1.151365       -31.3302
 108   2.0000      -1.141619       -31.0650
 109   2.0000      -1.137031       -30.9402
 110   2.0000      -1.129104       -30.7245
 111   2.0000      -1.103062       -30.0158
 112   2.0000      -1.077242       -29.3132
 113   2.0000      -1.071507       -29.1572
 114   2.0000      -1.030414       -28.0390
 115   2.0000      -1.027305       -27.9544
 116   2.0000      -1.022975       -27.8366
 117   2.0000      -1.012288       -27.5457
 118   2.0000      -1.006524       -27.3889
 119   2.0000      -1.002552       -27.2808
 120   2.0000      -1.001804       -27.2605
 121   2.0000      -0.998665       -27.1751
 122   2.0000      -0.994974       -27.0746
 123   2.0000      -0.989561       -26.9273
 124   2.0000      -0.978556       -26.6279
 125   2.0000      -0.974743       -26.5241
 126   2.0000      -0.970196       -26.4004
 127   2.0000      -0.967000       -26.3134
 128   2.0000      -0.943015       -25.6608
 129   2.0000      -0.940755       -25.5993
 130   2.0000      -0.930121       -25.3099
 131   2.0000      -0.926168       -25.2023
 132   2.0000      -0.922886       -25.1130
 133   2.0000      -0.901931       -24.5428
 134   2.0000      -0.898499       -24.4494
 135   2.0000      -0.886260       -24.1164
 136   2.0000      -0.882743       -24.0207
 137   2.0000      -0.877178       -23.8692
 138   2.0000      -0.873719       -23.7751
 139   2.0000      -0.867577       -23.6080
 140   2.0000      -0.860602       -23.4182
 141   2.0000      -0.854329       -23.2475
 142   2.0000      -0.850928       -23.1549
 143   2.0000      -0.833416       -22.6784
 144   2.0000      -0.829470       -22.5710
 145   2.0000      -0.826946       -22.5023
 146   2.0000      -0.820785       -22.3347
 147   2.0000      -0.817053       -22.2331
 148   2.0000      -0.813829       -22.1454
 149   2.0000      -0.801395       -21.8071
 150   2.0000      -0.796324       -21.6691
 151   2.0000      -0.791565       -21.5396
 152   2.0000      -0.784832       -21.3564
 153   2.0000      -0.767614       -20.8878
 154   2.0000      -0.764167       -20.7940
 155   2.0000      -0.756995       -20.5989
 156   2.0000      -0.751710       -20.4551
 157   2.0000      -0.732539       -19.9334
 158   2.0000      -0.725112       -19.7313
 159   2.0000      -0.714205       -19.4345
 160   2.0000      -0.713273       -19.4092
 161   2.0000      -0.709462       -19.3054
 162   2.0000      -0.707520       -19.2526
 163   2.0000      -0.703400       -19.1405
 164   2.0000      -0.701524       -19.0894
 165   2.0000      -0.697930       -18.9916
 166   2.0000      -0.689059       -18.7502
 167   2.0000      -0.686773       -18.6881
 168   2.0000      -0.685239       -18.6463
 169   2.0000      -0.678354       -18.4589
 170   2.0000      -0.676916       -18.4198
 171   2.0000      -0.675958       -18.3938
 172   2.0000      -0.663380       -18.0515
 173   2.0000      -0.660530       -17.9739
 174   2.0000      -0.655019       -17.8240
 175   2.0000      -0.653649       -17.7867
 176   2.0000      -0.643676       -17.5153
 177   2.0000      -0.639645       -17.4056
 178   2.0000      -0.633932       -17.2502
 179   2.0000      -0.625480       -17.0202
 180   2.0000      -0.622588       -16.9415
 181   2.0000      -0.618187       -16.8217
 182   2.0000      -0.616681       -16.7807
 183   2.0000      -0.612247       -16.6601
 184   2.0000      -0.610473       -16.6118
 185   2.0000      -0.608057       -16.5461
 186   2.0000      -0.604132       -16.4393
 187   2.0000      -0.602390       -16.3919
 188   2.0000      -0.596003       -16.2181
 189   2.0000      -0.593988       -16.1632
 190   2.0000      -0.592286       -16.1169
 191   2.0000      -0.591799       -16.1037
 192   2.0000      -0.586649       -15.9635
 193   2.0000      -0.576705       -15.6929
 194   2.0000      -0.574670       -15.6376
 195   2.0000      -0.570535       -15.5250
 196   2.0000      -0.565491       -15.3878
 197   2.0000      -0.562862       -15.3163
 198   2.0000      -0.561434       -15.2774
 199   2.0000      -0.559727       -15.2309
 200   2.0000      -0.558995       -15.2110
 201   2.0000      -0.557546       -15.1716
 202   2.0000      -0.554350       -15.0846
 203   2.0000      -0.551719       -15.0130
 204   2.0000      -0.550918       -14.9913
 205   2.0000      -0.548838       -14.9347
 206   2.0000      -0.545676       -14.8486
 207   2.0000      -0.542482       -14.7617
 208   2.0000      -0.537352       -14.6221
 209   2.0000      -0.535944       -14.5838
 210   2.0000      -0.534206       -14.5365
 211   2.0000      -0.533880       -14.5276
 212   2.0000      -0.531041       -14.4504
 213   2.0000      -0.527565       -14.3558
 214   2.0000      -0.526374       -14.3234
 215   2.0000      -0.524650       -14.2765
 216   2.0000      -0.523403       -14.2425
 217   2.0000      -0.521366       -14.1871
 218   2.0000      -0.518902       -14.1200
 219   2.0000      -0.517561       -14.0835
 220   2.0000      -0.516631       -14.0582
 221   2.0000      -0.516008       -14.0413
 222   2.0000      -0.512700       -13.9513
 223   2.0000      -0.511833       -13.9277
 224   2.0000      -0.511447       -13.9172
 225   2.0000      -0.508443       -13.8354
 226   2.0000      -0.505583       -13.7576
 227   2.0000      -0.501891       -13.6572
 228   2.0000      -0.501720       -13.6525
 229   2.0000      -0.495153       -13.4738
 230   2.0000      -0.493689       -13.4340
 231   2.0000      -0.493050       -13.4166
 232   2.0000      -0.490232       -13.3399
 233   2.0000      -0.487482       -13.2651
 234   2.0000      -0.487042       -13.2531
 235   2.0000      -0.484585       -13.1862
 236   2.0000      -0.478923       -13.0322
 237   2.0000      -0.476192       -12.9578
 238   2.0000      -0.471887       -12.8407
 239   2.0000      -0.470721       -12.8090
 240   2.0000      -0.467929       -12.7330
 241   2.0000      -0.466110       -12.6835
 242   2.0000      -0.464244       -12.6327
 243   2.0000      -0.459833       -12.5127
 244   2.0000      -0.456703       -12.4275
 245   2.0000      -0.453946       -12.3525
 246   2.0000      -0.452641       -12.3170
 247   2.0000      -0.450501       -12.2588
 248   2.0000      -0.447921       -12.1886
 249   2.0000      -0.445822       -12.1314
 250   2.0000      -0.444266       -12.0891
 251   2.0000      -0.443676       -12.0730
 252   2.0000      -0.442178       -12.0323
 253   2.0000      -0.441694       -12.0191
 254   2.0000      -0.439600       -11.9621
 255   2.0000      -0.438695       -11.9375
 256   2.0000      -0.437508       -11.9052
 257   2.0000      -0.435184       -11.8420
 258   2.0000      -0.434092       -11.8122
 259   2.0000      -0.431161       -11.7325
 260   2.0000      -0.430009       -11.7011
 261   2.0000      -0.428686       -11.6652
 262   2.0000      -0.427082       -11.6215
 263   2.0000      -0.426800       -11.6138
 264   2.0000      -0.422035       -11.4841
 265   2.0000      -0.418436       -11.3862
 266   2.0000      -0.414602       -11.2819
 267   2.0000      -0.409367       -11.1394
 268   2.0000      -0.408347       -11.1117
 269   2.0000      -0.400026       -10.8853
 270   2.0000      -0.395637       -10.7658
 271   2.0000      -0.390419       -10.6238
 272   2.0000      -0.389219       -10.5912
 273   2.0000      -0.381048       -10.3688
 274   2.0000      -0.379610       -10.3297
 275   2.0000      -0.372241       -10.1292
 276   2.0000      -0.368475       -10.0267
 277   2.0000      -0.357739        -9.7346
 278   2.0000      -0.353367        -9.6156
 279   2.0000      -0.349745        -9.5170
 280   2.0000      -0.348838        -9.4924
 281   2.0000      -0.344346        -9.3701
 282   2.0000      -0.342363        -9.3162
 283   2.0000      -0.340054        -9.2533
 284   2.0000      -0.334783        -9.1099
 285   2.0000      -0.333634        -9.0786
 286   2.0000      -0.332785        -9.0555
 287   2.0000      -0.330579        -8.9955
 288   2.0000      -0.325940        -8.8693
 289   2.0000      -0.320157        -8.7119
 290   2.0000      -0.316549        -8.6137
 291   2.0000      -0.299454        -8.1485
 292   2.0000      -0.296807        -8.0765
 293   2.0000      -0.291419        -7.9299
 294   2.0000      -0.285733        -7.7752
 295   2.0000      -0.278469        -7.5775
 296   2.0000      -0.256149        -6.9702
 297   0.0000      -0.109132        -2.9696
 298   0.0000      -0.096420        -2.6237
 299   0.0000      -0.095039        -2.5861
 300   0.0000      -0.083548        -2.2734
 301   0.0000      -0.060890        -1.6569

MULLIKEN ATOMIC CHARGES
-----------------------
   0 C :   -0.012658
   1 C :    0.033237
   2 C :    0.038631
   3 C :   -0.028374
   4 C :    0.097752
   5 C :   -0.102339
   6 C :    0.064906
   7 C :    0.013854
   8 C :   -0.078699
   9 C :    0.093132
  10 C :    0.127876
  11 O :   -0.140434
  12 C :   -0.118817
  13 C :    0.332246
  14 C :   -0.373221
  15 C :   -0.217836
  16 N :    0.188249
  17 C :   -0.166203
  18 N :    0.126828
  19 C :    0.076514
  20 C :   -0.076966
  21 C :   -0.018617
  22 C :    0.047594
  23 C :    0.171808
  24 C :   -0.021502
  25 C :   -0.163052
  26 N :   -0.003834
  27 C :   -0.135298
  28 S :    0.151607
  29 S :    0.144786
  30 C :    0.074887
  31 C :    0.215892
  32 F :   -0.175943
  33 F :   -0.144834
  34 C :   -0.263930
  35 C :    0.116679
  36 C :   -0.010498
  37 N :    0.061066
  38 C :   -0.116270
  39 C :    0.160235
  40 O :   -0.093227
  41 C :   -0.016729
  42 C :   -0.002827
  43 C :    0.127178
  44 O :   -0.128615
  45 C :   -0.082688
  46 N :    0.022074
  47 C :   -0.112927
  48 S :    0.277529
  49 C :   -0.038451
  50 C :   -0.091513
  51 C :    0.100814
  52 C :    0.069103
  53 C :    0.073604
  54 C :   -0.167300
  55 N :   -0.006339
  56 C :   -0.136246
  57 S :    0.207669
  58 S :    0.135102
  59 C :    0.062298
  60 C :    0.232653
  61 F :   -0.182231
  62 F :   -0.149333
  63 C :   -0.083702
  64 C :   -0.035943
  65 C :    0.272134
  66 C :   -0.325337
  67 C :   -0.180151
  68 N :    0.157237
  69 C :   -0.165709
  70 N :    0.134552
  71 C :    0.053556
  72 C :    0.012625
  73 C :   -0.080277
  74 C :    0.098819
  75 C :   -0.017055
  76 C :    0.040531
  77 C :    0.036746
  78 C :   -0.017290
  79 C :    0.097190
  80 C :   -0.083247
  81 C :    0.140618
  82 O :   -0.137518
  83 H :   -0.016619
  84 H :   -0.004806
  85 H :   -0.005833
  86 H :   -0.016695
  87 H :   -0.014170
  88 H :   -0.012831
  89 H :    0.021941
  90 H :    0.032734
  91 H :    0.018062
  92 H :    0.019448
  93 H :   -0.004466
  94 H :    0.041213
  95 H :   -0.009744
  96 H :   -0.015607
  97 H :   -0.002527
  98 H :   -0.002733
  99 H :   -0.009018
 100 H :   -0.004188
Sum of atomic charges:   -0.0000000

LOEWDIN ATOMIC CHARGES
----------------------
   0 C :   -0.007327
   1 C :   -0.014375
   2 C :   -0.013359
   3 C :   -0.013211
   4 C :   -0.006848
   5 C :    0.007662
   6 C :   -0.016128
   7 C :   -0.052188
   8 C :    0.033895
   9 C :   -0.009299
  10 C :    0.086232
  11 O :   -0.139509
  12 C :   -0.080594
  13 C :    0.081019
  14 C :   -0.152579
  15 C :   -0.017409
  16 N :   -0.043659
  17 C :   -0.012737
  18 N :   -0.068315
  19 C :    0.057195
  20 C :   -0.169703
  21 C :    0.005333
  22 C :   -0.051974
  23 C :   -0.000257
  24 C :   -0.092805
  25 C :   -0.124985
  26 N :   -0.094069
  27 C :   -0.121934
  28 S :    0.425767
  29 S :    0.424924
  30 C :   -0.094222
  31 C :   -0.011687
  32 F :   -0.055901
  33 F :   -0.035321
  34 C :   -0.175103
  35 C :   -0.036656
  36 C :   -0.048557
  37 N :    0.005035
  38 C :   -0.034738
  39 C :    0.060969
  40 O :   -0.089035
  41 C :   -0.001882
  42 C :   -0.020431
  43 C :    0.062750
  44 O :   -0.109381
  45 C :   -0.034925
  46 N :    0.001054
  47 C :   -0.182110
  48 S :    0.589681
  49 C :   -0.161677
  50 C :   -0.053271
  51 C :   -0.050397
  52 C :   -0.006166
  53 C :   -0.066062
  54 C :   -0.126759
  55 N :   -0.083870
  56 C :   -0.135320
  57 S :    0.474460
  58 S :    0.416873
  59 C :   -0.089217
  60 C :   -0.000111
  61 F :   -0.048894
  62 F :   -0.039124
  63 C :    0.063600
  64 C :   -0.063004
  65 C :    0.081328
  66 C :   -0.133337
  67 C :   -0.018938
  68 N :   -0.044409
  69 C :   -0.010763
  70 N :   -0.058315
  71 C :   -0.026070
  72 C :   -0.052362
  73 C :    0.035330
  74 C :   -0.005718
  75 C :   -0.008207
  76 C :   -0.009370
  77 C :   -0.011351
  78 C :   -0.004589
  79 C :   -0.005352
  80 C :    0.022288
  81 C :    0.079518
  82 O :   -0.127671
  83 H :    0.032396
  84 H :    0.032888
  85 H :    0.032818
  86 H :    0.031760
  87 H :    0.032608
  88 H :    0.039574
  89 H :    0.046190
  90 H :    0.027535
  91 H :    0.045329
  92 H :    0.045316
  93 H :    0.029229
  94 H :    0.047088
  95 H :    0.040469
  96 H :    0.032860
  97 H :    0.033902
  98 H :    0.034088
  99 H :    0.034972
 100 H :    0.039600

  Mayer bond orders larger than 0.100000
B(  0-C ,  1-C ) :   1.4885 B(  0-C ,  9-C ) :   1.2442 B(  0-C , 83-H ) :   0.9969
B(  1-C ,  2-C ) :   1.2600 B(  1-C , 84-H ) :   0.9891 B(  2-C ,  3-C ) :   1.4890
B(  2-C , 85-H ) :   0.9886 B(  3-C ,  4-C ) :   1.2340 B(  3-C , 86-H ) :   0.9978
B(  4-C ,  5-C ) :   1.2126 B(  4-C ,  9-C ) :   1.2608 B(  5-C ,  6-C ) :   1.4517
B(  5-C , 87-H ) :   0.9752 B(  6-C ,  7-C ) :   1.2233 B(  6-C , 13-C ) :   1.0089
B(  7-C ,  8-C ) :   1.4717 B(  7-C , 10-C ) :   0.9204 B(  8-C ,  9-C ) :   1.1805
B(  8-C , 88-H ) :   1.0144 B( 10-C , 11-O ) :   2.2656 B( 10-C , 12-C ) :   0.9371
B( 12-C , 13-C ) :   1.0408 B( 12-C , 19-C ) :   1.6710 B( 13-C , 14-C ) :   1.6093
B( 14-C , 15-C ) :   1.1838 B( 14-C , 17-C ) :   1.1396 B( 15-C , 16-N ) :   2.9839
B( 17-C , 18-N ) :   2.9024 B( 19-C , 20-C ) :   1.1381 B( 19-C , 89-H ) :   0.9265
B( 20-C , 21-C ) :   1.4740 B( 20-C , 28-S ) :   1.0583 B( 21-C , 22-C ) :   1.2479
B( 21-C , 90-H ) :   0.9434 B( 22-C , 23-C ) :   1.3183 B( 22-C , 27-C ) :   1.1896
B( 23-C , 24-C ) :   1.3187 B( 23-C , 34-C ) :   1.0806 B( 24-C , 25-C ) :   1.1811
B( 24-C , 31-C ) :   1.0887 B( 25-C , 26-N ) :   1.5535 B( 25-C , 29-S ) :   1.0847
B( 26-N , 27-C ) :   1.5346 B( 27-C , 28-S ) :   1.1002 B( 29-S , 30-C ) :   1.0826
B( 30-C , 31-C ) :   1.5063 B( 30-C , 33-F ) :   1.1479 B( 31-C , 32-F ) :   1.1319
B( 34-C , 35-C ) :   1.3437 B( 34-C , 47-C ) :   0.1339 B( 34-C , 48-S ) :   1.2026
B( 35-C , 36-C ) :   1.1777 B( 35-C , 46-N ) :   1.4024 B( 36-C , 37-N ) :   1.4333
B( 36-C , 47-C ) :   1.3006 B( 37-N , 38-C ) :   1.7025 B( 38-C , 39-C ) :   0.8906
B( 38-C , 45-C ) :   1.1028 B( 39-C , 40-O ) :   2.2621 B( 39-C , 41-C ) :   1.0181
B( 41-C , 42-C ) :   1.6749 B( 41-C , 91-H ) :   0.9947 B( 42-C , 43-C ) :   1.0322
B( 42-C , 92-H ) :   0.9914 B( 43-C , 44-O ) :   2.1511 B( 43-C , 45-C ) :   0.9017
B( 45-C , 46-N ) :   1.7002 B( 47-C , 48-S ) :   1.2314 B( 47-C , 49-C ) :   1.2062
B( 49-C , 50-C ) :   1.4850 B( 49-C , 57-S ) :   1.0989 B( 50-C , 51-C ) :   1.1986
B( 50-C , 93-H ) :   0.9835 B( 51-C , 52-C ) :   1.3157 B( 51-C , 56-C ) :   1.1820
B( 52-C , 53-C ) :   1.3799 B( 52-C , 63-C ) :   1.0415 B( 53-C , 54-C ) :   1.1749
B( 53-C , 60-C ) :   1.0836 B( 54-C , 55-N ) :   1.5666 B( 54-C , 58-S ) :   1.0679
B( 55-N , 56-C ) :   1.5342 B( 56-C , 57-S ) :   1.0636 B( 58-S , 59-C ) :   1.0861
B( 59-C , 60-C ) :   1.5098 B( 59-C , 62-F ) :   1.1453 B( 60-C , 61-F ) :   1.1115
B( 63-C , 64-C ) :   1.7532 B( 63-C , 94-H ) :   0.9256 B( 64-C , 65-C ) :   1.0281
B( 64-C , 81-C ) :   0.9045 B( 65-C , 66-C ) :   1.6676 B( 65-C , 71-C ) :   1.0051
B( 66-C , 67-C ) :   1.1303 B( 66-C , 69-C ) :   1.1464 B( 67-C , 68-N ) :   2.9845
B( 69-C , 70-N ) :   2.9414 B( 71-C , 72-C ) :   1.2128 B( 71-C , 80-C ) :   1.4389
B( 72-C , 73-C ) :   1.4684 B( 72-C , 81-C ) :   0.9355 B( 73-C , 74-C ) :   1.1857
B( 73-C , 95-H ) :   1.0171 B( 74-C , 75-C ) :   1.2419 B( 74-C , 79-C ) :   1.2533
B( 75-C , 76-C ) :   1.4903 B( 75-C , 96-H ) :   0.9988 B( 76-C , 77-C ) :   1.2582
B( 76-C , 97-H ) :   0.9883 B( 77-C , 78-C ) :   1.4901 B( 77-C , 98-H ) :   0.9892
B( 78-C , 79-C ) :   1.2379 B( 78-C , 99-H ) :   0.9984 B( 79-C , 80-C ) :   1.2093
B( 80-C ,100-H ) :   0.9939 B( 81-C , 82-O ) :   2.2392

-----------------------------------------------------------------------------
         ABSORPTION SPECTRUM VIA TRANSITION ELECTRIC DIPOLE MOMENTS
-----------------------------------------------------------------------------
State   Energy  Wavelength   fosc         T2         TX        TY        TZ
        (cm-1)    (nm)                  (au**2)     (au)      (au)      (au)
-----------------------------------------------------------------------------
   0   15179.0    658.8   0.463768557  10.05852   0.10508  -2.88056   1.32283
   1   18776.2    532.6   0.252121128   4.42056   1.72277  -1.20509   0.01941
   2   19761.4    506.0   0.119922719   1.99783   0.08370  -1.00873  -0.98656
   3   20963.6    477.0   0.026893447   0.42233  -0.63260  -0.12323  -0.08346
   4   21255.8    470.5   0.163517685   2.53258   1.43278   0.61278   0.32281
   5   21937.2    455.8   0.159925384   2.40001  -1.50322  -0.31527   0.20234
   6   23074.0    433.4   0.141668247   2.02127  -0.64027   1.01433  -0.76319
   7   23607.7    423.6   0.068407835   0.95395  -0.78865  -0.55908  -0.13931
   8   24366.6    410.4   0.029876550   0.40366  -0.56038   0.13207   0.26867
   9   24747.0    404.1   0.006176113   0.08216   0.00858   0.10651  -0.26598
  10   25267.5    395.8   0.019800523   0.25798   0.42494   0.26735  -0.07702
  11   25512.3    392.0   0.020999509   0.27098   0.43078   0.28980  -0.03773
  12   25835.7    387.1   0.154897015   1.97378  -1.37025   0.29761  -0.08728
  13   26573.8    376.3   0.071083215   0.88062  -0.77362  -0.02279  -0.53068
  14   26645.7    375.3   0.075967910   0.93860  -0.50555   0.79340  -0.23137
  15   27200.5    367.6   0.068948022   0.83449   0.85242  -0.28014   0.17145
  16   27362.9    365.5   0.008563498   0.10303   0.31602   0.01579   0.05398
  17   27639.0    361.8   0.013741905   0.16368   0.02728  -0.30242  -0.26735
  18   27798.8    359.7   0.059961066   0.71010  -0.12816   0.75647  -0.34846
  19   28023.8    356.8   0.153042425   1.79788  -0.18276  -1.31863   0.16027
  20   28364.8    352.5   0.029054850   0.33722   0.42272  -0.33432  -0.21623
  21   28587.9    349.8   0.127647565   1.46996   0.25226   0.94170  -0.72078
  22   28811.9    347.1   0.017230634   0.19688  -0.23384  -0.36496   0.09490
  23   29371.5    340.5   0.060329022   0.67620  -0.29449  -0.76772  -0.00884
  24   29547.1    338.4   0.004044468   0.04506  -0.17369   0.12161   0.01026
  25   29732.5    336.3   0.007064099   0.07822  -0.26796  -0.07324   0.03238
  26   29884.9    334.6   0.027222162   0.29988  -0.02487   0.52374   0.15798
  27   30603.2    326.8   0.106672738   1.14752  -0.56391  -0.86433   0.28718
  28   30690.7    325.8   0.005970604   0.06405  -0.00837   0.24357  -0.06819
  29   30810.1    324.6   0.026133589   0.27924  -0.25980   0.42651   0.17273
  30   30878.5    323.8   0.044246815   0.47174   0.68502   0.04409   0.02330
  31   31202.7    320.5   0.140154556   1.47874   0.80425   0.91139  -0.03609
  32   31268.6    319.8   0.017569902   0.18498   0.31735   0.28593   0.05015
  33   31900.7    313.5   0.054189948   0.55923  -0.63970   0.38691   0.01803
  34   32018.4    312.3   0.080405923   0.82673   0.87048  -0.14897   0.21635
  35   32599.0    306.8   0.011965625   0.12084   0.21162  -0.20771  -0.18142
  36   32750.5    305.3   0.322683382   3.24365  -1.26497   1.23116  -0.35740
  37   32902.9    303.9   0.293878313   2.94042  -1.58138   0.54368  -0.37957
  38   33128.7    301.9   0.186295296   1.85128   0.21272   1.32925   0.19781
  39   33215.5    301.1   0.014093569   0.13969   0.29488  -0.08523   0.21323
  40   33312.5    300.2   0.025057897   0.24764  -0.39142   0.22752  -0.20654
  41   33596.2    297.7   0.119416940   1.17018   0.10595   0.94927  -0.50778
  42   33622.1    297.4   0.083226234   0.81491  -0.12800  -0.89298  -0.03349
  43   33699.5    296.7   0.065792164   0.64273   0.76663   0.03608   0.23173
  44   33890.8    295.1   0.041296193   0.40115   0.58027  -0.19524   0.16223
  45   33981.1    294.3   0.124832022   1.20938   0.26134   1.01828   0.32277
  46   34290.4    291.6   0.200538120   1.92531  -0.38681   1.32452  -0.14603
  47   34509.0    289.8   0.114936030   1.09648   0.57776  -0.84303   0.22799
  48   34674.0    288.4   0.238417687   2.26366   1.38359  -0.57212   0.14840
  49   35002.4    285.7   0.559998681   5.26702   1.62170  -1.62357   0.03343
  50   35168.6    284.3   0.089878867   0.84135   0.70697  -0.58254  -0.04683
  51   35252.4    283.7   0.104663494   0.97742   0.97165  -0.18028   0.02873
  52   35560.8    281.2   0.423327638   3.91904  -0.50415   1.70098   0.87838
  53   35788.0    279.4   0.044610003   0.41037   0.47950  -0.42402   0.02558
  54   35845.5    279.0   0.003147551   0.02891   0.14238   0.09109   0.01835
  55   35890.8    278.6   0.072240303   0.66263  -0.77091  -0.00037  -0.26139
  56   35999.2    277.8   0.016365787   0.14966   0.31562  -0.18832   0.12077
  57   36219.1    276.1   0.020665653   0.18784   0.34390  -0.07613   0.25254
  58   36465.2    274.2   0.024935838   0.22512  -0.40449   0.10031   0.22683
  59   36594.7    273.3   0.118790653   1.06866  -0.86630   0.50910   0.24289
  60   36812.4    271.6   0.012570807   0.11242   0.33043   0.05675  -0.00425
  61   36960.7    270.6   0.053341386   0.47512   0.55524   0.12507  -0.38883
  62   37145.6    269.2   0.065610922   0.58149  -0.71569  -0.15501  -0.21274
  63   37385.6    267.5   0.025358236   0.22330  -0.45411  -0.03906  -0.12474
  64   37564.1    266.2   0.021158248   0.18543   0.42263  -0.07322  -0.03815
  65   37711.8    265.2   0.092248100   0.80530  -0.13075   0.43120  -0.77606
  66   37953.2    263.5   0.237592569   2.06092  -1.34227  -0.45850  -0.22139
  67   38160.2    262.1   0.147551789   1.27294  -0.04671  -1.01122   0.49819
  68   38285.8    261.2   0.002681620   0.02306   0.12359  -0.05049  -0.07235
  69   38334.4    260.9   0.003200470   0.02749  -0.16267  -0.02651   0.01795
  70   38429.8    260.2   0.045418563   0.38908   0.53704  -0.29484   0.11721
  71   38514.3    259.6   0.099158039   0.84758  -0.89570  -0.20851  -0.04273
  72   38534.2    259.5   0.021368358   0.18256  -0.23312   0.35485   0.04795
  73   38647.4    258.7   0.063858667   0.54397  -0.39612   0.61443  -0.09767
  74   38703.9    258.4   0.179651178   1.52810  -0.98102   0.74854  -0.07329
  75   39227.7    254.9   0.028272906   0.23728   0.45473  -0.01694  -0.17380
  76   39342.7    254.2   0.008370202   0.07004   0.09276  -0.19421  -0.15401
  77   39462.9    253.4   0.124987321   1.04268  -0.90688  -0.46634   0.05273
  78   39683.1    252.0   0.197205769   1.63603  -1.26697   0.02061  -0.17431
  79   39755.2    251.5   0.006899029   0.05713   0.12435  -0.00689  -0.20401
  80   39802.6    251.2   0.032502687   0.26883  -0.32352   0.27769  -0.29506
  81   39919.4    250.5   0.018750960   0.15464   0.38120   0.09031   0.03422
  82   39983.3    250.1   0.043594581   0.35895  -0.18966   0.56330  -0.07530
  83   40065.8    249.6   0.039510665   0.32465   0.54074   0.15841  -0.08459
  84   40302.3    248.1   0.008961459   0.07320  -0.05167  -0.23269   0.12802

FINAL SINGLE POINT ENERGY     -5497.644987106292

DIPOLE MOMENT
-------------
                                X             Y             Z
Electronic contribution:     29.48409      -1.99335      32.93259
Nuclear contribution   :    -30.74781       1.03577     -32.68416
                        -----------------------------------------
Total Dipole Moment    :     -1.26372      -0.95758       0.24843
                        -----------------------------------------
Magnitude (a.u.)       :      1.60489
Magnitude (Debye)      :      4.07930

Rotational constants in cm-1:     0.001070     0.000359     0.000303
Rotational constants in MHz :    32.066339    10.769211     9.098372

                             ****ORCA TERMINATED NORMALLY****
TOTAL RUN TIME: 0 days 0 hours 25 minutes 23 seconds 884 msec
