                         Program Version 4.2.0 -  RELEASE  -
|  1> # ORCA input file
|  2> # SCF done       -205.887250959751          0.000998825279
|  3> ! CAM-B3LYP def2-SVP def2/J RIJCOSX Grid4 TightSCF
|  4> %maxcore 5000
|  5> %tddft
|  6>     Mode sTDDFT
|  7>     Ethresh 5.0
|  8>     maxcore 5000
|  9> end
| 10>
| 11> %pal
| 12>   nprocs 6
| 13>   end
| 14> * xyz 0 1
| 15>    C       -5.96264        -0.85998        -4.87455
| 16>    C       -5.76661        -0.46599        -6.17213
| 17>    C       -5.56131        -1.35672        -7.24686
| 18>    N       -5.39667        -2.02703        -8.16418
| 19>    C       -5.71702         0.86993        -6.62372
| 20>    N       -5.65202         1.92403        -7.07565
| 21>    C       -5.93902        -2.23306        -4.39320
| 22>    C       -6.04855        -2.22042        -2.98086
| 23>    C       -6.05605        -3.37015        -2.22822
| 24>    C       -5.94967        -4.59120        -2.89998
| 25>    C       -5.84589        -4.59497        -4.31214
| 26>    C       -5.83867        -3.43299        -5.07356
| 27>    S       -5.73689        -6.21376        -4.92940
| 28>    C       -5.82330        -6.85685        -3.32603
| 29>    C       -5.93210        -5.91113        -2.36761
| 30>    C       -6.15925        -0.83076        -2.49924
| 31>    O       -6.29238        -0.48724        -1.34587
| 32>    C       -6.15921         0.01501        -3.72602
| 33>    C       -6.50623         1.32607        -3.80172
| 34>    C       -6.67973         2.27521        -2.73433
| 35>    C       -7.64989         3.26895        -2.91238
| 36>    C       -7.87314         4.16503        -1.88657
| 37>    C       -7.10978         4.11363        -0.68834
| 38>    C       -6.09850         3.16584        -0.55342
| 39>    C       -5.89439         2.25781        -1.56510
| 40>    C       -7.62202         5.14126         0.15871
| 41>    C       -8.67393         5.76786        -0.56348
| 42>    N       -8.79010         5.18375        -1.79998
| 43>    C       -9.73560         5.54285        -2.81863
| 44>    C       -9.42117         6.78138         0.00210
| 45>    C       -9.12205         7.18647         1.30709
| 46>    C       -8.05889         6.58213         2.01258
| 47>    C       -7.31806         5.57184         1.44858
| 48>    C       -9.93206         8.19001         1.93691
| 49>    C       -9.87639         8.70023         3.23513
| 50>    C      -10.93200         9.64952         3.52052
| 51>    N      -11.02941        10.21927         4.72584
| 52>    C      -10.14314         9.88578         5.63438
| 53>    C      -10.28543        10.51609         6.96546
| 54>    O      -11.18808        11.28631         7.23279
| 55>    C       -9.25653        10.13310         7.94552
| 56>    C       -8.26935         9.27020         7.68138
| 57>    C       -8.08995         8.59814         6.38133
| 58>    O       -7.18212         7.81803         6.17802
| 59>    C       -9.09304         8.95428         5.35078
| 60>    N       -8.97579         8.38527         4.17417
| 61>    C      -11.78759         9.87424         2.44021
| 62>    S      -11.26700         8.91561         1.09861
| 63>    C      -12.96190        10.69543         2.37283
| 64>    C      -13.43538        11.31901         3.53075
| 65>    C      -14.60311        12.05315         3.44630
| 66>    C      -15.30625        12.18377         2.21763
| 67>    C      -14.80924        11.57638         1.06562
| 68>    C      -13.65400        10.84130         1.15087
| 69>    C      -16.47181        12.95197         2.50169
| 70>    C      -16.42164        13.25294         3.88982
| 71>    N      -15.28208        12.72249         4.43177
| 72>    C      -14.92003        12.80046         5.82035
| 73>    C      -17.43519        13.96849         4.50384
| 74>    C      -18.54085        14.33299         3.73800
| 75>    C      -18.57154        14.06028         2.35500
| 76>    C      -17.54642        13.39097         1.73324
| 77>    C      -19.65322        15.00026         4.37090
| 78>    C      -20.96418        14.85770         4.07282
| 79>    C      -21.65757        13.90011         3.22626
| 80>    C      -21.28419        12.60269         3.00065
| 81>    C      -22.03323        11.69606         2.22338
| 82>    N      -22.59814        10.93097         1.58030
| 83>    C      -20.15942        11.99176         3.59488
| 84>    N      -19.31087        11.41738         4.11203
| 85>    C      -22.94552        14.48625         2.88103
| 86>    C      -23.15104        15.63914         3.68374
| 87>    C      -21.96194        15.86833         4.52612
| 88>    O      -21.79808        16.72007         5.36888
| 89>    C      -24.30533        16.38248         3.61817
| 90>    C      -25.29333        15.97911         2.71492
| 91>    C      -25.07003        14.83740         1.90741
| 92>    C      -23.90831        14.07849         1.97791
| 93>    S      -26.41924        14.53508         0.85880
| 94>    C      -27.25645        15.90565         1.50107
| 95>    C      -26.56394        16.56606         2.45432
| 96>    H       -6.14055        -3.32544        -1.15344
| 97>    H       -5.76489        -3.48873        -6.14676
| 98>    H       -5.78924        -7.92149        -3.19912
| 99>    H       -5.99963        -6.12405        -1.31609
|100>    H       -6.74256         1.71717        -4.78513
|101>    H       -8.23549         3.29051        -3.81944
|102>    H       -5.49132         3.14148         0.33780
|103>    H       -5.10486         1.53140        -1.47704
|104>    H      -10.00834         6.59130        -2.71003
|105>    H      -10.64217         4.93308        -2.75357
|106>    H       -9.28664         5.40246        -3.80166
|107>    H      -10.23758         7.24563        -0.53123
|108>    H       -7.84772         6.92079         3.01320
|109>    H       -6.51649         5.10823         2.00188
|110>    H       -9.35125        10.59818         8.91770
|111>    H       -7.53405         9.01263         8.43201
|112>    H      -12.89542        11.19971         4.45477
|113>    H      -15.33277        11.67629         0.12732
|114>    H      -13.25767        10.35549         0.27101
|115>    H      -14.95967        13.83757         6.15867
|116>    H      -13.90821        12.42693         5.95991
|117>    H      -15.60445        12.20446         6.42978
|118>    H      -17.41614        14.18297         5.56103
|119>    H      -19.41176        14.41463         1.77549
|120>    H      -17.57831        13.19329         0.67273
|121>    H      -19.41955        15.73139         5.13813
|122>    H      -24.44176        17.24889         4.24656
|123>    H      -23.77721        13.21933         1.34071
|124>    H      -28.23164        16.13547         1.11784
|125>    H      -26.92597        17.44006         2.96475
|126> *
|127>
|128>                          ****END OF INPUT****

CARTESIAN COORDINATES (ANGSTROEM)
---------------------------------
  C     -5.962640   -0.859980   -4.874550
  C     -5.766610   -0.465990   -6.172130
  C     -5.561310   -1.356720   -7.246860
  N     -5.396670   -2.027030   -8.164180
  C     -5.717020    0.869930   -6.623720
  N     -5.652020    1.924030   -7.075650
  C     -5.939020   -2.233060   -4.393200
  C     -6.048550   -2.220420   -2.980860
  C     -6.056050   -3.370150   -2.228220
  C     -5.949670   -4.591200   -2.899980
  C     -5.845890   -4.594970   -4.312140
  C     -5.838670   -3.432990   -5.073560
  S     -5.736890   -6.213760   -4.929400
  C     -5.823300   -6.856850   -3.326030
  C     -5.932100   -5.911130   -2.367610
  C     -6.159250   -0.830760   -2.499240
  O     -6.292380   -0.487240   -1.345870
  C     -6.159210    0.015010   -3.726020
  C     -6.506230    1.326070   -3.801720
  C     -6.679730    2.275210   -2.734330
  C     -7.649890    3.268950   -2.912380
  C     -7.873140    4.165030   -1.886570
  C     -7.109780    4.113630   -0.688340
  C     -6.098500    3.165840   -0.553420
  C     -5.894390    2.257810   -1.565100
  C     -7.622020    5.141260    0.158710
  C     -8.673930    5.767860   -0.563480
  N     -8.790100    5.183750   -1.799980
  C     -9.735600    5.542850   -2.818630
  C     -9.421170    6.781380    0.002100
  C     -9.122050    7.186470    1.307090
  C     -8.058890    6.582130    2.012580
  C     -7.318060    5.571840    1.448580
  C     -9.932060    8.190010    1.936910
  C     -9.876390    8.700230    3.235130
  C    -10.932000    9.649520    3.520520
  N    -11.029410   10.219270    4.725840
  C    -10.143140    9.885780    5.634380
  C    -10.285430   10.516090    6.965460
  O    -11.188080   11.286310    7.232790
  C     -9.256530   10.133100    7.945520
  C     -8.269350    9.270200    7.681380
  C     -8.089950    8.598140    6.381330
  O     -7.182120    7.818030    6.178020
  C     -9.093040    8.954280    5.350780
  N     -8.975790    8.385270    4.174170
  C    -11.787590    9.874240    2.440210
  S    -11.267000    8.915610    1.098610
  C    -12.961900   10.695430    2.372830
  C    -13.435380   11.319010    3.530750
  C    -14.603110   12.053150    3.446300
  C    -15.306250   12.183770    2.217630
  C    -14.809240   11.576380    1.065620
  C    -13.654000   10.841300    1.150870
  C    -16.471810   12.951970    2.501690
  C    -16.421640   13.252940    3.889820
  N    -15.282080   12.722490    4.431770
  C    -14.920030   12.800460    5.820350
  C    -17.435190   13.968490    4.503840
  C    -18.540850   14.332990    3.738000
  C    -18.571540   14.060280    2.355000
  C    -17.546420   13.390970    1.733240
  C    -19.653220   15.000260    4.370900
  C    -20.964180   14.857700    4.072820
  C    -21.657570   13.900110    3.226260
  C    -21.284190   12.602690    3.000650
  C    -22.033230   11.696060    2.223380
  N    -22.598140   10.930970    1.580300
  C    -20.159420   11.991760    3.594880
  N    -19.310870   11.417380    4.112030
  C    -22.945520   14.486250    2.881030
  C    -23.151040   15.639140    3.683740
  C    -21.961940   15.868330    4.526120
  O    -21.798080   16.720070    5.368880
  C    -24.305330   16.382480    3.618170
  C    -25.293330   15.979110    2.714920
  C    -25.070030   14.837400    1.907410
  C    -23.908310   14.078490    1.977910
  S    -26.419240   14.535080    0.858800
  C    -27.256450   15.905650    1.501070
  C    -26.563940   16.566060    2.454320
  H     -6.140550   -3.325440   -1.153440
  H     -5.764890   -3.488730   -6.146760
  H     -5.789240   -7.921490   -3.199120
  H     -5.999630   -6.124050   -1.316090
  H     -6.742560    1.717170   -4.785130
  H     -8.235490    3.290510   -3.819440
  H     -5.491320    3.141480    0.337800
  H     -5.104860    1.531400   -1.477040
  H    -10.008340    6.591300   -2.710030
  H    -10.642170    4.933080   -2.753570
  H     -9.286640    5.402460   -3.801660
  H    -10.237580    7.245630   -0.531230
  H     -7.847720    6.920790    3.013200
  H     -6.516490    5.108230    2.001880
  H     -9.351250   10.598180    8.917700
  H     -7.534050    9.012630    8.432010
  H    -12.895420   11.199710    4.454770
  H    -15.332770   11.676290    0.127320
  H    -13.257670   10.355490    0.271010
  H    -14.959670   13.837570    6.158670
  H    -13.908210   12.426930    5.959910
  H    -15.604450   12.204460    6.429780
  H    -17.416140   14.182970    5.561030
  H    -19.411760   14.414630    1.775490
  H    -17.578310   13.193290    0.672730
  H    -19.419550   15.731390    5.138130
  H    -24.441760   17.248890    4.246560
  H    -23.777210   13.219330    1.340710
  H    -28.231640   16.135470    1.117840
  H    -26.925970   17.440060    2.964750

 Total Charge           Charge          ....    0
 Multiplicity           Mult            ....    1
 Number of Electrons    NEL             ....  562
 Basis Dimension        Dim             .... 1296

ORBITAL ENERGIES
----------------

  NO   OCC          E(Eh)            E(eV)
   0   2.0000     -88.986527     -2421.4465
   1   2.0000     -88.965428     -2420.8724
   2   2.0000     -88.964330     -2420.8425
   3   2.0000     -19.227267      -523.2005
   4   2.0000     -19.224818      -523.1339
   5   2.0000     -19.211216      -522.7638
   6   2.0000     -19.210706      -522.7499
   7   2.0000     -14.457701      -393.4140
   8   2.0000     -14.453550      -393.3011
   9   2.0000     -14.442703      -393.0059
  10   2.0000     -14.441631      -392.9767
  11   2.0000     -14.412679      -392.1889
  12   2.0000     -14.411823      -392.1656
  13   2.0000     -14.411420      -392.1547
  14   2.0000     -14.406278      -392.0148
  15   2.0000     -10.375665      -282.3362
  16   2.0000     -10.373525      -282.2780
  17   2.0000     -10.363303      -281.9998
  18   2.0000     -10.362442      -281.9764
  19   2.0000     -10.338706      -281.3305
  20   2.0000     -10.338062      -281.3130
  21   2.0000     -10.337191      -281.2893
  22   2.0000     -10.337027      -281.2848
  23   2.0000     -10.334934      -281.2279
  24   2.0000     -10.334562      -281.2177
  25   2.0000     -10.324583      -280.9462
  26   2.0000     -10.323733      -280.9230
  27   2.0000     -10.321353      -280.8583
  28   2.0000     -10.320207      -280.8271
  29   2.0000     -10.319617      -280.8111
  30   2.0000     -10.319440      -280.8062
  31   2.0000     -10.318199      -280.7725
  32   2.0000     -10.315194      -280.6907
  33   2.0000     -10.314975      -280.6847
  34   2.0000     -10.314451      -280.6705
  35   2.0000     -10.313057      -280.6326
  36   2.0000     -10.312332      -280.6128
  37   2.0000     -10.312076      -280.6059
  38   2.0000     -10.311551      -280.5916
  39   2.0000     -10.310340      -280.5586
  40   2.0000     -10.309500      -280.5358
  41   2.0000     -10.308844      -280.5179
  42   2.0000     -10.308792      -280.5165
  43   2.0000     -10.308034      -280.4959
  44   2.0000     -10.307796      -280.4894
  45   2.0000     -10.306581      -280.4563
  46   2.0000     -10.306503      -280.4542
  47   2.0000     -10.305139      -280.4171
  48   2.0000     -10.303141      -280.3627
  49   2.0000     -10.301780      -280.3257
  50   2.0000     -10.300646      -280.2948
  51   2.0000     -10.300386      -280.2878
  52   2.0000     -10.299627      -280.2671
  53   2.0000     -10.297716      -280.2151
  54   2.0000     -10.295814      -280.1633
  55   2.0000     -10.293591      -280.1028
  56   2.0000     -10.292511      -280.0735
  57   2.0000     -10.291761      -280.0531
  58   2.0000     -10.290368      -280.0152
  59   2.0000     -10.289185      -279.9829
  60   2.0000     -10.288037      -279.9517
  61   2.0000     -10.287158      -279.9278
  62   2.0000     -10.286917      -279.9213
  63   2.0000     -10.285986      -279.8959
  64   2.0000     -10.285555      -279.8842
  65   2.0000     -10.281833      -279.7829
  66   2.0000     -10.278946      -279.7043
  67   2.0000     -10.278238      -279.6851
  68   2.0000     -10.276114      -279.6273
  69   2.0000     -10.275528      -279.6113
  70   2.0000     -10.275397      -279.6078
  71   2.0000     -10.272646      -279.5329
  72   2.0000     -10.272112      -279.5184
  73   2.0000     -10.271946      -279.5139
  74   2.0000     -10.271478      -279.5011
  75   2.0000     -10.270565      -279.4763
  76   2.0000     -10.270506      -279.4747
  77   2.0000     -10.270020      -279.4614
  78   2.0000     -10.268247      -279.4132
  79   2.0000     -10.265937      -279.3504
  80   2.0000     -10.258886      -279.1585
  81   2.0000      -8.080862      -219.8914
  82   2.0000      -8.061768      -219.3719
  83   2.0000      -8.060680      -219.3423
  84   2.0000      -6.049613      -164.6184
  85   2.0000      -6.045624      -164.5098
  86   2.0000      -6.044119      -164.4688
  87   2.0000      -6.031287      -164.1197
  88   2.0000      -6.030196      -164.0900
  89   2.0000      -6.026983      -164.0025
  90   2.0000      -6.025897      -163.9730
  91   2.0000      -6.023402      -163.9051
  92   2.0000      -6.022308      -163.8753
  93   2.0000      -1.141596       -31.0644
  94   2.0000      -1.137102       -30.9421
  95   2.0000      -1.126621       -30.6569
  96   2.0000      -1.126205       -30.6456
  97   2.0000      -1.092726       -29.7346
  98   2.0000      -1.089199       -29.6386
  99   2.0000      -1.085116       -29.5275
 100   2.0000      -1.019933       -27.7538
 101   2.0000      -1.016903       -27.6713
 102   2.0000      -1.016616       -27.6635
 103   2.0000      -1.005404       -27.3584
 104   2.0000      -1.004973       -27.3467
 105   2.0000      -0.999006       -27.1843
 106   2.0000      -0.990247       -26.9460
 107   2.0000      -0.988687       -26.9035
 108   2.0000      -0.981620       -26.7112
 109   2.0000      -0.981348       -26.7038
 110   2.0000      -0.954975       -25.9862
 111   2.0000      -0.953897       -25.9569
 112   2.0000      -0.953146       -25.9364
 113   2.0000      -0.944712       -25.7069
 114   2.0000      -0.936234       -25.4762
 115   2.0000      -0.926879       -25.2217
 116   2.0000      -0.926486       -25.2110
 117   2.0000      -0.907756       -24.7013
 118   2.0000      -0.902613       -24.5614
 119   2.0000      -0.891762       -24.2661
 120   2.0000      -0.886326       -24.1182
 121   2.0000      -0.879539       -23.9335
 122   2.0000      -0.878521       -23.9058
 123   2.0000      -0.869719       -23.6663
 124   2.0000      -0.868592       -23.6356
 125   2.0000      -0.858129       -23.3509
 126   2.0000      -0.848430       -23.0870
 127   2.0000      -0.845791       -23.0151
 128   2.0000      -0.845383       -23.0040
 129   2.0000      -0.839701       -22.8494
 130   2.0000      -0.832687       -22.6586
 131   2.0000      -0.821361       -22.3504
 132   2.0000      -0.820395       -22.3241
 133   2.0000      -0.816186       -22.2096
 134   2.0000      -0.806530       -21.9468
 135   2.0000      -0.790878       -21.5209
 136   2.0000      -0.785611       -21.3776
 137   2.0000      -0.783817       -21.3287
 138   2.0000      -0.776864       -21.1395
 139   2.0000      -0.773688       -21.0531
 140   2.0000      -0.766671       -20.8622
 141   2.0000      -0.753726       -20.5099
 142   2.0000      -0.752786       -20.4844
 143   2.0000      -0.740032       -20.1373
 144   2.0000      -0.734804       -19.9950
 145   2.0000      -0.712645       -19.3921
 146   2.0000      -0.708206       -19.2713
 147   2.0000      -0.704052       -19.1582
 148   2.0000      -0.699759       -19.0414
 149   2.0000      -0.698641       -19.0110
 150   2.0000      -0.688447       -18.7336
 151   2.0000      -0.685091       -18.6423
 152   2.0000      -0.684252       -18.6194
 153   2.0000      -0.679620       -18.4934
 154   2.0000      -0.676271       -18.4023
 155   2.0000      -0.674280       -18.3481
 156   2.0000      -0.666983       -18.1495
 157   2.0000      -0.664056       -18.0699
 158   2.0000      -0.659947       -17.9581
 159   2.0000      -0.658790       -17.9266
 160   2.0000      -0.658153       -17.9092
 161   2.0000      -0.651795       -17.7362
 162   2.0000      -0.634856       -17.2753
 163   2.0000      -0.632381       -17.2080
 164   2.0000      -0.617552       -16.8044
 165   2.0000      -0.616264       -16.7694
 166   2.0000      -0.615877       -16.7589
 167   2.0000      -0.613602       -16.6969
 168   2.0000      -0.603273       -16.4159
 169   2.0000      -0.601520       -16.3682
 170   2.0000      -0.598745       -16.2927
 171   2.0000      -0.595823       -16.2132
 172   2.0000      -0.592358       -16.1189
 173   2.0000      -0.587676       -15.9915
 174   2.0000      -0.585924       -15.9438
 175   2.0000      -0.575885       -15.6706
 176   2.0000      -0.575709       -15.6658
 177   2.0000      -0.567712       -15.4482
 178   2.0000      -0.563561       -15.3353
 179   2.0000      -0.561869       -15.2892
 180   2.0000      -0.561141       -15.2694
 181   2.0000      -0.557859       -15.1801
 182   2.0000      -0.555736       -15.1223
 183   2.0000      -0.555011       -15.1026
 184   2.0000      -0.547401       -14.8955
 185   2.0000      -0.546467       -14.8701
 186   2.0000      -0.543903       -14.8003
 187   2.0000      -0.537694       -14.6314
 188   2.0000      -0.537392       -14.6232
 189   2.0000      -0.536695       -14.6042
 190   2.0000      -0.533490       -14.5170
 191   2.0000      -0.532005       -14.4766
 192   2.0000      -0.530470       -14.4348
 193   2.0000      -0.528807       -14.3896
 194   2.0000      -0.528323       -14.3764
 195   2.0000      -0.527676       -14.3588
 196   2.0000      -0.524830       -14.2814
 197   2.0000      -0.522730       -14.2242
 198   2.0000      -0.521615       -14.1939
 199   2.0000      -0.519679       -14.1412
 200   2.0000      -0.515804       -14.0357
 201   2.0000      -0.514227       -13.9928
 202   2.0000      -0.512494       -13.9457
 203   2.0000      -0.511625       -13.9220
 204   2.0000      -0.508064       -13.8251
 205   2.0000      -0.504885       -13.7386
 206   2.0000      -0.499892       -13.6028
 207   2.0000      -0.499310       -13.5869
 208   2.0000      -0.497675       -13.5424
 209   2.0000      -0.496677       -13.5153
 210   2.0000      -0.496512       -13.5108
 211   2.0000      -0.493728       -13.4350
 212   2.0000      -0.490666       -13.3517
 213   2.0000      -0.489868       -13.3300
 214   2.0000      -0.489433       -13.3181
 215   2.0000      -0.488747       -13.2995
 216   2.0000      -0.484431       -13.1820
 217   2.0000      -0.483763       -13.1639
 218   2.0000      -0.483082       -13.1453
 219   2.0000      -0.480888       -13.0856
 220   2.0000      -0.476276       -12.9601
 221   2.0000      -0.473790       -12.8925
 222   2.0000      -0.468457       -12.7474
 223   2.0000      -0.464318       -12.6347
 224   2.0000      -0.461727       -12.5642
 225   2.0000      -0.459387       -12.5006
 226   2.0000      -0.458676       -12.4812
 227   2.0000      -0.455493       -12.3946
 228   2.0000      -0.450777       -12.2663
 229   2.0000      -0.450193       -12.2504
 230   2.0000      -0.447569       -12.1790
 231   2.0000      -0.445755       -12.1296
 232   2.0000      -0.445112       -12.1121
 233   2.0000      -0.441927       -12.0255
 234   2.0000      -0.439929       -11.9711
 235   2.0000      -0.438132       -11.9222
 236   2.0000      -0.437390       -11.9020
 237   2.0000      -0.435054       -11.8384
 238   2.0000      -0.431367       -11.7381
 239   2.0000      -0.430298       -11.7090
 240   2.0000      -0.429920       -11.6987
 241   2.0000      -0.429852       -11.6969
 242   2.0000      -0.425721       -11.5845
 243   2.0000      -0.423602       -11.5268
 244   2.0000      -0.422990       -11.5101
 245   2.0000      -0.421716       -11.4755
 246   2.0000      -0.419538       -11.4162
 247   2.0000      -0.416373       -11.3301
 248   2.0000      -0.415924       -11.3179
 249   2.0000      -0.412191       -11.2163
 250   2.0000      -0.411020       -11.1844
 251   2.0000      -0.407376       -11.0853
 252   2.0000      -0.404524       -11.0077
 253   2.0000      -0.398919       -10.8551
 254   2.0000      -0.395572       -10.7641
 255   2.0000      -0.390288       -10.6203
 256   2.0000      -0.390036       -10.6134
 257   2.0000      -0.377687       -10.2774
 258   2.0000      -0.375496       -10.2178
 259   2.0000      -0.372583       -10.1385
 260   2.0000      -0.370609       -10.0848
 261   2.0000      -0.362377        -9.8608
 262   2.0000      -0.360530        -9.8105
 263   2.0000      -0.346155        -9.4194
 264   2.0000      -0.344959        -9.3868
 265   2.0000      -0.341374        -9.2893
 266   2.0000      -0.337857        -9.1936
 267   2.0000      -0.333020        -9.0619
 268   2.0000      -0.330067        -8.9816
 269   2.0000      -0.327583        -8.9140
 270   2.0000      -0.326965        -8.8972
 271   2.0000      -0.324303        -8.8247
 272   2.0000      -0.311714        -8.4822
 273   2.0000      -0.310964        -8.4618
 274   2.0000      -0.300154        -8.1676
 275   2.0000      -0.293195        -7.9782
 276   2.0000      -0.290341        -7.9006
 277   2.0000      -0.273798        -7.4504
 278   2.0000      -0.268212        -7.2984
 279   2.0000      -0.267565        -7.2808
 280   2.0000      -0.239752        -6.5240
 281   0.0000      -0.093991        -2.5576
 282   0.0000      -0.088102        -2.3974
 283   0.0000      -0.080684        -2.1955
 284   0.0000      -0.078953        -2.1484
 285   0.0000      -0.052871        -1.4387

MULLIKEN ATOMIC CHARGES
-----------------------
   0 C :    0.295730
   1 C :   -0.342716
   2 C :   -0.186843
   3 N :    0.150719
   4 C :   -0.202670
   5 N :    0.155562
   6 C :    0.018014
   7 C :   -0.022366
   8 C :   -0.067430
   9 C :    0.113812
  10 C :   -0.093647
  11 C :   -0.023870
  12 S :    0.138655
  13 C :   -0.050194
  14 C :    0.025865
  15 C :    0.139077
  16 O :   -0.139528
  17 C :   -0.067055
  18 C :   -0.042734
  19 C :    0.071523
  20 C :   -0.139857
  21 C :    0.165773
  22 C :    0.075977
  23 C :   -0.052870
  24 C :    0.067897
  25 C :    0.056483
  26 C :    0.180248
  27 N :   -0.187596
  28 C :    0.124476
  29 C :   -0.188503
  30 C :    0.119746
  31 C :   -0.032121
  32 C :   -0.034120
  33 C :   -0.136202
  34 C :    0.048776
  35 C :    0.027208
  36 N :    0.053969
  37 C :   -0.122931
  38 C :    0.150244
  39 O :   -0.122863
  40 C :   -0.017130
  41 C :   -0.015197
  42 C :    0.140511
  43 O :   -0.109414
  44 C :   -0.119439
  45 N :    0.066209
  46 C :   -0.120443
  47 S :    0.151030
  48 C :    0.117015
  49 C :   -0.155954
  50 C :    0.175540
  51 C :    0.057742
  52 C :   -0.035499
  53 C :   -0.052423
  54 C :    0.076934
  55 C :    0.178296
  56 N :   -0.179812
  57 C :    0.115920
  58 C :   -0.109027
  59 C :    0.038637
  60 C :    0.016354
  61 C :   -0.043135
  62 C :    0.033605
  63 C :   -0.108367
  64 C :    0.247431
  65 C :   -0.330116
  66 C :   -0.187045
  67 N :    0.152472
  68 C :   -0.183052
  69 N :    0.173946
  70 C :    0.006188
  71 C :    0.000210
  72 C :    0.133666
  73 O :   -0.142923
  74 C :   -0.071393
  75 C :    0.110383
  76 C :   -0.089111
  77 C :   -0.027385
  78 S :    0.138425
  79 C :   -0.049900
  80 C :    0.025705
  81 H :   -0.011150
  82 H :   -0.006412
  83 H :    0.039544
  84 H :   -0.006295
  85 H :    0.026761
  86 H :   -0.037936
  87 H :   -0.025473
  88 H :   -0.018783
  89 H :    0.038756
  90 H :    0.038729
  91 H :    0.042581
  92 H :   -0.034820
  93 H :   -0.004173
  94 H :   -0.024784
  95 H :    0.014927
  96 H :    0.017301
  97 H :   -0.018831
  98 H :   -0.031628
  99 H :   -0.024887
 100 H :    0.033824
 101 H :    0.060000
 102 H :    0.043346
 103 H :   -0.038593
 104 H :   -0.015706
 105 H :   -0.029336
 106 H :    0.023823
 107 H :   -0.010864
 108 H :   -0.004080
 109 H :    0.038044
 110 H :   -0.006977
Sum of atomic charges:   -0.0000000

LOEWDIN ATOMIC CHARGES
----------------------
   0 C :    0.077766
   1 C :   -0.142205
   2 C :   -0.018138
   3 N :   -0.055141
   4 C :   -0.024382
   5 N :   -0.053629
   6 C :   -0.023779
   7 C :   -0.052654
   8 C :    0.022497
   9 C :   -0.034509
  10 C :   -0.145442
  11 C :   -0.009088
  12 S :    0.428093
  13 C :   -0.149549
  14 C :   -0.058006
  15 C :    0.081482
  16 O :   -0.132904
  17 C :   -0.095217
  18 C :    0.082922
  19 C :   -0.036705
  20 C :   -0.034031
  21 C :    0.026797
  22 C :   -0.023084
  23 C :   -0.010790
  24 C :    0.002697
  25 C :   -0.041562
  26 C :    0.036712
  27 N :    0.012360
  28 C :    0.037899
  29 C :   -0.067515
  30 C :   -0.033170
  31 C :   -0.024516
  32 C :   -0.001007
  33 C :   -0.160236
  34 C :   -0.045416
  35 C :   -0.048583
  36 N :    0.011926
  37 C :   -0.049483
  38 C :    0.059617
  39 O :   -0.118379
  40 C :   -0.014479
  41 C :   -0.009996
  42 C :    0.056563
  43 O :   -0.104707
  44 C :   -0.046783
  45 N :    0.013941
  46 C :   -0.155801
  47 S :    0.523448
  48 C :   -0.039768
  49 C :   -0.034991
  50 C :    0.037013
  51 C :   -0.039079
  52 C :   -0.006407
  53 C :   -0.048414
  54 C :   -0.026338
  55 C :    0.039213
  56 N :    0.023273
  57 C :    0.038206
  58 C :   -0.026173
  59 C :   -0.039808
  60 C :   -0.029679
  61 C :   -0.005836
  62 C :    0.083436
  63 C :   -0.089640
  64 C :    0.067407
  65 C :   -0.132543
  66 C :   -0.018746
  67 N :   -0.054585
  68 C :   -0.016746
  69 N :   -0.046210
  70 C :   -0.019809
  71 C :   -0.055500
  72 C :    0.083799
  73 O :   -0.143390
  74 C :    0.023488
  75 C :   -0.035928
  76 C :   -0.144586
  77 C :   -0.012121
  78 S :    0.427771
  79 C :   -0.150130
  80 C :   -0.057507
  81 H :    0.040263
  82 H :    0.040554
  83 H :    0.029443
  84 H :    0.035348
  85 H :    0.044601
  86 H :    0.027978
  87 H :    0.032110
  88 H :    0.029459
  89 H :    0.033630
  90 H :    0.027909
  91 H :    0.034314
  92 H :    0.013163
  93 H :    0.030195
  94 H :    0.032731
  95 H :    0.044676
  96 H :    0.045452
  97 H :    0.027804
  98 H :    0.029975
  99 H :    0.015151
 100 H :    0.029586
 101 H :    0.042483
 102 H :    0.031677
 103 H :    0.029444
 104 H :    0.026742
 105 H :    0.030534
 106 H :    0.045934
 107 H :    0.040620
 108 H :    0.040381
 109 H :    0.029117
 110 H :    0.035222

  Mayer bond orders larger than 0.100000
B(  0-C ,  1-C ) :   1.6423 B(  0-C ,  6-C ) :   1.0114 B(  0-C , 17-C ) :   1.0523
B(  1-C ,  2-C ) :   1.1380 B(  1-C ,  4-C ) :   1.1408 B(  2-C ,  3-N ) :   2.9744
B(  4-C ,  5-N ) :   2.9881 B(  6-C ,  7-C ) :   1.2661 B(  6-C , 11-C ) :   1.4061
B(  7-C ,  8-C ) :   1.4260 B(  7-C , 15-C ) :   0.9457 B(  8-C ,  9-C ) :   1.2474
B(  8-C , 81-H ) :   1.0163 B(  9-C , 10-C ) :   1.2996 B(  9-C , 14-C ) :   1.1731
B( 10-C , 11-C ) :   1.3285 B( 10-C , 12-S ) :   1.0971 B( 11-C , 82-H ) :   0.9829
B( 12-S , 13-C ) :   1.1259 B( 13-C , 14-C ) :   1.6268 B( 13-C , 83-H ) :   0.9690
B( 14-C , 84-H ) :   0.9997 B( 15-C , 16-O ) :   2.2339 B( 15-C , 17-C ) :   0.9295
B( 17-C , 18-C ) :   1.6285 B( 18-C , 19-C ) :   1.0911 B( 18-C , 85-H ) :   0.9502
B( 19-C , 20-C ) :   1.2860 B( 19-C , 24-C ) :   1.3182 B( 20-C , 21-C ) :   1.3032
B( 20-C , 86-H ) :   1.0125 B( 21-C , 22-C ) :   1.2697 B( 21-C , 27-N ) :   1.1201
B( 22-C , 23-C ) :   1.3070 B( 22-C , 25-C ) :   1.1107 B( 23-C , 24-C ) :   1.4365
B( 23-C , 87-H ) :   0.9987 B( 24-C , 88-H ) :   0.9764 B( 25-C , 26-C ) :   1.2777
B( 25-C , 32-C ) :   1.2959 B( 26-C , 27-N ) :   1.1283 B( 26-C , 29-C ) :   1.3226
B( 27-N , 28-C ) :   0.9797 B( 28-C , 89-H ) :   0.9676 B( 28-C , 90-H ) :   0.9738
B( 28-C , 91-H ) :   0.9670 B( 29-C , 30-C ) :   1.2811 B( 29-C , 92-H ) :   0.9903
B( 30-C , 31-C ) :   1.3158 B( 30-C , 33-C ) :   1.1132 B( 31-C , 32-C ) :   1.4202
B( 31-C , 93-H ) :   0.9703 B( 32-C , 94-H ) :   1.0019 B( 33-C , 34-C ) :   1.3575
B( 33-C , 46-C ) :   0.1373 B( 33-C , 47-S ) :   1.1694 B( 34-C , 35-C ) :   1.1546
B( 34-C , 45-N ) :   1.4154 B( 35-C , 36-N ) :   1.4168 B( 35-C , 46-C ) :   1.3525
B( 36-N , 37-C ) :   1.7216 B( 37-C , 38-C ) :   0.9024 B( 37-C , 44-C ) :   1.0728
B( 38-C , 39-O ) :   2.2053 B( 38-C , 40-C ) :   1.0288 B( 40-C , 41-C ) :   1.6813
B( 40-C , 95-H ) :   0.9988 B( 41-C , 42-C ) :   1.0276 B( 41-C , 96-H ) :   0.9978
B( 42-C , 43-O ) :   2.2256 B( 42-C , 44-C ) :   0.8979 B( 44-C , 45-N ) :   1.7295
B( 46-C , 47-S ) :   1.1678 B( 46-C , 48-C ) :   1.1128 B( 48-C , 49-C ) :   1.3630
B( 48-C , 53-C ) :   1.2448 B( 49-C , 50-C ) :   1.2755 B( 49-C , 97-H ) :   0.9817
B( 50-C , 51-C ) :   1.2780 B( 50-C , 56-N ) :   1.1333 B( 51-C , 52-C ) :   1.3038
B( 51-C , 54-C ) :   1.1146 B( 52-C , 53-C ) :   1.4507 B( 52-C , 98-H ) :   0.9954
B( 53-C , 99-H ) :   0.9821 B( 54-C , 55-C ) :   1.2709 B( 54-C , 61-C ) :   1.3088
B( 55-C , 56-N ) :   1.1409 B( 55-C , 58-C ) :   1.2862 B( 56-N , 57-C ) :   0.9712
B( 57-C ,100-H ) :   0.9668 B( 57-C ,101-H ) :   0.9661 B( 57-C ,102-H ) :   0.9711
B( 58-C , 59-C ) :   1.3298 B( 58-C ,103-H ) :   1.0109 B( 59-C , 60-C ) :   1.3065
B( 59-C , 62-C ) :   1.0268 B( 60-C , 61-C ) :   1.4261 B( 60-C ,104-H ) :   0.9835
B( 61-C ,105-H ) :   0.9987 B( 62-C , 63-C ) :   1.7256 B( 62-C ,106-H ) :   0.9491
B( 63-C , 64-C ) :   1.0130 B( 63-C , 72-C ) :   0.9310 B( 64-C , 65-C ) :   1.6757
B( 64-C , 70-C ) :   1.0183 B( 65-C , 66-C ) :   1.1344 B( 65-C , 68-C ) :   1.1528
B( 66-C , 67-N ) :   2.9903 B( 68-C , 69-N ) :   3.0043 B( 70-C , 71-C ) :   1.2686
B( 70-C , 77-C ) :   1.4135 B( 71-C , 72-C ) :   0.9213 B( 71-C , 74-C ) :   1.4224
B( 72-C , 73-O ) :   2.2762 B( 74-C , 75-C ) :   1.2547 B( 74-C ,107-H ) :   1.0168
B( 75-C , 76-C ) :   1.3014 B( 75-C , 80-C ) :   1.1698 B( 76-C , 77-C ) :   1.3212
B( 76-C , 78-S ) :   1.0960 B( 77-C ,108-H ) :   0.9872 B( 78-S , 79-C ) :   1.1255
B( 79-C , 80-C ) :   1.6317 B( 79-C ,109-H ) :   0.9682 B( 80-C ,110-H ) :   1.0000

-----------------------------------------------------------------------------
         ABSORPTION SPECTRUM VIA TRANSITION ELECTRIC DIPOLE MOMENTS
-----------------------------------------------------------------------------
State   Energy  Wavelength   fosc         T2         TX        TY        TZ
        (cm-1)    (nm)                  (au**2)     (au)      (au)      (au)
-----------------------------------------------------------------------------
   0   15104.4    662.1   0.853255359  18.59733   2.97947  -2.86310  -1.23399
   1   17758.0    563.1   0.243870211   4.52106   0.75900   0.70707   1.85608
   2   21242.3    470.8   0.389345813   6.03405  -2.21252   0.89913   0.57476
   3   21670.3    461.5   0.018001393   0.27347   0.06702  -0.16062   0.49314
   4   22050.0    453.5   0.132020020   1.97109  -0.26223  -0.79473  -1.12727
   5   22241.6    449.6   0.602802655   8.92246  -0.60871   2.40620   1.66197
   6   24130.7    414.4   0.074504521   1.01646   0.95323  -0.20470   0.25672
   7   24985.0    400.2   0.047802654   0.62986  -0.62784   0.34090  -0.34565
   8   25139.5    397.8   0.003651432   0.04782  -0.21668  -0.00903   0.02800
   9   25509.4    392.0   0.087796993   1.13306   0.62343   0.41933   0.75403
  10   25592.0    390.7   0.001140339   0.01467  -0.05167  -0.09966  -0.04547
  11   25922.4    385.8   0.004019146   0.05104   0.18627  -0.07305   0.10492
  12   26718.2    374.3   0.001112828   0.01371  -0.06138  -0.09972  -0.00101
  13   27054.6    369.6   0.008295860   0.10095  -0.04390   0.18621   0.25367
  14   27577.4    362.6   0.154383045   1.84298   0.86178  -0.95288  -0.43857
  15   28063.1    356.3   0.017683182   0.20744   0.26887   0.07716  -0.35944
  16   28543.2    350.3   0.286078698   3.29958   1.10552  -1.37068  -0.44571
  17   28795.1    347.3   0.280560982   3.20763  -0.36017   1.67480  -0.52246
  18   29014.0    344.7   0.213579106   2.42341   1.37938  -0.72160  -0.00327
  19   29330.4    340.9   0.065334060   0.73333   0.24788  -0.81912   0.03048
  20   29880.3    334.7   0.357352409   3.93720  -1.93350   0.44550   0.01752
  21   30419.8    328.7   0.000014948   0.00016  -0.00411   0.00637  -0.01021
  22   30511.5    327.7   0.093803501   1.01212   0.34329  -0.86173  -0.38947
  23   31049.6    322.1   0.162317695   1.72102  -0.92679   0.92288   0.10189
  24   31155.3    321.0   0.090001422   0.95103  -0.40154   0.68500   0.56619
  25   31237.3    320.1   0.043600567   0.45951   0.13865   0.54548  -0.37780
  26   31956.7    312.9   0.044842758   0.46196   0.45644  -0.46804   0.18593
  27   32105.8    311.5   0.137834608   1.41335  -0.04913   0.91345   0.75931
  28   32292.7    309.7   0.058937177   0.60084   0.72325  -0.27464  -0.04820
  29   33349.0    299.9   0.110189831   1.08776  -0.80043   0.28751   0.60367
  30   33604.4    297.6   0.005975461   0.05854  -0.01755  -0.23917   0.03211
  31   33653.1    297.1   0.004244425   0.04152  -0.07558  -0.13415   0.13346
  32   33910.5    294.9   0.006111093   0.05933  -0.11614   0.18976  -0.09915
  33   34015.7    294.0   0.165954374   1.60614   0.73199  -1.01110   0.21911
  34   34323.0    291.4   0.224106422   2.14954  -0.41632   1.30477  -0.52324
  35   34659.3    288.5   0.575192387   5.46347   0.19699   1.89619  -1.35246
  36   34929.6    286.3   0.001118669   0.01054  -0.07232   0.07288   0.00120
  37   35030.0    285.5   0.061200708   0.57516   0.47810  -0.58327   0.07982
  38   35229.2    283.9   0.012053495   0.11264   0.05409  -0.05992   0.32576
  39   35494.5    281.7   0.547248372   5.07574  -1.84501   1.28979  -0.09008
  40   35694.6    280.2   0.057803290   0.53312  -0.34095   0.04568  -0.64404
  41   36055.7    277.3   0.010981202   0.10027  -0.11582   0.29041   0.05013
  42   36321.7    275.3   0.173890018   1.57610   0.97358  -0.76567   0.20492
  43   36593.6    273.3   0.016648367   0.14978   0.14632   0.20257   0.29552
  44   36787.4    271.8   0.038546896   0.34496   0.23896  -0.31852  -0.43175
  45   36859.9    271.3   0.000054359   0.00049   0.00054   0.01600  -0.01514
  46   36989.6    270.3   0.062161854   0.55325  -0.46472  -0.49088   0.31035
  47   37072.7    269.7   0.030190125   0.26809   0.11231  -0.41057   0.29481
  48   37351.1    267.7   0.068689258   0.60543   0.38515  -0.55527  -0.38570
  49   37621.5    265.8   0.171847813   1.50378   1.05707  -0.61411  -0.09610
  50   37686.4    265.3   0.038826233   0.33917   0.07738  -0.49129   0.30302
  51   37800.5    264.5   0.015659433   0.13638  -0.15460  -0.15727  -0.29622
  52   38059.6    262.7   0.507965539   4.39386   0.74847   0.57955   1.87023
  53   38386.8    260.5   0.017658905   0.15145   0.14912   0.10360   0.34420
  54   38717.0    258.3   0.112415893   0.95588   0.41442   0.10403   0.87938
  55   39011.7    256.3   0.034343348   0.28982  -0.04148   0.17115   0.50873
  56   39436.2    253.6   0.076959422   0.64245  -0.17902   0.02263   0.78096
  57   39674.6    252.1   0.131023786   1.08721   0.07170  -0.69234  -0.77636
  58   40036.1    249.8   0.282146168   2.32006   0.19674   0.80076   1.28068
  59   40259.5    248.4   0.001312492   0.01073   0.06287  -0.07054   0.04248
  60   40298.6    248.1   0.000519940   0.00425  -0.04919   0.03520   0.02426

FINAL SINGLE POINT ENERGY     -4462.064987553482

DIPOLE MOMENT
-------------
                                X             Y             Z
Electronic contribution:     -0.32486     -10.92529      -7.86880
Nuclear contribution   :     -1.13089      11.71189       9.15870
                        -----------------------------------------
Total Dipole Moment    :     -1.45575       0.78660       1.28990
                        -----------------------------------------
Magnitude (a.u.)       :      2.09805
Magnitude (Debye)      :      5.33281

Rotational constants in cm-1:     0.001050     0.000165     0.000149
Rotational constants in MHz :    31.484972     4.934820     4.454150

                             ****ORCA TERMINATED NORMALLY****
TOTAL RUN TIME: 0 days 0 hours 12 minutes 24 seconds 273 msec
