                         Program Version 4.2.0 -  RELEASE  -
|  1> # ORCA input file
|  2> # SCF done       -181.112302605970          0.001697742071
|  3> ! CAM-B3LYP def2-SVP def2/J RIJCOSX Grid4 TightSCF
|  4> %maxcore 5000
|  5> %tddft
|  6>     Mode sTDDFT
|  7>     Ethresh 5.0
|  8>     maxcore 5000
|  9> end
| 10>
| 11> %pal
| 12>   nprocs 6
| 13>   end
| 14> * xyz 0 1
| 15>    S       -5.05803        -9.29357         4.64829
| 16>    C       -4.70801       -11.01488         4.74654
| 17>    C       -5.64374       -11.98589         4.56882
| 18>    S       -4.99560       -13.56765         4.77025
| 19>    C       -3.43824       -12.92378         5.08427
| 20>    C       -3.42128       -11.56463         5.03686
| 21>    S       -1.93238       -10.62565         5.25227
| 22>    C       -2.07812        -9.68401         3.80426
| 23>    C       -1.32202        -8.63206         3.43985
| 24>    C       -1.63420        -7.86132         2.28157
| 25>    C       -1.33147        -6.54421         2.07317
| 26>    C       -2.15444        -6.05661         0.99853
| 27>    C       -2.11159        -4.75374         0.48864
| 28>    N       -2.08056        -3.68096         0.07836
| 29>    C       -2.99795        -7.06296         0.56908
| 30>    C       -2.65155        -8.24623         1.27179
| 31>    C       -3.03701        -9.53132         0.93982
| 32>    C       -4.29733        -9.94778         0.29887
| 33>    C       -4.14444       -11.25589        -0.09102
| 34>    C       -2.84191       -11.70436         0.31189
| 35>    C       -2.19652       -10.68293         0.97834
| 36>    C       -2.33374       -12.98841         0.08175
| 37>    N       -1.92806       -14.04778        -0.09823
| 38>    C       -5.53223        -9.24545         0.34670
| 39>    C       -5.80845        -8.25112         1.22617
| 40>    C       -7.06937        -7.60199         1.41732
| 41>    C       -7.23427        -6.81661         2.55203
| 42>    C       -8.46337        -6.20815         2.81799
| 43>    C       -8.88602        -5.41712         3.90278
| 44>    C       -8.05626        -5.24300         5.13050
| 45>    C       -8.62322        -4.34533         6.23684
| 46>    N       -9.75359        -4.97157         6.90445
| 47>    C       -7.71347        -6.61491         5.78064
| 48>    N       -6.47216        -6.49378         6.51708
| 49>    C      -10.21098        -4.96548         3.58051
| 50>    C      -11.03921        -4.04019         4.13176
| 51>    C      -12.44848        -3.90490         3.68060
| 52>    C      -12.76202        -4.53440         2.37193
| 53>    C      -11.88457        -5.34206         1.74527
| 54>    C      -10.61604        -5.59993         2.31565
| 55>    C       -9.53812        -6.34135         1.85848
| 56>    C       -9.35024        -7.12831         0.70328
| 57>    C       -8.15593        -7.74671         0.50212
| 58>    C      -13.06874        -4.65804         4.85725
| 59>    C      -13.05510        -5.99491         4.93407
| 60>    C      -13.55102        -6.77548         6.02573
| 61>    C      -14.44427        -6.40540         6.99717
| 62>    C      -14.73445        -7.55410         7.81275
| 63>    C      -15.59566        -7.55708         8.91422
| 64>    N      -16.32920        -7.57310         9.79887
| 65>    C      -14.05062        -8.64146         7.31037
| 66>    C      -13.27892        -8.20466         6.19358
| 67>    C      -12.36231        -8.97447         5.48824
| 68>    C      -12.36412       -10.44728         5.36790
| 69>    C      -11.15876       -10.81800         4.83337
| 70>    C      -10.39852        -9.63210         4.56798
| 71>    C      -11.14707        -8.51900         4.92159
| 72>    C       -9.10448        -9.64158         4.06425
| 73>    N       -8.02703        -9.69095         3.65674
| 74>    C      -13.45452       -11.33903         5.58881
| 75>    C      -14.75547       -10.99866         5.62981
| 76>    S      -16.00705       -12.18886         5.84760
| 77>    C      -17.42038       -11.15738         6.06121
| 78>    C      -17.45360        -9.99123         6.76155
| 79>    S      -19.02140        -9.29531         6.77915
| 80>    C      -19.65072       -10.59250         5.83757
| 81>    C      -18.69917       -11.51743         5.53853
| 82>    S      -18.92319       -12.97204         4.57348
| 83>    C      -20.59109       -13.37972         4.96631
| 84>    C      -21.31967       -14.19719         4.22653
| 85>    H       -6.32299        -9.44931         4.22050
| 86>    H       -6.68036       -11.85211         4.33149
| 87>    H       -2.61177       -13.57601         5.28443
| 88>    H       -2.90191       -10.00174         3.18788
| 89>    H       -0.53807        -8.26485         4.08715
| 90>    H       -0.64866        -5.93820         2.63828
| 91>    H       -3.68656        -7.00637        -0.25254
| 92>    H       -4.88163       -11.87775        -0.56389
| 93>    H       -1.18714       -10.70057         1.34401
| 94>    H       -6.31565        -9.64823        -0.28203
| 95>    H       -5.03429        -7.95393         1.92180
| 96>    H       -6.39869        -6.67792         3.22230
| 97>    H       -7.10025        -4.80484         4.81459
| 98>    H       -8.83435        -3.34301         5.82617
| 99>    H       -7.83746        -4.23810         6.98894
|100>    H      -10.53603        -5.11236         6.27564
|101>    H      -10.06524        -4.40501         7.68371
|102>    H       -7.69012        -7.39588         5.00863
|103>    H       -8.51240        -6.84794         6.48725
|104>    H       -5.67217        -6.54685         5.89548
|105>    H       -6.38172        -7.23107         7.20407
|106>    H      -10.75142        -3.41541         4.96237
|107>    H      -12.79427        -2.86829         3.70474
|108>    H      -13.74036        -4.33693         1.96262
|109>    H      -12.12863        -5.79422         0.79505
|110>    H      -10.15492        -7.23235        -0.00978
|111>    H       -8.00942        -8.34548        -0.38322
|112>    H      -13.43295        -4.05023         5.67131
|113>    H      -12.63863        -6.55497         4.10696
|114>    H      -14.89553        -5.44077         7.13431
|115>    H      -14.00678        -9.61983         7.75031
|116>    H      -10.83600       -11.81529         4.60055
|117>    H      -10.78839        -7.50748         4.91222
|118>    H      -13.19557       -12.38877         5.64872
|119>    H      -15.10575        -9.99006         5.48792
|120>    H      -16.65727        -9.50687         7.28960
|121>    H      -20.68306       -10.58576         5.55151
|122>    H      -20.94060       -12.94113         5.88759
|123>    H      -20.94062       -14.62669         3.31552
|124>    H      -22.31941       -14.46773         4.51785
|125> *
|126>
|127>                          ****END OF INPUT****

CARTESIAN COORDINATES (ANGSTROEM)
---------------------------------
  S     -5.058030   -9.293570    4.648290
  C     -4.708010  -11.014880    4.746540
  C     -5.643740  -11.985890    4.568820
  S     -4.995600  -13.567650    4.770250
  C     -3.438240  -12.923780    5.084270
  C     -3.421280  -11.564630    5.036860
  S     -1.932380  -10.625650    5.252270
  C     -2.078120   -9.684010    3.804260
  C     -1.322020   -8.632060    3.439850
  C     -1.634200   -7.861320    2.281570
  C     -1.331470   -6.544210    2.073170
  C     -2.154440   -6.056610    0.998530
  C     -2.111590   -4.753740    0.488640
  N     -2.080560   -3.680960    0.078360
  C     -2.997950   -7.062960    0.569080
  C     -2.651550   -8.246230    1.271790
  C     -3.037010   -9.531320    0.939820
  C     -4.297330   -9.947780    0.298870
  C     -4.144440  -11.255890   -0.091020
  C     -2.841910  -11.704360    0.311890
  C     -2.196520  -10.682930    0.978340
  C     -2.333740  -12.988410    0.081750
  N     -1.928060  -14.047780   -0.098230
  C     -5.532230   -9.245450    0.346700
  C     -5.808450   -8.251120    1.226170
  C     -7.069370   -7.601990    1.417320
  C     -7.234270   -6.816610    2.552030
  C     -8.463370   -6.208150    2.817990
  C     -8.886020   -5.417120    3.902780
  C     -8.056260   -5.243000    5.130500
  C     -8.623220   -4.345330    6.236840
  N     -9.753590   -4.971570    6.904450
  C     -7.713470   -6.614910    5.780640
  N     -6.472160   -6.493780    6.517080
  C    -10.210980   -4.965480    3.580510
  C    -11.039210   -4.040190    4.131760
  C    -12.448480   -3.904900    3.680600
  C    -12.762020   -4.534400    2.371930
  C    -11.884570   -5.342060    1.745270
  C    -10.616040   -5.599930    2.315650
  C     -9.538120   -6.341350    1.858480
  C     -9.350240   -7.128310    0.703280
  C     -8.155930   -7.746710    0.502120
  C    -13.068740   -4.658040    4.857250
  C    -13.055100   -5.994910    4.934070
  C    -13.551020   -6.775480    6.025730
  C    -14.444270   -6.405400    6.997170
  C    -14.734450   -7.554100    7.812750
  C    -15.595660   -7.557080    8.914220
  N    -16.329200   -7.573100    9.798870
  C    -14.050620   -8.641460    7.310370
  C    -13.278920   -8.204660    6.193580
  C    -12.362310   -8.974470    5.488240
  C    -12.364120  -10.447280    5.367900
  C    -11.158760  -10.818000    4.833370
  C    -10.398520   -9.632100    4.567980
  C    -11.147070   -8.519000    4.921590
  C     -9.104480   -9.641580    4.064250
  N     -8.027030   -9.690950    3.656740
  C    -13.454520  -11.339030    5.588810
  C    -14.755470  -10.998660    5.629810
  S    -16.007050  -12.188860    5.847600
  C    -17.420380  -11.157380    6.061210
  C    -17.453600   -9.991230    6.761550
  S    -19.021400   -9.295310    6.779150
  C    -19.650720  -10.592500    5.837570
  C    -18.699170  -11.517430    5.538530
  S    -18.923190  -12.972040    4.573480
  C    -20.591090  -13.379720    4.966310
  C    -21.319670  -14.197190    4.226530
  H     -6.322990   -9.449310    4.220500
  H     -6.680360  -11.852110    4.331490
  H     -2.611770  -13.576010    5.284430
  H     -2.901910  -10.001740    3.187880
  H     -0.538070   -8.264850    4.087150
  H     -0.648660   -5.938200    2.638280
  H     -3.686560   -7.006370   -0.252540
  H     -4.881630  -11.877750   -0.563890
  H     -1.187140  -10.700570    1.344010
  H     -6.315650   -9.648230   -0.282030
  H     -5.034290   -7.953930    1.921800
  H     -6.398690   -6.677920    3.222300
  H     -7.100250   -4.804840    4.814590
  H     -8.834350   -3.343010    5.826170
  H     -7.837460   -4.238100    6.988940
  H    -10.536030   -5.112360    6.275640
  H    -10.065240   -4.405010    7.683710
  H     -7.690120   -7.395880    5.008630
  H     -8.512400   -6.847940    6.487250
  H     -5.672170   -6.546850    5.895480
  H     -6.381720   -7.231070    7.204070
  H    -10.751420   -3.415410    4.962370
  H    -12.794270   -2.868290    3.704740
  H    -13.740360   -4.336930    1.962620
  H    -12.128630   -5.794220    0.795050
  H    -10.154920   -7.232350   -0.009780
  H     -8.009420   -8.345480   -0.383220
  H    -13.432950   -4.050230    5.671310
  H    -12.638630   -6.554970    4.106960
  H    -14.895530   -5.440770    7.134310
  H    -14.006780   -9.619830    7.750310
  H    -10.836000  -11.815290    4.600550
  H    -10.788390   -7.507480    4.912220
  H    -13.195570  -12.388770    5.648720
  H    -15.105750   -9.990060    5.487920
  H    -16.657270   -9.506870    7.289600
  H    -20.683060  -10.585760    5.551510
  H    -20.940600  -12.941130    5.887590
  H    -20.940620  -14.626690    3.315520
  H    -22.319410  -14.467730    4.517850

 Total Charge           Charge          ....    0
 Multiplicity           Mult            ....    1
 Number of Electrons    NEL             ....  526
 Basis Dimension        Dim             .... 1204

ORBITAL ENERGIES
----------------

  NO   OCC          E(Eh)            E(eV)
   0   2.0000     -88.970370     -2421.0069
   1   2.0000     -88.962252     -2420.7859
   2   2.0000     -88.955319     -2420.5973
   3   2.0000     -88.943459     -2420.2746
   4   2.0000     -88.942816     -2420.2571
   5   2.0000     -88.916301     -2419.5356
   6   2.0000     -14.439573      -392.9208
   7   2.0000     -14.423987      -392.4967
   8   2.0000     -14.399476      -391.8297
   9   2.0000     -14.397532      -391.7768
  10   2.0000     -14.382563      -391.3694
  11   2.0000     -14.367879      -390.9699
  12   2.0000     -10.341815      -281.4151
  13   2.0000     -10.337722      -281.3037
  14   2.0000     -10.336686      -281.2755
  15   2.0000     -10.335968      -281.2560
  16   2.0000     -10.331875      -281.1446
  17   2.0000     -10.326223      -280.9908
  18   2.0000     -10.322145      -280.8798
  19   2.0000     -10.318277      -280.7746
  20   2.0000     -10.317270      -280.7472
  21   2.0000     -10.315594      -280.7016
  22   2.0000     -10.312989      -280.6307
  23   2.0000     -10.311205      -280.5822
  24   2.0000     -10.310340      -280.5586
  25   2.0000     -10.309093      -280.5247
  26   2.0000     -10.309025      -280.5228
  27   2.0000     -10.308513      -280.5089
  28   2.0000     -10.307898      -280.4922
  29   2.0000     -10.307480      -280.4808
  30   2.0000     -10.306766      -280.4614
  31   2.0000     -10.306763      -280.4613
  32   2.0000     -10.306059      -280.4421
  33   2.0000     -10.305968      -280.4396
  34   2.0000     -10.305052      -280.4147
  35   2.0000     -10.304011      -280.3864
  36   2.0000     -10.303822      -280.3813
  37   2.0000     -10.301428      -280.3161
  38   2.0000     -10.300746      -280.2975
  39   2.0000     -10.298674      -280.2412
  40   2.0000     -10.298152      -280.2270
  41   2.0000     -10.297866      -280.2192
  42   2.0000     -10.296945      -280.1941
  43   2.0000     -10.296610      -280.1850
  44   2.0000     -10.296285      -280.1762
  45   2.0000     -10.287226      -279.9297
  46   2.0000     -10.287077      -279.9256
  47   2.0000     -10.282854      -279.8107
  48   2.0000     -10.281959      -279.7863
  49   2.0000     -10.280213      -279.7388
  50   2.0000     -10.280160      -279.7374
  51   2.0000     -10.279068      -279.7077
  52   2.0000     -10.278670      -279.6968
  53   2.0000     -10.278257      -279.6856
  54   2.0000     -10.276354      -279.6338
  55   2.0000     -10.275998      -279.6241
  56   2.0000     -10.275785      -279.6183
  57   2.0000     -10.274921      -279.5948
  58   2.0000     -10.273319      -279.5512
  59   2.0000     -10.273184      -279.5475
  60   2.0000     -10.271627      -279.5052
  61   2.0000     -10.271504      -279.5018
  62   2.0000     -10.268263      -279.4137
  63   2.0000     -10.267868      -279.4029
  64   2.0000     -10.265843      -279.3478
  65   2.0000     -10.265633      -279.3421
  66   2.0000     -10.264717      -279.3172
  67   2.0000     -10.264542      -279.3124
  68   2.0000     -10.262425      -279.2548
  69   2.0000     -10.260810      -279.2108
  70   2.0000      -8.066454      -219.4994
  71   2.0000      -8.057700      -219.2612
  72   2.0000      -8.051440      -219.0908
  73   2.0000      -8.039323      -218.7611
  74   2.0000      -8.038252      -218.7320
  75   2.0000      -8.011355      -218.0000
  76   2.0000      -6.035742      -164.2409
  77   2.0000      -6.031378      -164.1221
  78   2.0000      -6.028685      -164.0489
  79   2.0000      -6.027743      -164.0232
  80   2.0000      -6.023592      -163.9103
  81   2.0000      -6.020731      -163.8324
  82   2.0000      -6.018199      -163.7635
  83   2.0000      -6.016422      -163.7152
  84   2.0000      -6.013684      -163.6407
  85   2.0000      -6.009628      -163.5303
  86   2.0000      -6.008365      -163.4959
  87   2.0000      -6.005429      -163.4160
  88   2.0000      -6.004340      -163.3864
  89   2.0000      -5.999286      -163.2489
  90   2.0000      -5.998566      -163.2293
  91   2.0000      -5.981526      -162.7656
  92   2.0000      -5.977235      -162.6488
  93   2.0000      -5.972009      -162.5066
  94   2.0000      -1.030171       -28.0324
  95   2.0000      -1.020992       -27.7826
  96   2.0000      -1.007079       -27.4040
  97   2.0000      -1.006236       -27.3811
  98   2.0000      -1.001085       -27.2409
  99   2.0000      -0.993227       -27.0271
 100   2.0000      -0.989559       -26.9273
 101   2.0000      -0.989341       -26.9213
 102   2.0000      -0.987908       -26.8823
 103   2.0000      -0.976640       -26.5757
 104   2.0000      -0.966222       -26.2922
 105   2.0000      -0.964460       -26.2443
 106   2.0000      -0.957119       -26.0445
 107   2.0000      -0.942429       -25.6448
 108   2.0000      -0.942132       -25.6367
 109   2.0000      -0.922862       -25.1124
 110   2.0000      -0.920918       -25.0595
 111   2.0000      -0.920154       -25.0387
 112   2.0000      -0.897560       -24.4238
 113   2.0000      -0.895057       -24.3558
 114   2.0000      -0.883695       -24.0466
 115   2.0000      -0.881101       -23.9760
 116   2.0000      -0.874712       -23.8021
 117   2.0000      -0.869133       -23.6503
 118   2.0000      -0.867398       -23.6031
 119   2.0000      -0.856262       -23.3001
 120   2.0000      -0.851949       -23.1827
 121   2.0000      -0.844728       -22.9862
 122   2.0000      -0.835825       -22.7439
 123   2.0000      -0.833367       -22.6771
 124   2.0000      -0.826351       -22.4862
 125   2.0000      -0.816534       -22.2190
 126   2.0000      -0.812426       -22.1072
 127   2.0000      -0.808938       -22.0123
 128   2.0000      -0.790519       -21.5111
 129   2.0000      -0.787967       -21.4417
 130   2.0000      -0.784801       -21.3555
 131   2.0000      -0.780021       -21.2255
 132   2.0000      -0.773526       -21.0487
 133   2.0000      -0.766934       -20.8693
 134   2.0000      -0.759853       -20.6767
 135   2.0000      -0.742955       -20.2168
 136   2.0000      -0.737345       -20.0642
 137   2.0000      -0.721883       -19.6434
 138   2.0000      -0.717616       -19.5273
 139   2.0000      -0.708560       -19.2809
 140   2.0000      -0.708356       -19.2753
 141   2.0000      -0.696382       -18.9495
 142   2.0000      -0.689527       -18.7630
 143   2.0000      -0.680659       -18.5217
 144   2.0000      -0.677045       -18.4233
 145   2.0000      -0.676399       -18.4057
 146   2.0000      -0.671518       -18.2729
 147   2.0000      -0.664969       -18.0947
 148   2.0000      -0.659796       -17.9540
 149   2.0000      -0.651085       -17.7169
 150   2.0000      -0.649086       -17.6625
 151   2.0000      -0.648178       -17.6378
 152   2.0000      -0.644256       -17.5311
 153   2.0000      -0.633403       -17.2358
 154   2.0000      -0.630339       -17.1524
 155   2.0000      -0.622976       -16.9520
 156   2.0000      -0.618649       -16.8343
 157   2.0000      -0.610491       -16.6123
 158   2.0000      -0.609163       -16.5762
 159   2.0000      -0.604644       -16.4532
 160   2.0000      -0.602283       -16.3890
 161   2.0000      -0.599349       -16.3091
 162   2.0000      -0.595983       -16.2175
 163   2.0000      -0.583819       -15.8865
 164   2.0000      -0.580236       -15.7890
 165   2.0000      -0.576284       -15.6815
 166   2.0000      -0.575111       -15.6496
 167   2.0000      -0.566862       -15.4251
 168   2.0000      -0.558916       -15.2089
 169   2.0000      -0.558108       -15.1869
 170   2.0000      -0.554758       -15.0957
 171   2.0000      -0.548604       -14.9283
 172   2.0000      -0.546788       -14.8789
 173   2.0000      -0.541656       -14.7392
 174   2.0000      -0.539319       -14.6756
 175   2.0000      -0.536200       -14.5907
 176   2.0000      -0.535637       -14.5754
 177   2.0000      -0.530352       -14.4316
 178   2.0000      -0.528884       -14.3917
 179   2.0000      -0.522859       -14.2277
 180   2.0000      -0.519524       -14.1370
 181   2.0000      -0.518903       -14.1201
 182   2.0000      -0.516687       -14.0598
 183   2.0000      -0.515012       -14.0142
 184   2.0000      -0.513781       -13.9807
 185   2.0000      -0.512430       -13.9439
 186   2.0000      -0.509856       -13.8739
 187   2.0000      -0.508191       -13.8286
 188   2.0000      -0.504870       -13.7382
 189   2.0000      -0.502753       -13.6806
 190   2.0000      -0.502353       -13.6697
 191   2.0000      -0.498219       -13.5572
 192   2.0000      -0.495780       -13.4909
 193   2.0000      -0.495456       -13.4820
 194   2.0000      -0.493940       -13.4408
 195   2.0000      -0.489219       -13.3123
 196   2.0000      -0.488619       -13.2960
 197   2.0000      -0.486523       -13.2390
 198   2.0000      -0.484868       -13.1939
 199   2.0000      -0.484142       -13.1742
 200   2.0000      -0.482307       -13.1242
 201   2.0000      -0.480587       -13.0774
 202   2.0000      -0.478298       -13.0152
 203   2.0000      -0.476950       -12.9785
 204   2.0000      -0.475199       -12.9308
 205   2.0000      -0.473642       -12.8885
 206   2.0000      -0.472942       -12.8694
 207   2.0000      -0.466119       -12.6837
 208   2.0000      -0.461964       -12.5707
 209   2.0000      -0.460165       -12.5217
 210   2.0000      -0.456040       -12.4095
 211   2.0000      -0.453019       -12.3273
 212   2.0000      -0.450540       -12.2598
 213   2.0000      -0.449164       -12.2224
 214   2.0000      -0.447516       -12.1775
 215   2.0000      -0.444082       -12.0841
 216   2.0000      -0.440536       -11.9876
 217   2.0000      -0.439429       -11.9575
 218   2.0000      -0.437797       -11.9131
 219   2.0000      -0.433040       -11.7836
 220   2.0000      -0.432525       -11.7696
 221   2.0000      -0.431372       -11.7382
 222   2.0000      -0.428844       -11.6694
 223   2.0000      -0.428233       -11.6528
 224   2.0000      -0.426719       -11.6116
 225   2.0000      -0.424977       -11.5642
 226   2.0000      -0.421946       -11.4817
 227   2.0000      -0.420758       -11.4494
 228   2.0000      -0.419269       -11.4089
 229   2.0000      -0.418152       -11.3785
 230   2.0000      -0.414551       -11.2805
 231   2.0000      -0.408809       -11.1243
 232   2.0000      -0.408469       -11.1150
 233   2.0000      -0.403655       -10.9840
 234   2.0000      -0.402792       -10.9605
 235   2.0000      -0.399743       -10.8776
 236   2.0000      -0.399085       -10.8597
 237   2.0000      -0.396107       -10.7786
 238   2.0000      -0.394375       -10.7315
 239   2.0000      -0.390489       -10.6258
 240   2.0000      -0.385443       -10.4884
 241   2.0000      -0.382854       -10.4180
 242   2.0000      -0.367203        -9.9921
 243   2.0000      -0.365577        -9.9479
 244   2.0000      -0.360694        -9.8150
 245   2.0000      -0.359281        -9.7765
 246   2.0000      -0.346695        -9.4341
 247   2.0000      -0.339928        -9.2499
 248   2.0000      -0.338234        -9.2038
 249   2.0000      -0.331719        -9.0265
 250   2.0000      -0.321029        -8.7357
 251   2.0000      -0.317685        -8.6446
 252   2.0000      -0.309912        -8.4331
 253   2.0000      -0.302589        -8.2339
 254   2.0000      -0.299901        -8.1607
 255   2.0000      -0.292303        -7.9540
 256   2.0000      -0.287723        -7.8293
 257   2.0000      -0.281298        -7.6545
 258   2.0000      -0.270569        -7.3626
 259   2.0000      -0.266503        -7.2519
 260   2.0000      -0.263565        -7.1720
 261   2.0000      -0.246527        -6.7083
 262   2.0000      -0.218880        -5.9560
 263   0.0000      -0.142582        -3.8799
 264   0.0000      -0.110620        -3.0101
 265   0.0000      -0.075900        -2.0653
 266   0.0000      -0.024707        -0.6723
 267   0.0000      -0.011504        -0.3130

MULLIKEN ATOMIC CHARGES
-----------------------
   0 S :   -0.062340
   1 C :   -0.021286
   2 C :   -0.124382
   3 S :    0.122862
   4 C :   -0.089720
   5 C :   -0.071871
   6 S :    0.102997
   7 C :   -0.110309
   8 C :    0.021856
   9 C :    0.079088
  10 C :   -0.029870
  11 C :   -0.109113
  12 C :   -0.128531
  13 N :    0.130905
  14 C :   -0.015741
  15 C :    0.019395
  16 C :   -0.006536
  17 C :    0.091947
  18 C :   -0.020934
  19 C :   -0.105415
  20 C :   -0.020245
  21 C :   -0.128975
  22 N :    0.131596
  23 C :   -0.004159
  24 C :   -0.010505
  25 C :    0.139947
  26 C :   -0.113180
  27 C :    0.038129
  28 C :   -0.007697
  29 C :   -0.051226
  30 C :    0.143194
  31 N :   -0.227658
  32 C :    0.099142
  33 N :   -0.212938
  34 C :    0.062122
  35 C :   -0.142625
  36 C :    0.153904
  37 C :   -0.021755
  38 C :    0.014733
  39 C :    0.002967
  40 C :    0.043738
  41 C :   -0.010774
  42 C :   -0.011075
  43 C :   -0.099593
  44 C :    0.023925
  45 C :    0.094334
  46 C :   -0.027254
  47 C :   -0.113673
  48 C :   -0.148535
  49 N :    0.155350
  50 C :   -0.050327
  51 C :    0.045839
  52 C :    0.055325
  53 C :    0.083398
  54 C :   -0.038965
  55 C :   -0.115151
  56 C :   -0.005255
  57 C :   -0.005343
  58 N :    0.082143
  59 C :    0.028670
  60 C :   -0.117517
  61 S :    0.115091
  62 C :   -0.023196
  63 C :   -0.117611
  64 S :    0.148203
  65 C :   -0.142030
  66 C :   -0.011861
  67 S :    0.072257
  68 C :   -0.099265
  69 C :   -0.010003
  70 H :    0.143025
  71 H :    0.014115
  72 H :    0.029900
  73 H :    0.117865
  74 H :   -0.012547
  75 H :   -0.017985
  76 H :   -0.000107
  77 H :   -0.019650
  78 H :   -0.001269
  79 H :   -0.020444
  80 H :    0.007355
  81 H :   -0.043378
  82 H :   -0.002435
  83 H :   -0.013645
  84 H :   -0.000062
  85 H :    0.085801
  86 H :    0.096124
  87 H :   -0.022979
  88 H :    0.002048
  89 H :    0.089065
  90 H :    0.093932
  91 H :    0.004287
  92 H :    0.012145
  93 H :   -0.012883
  94 H :   -0.032986
  95 H :   -0.040084
  96 H :   -0.030335
  97 H :    0.005227
  98 H :    0.017213
  99 H :   -0.009496
 100 H :    0.019832
 101 H :   -0.011869
 102 H :   -0.004816
 103 H :    0.004605
 104 H :    0.072352
 105 H :    0.014948
 106 H :    0.036011
 107 H :    0.046912
 108 H :    0.028774
 109 H :    0.036817
Sum of atomic charges:   -0.0000000

LOEWDIN ATOMIC CHARGES
----------------------
   0 S :    0.210081
   1 C :   -0.207180
   2 C :   -0.219819
   3 S :    0.445351
   4 C :   -0.192128
   5 C :   -0.225389
   6 S :    0.364224
   7 C :   -0.149549
   8 C :   -0.059517
   9 C :   -0.015566
  10 C :   -0.028242
  11 C :   -0.050347
  12 C :   -0.028971
  13 N :   -0.051257
  14 C :   -0.014489
  15 C :    0.044343
  16 C :    0.031709
  17 C :   -0.026388
  18 C :   -0.011852
  19 C :   -0.062003
  20 C :   -0.008184
  21 C :   -0.029367
  22 N :   -0.055746
  23 C :   -0.023757
  24 C :   -0.004629
  25 C :   -0.021732
  26 C :   -0.009475
  27 C :   -0.025051
  28 C :   -0.039790
  29 C :   -0.042171
  30 C :    0.022815
  31 N :   -0.107254
  32 C :    0.016507
  33 N :   -0.109247
  34 C :   -0.040218
  35 C :    0.077828
  36 C :   -0.025924
  37 C :   -0.042021
  38 C :   -0.016971
  39 C :   -0.050710
  40 C :   -0.027916
  41 C :   -0.011405
  42 C :   -0.020322
  43 C :    0.010628
  44 C :   -0.017091
  45 C :   -0.035511
  46 C :    0.010333
  47 C :   -0.066470
  48 C :   -0.037238
  49 N :   -0.042398
  50 C :   -0.008440
  51 C :    0.040615
  52 C :    0.045958
  53 C :   -0.013084
  54 C :   -0.024532
  55 C :   -0.043597
  56 C :   -0.008046
  57 C :    0.031807
  58 N :   -0.042541
  59 C :   -0.055963
  60 C :   -0.141184
  61 S :    0.387600
  62 C :   -0.221901
  63 C :   -0.201055
  64 S :    0.464563
  65 C :   -0.209806
  66 C :   -0.214423
  67 S :    0.337201
  68 C :   -0.154673
  69 C :   -0.074841
  70 H :   -0.016179
  71 H :    0.019088
  72 H :    0.027215
  73 H :    0.025490
  74 H :    0.032800
  75 H :    0.029443
  76 H :    0.035123
  77 H :    0.028949
  78 H :    0.034933
  79 H :    0.029947
  80 H :    0.024098
  81 H :    0.021786
  82 H :    0.032101
  83 H :   -0.006498
  84 H :    0.025579
  85 H :    0.037216
  86 H :    0.056403
  87 H :   -0.008476
  88 H :    0.013939
  89 H :    0.043836
  90 H :    0.054240
  91 H :    0.031509
  92 H :    0.046820
  93 H :    0.024814
  94 H :    0.030462
  95 H :    0.026073
  96 H :    0.024747
  97 H :    0.024558
  98 H :    0.038412
  99 H :    0.031781
 100 H :    0.037069
 101 H :    0.031755
 102 H :    0.037532
 103 H :    0.037709
 104 H :    0.029810
 105 H :    0.022399
 106 H :    0.026336
 107 H :    0.025270
 108 H :    0.025915
 109 H :    0.031813

  Mayer bond orders larger than 0.100000
B(  0-S ,  1-C ) :   1.0508 B(  0-S , 70-H ) :   0.8748 B(  1-C ,  2-C ) :   1.6037
B(  1-C ,  5-C ) :   1.2528 B(  2-C ,  3-S ) :   1.1577 B(  2-C , 71-H ) :   0.9592
B(  3-S ,  4-C ) :   1.1964 B(  4-C ,  5-C ) :   1.5962 B(  4-C , 72-H ) :   0.9702
B(  5-C ,  6-S ) :   0.9935 B(  6-S ,  7-C ) :   1.0577 B(  7-C ,  8-C ) :   1.7231
B(  7-C , 73-H ) :   0.9120 B(  8-C ,  9-C ) :   1.1586 B(  8-C , 74-H ) :   0.9687
B(  9-C , 10-C ) :   1.5657 B(  9-C , 15-C ) :   1.0247 B( 10-C , 11-C ) :   1.1225
B( 10-C , 75-H ) :   1.0197 B( 11-C , 12-C ) :   1.0676 B( 11-C , 14-C ) :   1.5604
B( 12-C , 13-N ) :   3.0357 B( 14-C , 15-C ) :   1.1672 B( 14-C , 76-H ) :   1.0186
B( 15-C , 16-C ) :   1.4230 B( 16-C , 17-C ) :   1.0416 B( 16-C , 20-C ) :   1.1419
B( 17-C , 18-C ) :   1.5492 B( 17-C , 23-C ) :   1.1314 B( 18-C , 19-C ) :   1.1303
B( 18-C , 77-H ) :   1.0181 B( 19-C , 20-C ) :   1.5634 B( 19-C , 21-C ) :   1.0640
B( 20-C , 78-H ) :   1.0198 B( 21-C , 22-N ) :   3.0406 B( 23-C , 24-C ) :   1.6263
B( 23-C , 79-H ) :   0.9642 B( 24-C , 25-C ) :   1.1081 B( 24-C , 80-H ) :   0.9677
B( 25-C , 26-C ) :   1.4598 B( 25-C , 42-C ) :   1.1412 B( 26-C , 27-C ) :   1.1440
B( 26-C , 81-H ) :   0.9984 B( 27-C , 28-C ) :   1.4210 B( 27-C , 40-C ) :   1.1418
B( 28-C , 29-C ) :   1.0104 B( 28-C , 34-C ) :   1.1206 B( 29-C , 30-C ) :   1.0610
B( 29-C , 32-C ) :   1.0222 B( 29-C , 82-H ) :   0.8897 B( 30-C , 31-N ) :   1.0873
B( 30-C , 83-H ) :   0.9284 B( 30-C , 84-H ) :   0.9157 B( 31-N , 85-H ) :   0.9749
B( 31-N , 86-H ) :   0.9659 B( 32-C , 33-N ) :   1.1054 B( 32-C , 87-H ) :   0.9515
B( 32-C , 88-H ) :   0.9127 B( 33-N , 89-H ) :   0.9757 B( 33-N , 90-H ) :   0.9676
B( 34-C , 35-C ) :   1.5923 B( 34-C , 39-C ) :   1.0616 B( 35-C , 36-C ) :   0.9832
B( 35-C , 91-H ) :   0.9598 B( 36-C , 37-C ) :   1.0037 B( 36-C , 43-C ) :   0.9365
B( 36-C , 92-H ) :   0.8894 B( 37-C , 38-C ) :   1.6987 B( 37-C , 93-H ) :   0.9812
B( 38-C , 39-C ) :   1.1371 B( 38-C , 94-H ) :   0.9892 B( 39-C , 40-C ) :   1.4109
B( 40-C , 41-C ) :   1.1471 B( 41-C , 42-C ) :   1.5981 B( 41-C , 95-H ) :   0.9905
B( 42-C , 96-H ) :   0.9812 B( 43-C , 44-C ) :   1.7812 B( 43-C , 97-H ) :   0.9810
B( 44-C , 45-C ) :   1.0833 B( 44-C , 98-H ) :   0.9440 B( 45-C , 46-C ) :   1.5869
B( 45-C , 51-C ) :   1.0757 B( 46-C , 47-C ) :   1.1102 B( 46-C , 99-H ) :   1.0148
B( 47-C , 48-C ) :   1.0636 B( 47-C , 50-C ) :   1.5806 B( 48-C , 49-N ) :   3.0312
B( 50-C , 51-C ) :   1.1044 B( 50-C ,100-H ) :   1.0125 B( 51-C , 52-C ) :   1.4167
B( 52-C , 53-C ) :   1.0260 B( 52-C , 56-C ) :   1.1438 B( 53-C , 54-C ) :   1.5541
B( 53-C , 59-C ) :   1.1761 B( 54-C , 55-C ) :   1.1167 B( 54-C ,101-H ) :   1.0239
B( 55-C , 56-C ) :   1.5532 B( 55-C , 57-C ) :   1.0937 B( 56-C ,102-H ) :   1.0182
B( 57-C , 58-N ) :   2.8134 B( 58-N , 70-H ) :   0.1151 B( 59-C , 60-C ) :   1.6864
B( 59-C ,103-H ) :   0.9498 B( 60-C , 61-S ) :   1.0766 B( 60-C ,104-H ) :   0.9383
B( 61-S , 62-C ) :   0.9983 B( 62-C , 63-C ) :   1.5734 B( 62-C , 66-C ) :   1.2709
B( 63-C , 64-S ) :   1.1954 B( 63-C ,105-H ) :   0.9708 B( 64-S , 65-C ) :   1.1714
B( 65-C , 66-C ) :   1.5796 B( 65-C ,106-H ) :   0.9689 B( 66-C , 67-S ) :   1.0091
B( 67-S , 68-C ) :   1.0249 B( 68-C , 69-C ) :   1.9764 B( 68-C ,107-H ) :   0.9440
B( 69-C ,108-H ) :   0.9589 B( 69-C ,109-H ) :   0.9594

-----------------------------------------------------------------------------
         ABSORPTION SPECTRUM VIA TRANSITION ELECTRIC DIPOLE MOMENTS
-----------------------------------------------------------------------------
State   Energy  Wavelength   fosc         T2         TX        TY        TZ
        (cm-1)    (nm)                  (au**2)     (au)      (au)      (au)
-----------------------------------------------------------------------------
   0     534.2   18719.2   0.001022493   0.63012  -0.53905  -0.27932   0.51140
   1    7690.8   1300.3   0.077001567   3.29613  -1.78885   0.29942  -0.08055
   2    8267.7   1209.5   0.051575368   2.05368   0.55712   1.31909   0.05736
   3   10632.4    940.5   0.023394510   0.72437   0.02716  -0.06871  -0.84788
   4   11095.0    901.3   0.034311388   1.01809   0.20684  -0.35072  -0.92321
   5   12320.1    811.7   0.010370261   0.27711   0.28864   0.29737   0.32460
   6   12702.9    787.2   0.021683999   0.56197   0.57562  -0.00491   0.48021
   7   14321.0    698.3   0.001505816   0.03462  -0.17646   0.02410  -0.05383
   8   14762.9    677.4   0.006581921   0.14678   0.32403  -0.10933  -0.17271
   9   15266.2    655.0   0.012200925   0.26311  -0.04295   0.22666  -0.45814
  10   16080.8    621.9   0.006235927   0.12766  -0.35579  -0.02834  -0.01660
  11   16336.5    612.1   0.000111597   0.00225  -0.02957  -0.02108   0.03049
  12   17001.9    588.2   0.001053242   0.02039  -0.11377  -0.04494  -0.07369
  13   17513.9    571.0   0.001272374   0.02392  -0.14145  -0.01779  -0.05993
  14   20588.0    485.7   0.060790236   0.97207   0.94461   0.15120  -0.23857
  15   22376.2    446.9   0.013501896   0.19865  -0.30569   0.17368   0.27393
  16   22607.4    442.3   0.238863500   3.47837  -1.48586   0.58884   0.96117
  17   23308.9    429.0   0.073882210   1.04350  -0.16334  -0.85251   0.53857
  18   23854.0    419.2   0.009968184   0.13757   0.20850   0.14183  -0.27200
  19   23970.2    417.2   0.001609133   0.02210   0.01791  -0.12627   0.07639
  20   24457.5    408.9   0.003041662   0.04094  -0.17773  -0.01232  -0.09593
  21   25278.8    395.6   0.062958143   0.81992  -0.84533  -0.01263   0.32432
  22   25720.6    388.8   0.024705659   0.31622   0.43684   0.05368  -0.35002
  23   25949.2    385.4   0.026878690   0.34100  -0.07321  -0.42692  -0.39165
  24   26204.3    381.6   0.332675459   4.17950  -0.50960   1.78506   0.85637
  25   26610.7    375.8   0.131956063   1.63248   1.25336   0.24807   0.00521
  26   26659.2    375.1   0.013002014   0.16056  -0.35314   0.18761   0.02555
  27   26872.9    372.1   0.110813228   1.35754  -0.98754  -0.59139   0.18043
  28   27304.8    366.2   0.007683364   0.09264   0.11739   0.13609   0.24563
  29   27591.8    362.4   0.232558042   2.77476  -1.38579   0.39117   0.83745
  30   27753.3    360.3   0.029072620   0.34486  -0.06640   0.17379   0.55700
  31   28798.1    347.2   0.033838582   0.38683   0.41561   0.24399  -0.39316
  32   29211.3    342.3   0.049276943   0.55535  -0.07407  -0.45112  -0.58852
  33   29280.1    341.5   0.047298073   0.53180   0.06093  -0.70948  -0.15724
  34   29596.2    337.9   0.599782937   6.67166  -1.67017   1.53541   1.23480
  35   29865.8    334.8   0.204632183   2.25567  -1.23988   0.50535   0.68043
  36   30310.3    329.9   0.162033411   1.75991  -0.93860   0.87105   0.34671
  37   30348.4    329.5   0.026855402   0.29132   0.00819  -0.51836   0.15017
  38   30602.4    326.8   0.038387397   0.41296  -0.22509  -0.48269   0.35959
  39   30861.6    324.0   0.025813530   0.27536  -0.13475   0.19036  -0.47007
  40   31010.8    322.5   0.081063405   0.86057  -0.39838   0.77072   0.32842
  41   31621.8    316.2   0.003184519   0.03315   0.17166   0.05975  -0.01081
  42   31942.3    313.1   0.153931341   1.58649  -0.85131   0.92104   0.11591
  43   32250.0    310.1   0.005524442   0.05639  -0.12362   0.04233   0.19830
  44   33613.2    297.5   0.007155347   0.07008   0.06304   0.25623  -0.02131
  45   33712.4    296.6   0.019878373   0.19412  -0.12610  -0.25235   0.33843
  46   34007.7    294.1   0.133950147   1.29671   0.26117  -1.10837  -0.00406
  47   34739.4    287.9   0.022977342   0.21775   0.41990  -0.19389  -0.06192
  48   34955.5    286.1   0.044537043   0.41945  -0.51820   0.06670   0.38271
  49   35076.7    285.1   0.031867986   0.29910  -0.52983   0.09305   0.09857
  50   35496.9    281.7   0.209178608   1.94000   1.39004   0.07813   0.04108
  51   35785.9    279.4   0.066869778   0.61517   0.46366  -0.48897  -0.40137
  52   35911.2    278.5   0.466838666   4.27970   1.81972  -0.59324  -0.78511
  53   36139.2    276.7   0.005200613   0.04738  -0.17053   0.09652   0.09476
  54   36252.3    275.8   0.003720874   0.03379   0.07094   0.06680  -0.15587
  55   36495.9    274.0   0.043180731   0.38951   0.42404  -0.40639  -0.21108
  56   36790.1    271.8   0.044606097   0.39915   0.22398  -0.27847  -0.52100
  57   37314.9    268.0   0.041357279   0.36488   0.53627   0.27606   0.03284
  58   37930.6    263.6   0.005906432   0.05126   0.14217  -0.17366  -0.02994
  59   38009.3    263.1   0.006679053   0.05785  -0.01912   0.23778  -0.03076
  60   38087.6    262.6   0.029216529   0.25253  -0.35523   0.12203   0.33385
  61   38185.2    261.9   0.372605127   3.21240   0.74219  -1.60955  -0.26626
  62   38313.0    261.0   0.005698035   0.04896   0.09465  -0.18833   0.06735
  63   38350.6    260.8   0.004873396   0.04183  -0.10686   0.13967  -0.10445
  64   38472.0    259.9   0.073654502   0.63027   0.56727  -0.32761  -0.44850
  65   38624.0    258.9   0.019832260   0.16904   0.23697  -0.32754  -0.07483
  66   38821.4    257.6   0.019983522   0.16946  -0.15564   0.29884   0.23651
  67   39093.0    255.8   0.028044428   0.23617   0.41964  -0.02107  -0.24418
  68   39275.7    254.6   0.151212099   1.26747  -1.03276   0.03206   0.44704
  69   39471.1    253.3   0.021710134   0.18108  -0.29352  -0.30170  -0.06243
  70   39738.0    251.6   0.035145662   0.29117  -0.39308   0.32242   0.18084
  71   39802.9    251.2   0.141486193   1.17024  -0.91608   0.46193   0.34300
  72   39957.9    250.3   0.056742088   0.46750  -0.21297   0.62207   0.18754
  73   40124.3    249.2   0.084611148   0.69422   0.33738  -0.69647   0.30874
  74   40233.0    248.6   0.406636485   3.32736  -0.48647   1.74957  -0.17242

FINAL SINGLE POINT ENERGY     -4947.461950485983

DIPOLE MOMENT
-------------
                                X             Y             Z
Electronic contribution:      9.52229     -30.16989      -3.31707
Nuclear contribution   :    -14.02821      30.43205       4.35635
                        -----------------------------------------
Total Dipole Moment    :     -4.50592       0.26216       1.03927
                        -----------------------------------------
Magnitude (a.u.)       :      4.63165
Magnitude (Debye)      :     11.77271

Rotational constants in cm-1:     0.001476     0.000423     0.000379
Rotational constants in MHz :    44.248959    12.695993    11.354864

                             ****ORCA TERMINATED NORMALLY****
TOTAL RUN TIME: 0 days 0 hours 17 minutes 20 seconds 743 msec
