                         Program Version 4.2.0 -  RELEASE  -
|  1> # ORCA input file
|  2> # SCF done       -176.662213050670          0.000480584837
|  3> ! CAM-B3LYP def2-SVP def2/J RIJCOSX Grid4 TightSCF
|  4> %maxcore 5000
|  5> %tddft
|  6>     Mode sTDDFT
|  7>     Ethresh 5.0
|  8>     maxcore 5000
|  9> end
| 10>
| 11> %pal
| 12>   nprocs 6
| 13>   end
| 14> * xyz 0 1
| 15>    C       -2.59858         0.11122         0.51493
| 16>    C       -1.23833         0.07076         0.76569
| 17>    F       -0.56202         1.21838         0.88569
| 18>    C       -0.57156        -1.14174         0.88250
| 19>    F        0.75171        -1.15356         1.07454
| 20>    C       -1.25647        -2.35321         0.75171
| 21>    C       -2.62510        -2.29893         0.47813
| 22>    C       -3.28441        -1.08182         0.36945
| 23>    F       -4.59788        -1.05504         0.11687
| 24>    F       -3.31212        -3.44098         0.34129
| 25>    C       -0.56222        -3.62329         0.87765
| 26>    C       -0.66039        -4.74259        -0.05650
| 27>    N        0.11550        -5.74812         0.23918
| 28>    C        0.75633        -5.39254         1.38283
| 29>    C        0.33124        -4.05093         1.82166
| 30>    C        0.98564        -3.70222         3.06552
| 31>    S        0.69988        -2.35585         3.96316
| 32>    C        1.86878        -4.81043         3.32684
| 33>    C        1.69955        -5.83349         2.27438
| 34>    N        2.55095        -6.87672         2.47126
| 35>    C        3.25205        -6.55693         3.52036
| 36>    C        2.89465        -5.27192         4.12612
| 37>    C        3.53560        -4.72269         5.28881
| 38>    C        4.85450        -5.04126         5.56043
| 39>    C        5.50055        -4.45623         6.65910
| 40>    C        6.81846        -4.56970         7.10880
| 41>    C        7.85678        -5.46259         6.52567
| 42>    C        8.93199        -4.69825         5.71823
| 43>    N        9.59073        -3.66855         6.50355
| 44>    C        8.49003        -6.37042         7.59696
| 45>    N        7.45807        -7.22565         8.15032
| 46>    C        6.93287        -3.71220         8.26599
| 47>    C        7.99434        -3.36046         9.02049
| 48>    C        7.85342        -2.43021        10.17774
| 49>    C        6.45930        -1.97172        10.44736
| 50>    C        5.42184        -2.27874         9.64512
| 51>    C        5.61217        -3.12307         8.52664
| 52>    C        4.75817        -3.55905         7.52778
| 53>    C        3.40383        -3.27883         7.24550
| 54>    C        2.81951        -3.83753         6.15267
| 55>    C        8.50687        -3.08953        11.36908
| 56>    C        7.83269        -3.82106        12.26127
| 57>    C        8.43074        -4.47366        13.38594
| 58>    C        9.80053        -4.33705        13.88404
| 59>    N       10.06500        -5.05156        14.94300
| 60>    C        8.91269        -5.71745        15.23048
| 61>    C        7.86133        -5.37254        14.25672
| 62>    C        6.63948        -6.06387        14.57382
| 63>    S        5.17399        -5.88258        13.85659
| 64>    C        6.98236        -6.87012        15.72473
| 65>    C        8.37934        -6.60350        16.13173
| 66>    N        8.69065        -7.29896        17.25498
| 67>    C        7.60877        -7.95445        17.57533
| 68>    C        6.49447        -7.74853        16.65436
| 69>    C        5.19696        -8.39555        16.73435
| 70>    C        4.61164        -8.97377        15.60390
| 71>    F        5.28258        -8.97812        14.44745
| 72>    C        3.36853        -9.58810        15.67996
| 73>    F        2.83150       -10.14395        14.58905
| 74>    C        2.67681        -9.64348        16.87728
| 75>    C        3.25177        -9.08516        18.00543
| 76>    C        4.49739        -8.47525        17.94086
| 77>    F        5.02992        -7.93361        19.04462
| 78>    F        2.59615        -9.14064        19.17006
| 79>    H       -3.11307         1.05384         0.42835
| 80>    H       -1.29291        -4.76854        -0.92561
| 81>    H        3.99183        -7.23832         3.90355
| 82>    H        5.40237        -5.69815         4.90181
| 83>    H        7.35855        -6.13318         5.81874
| 84>    H        8.44901        -4.29676         4.81367
| 85>    H        9.68734        -5.42243         5.40426
| 86>    H        9.00823        -2.83900         6.54835
| 87>    H       10.46984        -3.40613         6.07351
| 88>    H        9.01009        -5.75761         8.34571
| 89>    H        9.22983        -7.01590         7.11565
| 90>    H        6.76941        -6.67722         8.65497
| 91>    H        7.85196        -7.90649         8.78854
| 92>    H        8.99111        -3.71367         8.80180
| 93>    H        8.45656        -1.53715         9.94436
| 94>    H        6.32773        -1.34855        11.31866
| 95>    H        4.43283        -1.89680         9.84988
| 96>    H        2.84597        -2.61965         7.89299
| 97>    H        1.78816        -3.62807         5.92075
| 98>    H        9.57935        -2.98051        11.43958
| 99>    H        6.76361        -3.95586        12.15512
|100>    H       10.56324        -3.70852        13.45904
|101>    H        7.58618        -8.59358        18.43981
|102>    H        1.71104       -10.11797        16.93170
|103> *
|104>
|105>                          ****END OF INPUT****

CARTESIAN COORDINATES (ANGSTROEM)
---------------------------------
  C     -2.598580    0.111220    0.514930
  C     -1.238330    0.070760    0.765690
  F     -0.562020    1.218380    0.885690
  C     -0.571560   -1.141740    0.882500
  F      0.751710   -1.153560    1.074540
  C     -1.256470   -2.353210    0.751710
  C     -2.625100   -2.298930    0.478130
  C     -3.284410   -1.081820    0.369450
  F     -4.597880   -1.055040    0.116870
  F     -3.312120   -3.440980    0.341290
  C     -0.562220   -3.623290    0.877650
  C     -0.660390   -4.742590   -0.056500
  N      0.115500   -5.748120    0.239180
  C      0.756330   -5.392540    1.382830
  C      0.331240   -4.050930    1.821660
  C      0.985640   -3.702220    3.065520
  S      0.699880   -2.355850    3.963160
  C      1.868780   -4.810430    3.326840
  C      1.699550   -5.833490    2.274380
  N      2.550950   -6.876720    2.471260
  C      3.252050   -6.556930    3.520360
  C      2.894650   -5.271920    4.126120
  C      3.535600   -4.722690    5.288810
  C      4.854500   -5.041260    5.560430
  C      5.500550   -4.456230    6.659100
  C      6.818460   -4.569700    7.108800
  C      7.856780   -5.462590    6.525670
  C      8.931990   -4.698250    5.718230
  N      9.590730   -3.668550    6.503550
  C      8.490030   -6.370420    7.596960
  N      7.458070   -7.225650    8.150320
  C      6.932870   -3.712200    8.265990
  C      7.994340   -3.360460    9.020490
  C      7.853420   -2.430210   10.177740
  C      6.459300   -1.971720   10.447360
  C      5.421840   -2.278740    9.645120
  C      5.612170   -3.123070    8.526640
  C      4.758170   -3.559050    7.527780
  C      3.403830   -3.278830    7.245500
  C      2.819510   -3.837530    6.152670
  C      8.506870   -3.089530   11.369080
  C      7.832690   -3.821060   12.261270
  C      8.430740   -4.473660   13.385940
  C      9.800530   -4.337050   13.884040
  N     10.065000   -5.051560   14.943000
  C      8.912690   -5.717450   15.230480
  C      7.861330   -5.372540   14.256720
  C      6.639480   -6.063870   14.573820
  S      5.173990   -5.882580   13.856590
  C      6.982360   -6.870120   15.724730
  C      8.379340   -6.603500   16.131730
  N      8.690650   -7.298960   17.254980
  C      7.608770   -7.954450   17.575330
  C      6.494470   -7.748530   16.654360
  C      5.196960   -8.395550   16.734350
  C      4.611640   -8.973770   15.603900
  F      5.282580   -8.978120   14.447450
  C      3.368530   -9.588100   15.679960
  F      2.831500  -10.143950   14.589050
  C      2.676810   -9.643480   16.877280
  C      3.251770   -9.085160   18.005430
  C      4.497390   -8.475250   17.940860
  F      5.029920   -7.933610   19.044620
  F      2.596150   -9.140640   19.170060
  H     -3.113070    1.053840    0.428350
  H     -1.292910   -4.768540   -0.925610
  H      3.991830   -7.238320    3.903550
  H      5.402370   -5.698150    4.901810
  H      7.358550   -6.133180    5.818740
  H      8.449010   -4.296760    4.813670
  H      9.687340   -5.422430    5.404260
  H      9.008230   -2.839000    6.548350
  H     10.469840   -3.406130    6.073510
  H      9.010090   -5.757610    8.345710
  H      9.229830   -7.015900    7.115650
  H      6.769410   -6.677220    8.654970
  H      7.851960   -7.906490    8.788540
  H      8.991110   -3.713670    8.801800
  H      8.456560   -1.537150    9.944360
  H      6.327730   -1.348550   11.318660
  H      4.432830   -1.896800    9.849880
  H      2.845970   -2.619650    7.892990
  H      1.788160   -3.628070    5.920750
  H      9.579350   -2.980510   11.439580
  H      6.763610   -3.955860   12.155120
  H     10.563240   -3.708520   13.459040
  H      7.586180   -8.593580   18.439810
  H      1.711040  -10.117970   16.931700

 Total Charge           Charge          ....    0
 Multiplicity           Mult            ....    1
 Number of Electrons    NEL             ....  458
 Basis Dimension        Dim             .... 1024

ORBITAL ENERGIES
----------------

  NO   OCC          E(Eh)            E(eV)
   0   2.0000     -88.906349     -2419.2647
   1   2.0000     -88.895183     -2418.9609
   2   2.0000     -24.807751      -675.0532
   3   2.0000     -24.800990      -674.8693
   4   2.0000     -24.800654      -674.8601
   5   2.0000     -24.799519      -674.8292
   6   2.0000     -24.797538      -674.7753
   7   2.0000     -24.793671      -674.6701
   8   2.0000     -24.793430      -674.6635
   9   2.0000     -24.791992      -674.6244
  10   2.0000     -14.422821      -392.4649
  11   2.0000     -14.418578      -392.3494
  12   2.0000     -14.412285      -392.1782
  13   2.0000     -14.408097      -392.0642
  14   2.0000     -14.392345      -391.6356
  15   2.0000     -14.371077      -391.0569
  16   2.0000     -10.384782      -282.5843
  17   2.0000     -10.383200      -282.5412
  18   2.0000     -10.382812      -282.5307
  19   2.0000     -10.381654      -282.4992
  20   2.0000     -10.377509      -282.3864
  21   2.0000     -10.376220      -282.3513
  22   2.0000     -10.375868      -282.3417
  23   2.0000     -10.374985      -282.3177
  24   2.0000     -10.347374      -281.5664
  25   2.0000     -10.343948      -281.4731
  26   2.0000     -10.340493      -281.3791
  27   2.0000     -10.339351      -281.3480
  28   2.0000     -10.338712      -281.3307
  29   2.0000     -10.336829      -281.2794
  30   2.0000     -10.332266      -281.1553
  31   2.0000     -10.329834      -281.0891
  32   2.0000     -10.329008      -281.0666
  33   2.0000     -10.323539      -280.9178
  34   2.0000     -10.323388      -280.9137
  35   2.0000     -10.317041      -280.7410
  36   2.0000     -10.315686      -280.7041
  37   2.0000     -10.310288      -280.5572
  38   2.0000     -10.307713      -280.4871
  39   2.0000     -10.307501      -280.4814
  40   2.0000     -10.306386      -280.4510
  41   2.0000     -10.304242      -280.3927
  42   2.0000     -10.302339      -280.3409
  43   2.0000     -10.301922      -280.3296
  44   2.0000     -10.301585      -280.3204
  45   2.0000     -10.301216      -280.3104
  46   2.0000     -10.299721      -280.2697
  47   2.0000     -10.296437      -280.1803
  48   2.0000     -10.290593      -280.0213
  49   2.0000     -10.289941      -280.0035
  50   2.0000     -10.289785      -279.9993
  51   2.0000     -10.284920      -279.8669
  52   2.0000     -10.278688      -279.6973
  53   2.0000     -10.278262      -279.6857
  54   2.0000     -10.276359      -279.6340
  55   2.0000     -10.274116      -279.5729
  56   2.0000     -10.271548      -279.5030
  57   2.0000     -10.266581      -279.3679
  58   2.0000     -10.265783      -279.3461
  59   2.0000     -10.265748      -279.3452
  60   2.0000     -10.265251      -279.3317
  61   2.0000     -10.263294      -279.2784
  62   2.0000     -10.262466      -279.2559
  63   2.0000     -10.260031      -279.1896
  64   2.0000      -8.001935      -217.7437
  65   2.0000      -7.990916      -217.4439
  66   2.0000      -5.970771      -162.4729
  67   2.0000      -5.970573      -162.4676
  68   2.0000      -5.961087      -162.2094
  69   2.0000      -5.959702      -162.1717
  70   2.0000      -5.959670      -162.1709
  71   2.0000      -5.949962      -161.9067
  72   2.0000      -1.327589       -36.1255
  73   2.0000      -1.322965       -35.9997
  74   2.0000      -1.320869       -35.9427
  75   2.0000      -1.316186       -35.8152
  76   2.0000      -1.311226       -35.6803
  77   2.0000      -1.307783       -35.5866
  78   2.0000      -1.304995       -35.5107
  79   2.0000      -1.301183       -35.4070
  80   2.0000      -1.090627       -29.6775
  81   2.0000      -1.080302       -29.3965
  82   2.0000      -1.071423       -29.1549
  83   2.0000      -1.061080       -28.8735
  84   2.0000      -0.992468       -27.0064
  85   2.0000      -0.987945       -26.8833
  86   2.0000      -0.985254       -26.8101
  87   2.0000      -0.970380       -26.4054
  88   2.0000      -0.968824       -26.3631
  89   2.0000      -0.958514       -26.0825
  90   2.0000      -0.952701       -25.9243
  91   2.0000      -0.950424       -25.8624
  92   2.0000      -0.925196       -25.1759
  93   2.0000      -0.912755       -24.8373
  94   2.0000      -0.904012       -24.5994
  95   2.0000      -0.903529       -24.5863
  96   2.0000      -0.875315       -23.8185
  97   2.0000      -0.868861       -23.6429
  98   2.0000      -0.861448       -23.4412
  99   2.0000      -0.856595       -23.3091
 100   2.0000      -0.852887       -23.2082
 101   2.0000      -0.849720       -23.1221
 102   2.0000      -0.846711       -23.0402
 103   2.0000      -0.841102       -22.8876
 104   2.0000      -0.837522       -22.7901
 105   2.0000      -0.833146       -22.6710
 106   2.0000      -0.827298       -22.5119
 107   2.0000      -0.800770       -21.7901
 108   2.0000      -0.784635       -21.3510
 109   2.0000      -0.777526       -21.1576
 110   2.0000      -0.760806       -20.7026
 111   2.0000      -0.759566       -20.6688
 112   2.0000      -0.753545       -20.5050
 113   2.0000      -0.743123       -20.2214
 114   2.0000      -0.736712       -20.0470
 115   2.0000      -0.733751       -19.9664
 116   2.0000      -0.727601       -19.7990
 117   2.0000      -0.723252       -19.6807
 118   2.0000      -0.720576       -19.6079
 119   2.0000      -0.709692       -19.3117
 120   2.0000      -0.700577       -19.0637
 121   2.0000      -0.697562       -18.9816
 122   2.0000      -0.677088       -18.4245
 123   2.0000      -0.676149       -18.3990
 124   2.0000      -0.670340       -18.2409
 125   2.0000      -0.669346       -18.2138
 126   2.0000      -0.667197       -18.1554
 127   2.0000      -0.661728       -18.0065
 128   2.0000      -0.658939       -17.9306
 129   2.0000      -0.655711       -17.8428
 130   2.0000      -0.650717       -17.7069
 131   2.0000      -0.648107       -17.6359
 132   2.0000      -0.639624       -17.4051
 133   2.0000      -0.629963       -17.1422
 134   2.0000      -0.623341       -16.9620
 135   2.0000      -0.621650       -16.9160
 136   2.0000      -0.615663       -16.7530
 137   2.0000      -0.614791       -16.7293
 138   2.0000      -0.606970       -16.5165
 139   2.0000      -0.603830       -16.4310
 140   2.0000      -0.598710       -16.2917
 141   2.0000      -0.594316       -16.1722
 142   2.0000      -0.591117       -16.0851
 143   2.0000      -0.589844       -16.0505
 144   2.0000      -0.582872       -15.8607
 145   2.0000      -0.582198       -15.8424
 146   2.0000      -0.579083       -15.7577
 147   2.0000      -0.575178       -15.6514
 148   2.0000      -0.574245       -15.6260
 149   2.0000      -0.571715       -15.5572
 150   2.0000      -0.570546       -15.5254
 151   2.0000      -0.565282       -15.3821
 152   2.0000      -0.563329       -15.3290
 153   2.0000      -0.559383       -15.2216
 154   2.0000      -0.557288       -15.1646
 155   2.0000      -0.554417       -15.0864
 156   2.0000      -0.552310       -15.0291
 157   2.0000      -0.552032       -15.0216
 158   2.0000      -0.547781       -14.9059
 159   2.0000      -0.546493       -14.8708
 160   2.0000      -0.545951       -14.8561
 161   2.0000      -0.543970       -14.8022
 162   2.0000      -0.541637       -14.7387
 163   2.0000      -0.539554       -14.6820
 164   2.0000      -0.537089       -14.6149
 165   2.0000      -0.532889       -14.5007
 166   2.0000      -0.524384       -14.2692
 167   2.0000      -0.522317       -14.2130
 168   2.0000      -0.520235       -14.1563
 169   2.0000      -0.516648       -14.0587
 170   2.0000      -0.514626       -14.0037
 171   2.0000      -0.513499       -13.9730
 172   2.0000      -0.507970       -13.8226
 173   2.0000      -0.505664       -13.7598
 174   2.0000      -0.501032       -13.6338
 175   2.0000      -0.500088       -13.6081
 176   2.0000      -0.496847       -13.5199
 177   2.0000      -0.494146       -13.4464
 178   2.0000      -0.492932       -13.4134
 179   2.0000      -0.490501       -13.3472
 180   2.0000      -0.488947       -13.3049
 181   2.0000      -0.487953       -13.2779
 182   2.0000      -0.485718       -13.2171
 183   2.0000      -0.483547       -13.1580
 184   2.0000      -0.481574       -13.1043
 185   2.0000      -0.473633       -12.8882
 186   2.0000      -0.469326       -12.7710
 187   2.0000      -0.467157       -12.7120
 188   2.0000      -0.464815       -12.6483
 189   2.0000      -0.460623       -12.5342
 190   2.0000      -0.458297       -12.4709
 191   2.0000      -0.451248       -12.2791
 192   2.0000      -0.446615       -12.1530
 193   2.0000      -0.445541       -12.1238
 194   2.0000      -0.442805       -12.0493
 195   2.0000      -0.438640       -11.9360
 196   2.0000      -0.436615       -11.8809
 197   2.0000      -0.434734       -11.8297
 198   2.0000      -0.433331       -11.7915
 199   2.0000      -0.431370       -11.7382
 200   2.0000      -0.428580       -11.6623
 201   2.0000      -0.421345       -11.4654
 202   2.0000      -0.413895       -11.2627
 203   2.0000      -0.411214       -11.1897
 204   2.0000      -0.403219       -10.9722
 205   2.0000      -0.391926       -10.6648
 206   2.0000      -0.388823       -10.5804
 207   2.0000      -0.375579       -10.2200
 208   2.0000      -0.367564       -10.0019
 209   2.0000      -0.366994        -9.9864
 210   2.0000      -0.360703        -9.8152
 211   2.0000      -0.356741        -9.7074
 212   2.0000      -0.352545        -9.5932
 213   2.0000      -0.347479        -9.4554
 214   2.0000      -0.346134        -9.4188
 215   2.0000      -0.330942        -9.0054
 216   2.0000      -0.324691        -8.8353
 217   2.0000      -0.320125        -8.7111
 218   2.0000      -0.317839        -8.6488
 219   2.0000      -0.315745        -8.5919
 220   2.0000      -0.314971        -8.5708
 221   2.0000      -0.312831        -8.5126
 222   2.0000      -0.304968        -8.2986
 223   2.0000      -0.297797        -8.1035
 224   2.0000      -0.292888        -7.9699
 225   2.0000      -0.292333        -7.9548
 226   2.0000      -0.288023        -7.8375
 227   2.0000      -0.277817        -7.5598
 228   2.0000      -0.223043        -6.0693
 229   0.0000      -0.116720        -3.1761
 230   0.0000      -0.107572        -2.9272
 231   0.0000      -0.085089        -2.3154
 232   0.0000      -0.079555        -2.1648
 233   0.0000      -0.059475        -1.6184

MULLIKEN ATOMIC CHARGES
-----------------------
   0 C :   -0.142363
   1 C :    0.238231
   2 F :   -0.174244
   3 C :    0.219144
   4 F :   -0.158350
   5 C :   -0.117781
   6 C :    0.192858
   7 C :    0.241383
   8 F :   -0.175335
   9 F :   -0.167849
  10 C :   -0.038519
  11 C :    0.072232
  12 N :   -0.032256
  13 C :    0.020209
  14 C :    0.012364
  15 C :   -0.004126
  16 S :   -0.118930
  17 C :   -0.015887
  18 C :   -0.005078
  19 N :   -0.028975
  20 C :    0.056562
  21 C :    0.000238
  22 C :    0.078188
  23 C :   -0.101312
  24 C :    0.067869
  25 C :   -0.091373
  26 C :    0.010353
  27 C :    0.135191
  28 N :   -0.229930
  29 C :    0.136311
  30 N :   -0.224157
  31 C :    0.057289
  32 C :   -0.120231
  33 C :    0.183181
  34 C :   -0.057478
  35 C :    0.021754
  36 C :    0.009216
  37 C :    0.046174
  38 C :   -0.015430
  39 C :    0.017326
  40 C :   -0.094492
  41 C :    0.021113
  42 C :    0.002959
  43 C :    0.058043
  44 N :   -0.030100
  45 C :    0.029818
  46 C :   -0.004485
  47 C :   -0.004999
  48 S :   -0.109219
  49 C :    0.016011
  50 C :   -0.006174
  51 N :   -0.031315
  52 C :    0.076113
  53 C :   -0.034474
  54 C :   -0.109300
  55 C :    0.214288
  56 F :   -0.158143
  57 C :    0.237656
  58 F :   -0.171694
  59 C :   -0.136500
  60 C :    0.241608
  61 C :    0.189789
  62 F :   -0.167449
  63 F :   -0.173908
  64 H :    0.017202
  65 H :    0.009393
  66 H :    0.016470
  67 H :   -0.035410
  68 H :   -0.018872
  69 H :   -0.007628
  70 H :   -0.005601
  71 H :    0.105919
  72 H :    0.098342
  73 H :   -0.016084
  74 H :   -0.015501
  75 H :    0.100440
  76 H :    0.090866
  77 H :    0.017625
  78 H :    0.036491
  79 H :   -0.009159
  80 H :   -0.033040
  81 H :   -0.034774
  82 H :   -0.028561
  83 H :    0.000531
  84 H :    0.014685
  85 H :    0.010866
  86 H :    0.013928
  87 H :    0.020257
Sum of atomic charges:   -0.0000000

LOEWDIN ATOMIC CHARGES
----------------------
   0 C :   -0.057483
   1 C :    0.058372
   2 F :   -0.049530
   3 C :    0.064488
   4 F :   -0.038945
   5 C :   -0.067163
   6 C :    0.057707
   7 C :    0.055295
   8 F :   -0.050895
   9 F :   -0.046782
  10 C :   -0.044209
  11 C :    0.087071
  12 N :   -0.085580
  13 C :    0.027289
  14 C :   -0.013241
  15 C :   -0.140363
  16 S :    0.074710
  17 C :   -0.048955
  18 C :    0.049381
  19 N :   -0.080617
  20 C :    0.094667
  21 C :   -0.019763
  22 C :   -0.030213
  23 C :    0.003978
  24 C :   -0.021551
  25 C :   -0.033194
  26 C :   -0.040752
  27 C :    0.028490
  28 N :   -0.109775
  29 C :    0.028568
  30 N :   -0.118669
  31 C :   -0.031195
  32 C :    0.078648
  33 C :   -0.033085
  34 C :   -0.038019
  35 C :   -0.012546
  36 C :   -0.039029
  37 C :   -0.029437
  38 C :   -0.008010
  39 C :   -0.019127
  40 C :    0.009609
  41 C :   -0.019489
  42 C :   -0.035219
  43 C :    0.094969
  44 N :   -0.080931
  45 C :    0.045589
  46 C :   -0.036263
  47 C :   -0.145865
  48 S :    0.067795
  49 C :   -0.013082
  50 C :    0.035046
  51 N :   -0.084099
  52 C :    0.094165
  53 C :   -0.040720
  54 C :   -0.069030
  55 C :    0.065452
  56 F :   -0.038310
  57 C :    0.059532
  58 F :   -0.047233
  59 C :   -0.054313
  60 C :    0.056367
  61 C :    0.058392
  62 F :   -0.046160
  63 F :   -0.049445
  64 H :    0.054051
  65 H :    0.025970
  66 H :    0.027654
  67 H :    0.024320
  68 H :    0.028854
  69 H :    0.004155
  70 H :    0.017414
  71 H :    0.055764
  72 H :    0.057821
  73 H :   -0.001740
  74 H :    0.015051
  75 H :    0.053516
  76 H :    0.053951
  77 H :    0.027101
  78 H :    0.062479
  79 H :    0.025312
  80 H :    0.031642
  81 H :    0.028523
  82 H :    0.013655
  83 H :    0.023284
  84 H :    0.035428
  85 H :    0.024993
  86 H :    0.028000
  87 H :    0.055509

  Mayer bond orders larger than 0.100000
B(  0-C ,  1-C ) :   1.3228 B(  0-C ,  5-C ) :   0.1288 B(  0-C ,  7-C ) :   1.3212
B(  0-C , 64-H ) :   1.0192 B(  1-C ,  2-F ) :   1.1220 B(  1-C ,  3-C ) :   1.2955
B(  3-C ,  4-F ) :   1.1819 B(  3-C ,  5-C ) :   1.3271 B(  5-C ,  6-C ) :   1.3176
B(  5-C , 10-C ) :   0.9505 B(  6-C ,  7-C ) :   1.2986 B(  6-C ,  9-F ) :   1.1696
B(  7-C ,  8-F ) :   1.1208 B( 10-C , 11-C ) :   1.0584 B( 10-C , 14-C ) :   1.6192
B( 11-C , 12-N ) :   1.7002 B( 11-C , 65-H ) :   0.9947 B( 12-N , 13-C ) :   1.2849
B( 13-C , 14-C ) :   1.0571 B( 13-C , 18-C ) :   1.5093 B( 14-C , 15-C ) :   1.0163
B( 15-C , 16-S ) :   1.6982 B( 15-C , 17-C ) :   1.0338 B( 17-C , 18-C ) :   1.0591
B( 17-C , 21-C ) :   1.5322 B( 18-C , 19-N ) :   1.2678 B( 19-N , 20-C ) :   1.7163
B( 20-C , 21-C ) :   1.0375 B( 20-C , 66-H ) :   0.9864 B( 21-C , 22-C ) :   1.0182
B( 22-C , 23-C ) :   1.4795 B( 22-C , 39-C ) :   1.1492 B( 23-C , 24-C ) :   1.1580
B( 23-C , 67-H ) :   0.9918 B( 24-C , 25-C ) :   1.4637 B( 24-C , 37-C ) :   1.1218
B( 25-C , 26-C ) :   1.0418 B( 25-C , 31-C ) :   1.0909 B( 26-C , 27-C ) :   1.0310
B( 26-C , 29-C ) :   1.0307 B( 26-C , 68-H ) :   0.8764 B( 27-C , 28-N ) :   1.1050
B( 27-C , 69-H ) :   0.9453 B( 27-C , 70-H ) :   0.9406 B( 28-N , 71-H ) :   0.9585
B( 28-N , 72-H ) :   0.9692 B( 29-C , 30-N ) :   1.0963 B( 29-C , 73-H ) :   0.9401
B( 29-C , 74-H ) :   0.9358 B( 30-N , 75-H ) :   0.9710 B( 30-N , 76-H ) :   0.9686
B( 31-C , 32-C ) :   1.6678 B( 31-C , 36-C ) :   1.0571 B( 32-C , 33-C ) :   0.9566
B( 32-C , 77-H ) :   0.9403 B( 33-C , 34-C ) :   0.9928 B( 33-C , 40-C ) :   0.9616
B( 33-C , 78-H ) :   0.8464 B( 34-C , 35-C ) :   1.7058 B( 34-C , 79-H ) :   0.9786
B( 35-C , 36-C ) :   1.1283 B( 35-C , 80-H ) :   0.9918 B( 36-C , 37-C ) :   1.4261
B( 37-C , 38-C ) :   1.1392 B( 38-C , 39-C ) :   1.6031 B( 38-C , 81-H ) :   0.9953
B( 39-C , 82-H ) :   0.9684 B( 40-C , 41-C ) :   1.7953 B( 40-C , 83-H ) :   0.9706
B( 41-C , 42-C ) :   1.0847 B( 41-C , 84-H ) :   0.9589 B( 42-C , 43-C ) :   1.0136
B( 42-C , 46-C ) :   1.5377 B( 43-C , 44-N ) :   1.7212 B( 43-C , 85-H ) :   0.9897
B( 44-N , 45-C ) :   1.2649 B( 45-C , 46-C ) :   1.0584 B( 45-C , 50-C ) :   1.5127
B( 46-C , 47-C ) :   1.0260 B( 47-C , 48-S ) :   1.7131 B( 47-C , 49-C ) :   1.0148
B( 49-C , 50-C ) :   1.0623 B( 49-C , 53-C ) :   1.6190 B( 50-C , 51-N ) :   1.2844
B( 51-N , 52-C ) :   1.6982 B( 52-C , 53-C ) :   1.0546 B( 52-C , 86-H ) :   0.9949
B( 53-C , 54-C ) :   0.9544 B( 54-C , 55-C ) :   1.3210 B( 54-C , 59-C ) :   0.1284
B( 54-C , 61-C ) :   1.3151 B( 55-C , 56-F ) :   1.1819 B( 55-C , 57-C ) :   1.2958
B( 57-C , 58-F ) :   1.1243 B( 57-C , 59-C ) :   1.3256 B( 59-C , 60-C ) :   1.3210
B( 59-C , 87-H ) :   1.0171 B( 60-C , 61-C ) :   1.2995 B( 60-C , 63-F ) :   1.1218
B( 61-C , 62-F ) :   1.1694

-----------------------------------------------------------------------------
         ABSORPTION SPECTRUM VIA TRANSITION ELECTRIC DIPOLE MOMENTS
-----------------------------------------------------------------------------
State   Energy  Wavelength   fosc         T2         TX        TY        TZ
        (cm-1)    (nm)                  (au**2)     (au)      (au)      (au)
-----------------------------------------------------------------------------
   0   10062.8    993.8   0.117056530   3.82958   1.32603  -0.34764   1.39655
   1   10897.5    917.6   0.014098990   0.42593   0.59163   0.25637   0.10090
   2   13951.4    716.8   0.044115318   1.04099   0.23673  -0.51173  -0.85034
   3   15962.3    626.5   0.013242495   0.27312  -0.34368   0.11650  -0.37607
   4   16388.1    610.2   0.001431515   0.02876  -0.10277   0.04140   0.12838
   5   16466.6    607.3   0.003436352   0.06870   0.17862   0.08863  -0.17013
   6   17921.4    558.0   0.070256112   1.29059   0.27004   0.26394   1.07145
   7   18640.9    536.5   0.067020841   1.18364  -0.05582   0.43555  -0.99540
   8   18796.0    532.0   0.063332123   1.10926   0.60023   0.34165   0.79515
   9   18852.7    530.4   0.002260279   0.03947  -0.13403  -0.13639  -0.05386
  10   19720.5    507.1   0.054225851   0.90524  -0.72530   0.18182  -0.58833
  11   22332.9    447.8   0.003112678   0.04588  -0.19855  -0.00773  -0.08001
  12   22485.2    444.7   0.016227714   0.23759  -0.34475  -0.05866  -0.33956
  13   24274.2    412.0   0.056238344   0.76272   0.70259  -0.19824   0.47936
  14   24658.6    405.5   0.155875031   2.08105   0.85215  -0.47493   1.06271
  15   24756.0    403.9   0.042054387   0.55925  -0.66665  -0.22871   0.25004
  16   25356.7    394.4   0.027249858   0.35379   0.48192  -0.16664   0.30622
  17   25635.6    390.1   0.062202539   0.79880  -0.49643   0.00477  -0.74319
  18   25867.3    386.6   0.020190954   0.25697  -0.33193   0.06038  -0.37835
  19   25918.6    385.8   0.004687183   0.05954   0.11035  -0.12116   0.18077
  20   26466.2    377.8   0.006729601   0.08371   0.04206   0.11964   0.26005
  21   26829.4    372.7   0.320374502   3.93117  -1.29174   0.13876  -1.49777
  22   27180.0    367.9   0.010627374   0.12872  -0.30011  -0.05725  -0.18809
  23   27223.3    367.3   0.037365090   0.45186  -0.30507   0.27809  -0.53052
  24   28048.1    356.5   0.359233391   4.21647   1.12829  -0.51697   1.63590
  25   28422.1    351.8   0.019720431   0.22842   0.18411  -0.17034   0.40683
  26   29283.0    341.5   0.069485832   0.78119  -0.66494  -0.36410   0.45439
  27   29487.4    339.1   0.176195695   1.96714   0.73863   0.85357  -0.83245
  28   30011.7    333.2   0.090056711   0.98787   0.15672   0.56180  -0.80480
  29   30434.9    328.6   0.020970694   0.22684  -0.32622  -0.25955   0.23034
  30   30645.8    326.3   0.002063775   0.02217  -0.05777  -0.09333  -0.10061
  31   30763.0    325.1   0.001955789   0.02093  -0.01237  -0.01977   0.14278
  32   30963.6    323.0   0.211220748   2.24575   0.52088   0.92133  -1.06094
  33   31069.2    321.9   0.230025619   2.43737  -1.26611  -0.80446   0.43264
  34   31219.4    320.3   0.244712948   2.58052  -0.65618   1.02750  -1.04603
  35   31688.0    315.6   0.041274788   0.42881   0.26035   0.05477   0.59835
  36   31880.1    313.7   0.050341731   0.51986  -0.65484  -0.02751  -0.30048
  37   31962.1    312.9   0.065932450   0.67911   0.19440   0.56530  -0.56723
  38   32408.2    308.6   0.055966795   0.56853   0.54454  -0.15589   0.49770
  39   32798.3    304.9   0.024589458   0.24682  -0.09704  -0.14352   0.46562
  40   33282.3    300.5   0.017961527   0.17767  -0.32028  -0.25952  -0.08795
  41   33424.4    299.2   0.034705097   0.34183  -0.15464  -0.36687   0.42816
  42   33947.5    294.6   0.007648533   0.07417   0.19777  -0.03311  -0.18429
  43   34164.3    292.7   0.007665586   0.07387  -0.20092   0.17504  -0.05348
  44   34332.0    291.3   0.027215936   0.26098  -0.47392  -0.10170  -0.16134
  45   34491.4    289.9   0.070704732   0.67486  -0.56207   0.16913  -0.57474
  46   34692.6    288.2   0.004905546   0.04655  -0.00850  -0.13228   0.17023
  47   34727.3    288.0   0.022214433   0.21059   0.03351   0.05686   0.45413
  48   35356.1    282.8   0.055842592   0.51997  -0.65382   0.09864  -0.28768
  49   35477.3    281.9   0.121789073   1.13014   0.68487  -0.53373   0.61338
  50   36029.1    277.6   0.007826138   0.07151  -0.17998   0.05907  -0.18876
  51   36206.1    276.2   0.011269973   0.10247   0.01669  -0.30383  -0.09943
  52   36249.9    275.9   0.021843117   0.19837   0.32493  -0.02441  -0.30364
  53   36376.7    274.9   0.001756120   0.01589  -0.04826   0.09064   0.07314
  54   36489.4    274.1   0.030344454   0.27377  -0.08847   0.15961   0.49038
  55   36507.1    273.9   0.044058075   0.39730  -0.36462  -0.25913  -0.44409
  56   36697.6    272.5   0.131430937   1.17906  -1.02356  -0.16224   0.32412
  57   36818.1    271.6   0.037759978   0.33763   0.40769   0.37781   0.16937
  58   37169.9    269.0   0.013384851   0.11855   0.18415   0.05366   0.28593
  59   37230.6    268.6   0.087253138   0.77154   0.48376   0.09549   0.72691
  60   37471.8    266.9   0.139260426   1.22348   0.53014   0.71795   0.65344
  61   38107.8    262.4   0.069697793   0.60212  -0.42917  -0.36535  -0.53334
  62   38182.6    261.9   0.122330227   1.05474   0.72290  -0.11066   0.72104
  63   38205.4    261.7   0.516680124   4.45218   1.22683  -0.41659   1.66539
  64   38516.5    259.6   0.008024041   0.06858   0.20962  -0.15592  -0.01832
  65   38652.9    258.7   0.329864112   2.80950  -0.83668  -0.68330  -1.28163
  66   38837.0    257.5   0.007756776   0.06575   0.00204  -0.25558  -0.02062
  67   39180.5    255.2   0.077393878   0.65030   0.68795  -0.22589   0.35495
  68   39331.6    254.2   0.273912502   2.29269   0.17015  -1.31267  -0.73528
  69   39523.3    253.0   0.014367308   0.11967  -0.19768  -0.03552  -0.28166
  70   39665.5    252.1   0.013022017   0.10808  -0.12436   0.30414  -0.01051
  71   39827.3    251.1   0.014274015   0.11799   0.18291  -0.28238  -0.06925
  72   40298.6    248.1   0.055560873   0.45389   0.04991   0.11530   0.66190

FINAL SINGLE POINT ENERGY     -3763.098886082494

DIPOLE MOMENT
-------------
                                X             Y             Z
Electronic contribution:    -74.52013      -6.97755      10.09648
Nuclear contribution   :     76.13175       8.09364      -9.45053
                        -----------------------------------------
Total Dipole Moment    :      1.61162       1.11609       0.64595
                        -----------------------------------------
Magnitude (a.u.)       :      2.06403
Magnitude (Debye)      :      5.24636

Rotational constants in cm-1:     0.001806     0.000349     0.000321
Rotational constants in MHz :    54.148686    10.450969     9.619957

                             ****ORCA TERMINATED NORMALLY****
TOTAL RUN TIME: 0 days 0 hours 13 minutes 33 seconds 324 msec
