                         Program Version 4.2.0 -  RELEASE  -
|  1> # ORCA input file
|  2> # SCF done       -185.351374488481          0.000453690981
|  3> ! CAM-B3LYP def2-SVP def2/J RIJCOSX Grid4 TightSCF
|  4> %maxcore 5000
|  5> %tddft
|  6>     Mode sTDDFT
|  7>     Ethresh 5.0
|  8>     maxcore 5000
|  9> end
| 10>
| 11> %pal
| 12>   nprocs 6
| 13>   end
| 14> * xyz 0 1
| 15>    C        1.85119        -0.59461        -4.22385
| 16>    C        1.46344        -1.79143        -4.82665
| 17>    N        1.14510        -2.77211        -5.33039
| 18>    C        1.55662         0.68299        -4.65841
| 19>    F        0.82308         0.93346        -5.74011
| 20>    C        2.10609         1.68759        -3.84522
| 21>    F        1.94105         2.98771        -4.07797
| 22>    C        2.83639         1.18224        -2.78750
| 23>    S        2.82193        -0.57109        -2.79375
| 24>    C        3.51296         1.87023        -1.79664
| 25>    C        4.16289         2.32741        -0.87485
| 26>    C        4.89332         2.87698         0.17052
| 27>    N        4.90018         4.17631         0.40592
| 28>    C        5.68965         4.34965         1.48995
| 29>    C        6.21050         3.06836         1.97439
| 30>    C        7.07552         3.26405         3.14835
| 31>    O        7.66550         2.42957         3.79799
| 32>    C        7.03990         4.73118         3.32526
| 33>    C        6.18023         5.35142         2.29210
| 34>    N        6.14904         6.69851         2.44187
| 35>    C        6.91692         6.94634         3.47317
| 36>    C        7.50799         5.76257         4.07140
| 37>    C        5.72048         2.09923         1.13619
| 38>    C        5.97851         0.70087         1.19347
| 39>    C        5.54879        -0.19715         0.28050
| 40>    C        5.80391        -1.61063         0.25207
| 41>    C        5.34607        -2.31373        -0.84592
| 42>    C        5.57976        -3.69338        -0.97390
| 43>    C        5.26192        -4.60725        -1.97841
| 44>    C        4.53653        -4.42107        -3.27317
| 45>    C        3.00966        -4.33520        -3.08201
| 46>    N        2.58592        -3.12511        -2.38696
| 47>    C        5.06722        -3.24540        -4.10888
| 48>    N        6.46887        -3.47171        -4.41035
| 49>    C        5.79801        -5.87938        -1.55734
| 50>    C        5.82218        -7.07838        -2.17048
| 51>    C        6.47177        -8.26156        -1.54404
| 52>    C        7.11148        -8.00005        -0.21697
| 53>    C        7.07399        -6.79446         0.38551
| 54>    C        6.44415        -5.70089        -0.24817
| 55>    C        6.30641        -4.36902         0.09414
| 56>    C        6.74548        -3.63397         1.21960
| 57>    C        6.50728        -2.29915         1.29211
| 58>    C        5.43860        -9.32885        -1.31153
| 59>    C        5.51996       -10.57271        -1.80639
| 60>    C        4.54088       -11.57253        -1.51909
| 61>    N        3.52356       -11.34232        -0.70258
| 62>    C        2.82297       -12.49107        -0.65014
| 63>    C        3.43188       -13.52864        -1.49718
| 64>    C        2.65761       -14.77826        -1.41949
| 65>    O        2.86887       -15.83075        -1.98478
| 66>    C        1.57305       -14.42820        -0.48753
| 67>    C        1.71014       -13.02446        -0.04393
| 68>    N        0.71734       -12.69609         0.81650
| 69>    C       -0.00884       -13.78280         0.93214
| 70>    C        0.46876       -14.90128         0.14617
| 71>    C        4.53961       -12.95045        -2.06649
| 72>    C        5.49831       -13.48425        -2.97337
| 73>    C        5.45495       -14.75450        -3.44196
| 74>    C        6.40551       -15.24230        -4.32658
| 75>    C        7.24218       -15.66245        -5.10145
| 76>    C        8.20454       -16.12810        -5.98076
| 77>    C        8.31449       -17.39381        -6.52655
| 78>    C        9.41488       -17.53766        -7.38790
| 79>    C       10.16149       -16.38392        -7.51295
| 80>    S        9.49209       -15.10331        -6.55058
| 81>    C       11.30886       -16.19229        -8.28548
| 82>    N       12.25241       -16.02755        -8.91637
| 83>    F        9.70837       -18.67106        -8.01951
| 84>    F        7.45852       -18.38025        -6.25938
| 85>    H        7.06542         7.95771         3.80977
| 86>    H        8.16523         5.75475         4.91838
| 87>    H        6.58840         0.39928         2.03458
| 88>    H        4.96091         0.16674        -0.55104
| 89>    H        4.80928        -1.78331        -1.61542
| 90>    H        4.71535        -5.31804        -3.87355
| 91>    H        2.68399        -5.24409        -2.55296
| 92>    H        2.53727        -4.32715        -4.06731
| 93>    H        2.94989        -3.12869        -1.43827
| 94>    H        1.57286        -3.11963        -2.32648
| 95>    H        4.87239        -2.29677        -3.59022
| 96>    H        4.51982        -3.22501        -5.05531
| 97>    H        7.01935        -3.45302        -3.55784
| 98>    H        6.82358        -2.75397        -5.03133
| 99>    H        5.36447        -7.24276        -3.13582
|100>    H        7.22344        -8.65412        -2.24333
|101>    H        7.58714        -8.84737         0.25155
|102>    H        7.54482        -6.64555         1.34611
|103>    H        7.27320        -4.14494         2.01101
|104>    H        6.84623        -1.73766         2.14778
|105>    H        4.60801        -9.06763        -0.67263
|106>    H        6.34447       -10.85340        -2.44768
|107>    H       -0.87533       -13.79067         1.57043
|108>    H        0.01779       -15.87290         0.10441
|109>    H        6.29799       -12.83268        -3.30070
|110>    H        4.66948       -15.43623        -3.13787
|111> *
|112>
|113>                          ****END OF INPUT****

CARTESIAN COORDINATES (ANGSTROEM)
---------------------------------
  C      1.851190   -0.594610   -4.223850
  C      1.463440   -1.791430   -4.826650
  N      1.145100   -2.772110   -5.330390
  C      1.556620    0.682990   -4.658410
  F      0.823080    0.933460   -5.740110
  C      2.106090    1.687590   -3.845220
  F      1.941050    2.987710   -4.077970
  C      2.836390    1.182240   -2.787500
  S      2.821930   -0.571090   -2.793750
  C      3.512960    1.870230   -1.796640
  C      4.162890    2.327410   -0.874850
  C      4.893320    2.876980    0.170520
  N      4.900180    4.176310    0.405920
  C      5.689650    4.349650    1.489950
  C      6.210500    3.068360    1.974390
  C      7.075520    3.264050    3.148350
  O      7.665500    2.429570    3.797990
  C      7.039900    4.731180    3.325260
  C      6.180230    5.351420    2.292100
  N      6.149040    6.698510    2.441870
  C      6.916920    6.946340    3.473170
  C      7.507990    5.762570    4.071400
  C      5.720480    2.099230    1.136190
  C      5.978510    0.700870    1.193470
  C      5.548790   -0.197150    0.280500
  C      5.803910   -1.610630    0.252070
  C      5.346070   -2.313730   -0.845920
  C      5.579760   -3.693380   -0.973900
  C      5.261920   -4.607250   -1.978410
  C      4.536530   -4.421070   -3.273170
  C      3.009660   -4.335200   -3.082010
  N      2.585920   -3.125110   -2.386960
  C      5.067220   -3.245400   -4.108880
  N      6.468870   -3.471710   -4.410350
  C      5.798010   -5.879380   -1.557340
  C      5.822180   -7.078380   -2.170480
  C      6.471770   -8.261560   -1.544040
  C      7.111480   -8.000050   -0.216970
  C      7.073990   -6.794460    0.385510
  C      6.444150   -5.700890   -0.248170
  C      6.306410   -4.369020    0.094140
  C      6.745480   -3.633970    1.219600
  C      6.507280   -2.299150    1.292110
  C      5.438600   -9.328850   -1.311530
  C      5.519960  -10.572710   -1.806390
  C      4.540880  -11.572530   -1.519090
  N      3.523560  -11.342320   -0.702580
  C      2.822970  -12.491070   -0.650140
  C      3.431880  -13.528640   -1.497180
  C      2.657610  -14.778260   -1.419490
  O      2.868870  -15.830750   -1.984780
  C      1.573050  -14.428200   -0.487530
  C      1.710140  -13.024460   -0.043930
  N      0.717340  -12.696090    0.816500
  C     -0.008840  -13.782800    0.932140
  C      0.468760  -14.901280    0.146170
  C      4.539610  -12.950450   -2.066490
  C      5.498310  -13.484250   -2.973370
  C      5.454950  -14.754500   -3.441960
  C      6.405510  -15.242300   -4.326580
  C      7.242180  -15.662450   -5.101450
  C      8.204540  -16.128100   -5.980760
  C      8.314490  -17.393810   -6.526550
  C      9.414880  -17.537660   -7.387900
  C     10.161490  -16.383920   -7.512950
  S      9.492090  -15.103310   -6.550580
  C     11.308860  -16.192290   -8.285480
  N     12.252410  -16.027550   -8.916370
  F      9.708370  -18.671060   -8.019510
  F      7.458520  -18.380250   -6.259380
  H      7.065420    7.957710    3.809770
  H      8.165230    5.754750    4.918380
  H      6.588400    0.399280    2.034580
  H      4.960910    0.166740   -0.551040
  H      4.809280   -1.783310   -1.615420
  H      4.715350   -5.318040   -3.873550
  H      2.683990   -5.244090   -2.552960
  H      2.537270   -4.327150   -4.067310
  H      2.949890   -3.128690   -1.438270
  H      1.572860   -3.119630   -2.326480
  H      4.872390   -2.296770   -3.590220
  H      4.519820   -3.225010   -5.055310
  H      7.019350   -3.453020   -3.557840
  H      6.823580   -2.753970   -5.031330
  H      5.364470   -7.242760   -3.135820
  H      7.223440   -8.654120   -2.243330
  H      7.587140   -8.847370    0.251550
  H      7.544820   -6.645550    1.346110
  H      7.273200   -4.144940    2.011010
  H      6.846230   -1.737660    2.147780
  H      4.608010   -9.067630   -0.672630
  H      6.344470  -10.853400   -2.447680
  H     -0.875330  -13.790670    1.570430
  H      0.017790  -15.872900    0.104410
  H      6.297990  -12.832680   -3.300700
  H      4.669480  -15.436230   -3.137870

 Total Charge           Charge          ....    0
 Multiplicity           Mult            ....    1
 Number of Electrons    NEL             ....  490
 Basis Dimension        Dim             .... 1118

ORBITAL ENERGIES
----------------

  NO   OCC          E(Eh)            E(eV)
   0   2.0000     -89.004018     -2421.9224
   1   2.0000     -88.999509     -2421.7998
   2   2.0000     -24.822412      -675.4522
   3   2.0000     -24.818384      -675.3426
   4   2.0000     -24.817109      -675.3079
   5   2.0000     -24.812846      -675.1919
   6   2.0000     -19.220463      -523.0154
   7   2.0000     -19.210721      -522.7503
   8   2.0000     -14.429736      -392.6531
   9   2.0000     -14.420934      -392.4136
  10   2.0000     -14.419044      -392.3621
  11   2.0000     -14.416155      -392.2835
  12   2.0000     -14.412949      -392.1963
  13   2.0000     -14.411145      -392.1472
  14   2.0000     -14.407561      -392.0497
  15   2.0000     -14.378070      -391.2472
  16   2.0000     -10.405729      -283.1543
  17   2.0000     -10.401777      -283.0467
  18   2.0000     -10.399810      -282.9932
  19   2.0000     -10.393812      -282.8300
  20   2.0000     -10.380000      -282.4542
  21   2.0000     -10.371169      -282.2139
  22   2.0000     -10.361645      -281.9547
  23   2.0000     -10.359188      -281.8878
  24   2.0000     -10.353708      -281.7387
  25   2.0000     -10.353251      -281.7263
  26   2.0000     -10.352219      -281.6982
  27   2.0000     -10.347954      -281.5821
  28   2.0000     -10.340268      -281.3730
  29   2.0000     -10.334276      -281.2099
  30   2.0000     -10.334187      -281.2075
  31   2.0000     -10.330256      -281.1006
  32   2.0000     -10.329729      -281.0862
  33   2.0000     -10.327814      -281.0341
  34   2.0000     -10.327351      -281.0215
  35   2.0000     -10.324089      -280.9327
  36   2.0000     -10.321235      -280.8551
  37   2.0000     -10.319644      -280.8118
  38   2.0000     -10.317697      -280.7588
  39   2.0000     -10.314611      -280.6748
  40   2.0000     -10.314071      -280.6601
  41   2.0000     -10.310208      -280.5550
  42   2.0000     -10.309868      -280.5458
  43   2.0000     -10.308746      -280.5152
  44   2.0000     -10.307731      -280.4876
  45   2.0000     -10.302788      -280.3531
  46   2.0000     -10.300945      -280.3030
  47   2.0000     -10.300484      -280.2904
  48   2.0000     -10.299912      -280.2748
  49   2.0000     -10.295619      -280.1580
  50   2.0000     -10.294667      -280.1321
  51   2.0000     -10.293931      -280.1121
  52   2.0000     -10.292538      -280.0742
  53   2.0000     -10.291981      -280.0591
  54   2.0000     -10.290119      -280.0084
  55   2.0000     -10.289607      -279.9944
  56   2.0000     -10.289555      -279.9930
  57   2.0000     -10.289481      -279.9910
  58   2.0000     -10.288289      -279.9586
  59   2.0000     -10.288141      -279.9545
  60   2.0000     -10.288071      -279.9526
  61   2.0000     -10.284902      -279.8664
  62   2.0000     -10.283113      -279.8177
  63   2.0000     -10.282410      -279.7986
  64   2.0000     -10.281897      -279.7846
  65   2.0000     -10.279486      -279.7190
  66   2.0000     -10.278804      -279.7005
  67   2.0000     -10.277547      -279.6663
  68   2.0000     -10.276549      -279.6391
  69   2.0000     -10.275810      -279.6190
  70   2.0000      -8.095063      -220.2779
  71   2.0000      -8.094664      -220.2670
  72   2.0000      -6.064955      -165.0358
  73   2.0000      -6.064208      -165.0155
  74   2.0000      -6.060601      -164.9173
  75   2.0000      -6.060149      -164.9050
  76   2.0000      -6.056566      -164.8075
  77   2.0000      -6.056033      -164.7930
  78   2.0000      -1.341606       -36.5070
  79   2.0000      -1.337300       -36.3898
  80   2.0000      -1.328749       -36.1571
  81   2.0000      -1.324035       -36.0288
  82   2.0000      -1.134470       -30.8705
  83   2.0000      -1.124879       -30.6095
  84   2.0000      -1.085449       -29.5366
  85   2.0000      -1.083094       -29.4725
  86   2.0000      -1.065462       -28.9927
  87   2.0000      -1.062831       -28.9211
  88   2.0000      -1.035041       -28.1649
  89   2.0000      -1.031416       -28.0663
  90   2.0000      -1.007692       -27.4207
  91   2.0000      -1.000690       -27.2301
  92   2.0000      -0.999276       -27.1917
  93   2.0000      -0.986299       -26.8386
  94   2.0000      -0.964767       -26.2527
  95   2.0000      -0.959315       -26.1043
  96   2.0000      -0.946462       -25.7545
  97   2.0000      -0.940288       -25.5865
  98   2.0000      -0.938123       -25.5276
  99   2.0000      -0.933895       -25.4126
 100   2.0000      -0.918107       -24.9829
 101   2.0000      -0.909042       -24.7363
 102   2.0000      -0.905675       -24.6447
 103   2.0000      -0.896106       -24.3843
 104   2.0000      -0.882676       -24.0188
 105   2.0000      -0.875881       -23.8339
 106   2.0000      -0.873497       -23.7691
 107   2.0000      -0.868501       -23.6331
 108   2.0000      -0.866827       -23.5876
 109   2.0000      -0.864317       -23.5193
 110   2.0000      -0.854498       -23.2521
 111   2.0000      -0.852611       -23.2007
 112   2.0000      -0.846696       -23.0398
 113   2.0000      -0.842753       -22.9325
 114   2.0000      -0.827611       -22.5204
 115   2.0000      -0.815713       -22.1967
 116   2.0000      -0.800620       -21.7860
 117   2.0000      -0.783530       -21.3209
 118   2.0000      -0.775117       -21.0920
 119   2.0000      -0.770425       -20.9643
 120   2.0000      -0.761108       -20.7108
 121   2.0000      -0.758857       -20.6496
 122   2.0000      -0.756100       -20.5745
 123   2.0000      -0.741400       -20.1745
 124   2.0000      -0.732291       -19.9267
 125   2.0000      -0.727415       -19.7940
 126   2.0000      -0.726387       -19.7660
 127   2.0000      -0.717764       -19.5314
 128   2.0000      -0.712998       -19.4017
 129   2.0000      -0.708785       -19.2870
 130   2.0000      -0.707603       -19.2548
 131   2.0000      -0.690449       -18.7881
 132   2.0000      -0.689653       -18.7664
 133   2.0000      -0.686378       -18.6773
 134   2.0000      -0.676332       -18.4039
 135   2.0000      -0.669329       -18.2134
 136   2.0000      -0.666363       -18.1327
 137   2.0000      -0.657682       -17.8964
 138   2.0000      -0.656150       -17.8547
 139   2.0000      -0.642345       -17.4791
 140   2.0000      -0.638148       -17.3649
 141   2.0000      -0.636789       -17.3279
 142   2.0000      -0.633857       -17.2481
 143   2.0000      -0.631964       -17.1966
 144   2.0000      -0.624973       -17.0064
 145   2.0000      -0.622759       -16.9461
 146   2.0000      -0.620600       -16.8874
 147   2.0000      -0.609901       -16.5963
 148   2.0000      -0.607378       -16.5276
 149   2.0000      -0.603079       -16.4106
 150   2.0000      -0.602560       -16.3965
 151   2.0000      -0.601575       -16.3697
 152   2.0000      -0.599105       -16.3025
 153   2.0000      -0.597113       -16.2483
 154   2.0000      -0.592721       -16.1288
 155   2.0000      -0.581474       -15.8227
 156   2.0000      -0.580064       -15.7843
 157   2.0000      -0.577060       -15.7026
 158   2.0000      -0.574563       -15.6347
 159   2.0000      -0.569670       -15.5015
 160   2.0000      -0.568130       -15.4596
 161   2.0000      -0.563980       -15.3467
 162   2.0000      -0.562287       -15.3006
 163   2.0000      -0.559694       -15.2301
 164   2.0000      -0.557054       -15.1582
 165   2.0000      -0.553155       -15.0521
 166   2.0000      -0.548867       -14.9354
 167   2.0000      -0.548640       -14.9293
 168   2.0000      -0.546056       -14.8589
 169   2.0000      -0.539240       -14.6735
 170   2.0000      -0.537586       -14.6285
 171   2.0000      -0.535604       -14.5745
 172   2.0000      -0.529313       -14.4033
 173   2.0000      -0.528015       -14.3680
 174   2.0000      -0.525114       -14.2891
 175   2.0000      -0.524176       -14.2635
 176   2.0000      -0.523308       -14.2399
 177   2.0000      -0.522639       -14.2217
 178   2.0000      -0.516801       -14.0629
 179   2.0000      -0.511779       -13.9262
 180   2.0000      -0.510541       -13.8925
 181   2.0000      -0.507947       -13.8219
 182   2.0000      -0.505373       -13.7519
 183   2.0000      -0.502983       -13.6869
 184   2.0000      -0.502501       -13.6738
 185   2.0000      -0.501498       -13.6465
 186   2.0000      -0.501191       -13.6381
 187   2.0000      -0.498725       -13.5710
 188   2.0000      -0.497898       -13.5485
 189   2.0000      -0.495541       -13.4844
 190   2.0000      -0.493713       -13.4346
 191   2.0000      -0.481248       -13.0954
 192   2.0000      -0.480834       -13.0842
 193   2.0000      -0.479977       -13.0608
 194   2.0000      -0.475016       -12.9258
 195   2.0000      -0.473964       -12.8972
 196   2.0000      -0.471186       -12.8216
 197   2.0000      -0.469016       -12.7626
 198   2.0000      -0.468573       -12.7505
 199   2.0000      -0.466229       -12.6867
 200   2.0000      -0.464028       -12.6268
 201   2.0000      -0.463562       -12.6142
 202   2.0000      -0.462591       -12.5878
 203   2.0000      -0.459970       -12.5164
 204   2.0000      -0.455052       -12.3826
 205   2.0000      -0.452218       -12.3055
 206   2.0000      -0.450840       -12.2680
 207   2.0000      -0.448247       -12.1974
 208   2.0000      -0.445847       -12.1321
 209   2.0000      -0.442031       -12.0283
 210   2.0000      -0.435405       -11.8480
 211   2.0000      -0.431618       -11.7449
 212   2.0000      -0.429875       -11.6975
 213   2.0000      -0.425112       -11.5679
 214   2.0000      -0.422277       -11.4907
 215   2.0000      -0.412852       -11.2343
 216   2.0000      -0.407717       -11.0945
 217   2.0000      -0.400505       -10.8983
 218   2.0000      -0.396833       -10.7984
 219   2.0000      -0.394076       -10.7234
 220   2.0000      -0.390210       -10.6182
 221   2.0000      -0.381649       -10.3852
 222   2.0000      -0.379284       -10.3208
 223   2.0000      -0.369700       -10.0600
 224   2.0000      -0.367579       -10.0023
 225   2.0000      -0.362059        -9.8521
 226   2.0000      -0.359366        -9.7788
 227   2.0000      -0.355299        -9.6682
 228   2.0000      -0.351642        -9.5687
 229   2.0000      -0.349630        -9.5139
 230   2.0000      -0.345832        -9.4106
 231   2.0000      -0.343856        -9.3568
 232   2.0000      -0.343201        -9.3390
 233   2.0000      -0.338889        -9.2216
 234   2.0000      -0.337358        -9.1800
 235   2.0000      -0.335277        -9.1234
 236   2.0000      -0.334725        -9.1083
 237   2.0000      -0.330859        -9.0031
 238   2.0000      -0.328208        -8.9310
 239   2.0000      -0.314151        -8.5485
 240   2.0000      -0.300489        -8.1767
 241   2.0000      -0.299699        -8.1552
 242   2.0000      -0.281951        -7.6723
 243   2.0000      -0.278724        -7.5845
 244   2.0000      -0.236792        -6.4434
 245   0.0000      -0.123070        -3.3489
 246   0.0000      -0.121432        -3.3043
 247   0.0000      -0.087376        -2.3776
 248   0.0000      -0.076340        -2.0773
 249   0.0000      -0.058510        -1.5921

MULLIKEN ATOMIC CHARGES
-----------------------
   0 C :   -0.299005
   1 C :   -0.112082
   2 N :    0.130639
   3 C :    0.272182
   4 F :   -0.142586
   5 C :    0.245079
   6 F :   -0.144355
   7 C :   -0.227131
   8 S :    0.205386
   9 C :    0.000137
  10 C :    0.091037
  11 C :   -0.044163
  12 N :   -0.030894
  13 C :    0.082441
  14 C :   -0.148164
  15 C :    0.207718
  16 O :   -0.129837
  17 C :   -0.030831
  18 C :   -0.030070
  19 N :   -0.052413
  20 C :    0.092856
  21 C :   -0.094189
  22 C :    0.061805
  23 C :   -0.019511
  24 C :    0.012441
  25 C :    0.155456
  26 C :   -0.119813
  27 C :    0.058960
  28 C :   -0.076286
  29 C :   -0.018102
  30 C :    0.156194
  31 N :   -0.255949
  32 C :    0.132082
  33 N :   -0.224286
  34 C :    0.111925
  35 C :   -0.128471
  36 C :    0.133387
  37 C :   -0.043730
  38 C :    0.031233
  39 C :    0.014285
  40 C :    0.034413
  41 C :    0.004673
  42 C :   -0.017894
  43 C :    0.013001
  44 C :   -0.040167
  45 C :    0.043591
  46 N :   -0.039775
  47 C :    0.071153
  48 C :   -0.154617
  49 C :    0.222581
  50 O :   -0.141563
  51 C :   -0.013347
  52 C :   -0.031179
  53 N :   -0.053899
  54 C :    0.090211
  55 C :   -0.093586
  56 C :    0.045467
  57 C :   -0.037920
  58 C :   -0.060297
  59 C :    0.006115
  60 C :    0.061893
  61 C :   -0.207318
  62 C :    0.226718
  63 C :    0.287587
  64 C :   -0.340201
  65 S :    0.252571
  66 C :   -0.136261
  67 N :    0.143495
  68 F :   -0.142164
  69 F :   -0.149656
  70 H :    0.010853
  71 H :   -0.003177
  72 H :    0.002148
  73 H :   -0.057786
  74 H :   -0.057693
  75 H :   -0.016723
  76 H :   -0.011111
  77 H :    0.021872
  78 H :    0.113505
  79 H :    0.118531
  80 H :   -0.020173
  81 H :   -0.002339
  82 H :    0.097919
  83 H :    0.092069
  84 H :    0.003548
  85 H :    0.035919
  86 H :   -0.003167
  87 H :   -0.027631
  88 H :   -0.031809
  89 H :   -0.017923
  90 H :    0.043863
  91 H :   -0.013615
  92 H :    0.012159
  93 H :   -0.003545
  94 H :   -0.011363
  95 H :    0.058674
Sum of atomic charges:   -0.0000000

LOEWDIN ATOMIC CHARGES
----------------------
   0 C :   -0.245226
   1 C :   -0.039810
   2 N :   -0.042342
   3 C :    0.054144
   4 F :   -0.027476
   5 C :    0.046050
   6 F :   -0.028675
   7 C :   -0.223770
   8 S :    0.560673
   9 C :   -0.008649
  10 C :   -0.006288
  11 C :    0.047164
  12 N :   -0.074855
  13 C :    0.042485
  14 C :   -0.056144
  15 C :    0.066051
  16 O :   -0.141625
  17 C :   -0.040003
  18 C :    0.029725
  19 N :   -0.094473
  20 C :    0.077916
  21 C :   -0.033144
  22 C :   -0.014669
  23 C :   -0.025764
  24 C :   -0.000789
  25 C :   -0.021219
  26 C :   -0.025649
  27 C :   -0.027397
  28 C :   -0.039910
  29 C :   -0.039610
  30 C :    0.029047
  31 N :   -0.109776
  32 C :    0.023845
  33 N :   -0.120783
  34 C :   -0.012659
  35 C :    0.068241
  36 C :   -0.029843
  37 C :   -0.028208
  38 C :   -0.007615
  39 C :   -0.030243
  40 C :   -0.029270
  41 C :   -0.001412
  42 C :   -0.021913
  43 C :    0.084634
  44 C :   -0.070867
  45 C :    0.075979
  46 N :   -0.105267
  47 C :    0.047624
  48 C :   -0.039222
  49 C :    0.069443
  50 O :   -0.139561
  51 C :   -0.040027
  52 C :    0.022693
  53 N :   -0.095509
  54 C :    0.075640
  55 C :   -0.033524
  56 C :   -0.032904
  57 C :   -0.009645
  58 C :   -0.006484
  59 C :    0.009780
  60 C :   -0.063132
  61 C :   -0.202336
  62 C :    0.039092
  63 C :    0.055843
  64 C :   -0.253102
  65 S :    0.505158
  66 C :   -0.054731
  67 N :   -0.031195
  68 F :   -0.026918
  69 F :   -0.032896
  70 H :    0.024307
  71 H :    0.034990
  72 H :    0.037431
  73 H :    0.025580
  74 H :    0.010059
  75 H :    0.031367
  76 H :    0.006310
  77 H :    0.021165
  78 H :    0.058944
  79 H :    0.062090
  80 H :   -0.012799
  81 H :    0.020805
  82 H :    0.051707
  83 H :    0.054791
  84 H :    0.033991
  85 H :    0.057078
  86 H :    0.028359
  87 H :    0.033635
  88 H :    0.030040
  89 H :    0.030272
  90 H :    0.043957
  91 H :    0.028876
  92 H :    0.024617
  93 H :    0.035346
  94 H :    0.031215
  95 H :    0.051168

  Mayer bond orders larger than 0.100000
B(  0-C ,  1-C ) :   1.1910 B(  0-C ,  3-C ) :   1.4461 B(  0-C ,  7-C ) :   0.1350
B(  0-C ,  8-S ) :   1.1473 B(  1-C ,  2-N ) :   2.9311 B(  3-C ,  4-F ) :   1.2160
B(  3-C ,  5-C ) :   1.2156 B(  5-C ,  6-F ) :   1.2186 B(  5-C ,  7-C ) :   1.4188
B(  7-C ,  8-S ) :   1.0427 B(  7-C ,  9-C ) :   1.0396 B(  8-S , 31-N ) :   0.1025
B(  9-C , 10-C ) :   2.2642 B( 10-C , 11-C ) :   0.8447 B( 11-C , 12-N ) :   1.6366
B( 11-C , 13-C ) :   0.1266 B( 11-C , 22-C ) :   1.0308 B( 12-N , 13-C ) :   1.3150
B( 13-C , 14-C ) :   1.0545 B( 13-C , 18-C ) :   1.4295 B( 14-C , 15-C ) :   0.8943
B( 14-C , 22-C ) :   1.5453 B( 15-C , 16-O ) :   2.2796 B( 15-C , 17-C ) :   0.8999
B( 17-C , 18-C ) :   1.0587 B( 17-C , 21-C ) :   1.6236 B( 18-C , 19-N ) :   1.3043
B( 19-N , 20-C ) :   1.6651 B( 20-C , 21-C ) :   1.0594 B( 20-C , 70-H ) :   0.9893
B( 21-C , 71-H ) :   1.0103 B( 22-C , 23-C ) :   1.1343 B( 23-C , 24-C ) :   1.6262
B( 23-C , 72-H ) :   0.9644 B( 24-C , 25-C ) :   1.0836 B( 24-C , 73-H ) :   0.9727
B( 25-C , 26-C ) :   1.4830 B( 25-C , 42-C ) :   1.1228 B( 26-C , 27-C ) :   1.1016
B( 26-C , 74-H ) :   1.0139 B( 27-C , 28-C ) :   1.4407 B( 27-C , 40-C ) :   1.1280
B( 28-C , 29-C ) :   1.0358 B( 28-C , 34-C ) :   1.1248 B( 29-C , 30-C ) :   1.0598
B( 29-C , 32-C ) :   1.0295 B( 29-C , 75-H ) :   0.8716 B( 30-C , 31-N ) :   1.0450
B( 30-C , 76-H ) :   0.9375 B( 30-C , 77-H ) :   0.9303 B( 31-N , 78-H ) :   0.9471
B( 31-N , 79-H ) :   0.9514 B( 32-C , 33-N ) :   1.0939 B( 32-C , 80-H ) :   0.9396
B( 32-C , 81-H ) :   0.9355 B( 33-N , 82-H ) :   0.9707 B( 33-N , 83-H ) :   0.9682
B( 34-C , 35-C ) :   1.6469 B( 34-C , 39-C ) :   1.0418 B( 35-C , 36-C ) :   0.9646
B( 35-C , 84-H ) :   0.9745 B( 36-C , 37-C ) :   0.9814 B( 36-C , 43-C ) :   0.9349
B( 36-C , 85-H ) :   0.8737 B( 37-C , 38-C ) :   1.6976 B( 37-C , 86-H ) :   0.9729
B( 38-C , 39-C ) :   1.1393 B( 38-C , 87-H ) :   0.9890 B( 39-C , 40-C ) :   1.4334
B( 40-C , 41-C ) :   1.1392 B( 41-C , 42-C ) :   1.6122 B( 41-C , 88-H ) :   0.9903
B( 42-C , 89-H ) :   0.9856 B( 43-C , 44-C ) :   1.7480 B( 43-C , 90-H ) :   0.9619
B( 44-C , 45-C ) :   1.1105 B( 44-C , 91-H ) :   0.9619 B( 45-C , 46-N ) :   1.6137
B( 45-C , 47-C ) :   0.1090 B( 45-C , 56-C ) :   1.0019 B( 46-N , 47-C ) :   1.3518
B( 47-C , 48-C ) :   1.0549 B( 47-C , 52-C ) :   1.4108 B( 48-C , 49-C ) :   0.8977
B( 48-C , 56-C ) :   1.5522 B( 49-C , 50-O ) :   2.1846 B( 49-C , 51-C ) :   0.9294
B( 50-O , 95-H ) :   0.1003 B( 51-C , 52-C ) :   1.0689 B( 51-C , 55-C ) :   1.5993
B( 52-C , 53-N ) :   1.3172 B( 53-N , 54-C ) :   1.6501 B( 54-C , 55-C ) :   1.0733
B( 54-C , 92-H ) :   0.9893 B( 55-C , 93-H ) :   1.0116 B( 56-C , 57-C ) :   1.1241
B( 57-C , 58-C ) :   1.6973 B( 57-C , 94-H ) :   0.9666 B( 58-C , 59-C ) :   0.9961
B( 58-C , 95-H ) :   0.9242 B( 59-C , 60-C ) :   2.2775 B( 60-C , 61-C ) :   0.9643
B( 61-C , 62-C ) :   1.4509 B( 61-C , 64-C ) :   0.1459 B( 61-C , 65-S ) :   1.1009
B( 62-C , 63-C ) :   1.2105 B( 62-C , 69-F ) :   1.2076 B( 63-C , 64-C ) :   1.4632
B( 63-C , 68-F ) :   1.2171 B( 64-C , 65-S ) :   1.1162 B( 64-C , 66-C ) :   1.1892
B( 66-C , 67-N ) :   3.0171

-----------------------------------------------------------------------------
         ABSORPTION SPECTRUM VIA TRANSITION ELECTRIC DIPOLE MOMENTS
-----------------------------------------------------------------------------
State   Energy  Wavelength   fosc         T2         TX        TY        TZ
        (cm-1)    (nm)                  (au**2)     (au)      (au)      (au)
-----------------------------------------------------------------------------
   0   11475.4    871.4   0.154158476   4.42258  -0.55219  -1.87671  -0.77177
   1   12371.4    808.3   0.041280063   1.09849  -0.52446  -0.90730  -0.01534
   2   14861.8    672.9   0.081898868   1.81419   0.17606  -1.20411   0.57734
   3   17777.5    562.5   0.195555105   3.62137   1.45344  -0.26733  -1.19893
   4   18584.9    538.1   0.030410937   0.53870   0.18402   0.56265   0.43389
   5   21336.8    468.7   0.001346824   0.02078  -0.00585  -0.04693  -0.13617
   6   22009.4    454.4   0.001163447   0.01740   0.01054   0.10679  -0.07673
   7   22863.9    437.4   0.295636666   4.25681  -1.23473  -0.20797  -1.63982
   8   23660.2    422.7   0.511408699   7.11582   0.94744   1.92031   1.59079
   9   24247.6    412.4   0.226329308   3.07289   0.73914   1.40088   0.75107
  10   24504.2    408.1   0.512403495   6.88411  -0.85760  -2.47417  -0.16476
  11   24843.6    402.5   0.100384475   1.33023   1.01533  -0.19811  -0.50998
  12   24862.6    402.2   0.075900568   1.00502  -0.71077   0.34886   0.61492
  13   25339.1    394.6   0.027727716   0.36025  -0.40157  -0.06969  -0.44060
  14   25557.0    391.3   0.001672908   0.02155   0.03910   0.12591   0.06454
  15   25841.9    387.0   0.013804107   0.17586   0.35896   0.17093  -0.13337
  16   25899.5    386.1   0.842035512  10.70324  -1.04464  -2.94400  -0.97201
  17   26317.7    380.0   0.936503626  11.71487   2.37113  -0.80573  -2.33311
  18   26766.9    373.6   0.366873880   4.51226   0.98584  -1.54248  -1.07755
  19   26948.5    371.1   0.200796920   2.45301  -0.76922   0.93987   0.98891
  20   27071.6    369.4   0.020913914   0.25433   0.26425  -0.17148  -0.39383
  21   27518.0    363.4   0.357613735   4.27832  -0.35656  -1.87394  -0.79970
  22   27761.8    360.2   0.003061676   0.03631  -0.17231   0.06176  -0.05294
  23   27940.0    357.9   0.000228360   0.00269  -0.03646  -0.02330   0.02861
  24   28191.1    354.7   0.004663510   0.05446   0.01420   0.23271   0.01026
  25   29723.8    336.4   0.007314496   0.08101   0.07087  -0.22867  -0.15394
  26   30793.2    324.7   0.053899420   0.57624   0.42848   0.26981   0.56555
  27   30910.6    323.5   0.000653460   0.00696  -0.06951  -0.01587  -0.04332
  28   31058.0    322.0   0.082125354   0.87052  -0.65214  -0.42237   0.51657
  29   31064.4    321.9   0.004208640   0.04460   0.10956   0.13745  -0.11707
  30   31202.3    320.5   0.024091034   0.25418   0.22573   0.14652   0.42633
  31   31319.0    319.3   0.037905054   0.39844   0.16977   0.57433   0.19941
  32   31593.9    316.5   0.164184455   1.71082   0.84074  -0.98640  -0.17606
  33   32081.1    311.7   0.268308745   2.75335   0.54658   0.96427   1.23482
  34   32873.1    304.2   0.250468900   2.50836  -0.42671  -1.32524  -0.75499
  35   33062.8    302.5   0.039372246   0.39204   0.09972   0.60490   0.12724
  36   33234.6    300.9   0.159443559   1.57940   0.18994   1.18635   0.36863
  37   33785.5    296.0   0.090315525   0.88005  -0.66646   0.34058   0.56559
  38   33881.2    295.1   0.209741107   2.03798  -0.05048  -1.42428   0.08287
  39   33902.1    295.0   0.037475094   0.36391   0.15193  -0.58086   0.05852
  40   34025.2    293.9   0.078505009   0.75958   0.22492   0.71625   0.44269
  41   34363.1    291.0   0.009463715   0.09067  -0.11988  -0.23126   0.15105
  42   34694.0    288.2   0.043645321   0.41415   0.33006   0.54239   0.10497
  43   34839.6    287.0   0.028918580   0.27326   0.12085   0.42067   0.28583
  44   35113.9    284.8   0.013775084   0.12915  -0.17130   0.09956  -0.29982
  45   35666.1    280.4   0.024702917   0.22802   0.03165  -0.08923   0.46803
  46   35905.6    278.5   0.067146955   0.61566  -0.17429  -0.63298  -0.42967
  47   35961.2    278.1   0.001001287   0.00917  -0.07197   0.04339   0.04587
  48   36198.5    276.3   0.064453286   0.58618  -0.26533   0.62343   0.35653
  49   36346.3    275.1   0.037206248   0.33700   0.27821   0.49685   0.11288
  50   36389.6    274.8   0.058215767   0.52667   0.39248   0.60768  -0.05791
  51   36641.8    272.9   0.293137430   2.63373  -0.99715  -1.26541   0.19529
  52   36730.0    272.3   0.038755114   0.34736   0.51967   0.20689   0.18574
  53   36956.3    270.6   0.136683173   1.21759  -0.61878  -0.60580  -0.68389
  54   37804.8    264.5   0.012702108   0.11061  -0.02775  -0.33059   0.02350
  55   38077.5    262.6   0.006001011   0.05188   0.08539  -0.20899   0.03023
  56   38400.1    260.4   0.012084420   0.10360  -0.05750   0.31663   0.00649
  57   38693.9    258.4   0.000006661   0.00006  -0.00459   0.00568  -0.00185
  58   39254.6    254.7   0.049152848   0.41222   0.16608  -0.50663  -0.35772
  59   39335.1    254.2   0.008468825   0.07088  -0.06374   0.17900   0.18648
  60   39619.5    252.4   0.001063173   0.00883  -0.03616   0.07056   0.05048
  61   40141.0    249.1   0.011678038   0.09578   0.01260  -0.28095  -0.12916
  62   40196.6    248.8   0.092040994   0.75382  -0.31897  -0.57084  -0.57116
  63   40211.7    248.7   0.019973395   0.16352  -0.17766  -0.18866  -0.31043
  64   40315.9    248.0   0.017283490   0.14113  -0.01679  -0.15492  -0.34184

FINAL SINGLE POINT ENERGY     -3853.156690501255

DIPOLE MOMENT
-------------
                                X             Y             Z
Electronic contribution:      2.27772     -29.29245     -34.50992
Nuclear contribution   :     -2.66785      29.24556      36.20147
                        -----------------------------------------
Total Dipole Moment    :     -0.39014      -0.04689       1.69155
                        -----------------------------------------
Magnitude (a.u.)       :      1.73659
Magnitude (Debye)      :      4.41406

Rotational constants in cm-1:     0.001330     0.000253     0.000249
Rotational constants in MHz :    39.884502     7.573892     7.450841

                             ****ORCA TERMINATED NORMALLY****
TOTAL RUN TIME: 0 days 0 hours 8 minutes 24 seconds 396 msec
