                         Program Version 4.2.0 -  RELEASE  -
|  1> # ORCA input file
|  2> # SCF done       -183.635764812253          0.000833313357
|  3> ! CAM-B3LYP def2-SVP def2/J RIJCOSX Grid4 TightSCF
|  4> %maxcore 5000
|  5> %tddft
|  6>     Mode sTDDFT
|  7>     Ethresh 5.0
|  8>     maxcore 5000
|  9> end
| 10>
| 11> %pal
| 12>   nprocs 6
| 13>   end
| 14> * xyz 0 1
| 15>    C       -0.87182         3.64492        -8.95906
| 16>    C       -0.00473         3.44136        -7.88105
| 17>    C       -0.40964         2.79641        -6.73253
| 18>    C       -1.72776         2.35271        -6.68755
| 19>    C       -2.59497         2.56454        -7.78522
| 20>    C       -2.18473         3.21386        -8.93452
| 21>    O       -3.79146         2.03507        -7.46295
| 22>    C       -3.62326         1.52097        -6.21824
| 23>    N       -2.43154         1.69404        -5.72082
| 24>    C       -4.72554         0.86109        -5.58249
| 25>    C       -5.82683         0.30538        -6.21721
| 26>    N       -6.03830         0.08392        -7.59497
| 27>    O       -5.08209        -0.05248        -8.32948
| 28>    O       -7.20163         0.00128        -7.95789
| 29>    C       -6.79402        -0.10600        -5.23771
| 30>    C       -6.33269         0.24717        -4.01654
| 31>    C       -5.03934         0.88637        -4.16378
| 32>    C       -4.33093         1.44333        -3.10852
| 33>    C       -2.93571         1.47464        -2.86800
| 34>    C       -2.72567         1.82302        -1.55704
| 35>    C       -3.97576         2.11212        -0.93593
| 36>    N       -4.11415         2.57767         0.37688
| 37>    O       -5.23993         2.83953         0.78323
| 38>    O       -3.10462         2.68626         1.05195
| 39>    C       -4.99344         1.94844        -1.88408
| 40>    C       -6.33044         2.35012        -1.82107
| 41>    C       -7.04617         2.63296        -2.96617
| 42>    C       -8.42247         2.75547        -3.18819
| 43>    N       -9.49925         2.62034        -2.34682
| 44>    C       -9.48296         2.53532        -0.90564
| 45>    C       -9.16975         3.88114        -0.25832
| 46>    C      -10.72093         2.64631        -3.05056
| 47>    O      -11.80364         2.58503        -2.51222
| 48>    C      -10.33459         2.76922        -4.44669
| 49>    C       -8.93899         2.87232        -4.48977
| 50>    C       -8.52538         3.02234        -5.87180
| 51>    O       -7.43523         3.16228        -6.37840
| 52>    N       -9.73923         3.01281        -6.58913
| 53>    C       -9.75586         3.07356        -8.03216
| 54>    C       -9.97029         1.69927        -8.65892
| 55>    C      -10.82030         2.84242        -5.76522
| 56>    C      -12.15825         2.78617        -6.21088
| 57>    C      -13.18390         2.42560        -5.39171
| 58>    C      -14.54175         2.41873        -5.77859
| 59>    S      -15.09981         3.20344        -7.23736
| 60>    C      -16.75427         2.86223        -6.86597
| 61>    C      -16.86994         2.15161        -5.68352
| 62>    C      -15.61736         1.89186        -5.07291
| 63>    C      -15.48509         1.07873        -3.85609
| 64>    O      -14.42566         0.63568        -3.45867
| 65>    C      -16.76418         0.81293        -3.16100
| 66>    C      -16.72073         0.27281        -1.87860
| 67>    C      -17.88875        -0.00944        -1.19465
| 68>    C      -19.11718         0.22980        -1.79353
| 69>    C      -19.17250         0.75069        -3.07314
| 70>    C      -18.00361         1.05541        -3.76643
| 71>    C      -18.12512         1.61114        -5.13416
| 72>    O      -19.17866         1.60695        -5.73997
| 73>    C      -17.78893         3.35571        -7.75791
| 74>    C      -18.92514         3.99482        -7.22964
| 75>    C      -19.92244         4.49308        -8.03572
| 76>    C      -19.77270         4.34268        -9.40914
| 77>    C      -18.62243         3.71508        -9.93585
| 78>    C      -17.61321         3.22567        -9.13417
| 79>    O      -18.74338         3.71742       -11.28753
| 80>    C      -19.92464         4.32749       -11.50991
| 81>    N      -20.56771         4.71351       -10.46868
| 82>    H       -0.50220         4.15239        -9.83721
| 83>    H        1.01082         3.80001        -7.95688
| 84>    H        0.25518         2.63574        -5.89978
| 85>    H       -2.85700         3.36361        -9.76319
| 86>    H       -7.70011        -0.62742        -5.47982
| 87>    H       -6.77575         0.00348        -3.07084
| 88>    H       -2.19922         1.17680        -3.58717
| 89>    H       -1.78267         1.88119        -1.04582
| 90>    H       -6.75227         2.48553        -0.83484
| 91>    H       -6.48224         2.76348        -3.88175
| 92>    H       -8.76308         1.77334        -0.59553
| 93>    H      -10.48605         2.21097        -0.61398
| 94>    H       -8.21601         4.27237        -0.60412
| 95>    H       -9.12328         3.76612         0.82058
| 96>    H       -9.94807         4.60108        -0.49996
| 97>    H       -8.77797         3.46168        -8.32829
| 98>    H      -10.52783         3.77882        -8.35438
| 99>    H       -9.14999         1.03506        -8.39873
|100>    H      -10.00312         1.79482        -9.74032
|101>    H      -10.90327         1.25681        -8.31704
|102>    H      -12.36285         3.02797        -7.24586
|103>    H      -12.98420         2.11138        -4.37385
|104>    H      -15.75299         0.08583        -1.43760
|105>    H      -17.84331        -0.42022        -0.19736
|106>    H      -20.03076         0.00619        -1.26362
|107>    H      -20.11796         0.93447        -3.56164
|108>    H      -19.00430         4.10616        -6.16013
|109>    H      -20.78981         4.98357        -7.62705
|110>    H      -16.74238         2.74324        -9.54951
|111>    H      -20.24633         4.45057       -12.52577
|112> *
|113>
|114>                          ****END OF INPUT****

CARTESIAN COORDINATES (ANGSTROEM)
---------------------------------
  C     -0.871820    3.644920   -8.959060
  C     -0.004730    3.441360   -7.881050
  C     -0.409640    2.796410   -6.732530
  C     -1.727760    2.352710   -6.687550
  C     -2.594970    2.564540   -7.785220
  C     -2.184730    3.213860   -8.934520
  O     -3.791460    2.035070   -7.462950
  C     -3.623260    1.520970   -6.218240
  N     -2.431540    1.694040   -5.720820
  C     -4.725540    0.861090   -5.582490
  C     -5.826830    0.305380   -6.217210
  N     -6.038300    0.083920   -7.594970
  O     -5.082090   -0.052480   -8.329480
  O     -7.201630    0.001280   -7.957890
  C     -6.794020   -0.106000   -5.237710
  C     -6.332690    0.247170   -4.016540
  C     -5.039340    0.886370   -4.163780
  C     -4.330930    1.443330   -3.108520
  C     -2.935710    1.474640   -2.868000
  C     -2.725670    1.823020   -1.557040
  C     -3.975760    2.112120   -0.935930
  N     -4.114150    2.577670    0.376880
  O     -5.239930    2.839530    0.783230
  O     -3.104620    2.686260    1.051950
  C     -4.993440    1.948440   -1.884080
  C     -6.330440    2.350120   -1.821070
  C     -7.046170    2.632960   -2.966170
  C     -8.422470    2.755470   -3.188190
  N     -9.499250    2.620340   -2.346820
  C     -9.482960    2.535320   -0.905640
  C     -9.169750    3.881140   -0.258320
  C    -10.720930    2.646310   -3.050560
  O    -11.803640    2.585030   -2.512220
  C    -10.334590    2.769220   -4.446690
  C     -8.938990    2.872320   -4.489770
  C     -8.525380    3.022340   -5.871800
  O     -7.435230    3.162280   -6.378400
  N     -9.739230    3.012810   -6.589130
  C     -9.755860    3.073560   -8.032160
  C     -9.970290    1.699270   -8.658920
  C    -10.820300    2.842420   -5.765220
  C    -12.158250    2.786170   -6.210880
  C    -13.183900    2.425600   -5.391710
  C    -14.541750    2.418730   -5.778590
  S    -15.099810    3.203440   -7.237360
  C    -16.754270    2.862230   -6.865970
  C    -16.869940    2.151610   -5.683520
  C    -15.617360    1.891860   -5.072910
  C    -15.485090    1.078730   -3.856090
  O    -14.425660    0.635680   -3.458670
  C    -16.764180    0.812930   -3.161000
  C    -16.720730    0.272810   -1.878600
  C    -17.888750   -0.009440   -1.194650
  C    -19.117180    0.229800   -1.793530
  C    -19.172500    0.750690   -3.073140
  C    -18.003610    1.055410   -3.766430
  C    -18.125120    1.611140   -5.134160
  O    -19.178660    1.606950   -5.739970
  C    -17.788930    3.355710   -7.757910
  C    -18.925140    3.994820   -7.229640
  C    -19.922440    4.493080   -8.035720
  C    -19.772700    4.342680   -9.409140
  C    -18.622430    3.715080   -9.935850
  C    -17.613210    3.225670   -9.134170
  O    -18.743380    3.717420  -11.287530
  C    -19.924640    4.327490  -11.509910
  N    -20.567710    4.713510  -10.468680
  H     -0.502200    4.152390   -9.837210
  H      1.010820    3.800010   -7.956880
  H      0.255180    2.635740   -5.899780
  H     -2.857000    3.363610   -9.763190
  H     -7.700110   -0.627420   -5.479820
  H     -6.775750    0.003480   -3.070840
  H     -2.199220    1.176800   -3.587170
  H     -1.782670    1.881190   -1.045820
  H     -6.752270    2.485530   -0.834840
  H     -6.482240    2.763480   -3.881750
  H     -8.763080    1.773340   -0.595530
  H    -10.486050    2.210970   -0.613980
  H     -8.216010    4.272370   -0.604120
  H     -9.123280    3.766120    0.820580
  H     -9.948070    4.601080   -0.499960
  H     -8.777970    3.461680   -8.328290
  H    -10.527830    3.778820   -8.354380
  H     -9.149990    1.035060   -8.398730
  H    -10.003120    1.794820   -9.740320
  H    -10.903270    1.256810   -8.317040
  H    -12.362850    3.027970   -7.245860
  H    -12.984200    2.111380   -4.373850
  H    -15.752990    0.085830   -1.437600
  H    -17.843310   -0.420220   -0.197360
  H    -20.030760    0.006190   -1.263620
  H    -20.117960    0.934470   -3.561640
  H    -19.004300    4.106160   -6.160130
  H    -20.789810    4.983570   -7.627050
  H    -16.742380    2.743240   -9.549510
  H    -20.246330    4.450570  -12.525770

 Total Charge           Charge          ....    0
 Multiplicity           Mult            ....    1
 Number of Electrons    NEL             ....  468
 Basis Dimension        Dim             .... 1092

ORBITAL ENERGIES
----------------

  NO   OCC          E(Eh)            E(eV)
   0   2.0000     -88.989216     -2421.5197
   1   2.0000     -19.307548      -525.3851
   2   2.0000     -19.289461      -524.8929
   3   2.0000     -19.236630      -523.4553
   4   2.0000     -19.235383      -523.4214
   5   2.0000     -19.220859      -523.0262
   6   2.0000     -19.220420      -523.0142
   7   2.0000     -19.220144      -523.0067
   8   2.0000     -19.218295      -522.9564
   9   2.0000     -19.211307      -522.7662
  10   2.0000     -19.193682      -522.2866
  11   2.0000     -14.642932      -398.4544
  12   2.0000     -14.630285      -398.1103
  13   2.0000     -14.467985      -393.6939
  14   2.0000     -14.457879      -393.4189
  15   2.0000     -14.415352      -392.2617
  16   2.0000     -14.405376      -391.9902
  17   2.0000     -10.392051      -282.7821
  18   2.0000     -10.380246      -282.4609
  19   2.0000     -10.374952      -282.3168
  20   2.0000     -10.374624      -282.3079
  21   2.0000     -10.373045      -282.2649
  22   2.0000     -10.371024      -282.2099
  23   2.0000     -10.361447      -281.9493
  24   2.0000     -10.342143      -281.4240
  25   2.0000     -10.341787      -281.4143
  26   2.0000     -10.341778      -281.4141
  27   2.0000     -10.333603      -281.1916
  28   2.0000     -10.328933      -281.0646
  29   2.0000     -10.325725      -280.9773
  30   2.0000     -10.317530      -280.7543
  31   2.0000     -10.315859      -280.7088
  32   2.0000     -10.314141      -280.6621
  33   2.0000     -10.312867      -280.6274
  34   2.0000     -10.311358      -280.5863
  35   2.0000     -10.311082      -280.5788
  36   2.0000     -10.311003      -280.5767
  37   2.0000     -10.308697      -280.5139
  38   2.0000     -10.308451      -280.5072
  39   2.0000     -10.307938      -280.4932
  40   2.0000     -10.307096      -280.4703
  41   2.0000     -10.306069      -280.4424
  42   2.0000     -10.305677      -280.4317
  43   2.0000     -10.303144      -280.3628
  44   2.0000     -10.303031      -280.3597
  45   2.0000     -10.299157      -280.2543
  46   2.0000     -10.296011      -280.1687
  47   2.0000     -10.295642      -280.1587
  48   2.0000     -10.294626      -280.1310
  49   2.0000     -10.291987      -280.0592
  50   2.0000     -10.291011      -280.0326
  51   2.0000     -10.290542      -280.0199
  52   2.0000     -10.288732      -279.9706
  53   2.0000     -10.288221      -279.9567
  54   2.0000     -10.286502      -279.9099
  55   2.0000     -10.285096      -279.8717
  56   2.0000     -10.283885      -279.8387
  57   2.0000     -10.281042      -279.7614
  58   2.0000     -10.279319      -279.7145
  59   2.0000     -10.274789      -279.5912
  60   2.0000     -10.274726      -279.5895
  61   2.0000     -10.270933      -279.4863
  62   2.0000     -10.270484      -279.4741
  63   2.0000     -10.266909      -279.3768
  64   2.0000     -10.264475      -279.3106
  65   2.0000     -10.260928      -279.2140
  66   2.0000     -10.258641      -279.1518
  67   2.0000      -8.084625      -219.9938
  68   2.0000      -6.053585      -164.7264
  69   2.0000      -6.049600      -164.6180
  70   2.0000      -6.047200      -164.5527
  71   2.0000      -1.314826       -35.7782
  72   2.0000      -1.298688       -35.3391
  73   2.0000      -1.237709       -33.6798
  74   2.0000      -1.223064       -33.2813
  75   2.0000      -1.148846       -31.2617
  76   2.0000      -1.138067       -30.9684
  77   2.0000      -1.135186       -30.8900
  78   2.0000      -1.134660       -30.8757
  79   2.0000      -1.131984       -30.8028
  80   2.0000      -1.115942       -30.3663
  81   2.0000      -1.078703       -29.3530
  82   2.0000      -1.062921       -28.9236
  83   2.0000      -1.027140       -27.9499
  84   2.0000      -1.018966       -27.7275
  85   2.0000      -1.017459       -27.6865
  86   2.0000      -1.005978       -27.3740
  87   2.0000      -0.987002       -26.8577
  88   2.0000      -0.974145       -26.5078
  89   2.0000      -0.965723       -26.2786
  90   2.0000      -0.942334       -25.6422
  91   2.0000      -0.939691       -25.5703
  92   2.0000      -0.928609       -25.2687
  93   2.0000      -0.917686       -24.9715
  94   2.0000      -0.904812       -24.6212
  95   2.0000      -0.898357       -24.4455
  96   2.0000      -0.883928       -24.0529
  97   2.0000      -0.874137       -23.7865
  98   2.0000      -0.871340       -23.7104
  99   2.0000      -0.862248       -23.4630
 100   2.0000      -0.859621       -23.3915
 101   2.0000      -0.858138       -23.3511
 102   2.0000      -0.851126       -23.1603
 103   2.0000      -0.844142       -22.9703
 104   2.0000      -0.837737       -22.7960
 105   2.0000      -0.836039       -22.7498
 106   2.0000      -0.824417       -22.4335
 107   2.0000      -0.811736       -22.0885
 108   2.0000      -0.800682       -21.7877
 109   2.0000      -0.789671       -21.4880
 110   2.0000      -0.765827       -20.8392
 111   2.0000      -0.763567       -20.7777
 112   2.0000      -0.762801       -20.7569
 113   2.0000      -0.750195       -20.4138
 114   2.0000      -0.740055       -20.1379
 115   2.0000      -0.729911       -19.8619
 116   2.0000      -0.726264       -19.7626
 117   2.0000      -0.719470       -19.5778
 118   2.0000      -0.715462       -19.4687
 119   2.0000      -0.712650       -19.3922
 120   2.0000      -0.704349       -19.1663
 121   2.0000      -0.702110       -19.1054
 122   2.0000      -0.697765       -18.9872
 123   2.0000      -0.694213       -18.8905
 124   2.0000      -0.680750       -18.5242
 125   2.0000      -0.678171       -18.4540
 126   2.0000      -0.668821       -18.1995
 127   2.0000      -0.664021       -18.0689
 128   2.0000      -0.656508       -17.8645
 129   2.0000      -0.643062       -17.4986
 130   2.0000      -0.635847       -17.3023
 131   2.0000      -0.634998       -17.2792
 132   2.0000      -0.633408       -17.2359
 133   2.0000      -0.628996       -17.1159
 134   2.0000      -0.626767       -17.0552
 135   2.0000      -0.623114       -16.9558
 136   2.0000      -0.621582       -16.9141
 137   2.0000      -0.612306       -16.6617
 138   2.0000      -0.611530       -16.6406
 139   2.0000      -0.608623       -16.5615
 140   2.0000      -0.606481       -16.5032
 141   2.0000      -0.594887       -16.1877
 142   2.0000      -0.592470       -16.1219
 143   2.0000      -0.591933       -16.1073
 144   2.0000      -0.586473       -15.9587
 145   2.0000      -0.582574       -15.8526
 146   2.0000      -0.580712       -15.8020
 147   2.0000      -0.579320       -15.7641
 148   2.0000      -0.577649       -15.7186
 149   2.0000      -0.575079       -15.6487
 150   2.0000      -0.573764       -15.6129
 151   2.0000      -0.569092       -15.4858
 152   2.0000      -0.564215       -15.3531
 153   2.0000      -0.562419       -15.3042
 154   2.0000      -0.547620       -14.9015
 155   2.0000      -0.544989       -14.8299
 156   2.0000      -0.541611       -14.7380
 157   2.0000      -0.539854       -14.6902
 158   2.0000      -0.539653       -14.6847
 159   2.0000      -0.537142       -14.6164
 160   2.0000      -0.536075       -14.5873
 161   2.0000      -0.534646       -14.5485
 162   2.0000      -0.533172       -14.5084
 163   2.0000      -0.527950       -14.3662
 164   2.0000      -0.525248       -14.2927
 165   2.0000      -0.524393       -14.2695
 166   2.0000      -0.522266       -14.2116
 167   2.0000      -0.521147       -14.1811
 168   2.0000      -0.520148       -14.1540
 169   2.0000      -0.519947       -14.1485
 170   2.0000      -0.516761       -14.0618
 171   2.0000      -0.511089       -13.9074
 172   2.0000      -0.508460       -13.8359
 173   2.0000      -0.507231       -13.8025
 174   2.0000      -0.500242       -13.6123
 175   2.0000      -0.496917       -13.5218
 176   2.0000      -0.493709       -13.4345
 177   2.0000      -0.490877       -13.3575
 178   2.0000      -0.486032       -13.2256
 179   2.0000      -0.484166       -13.1748
 180   2.0000      -0.482491       -13.1293
 181   2.0000      -0.481580       -13.1045
 182   2.0000      -0.475401       -12.9363
 183   2.0000      -0.474755       -12.9187
 184   2.0000      -0.472547       -12.8587
 185   2.0000      -0.470720       -12.8089
 186   2.0000      -0.468082       -12.7372
 187   2.0000      -0.463683       -12.6174
 188   2.0000      -0.462276       -12.5792
 189   2.0000      -0.457818       -12.4579
 190   2.0000      -0.454218       -12.3599
 191   2.0000      -0.454010       -12.3542
 192   2.0000      -0.452798       -12.3213
 193   2.0000      -0.450176       -12.2499
 194   2.0000      -0.446593       -12.1524
 195   2.0000      -0.445982       -12.1358
 196   2.0000      -0.442111       -12.0305
 197   2.0000      -0.440131       -11.9766
 198   2.0000      -0.439657       -11.9637
 199   2.0000      -0.437438       -11.9033
 200   2.0000      -0.436082       -11.8664
 201   2.0000      -0.433531       -11.7970
 202   2.0000      -0.427045       -11.6205
 203   2.0000      -0.425913       -11.5897
 204   2.0000      -0.422456       -11.4956
 205   2.0000      -0.420856       -11.4521
 206   2.0000      -0.409571       -11.1450
 207   2.0000      -0.389571       -10.6008
 208   2.0000      -0.382558       -10.4099
 209   2.0000      -0.375731       -10.2242
 210   2.0000      -0.372016       -10.1231
 211   2.0000      -0.371959       -10.1215
 212   2.0000      -0.368505       -10.0275
 213   2.0000      -0.362795        -9.8721
 214   2.0000      -0.361525        -9.8376
 215   2.0000      -0.360582        -9.8119
 216   2.0000      -0.356815        -9.7094
 217   2.0000      -0.354792        -9.6544
 218   2.0000      -0.353166        -9.6101
 219   2.0000      -0.348764        -9.4904
 220   2.0000      -0.343795        -9.3551
 221   2.0000      -0.340956        -9.2779
 222   2.0000      -0.338727        -9.2172
 223   2.0000      -0.336523        -9.1573
 224   2.0000      -0.331873        -9.0307
 225   2.0000      -0.329631        -8.9697
 226   2.0000      -0.326525        -8.8852
 227   2.0000      -0.323207        -8.7949
 228   2.0000      -0.320657        -8.7255
 229   2.0000      -0.308672        -8.3994
 230   2.0000      -0.297156        -8.0860
 231   2.0000      -0.289882        -7.8881
 232   2.0000      -0.274046        -7.4572
 233   2.0000      -0.238898        -6.5007
 234   0.0000      -0.133501        -3.6328
 235   0.0000      -0.095694        -2.6040
 236   0.0000      -0.069054        -1.8791
 237   0.0000      -0.058653        -1.5960
 238   0.0000      -0.028629        -0.7790

MULLIKEN ATOMIC CHARGES
-----------------------
   0 C :    0.027809
   1 C :    0.022810
   2 C :   -0.052887
   3 C :    0.034400
   4 C :    0.223292
   5 C :   -0.084203
   6 O :   -0.175743
   7 C :    0.036303
   8 N :   -0.056057
   9 C :    0.094772
  10 C :    0.083990
  11 N :    0.278668
  12 O :   -0.223689
  13 O :   -0.256359
  14 C :   -0.003207
  15 C :    0.028726
  16 C :   -0.025946
  17 C :    0.032341
  18 C :    0.019404
  19 C :    0.027691
  20 C :    0.083183
  21 N :    0.275018
  22 O :   -0.276910
  23 O :   -0.259417
  24 C :    0.017913
  25 C :   -0.045412
  26 C :    0.004235
  27 C :    0.091342
  28 N :   -0.261725
  29 C :    0.102471
  30 C :   -0.000857
  31 C :    0.159523
  32 O :   -0.196048
  33 C :   -0.075061
  34 C :   -0.025546
  35 C :    0.169209
  36 O :   -0.173200
  37 N :   -0.256004
  38 C :    0.095069
  39 C :   -0.005640
  40 C :    0.160933
  41 C :   -0.046711
  42 C :    0.033735
  43 C :   -0.142105
  44 S :    0.171955
  45 C :   -0.153893
  46 C :    0.068602
  47 C :    0.050361
  48 C :    0.116283
  49 O :   -0.143675
  50 C :   -0.008684
  51 C :   -0.020300
  52 C :    0.053011
  53 C :    0.049270
  54 C :   -0.022467
  55 C :   -0.011634
  56 C :    0.097696
  57 O :   -0.147828
  58 C :    0.071801
  59 C :    0.057173
  60 C :   -0.046852
  61 C :    0.016423
  62 C :    0.209497
  63 C :   -0.122846
  64 O :   -0.189588
  65 C :    0.181765
  66 N :   -0.072860
  67 H :   -0.008214
  68 H :   -0.012125
  69 H :   -0.022656
  70 H :   -0.010647
  71 H :   -0.012098
  72 H :   -0.002282
  73 H :   -0.000911
  74 H :    0.002732
  75 H :    0.024210
  76 H :    0.038416
  77 H :    0.025166
  78 H :    0.043587
  79 H :    0.026715
  80 H :    0.032655
  81 H :    0.025035
  82 H :    0.046050
  83 H :    0.022085
  84 H :    0.043830
  85 H :    0.023178
  86 H :    0.008670
  87 H :   -0.014615
  88 H :    0.060251
  89 H :    0.005458
  90 H :   -0.000541
  91 H :   -0.001406
  92 H :    0.000693
  93 H :   -0.011954
  94 H :   -0.014792
  95 H :   -0.013763
  96 H :    0.033955
Sum of atomic charges:   -0.0000000

LOEWDIN ATOMIC CHARGES
----------------------
   0 C :   -0.020384
   1 C :   -0.030222
   2 C :   -0.022679
   3 C :   -0.033957
   4 C :    0.035404
   5 C :   -0.039158
   6 O :    0.013977
   7 C :    0.067320
   8 N :   -0.089428
   9 C :   -0.043944
  10 C :   -0.002227
  11 N :    0.288630
  12 O :   -0.189283
  13 O :   -0.215554
  14 C :   -0.033317
  15 C :   -0.018878
  16 C :    0.029431
  17 C :    0.049649
  18 C :   -0.043952
  19 C :    0.039233
  20 C :   -0.079637
  21 N :    0.286410
  22 O :   -0.241631
  23 O :   -0.223968
  24 C :    0.015660
  25 C :   -0.002709
  26 C :    0.016617
  27 C :    0.043718
  28 N :   -0.001745
  29 C :    0.036603
  30 C :   -0.060647
  31 C :    0.078341
  32 O :   -0.190238
  33 C :   -0.124580
  34 C :   -0.071114
  35 C :    0.088790
  36 O :   -0.169753
  37 N :    0.003917
  38 C :    0.037316
  39 C :   -0.065412
  40 C :    0.102338
  41 C :   -0.059695
  42 C :    0.041808
  43 C :   -0.147491
  44 S :    0.481079
  45 C :   -0.103934
  46 C :   -0.096630
  47 C :   -0.062748
  48 C :    0.084376
  49 O :   -0.124477
  50 C :   -0.050128
  51 C :    0.017493
  52 C :   -0.002960
  53 C :   -0.003850
  54 C :    0.014765
  55 C :   -0.051748
  56 C :    0.082282
  57 O :   -0.134242
  58 C :   -0.048099
  59 C :    0.006185
  60 C :   -0.012029
  61 C :   -0.025706
  62 C :    0.025756
  63 C :   -0.034738
  64 O :   -0.002741
  65 C :    0.089495
  66 N :   -0.097065
  67 H :    0.030216
  68 H :    0.029099
  69 H :    0.033797
  70 H :    0.037267
  71 H :    0.032402
  72 H :    0.029851
  73 H :    0.026695
  74 H :    0.038130
  75 H :    0.039810
  76 H :    0.051396
  77 H :    0.023467
  78 H :    0.037718
  79 H :    0.024765
  80 H :    0.035641
  81 H :    0.030964
  82 H :    0.039449
  83 H :    0.021777
  84 H :    0.032071
  85 H :    0.031631
  86 H :    0.019308
  87 H :    0.024353
  88 H :    0.050488
  89 H :    0.039358
  90 H :    0.034410
  91 H :    0.034026
  92 H :    0.036917
  93 H :    0.031697
  94 H :    0.039585
  95 H :    0.032493
  96 H :    0.027325

  Mayer bond orders larger than 0.100000
B(  0-C ,  1-C ) :   1.3488 B(  0-C ,  5-C ) :   1.3937 B(  0-C , 67-H ) :   0.9890
B(  1-C ,  2-C ) :   1.4050 B(  1-C , 68-H ) :   0.9868 B(  2-C ,  3-C ) :   1.2996
B(  2-C ,  5-C ) :   0.1065 B(  2-C , 69-H ) :   1.0182 B(  3-C ,  4-C ) :   1.2743
B(  3-C ,  8-N ) :   1.2753 B(  4-C ,  5-C ) :   1.3355 B(  4-C ,  6-O ) :   1.1154
B(  5-C , 70-H ) :   1.0171 B(  6-O ,  7-C ) :   1.1911 B(  7-C ,  8-N ) :   1.7319
B(  7-C ,  9-C ) :   0.9846 B(  9-C , 10-C ) :   1.5150 B(  9-C , 16-C ) :   1.1523
B( 10-C , 11-N ) :   0.9200 B( 10-C , 14-C ) :   1.1540 B( 11-N , 12-O ) :   1.5441
B( 11-N , 13-O ) :   1.4734 B( 12-O , 13-O ) :   0.2707 B( 14-C , 15-C ) :   1.5672
B( 14-C , 71-H ) :   1.0240 B( 15-C , 16-C ) :   1.1203 B( 15-C , 72-H ) :   0.9847
B( 16-C , 17-C ) :   1.3896 B( 17-C , 18-C ) :   1.2577 B( 17-C , 24-C ) :   0.9906
B( 18-C , 19-C ) :   1.4284 B( 18-C , 73-H ) :   0.9942 B( 19-C , 20-C ) :   1.1903
B( 19-C , 74-H ) :   1.0112 B( 20-C , 21-N ) :   0.9729 B( 20-C , 24-C ) :   1.3836
B( 21-N , 22-O ) :   1.4775 B( 21-N , 23-O ) :   1.5255 B( 22-O , 23-O ) :   0.2454
B( 24-C , 25-C ) :   1.3068 B( 25-C , 26-C ) :   1.3683 B( 25-C , 75-H ) :   0.9553
B( 26-C , 27-C ) :   1.2905 B( 26-C , 76-H ) :   0.9120 B( 27-C , 28-N ) :   1.1609
B( 27-C , 34-C ) :   1.2968 B( 28-N , 29-C ) :   0.9378 B( 28-N , 31-C ) :   1.0582
B( 29-C , 30-C ) :   1.1203 B( 29-C , 77-H ) :   0.9496 B( 29-C , 78-H ) :   0.9263
B( 30-C , 79-H ) :   0.9673 B( 30-C , 80-H ) :   0.9681 B( 30-C , 81-H ) :   0.9622
B( 31-C , 32-O ) :   2.0701 B( 31-C , 33-C ) :   0.9761 B( 33-C , 34-C ) :   1.3120
B( 33-C , 40-C ) :   1.2705 B( 34-C , 35-C ) :   0.9542 B( 35-C , 36-O ) :   2.1192
B( 35-C , 37-N ) :   1.0343 B( 37-N , 38-C ) :   0.9351 B( 37-N , 40-C ) :   1.1920
B( 38-C , 39-C ) :   1.1198 B( 38-C , 82-H ) :   0.9283 B( 38-C , 83-H ) :   0.9503
B( 39-C , 84-H ) :   0.9504 B( 39-C , 85-H ) :   0.9635 B( 39-C , 86-H ) :   0.9645
B( 40-C , 41-C ) :   1.1875 B( 41-C , 42-C ) :   1.5416 B( 41-C , 87-H ) :   0.9604
B( 42-C , 43-C ) :   1.1857 B( 42-C , 88-H ) :   0.9415 B( 43-C , 44-S ) :   1.1032
B( 43-C , 47-C ) :   1.4636 B( 44-S , 45-C ) :   1.1912 B( 45-C , 46-C ) :   1.5110
B( 45-C , 58-C ) :   1.0170 B( 46-C , 47-C ) :   1.2138 B( 46-C , 56-C ) :   0.9408
B( 47-C , 48-C ) :   0.9474 B( 48-C , 49-O ) :   2.1953 B( 48-C , 50-C ) :   0.9451
B( 50-C , 51-C ) :   1.4003 B( 50-C , 55-C ) :   1.3474 B( 51-C , 52-C ) :   1.3603
B( 51-C , 89-H ) :   0.9955 B( 52-C , 53-C ) :   1.3562 B( 52-C , 90-H ) :   0.9929
B( 53-C , 54-C ) :   1.3603 B( 53-C , 91-H ) :   0.9939 B( 54-C , 55-C ) :   1.4028
B( 54-C , 92-H ) :   0.9951 B( 55-C , 56-C ) :   0.9381 B( 56-C , 57-O ) :   2.2189
B( 58-C , 59-C ) :   1.3339 B( 58-C , 63-C ) :   1.3314 B( 59-C , 60-C ) :   1.4181
B( 59-C , 93-H ) :   0.9829 B( 60-C , 61-C ) :   1.2977 B( 60-C , 63-C ) :   0.1043
B( 60-C , 94-H ) :   1.0227 B( 61-C , 62-C ) :   1.3048 B( 61-C , 66-N ) :   1.2967
B( 62-C , 63-C ) :   1.3263 B( 62-C , 64-O ) :   1.1147 B( 63-C , 95-H ) :   1.0172
B( 64-O , 65-C ) :   1.1397 B( 65-C , 66-N ) :   1.7808 B( 65-C , 96-H ) :   0.9841

-----------------------------------------------------------------------------
         ABSORPTION SPECTRUM VIA TRANSITION ELECTRIC DIPOLE MOMENTS
-----------------------------------------------------------------------------
State   Energy  Wavelength   fosc         T2         TX        TY        TZ
        (cm-1)    (nm)                  (au**2)     (au)      (au)      (au)
-----------------------------------------------------------------------------
   0    6238.9   1602.9   0.218498301  11.52969   3.27177  -0.75511   0.50497
   1   11896.9    840.6   0.025771203   0.71314  -0.09819  -0.34603   0.76405
   2   15122.5    661.3   0.458029288   9.97116  -2.51916  -0.30593  -1.87920
   3   16980.8    588.9   0.025325018   0.49098  -0.62314  -0.27289  -0.16797
   4   21543.4    464.2   0.132457481   2.02413   1.26761  -0.41673   0.49358
   5   21984.1    454.9   0.293880980   4.40088  -1.95140  -0.52192  -0.56615
   6   22449.8    445.4   0.007247221   0.10628  -0.32066   0.05276   0.02587
   7   22872.5    437.2   0.014742824   0.21220  -0.13581   0.23341  -0.37319
   8   22917.0    436.4   0.032859737   0.47204  -0.23096   0.18874   0.61893
   9   23653.4    422.8   0.246235069   3.42714   0.47248   0.29772  -1.76501
  10   24369.1    410.4   0.048046552   0.64908  -0.42488  -0.22794  -0.64545
  11   24641.5    405.8   0.090277831   1.20612  -0.46414   0.14416  -0.98484
  12   25038.6    399.4   0.148779389   1.95618  -0.44151   0.40136   1.26497
  13   26308.2    380.1   0.002874029   0.03596   0.13927   0.06305  -0.11222
  14   26833.1    372.7   0.106337737   1.30464   0.94994   0.22379   0.59344
  15   27114.2    368.8   0.010499908   0.12749  -0.30206  -0.04831  -0.18415
  16   27937.3    357.9   0.007544162   0.08890   0.20286  -0.03862   0.21508
  17   28230.7    354.2   0.092551658   1.07929  -0.64205  -0.00682  -0.81671
  18   28497.5    350.9   0.130326566   1.50557  -0.69865  -0.34165  -0.94907
  19   29051.6    344.2   0.038665194   0.43815  -0.64855  -0.03990  -0.12628
  20   29095.1    343.7   0.118165642   1.33705   1.06432  -0.11417   0.43730
  21   29248.7    341.9   0.081034494   0.91209   0.77614   0.03587   0.55536
  22   29972.4    333.6   0.136329256   1.49742  -0.95860  -0.27555   0.70893
  23   30759.3    325.1   0.021336130   0.22836   0.26678  -0.25797  -0.30106
  24   30912.7    323.5   0.007475099   0.07961   0.22295   0.05324  -0.16452
  25   31294.4    319.5   0.132673717   1.39570   1.15217   0.00036   0.26119
  26   31549.5    317.0   0.056171080   0.58613   0.12760   0.13200  -0.74325
  27   31872.3    313.8   0.216114770   2.23227  -1.37396   0.13291  -0.57171
  28   31908.1    313.4   0.045287058   0.46725   0.58011   0.34068   0.12108
  29   32107.4    311.5   0.028726178   0.29454   0.11762   0.34333  -0.40352
  30   32220.0    310.4   0.046311307   0.47319  -0.46237  -0.43644   0.26255
  31   32537.7    307.3   0.089785093   0.90843  -0.18033  -0.34760   0.86896
  32   32624.5    306.5   0.024902008   0.25128   0.30688   0.08600   0.38693
  33   32780.8    305.1   0.044857054   0.45049   0.00833  -0.45810   0.49047
  34   33233.4    300.9   0.020967504   0.20771   0.24105   0.19138   0.33611
  35   33484.5    298.6   0.012162399   0.11958  -0.34320  -0.01610  -0.03913
  36   33533.8    298.2   0.016691683   0.16387  -0.24093   0.30487   0.11347
  37   33730.0    296.5   0.010862075   0.10602   0.22071   0.12151   0.20625
  38   34071.2    293.5   0.017981362   0.17374  -0.11543  -0.12748   0.37970
  39   34204.2    292.4   0.240645887   2.31619   0.94387   0.69383   0.97155
  40   34957.0    286.1   0.009648265   0.09086  -0.29907  -0.03741   0.00463
  41   35387.0    282.6   0.005361953   0.04988  -0.01791   0.10381  -0.19694
  42   35414.3    282.4   0.066956825   0.62243   0.12240  -0.38827   0.67579
  43   35625.7    280.7   0.009852798   0.09105   0.27827   0.02897   0.11303
  44   36100.7    277.0   0.014503094   0.13226  -0.06657   0.03962  -0.35533
  45   36343.2    275.2   0.023547056   0.21330  -0.08581   0.24784   0.38015
  46   36530.9    273.7   0.043853548   0.39520   0.40028   0.35331  -0.33189
  47   36681.7    272.6   0.009067619   0.08138   0.16919  -0.19933  -0.11411
  48   36754.3    272.1   0.006926947   0.06205   0.23972   0.06733   0.00687
  49   37065.6    269.8   0.014974119   0.13300  -0.33855  -0.09961   0.09200
  50   37365.7    267.6   0.008480250   0.07472   0.14691  -0.04904  -0.22523
  51   37821.5    264.4   0.002647592   0.02305   0.09515   0.09533  -0.07003
  52   38068.7    262.7   0.018893074   0.16338  -0.18699  -0.01692   0.35795
  53   38248.5    261.4   0.004431946   0.03815   0.07115  -0.14349   0.11178
  54   38333.8    260.9   0.005100629   0.04380   0.10411  -0.14107   0.11430
  55   38467.2    260.0   0.058127206   0.49747   0.63119   0.24050   0.20303
  56   38573.5    259.2   0.091093283   0.77745  -0.37138   0.19765  -0.77490
  57   38605.0    259.0   0.003500299   0.02985   0.14399  -0.06724   0.06778
  58   39625.8    252.4   0.019711306   0.16376   0.32531  -0.20499   0.12616
  59   39669.3    252.1   0.005833943   0.04842  -0.10006   0.18507  -0.06445
  60   40114.4    249.3   0.076375726   0.62680  -0.69033   0.02695   0.38667

FINAL SINGLE POINT ENERGY     -3398.287149882744

DIPOLE MOMENT
-------------
                                X             Y             Z
Electronic contribution:     -9.35391      -3.70373      -9.04083
Nuclear contribution   :      6.82824       4.23224       7.78660
                        -----------------------------------------
Total Dipole Moment    :     -2.52567       0.52851      -1.25423
                        -----------------------------------------
Magnitude (a.u.)       :      2.86904
Magnitude (Debye)      :      7.29253

Rotational constants in cm-1:     0.001851     0.000463     0.000391
Rotational constants in MHz :    55.492591    13.872879    11.730361

                             ****ORCA TERMINATED NORMALLY****
TOTAL RUN TIME: 0 days 0 hours 9 minutes 50 seconds 249 msec
