                         Program Version 4.2.0 -  RELEASE  -
|  1> # ORCA input file
|  2> # SCF done       -203.178238814260          0.000760555115
|  3> ! CAM-B3LYP def2-SVP def2/J RIJCOSX Grid4 TightSCF
|  4> %maxcore 5000
|  5> %tddft
|  6>     Mode sTDDFT
|  7>     Ethresh 5.0
|  8>     maxcore 5000
|  9> end
| 10>
| 11> %pal
| 12>   nprocs 6
| 13>   end
| 14> * xyz 0 1
| 15>    C       -0.08995         6.06695       -11.69116
| 16>    C       -0.73738         7.12563       -11.10556
| 17>    C       -1.81430         7.80430       -11.72136
| 18>    N       -2.70469         8.36278       -12.17938
| 19>    C       -0.49014         7.62232        -9.81970
| 20>    N       -0.39872         8.07909        -8.76607
| 21>    C       -0.45603         5.43615       -12.94918
| 22>    C        0.09564         4.11967       -12.97977
| 23>    C       -0.09410         3.28711       -14.04460
| 24>    C       -0.84771         3.74325       -15.14941
| 25>    C       -1.38335         5.06456       -15.13390
| 26>    C       -1.17661         5.90391       -14.01587
| 27>    C       -2.11841         5.51123       -16.25114
| 28>    C       -2.31865         4.69380       -17.33009
| 29>    C       -1.79368         3.39276       -17.34261
| 30>    C       -1.07460         2.92744       -16.27509
| 31>    C        0.87843         3.88923       -11.75596
| 32>    O        1.42868         2.87986       -11.38450
| 33>    C        0.90825         5.21632       -11.07081
| 34>    C        1.87001         5.48029       -10.15910
| 35>    C        2.27679         6.75279        -9.65580
| 36>    C        2.39595         7.97319       -10.32401
| 37>    N        2.31065         8.23947       -11.69602
| 38>    O        1.99265         7.33691       -12.46354
| 39>    O        2.55747         9.37620       -12.06410
| 40>    C        2.75605         8.99173        -9.37965
| 41>    C        2.77127         8.43808        -8.13899
| 42>    C        2.51934         7.03051        -8.25199
| 43>    C        2.47192         6.13665        -7.18360
| 44>    C        2.87138         4.78791        -7.13032
| 45>    C        2.88245         4.38458        -5.81602
| 46>    C        2.42022         5.43650        -4.98187
| 47>    N        2.33485         5.26489        -3.59716
| 48>    O        2.48447         4.13400        -3.16254
| 49>    O        2.14076         6.23912        -2.87875
| 50>    C        2.08853         6.53722        -5.80138
| 51>    C        1.28437         7.65876        -5.63034
| 52>    C        0.79326         8.19605        -4.45271
| 53>    C       -0.05949         9.28931        -4.41099
| 54>    S       -0.42361        10.03451        -2.86271
| 55>    C       -1.38115        11.31544        -3.55506
| 56>    C       -1.45483        11.15035        -4.95116
| 57>    C       -0.72672        10.01632        -5.41682
| 58>    N       -0.88295         9.92295        -6.75317
| 59>    C       -1.68585        10.95915        -7.16248
| 60>    C       -2.03741        11.13669        -8.51052
| 61>    N       -2.33484        11.30476        -9.60466
| 62>    C       -2.05413        11.74164        -6.08298
| 63>    C       -1.90878        12.28794        -2.69222
| 64>    C       -2.60797        13.39752        -3.07095
| 65>    C       -3.09412        14.37008        -2.16864
| 66>    S       -3.89533        15.80018        -2.76544
| 67>    C       -4.11446        16.43442        -1.16784
| 68>    C       -3.59480        15.54151        -0.21894
| 69>    C       -3.02717        14.39588        -0.78446
| 70>    C       -3.63396        15.71615         1.17682
| 71>    N       -3.64136        15.79390         2.32116
| 72>    C       -4.74601        17.69110        -1.00266
| 73>    C       -4.83745        18.36523         0.17332
| 74>    C       -5.45427        19.63032         0.36284
| 75>    C       -6.50555        20.18250        -0.30817
| 76>    C       -7.04096        21.50971        -0.04394
| 77>    C       -6.35343        22.55513         0.51247
| 78>    C       -6.90574        23.83620         0.72332
| 79>    N       -7.30612        24.89293         0.92366
| 80>    C       -4.99539        22.50742         0.89467
| 81>    N       -3.88862        22.54525         1.19763
| 82>    C       -8.39737        21.55801        -0.56840
| 83>    C       -8.65779        20.33675        -1.25366
| 84>    C       -7.47329        19.46490        -1.18745
| 85>    O       -7.34892        18.37837        -1.71015
| 86>    C       -9.85684        20.09347        -1.86044
| 87>    C      -10.86938        21.07695        -1.80362
| 88>    C      -10.61904        22.29760        -1.11140
| 89>    C       -9.36674        22.52307        -0.49579
| 90>    C      -11.63988        23.26809        -1.05483
| 91>    C      -12.85002        23.04652        -1.65405
| 92>    C      -13.09492        21.84561        -2.33676
| 93>    C      -12.12563        20.88218        -2.41077
| 94>    H        0.33072         2.29424       -14.04843
| 95>    H       -1.57311         6.90683       -14.03783
| 96>    H       -2.52220         6.51270       -16.23624
| 97>    H       -2.88248         5.04534       -18.18104
| 98>    H       -1.96000         2.76169       -18.20277
| 99>    H       -0.66660         1.92727       -16.27986
|100>    H        2.41082         4.61254        -9.80107
|101>    H        2.96896        10.00649        -9.65497
|102>    H        3.04411         8.93328        -7.22670
|103>    H        3.23047         4.20105        -7.95215
|104>    H        3.19828         3.42916        -5.43939
|105>    H        1.01794         8.16152        -6.54857
|106>    H        1.11727         7.78275        -3.50703
|107>    H       -0.57125         9.18804        -7.39575
|108>    H       -2.68059        12.60838        -6.13387
|109>    H       -1.70884        12.12792        -1.64188
|110>    H       -2.79520        13.57787        -4.11832
|111>    H       -2.58806        13.61458        -0.19071
|112>    H       -5.13970        18.13347        -1.90545
|113>    H       -4.34300        17.96210         1.04712
|114>    H       -5.05807        20.19298         1.20108
|115>    H      -10.03053        19.16162        -2.37787
|116>    H       -9.20812        23.45287         0.02726
|117>    H      -11.44579        24.19177        -0.52984
|118>    H      -13.62549        23.79604        -1.60540
|119>    H      -14.05561        21.68744        -2.80331
|120>    H      -12.30886        19.95562        -2.93478
|121> *
|122>
|123>                          ****END OF INPUT****

CARTESIAN COORDINATES (ANGSTROEM)
---------------------------------
  C     -0.089950    6.066950  -11.691160
  C     -0.737380    7.125630  -11.105560
  C     -1.814300    7.804300  -11.721360
  N     -2.704690    8.362780  -12.179380
  C     -0.490140    7.622320   -9.819700
  N     -0.398720    8.079090   -8.766070
  C     -0.456030    5.436150  -12.949180
  C      0.095640    4.119670  -12.979770
  C     -0.094100    3.287110  -14.044600
  C     -0.847710    3.743250  -15.149410
  C     -1.383350    5.064560  -15.133900
  C     -1.176610    5.903910  -14.015870
  C     -2.118410    5.511230  -16.251140
  C     -2.318650    4.693800  -17.330090
  C     -1.793680    3.392760  -17.342610
  C     -1.074600    2.927440  -16.275090
  C      0.878430    3.889230  -11.755960
  O      1.428680    2.879860  -11.384500
  C      0.908250    5.216320  -11.070810
  C      1.870010    5.480290  -10.159100
  C      2.276790    6.752790   -9.655800
  C      2.395950    7.973190  -10.324010
  N      2.310650    8.239470  -11.696020
  O      1.992650    7.336910  -12.463540
  O      2.557470    9.376200  -12.064100
  C      2.756050    8.991730   -9.379650
  C      2.771270    8.438080   -8.138990
  C      2.519340    7.030510   -8.251990
  C      2.471920    6.136650   -7.183600
  C      2.871380    4.787910   -7.130320
  C      2.882450    4.384580   -5.816020
  C      2.420220    5.436500   -4.981870
  N      2.334850    5.264890   -3.597160
  O      2.484470    4.134000   -3.162540
  O      2.140760    6.239120   -2.878750
  C      2.088530    6.537220   -5.801380
  C      1.284370    7.658760   -5.630340
  C      0.793260    8.196050   -4.452710
  C     -0.059490    9.289310   -4.410990
  S     -0.423610   10.034510   -2.862710
  C     -1.381150   11.315440   -3.555060
  C     -1.454830   11.150350   -4.951160
  C     -0.726720   10.016320   -5.416820
  N     -0.882950    9.922950   -6.753170
  C     -1.685850   10.959150   -7.162480
  C     -2.037410   11.136690   -8.510520
  N     -2.334840   11.304760   -9.604660
  C     -2.054130   11.741640   -6.082980
  C     -1.908780   12.287940   -2.692220
  C     -2.607970   13.397520   -3.070950
  C     -3.094120   14.370080   -2.168640
  S     -3.895330   15.800180   -2.765440
  C     -4.114460   16.434420   -1.167840
  C     -3.594800   15.541510   -0.218940
  C     -3.027170   14.395880   -0.784460
  C     -3.633960   15.716150    1.176820
  N     -3.641360   15.793900    2.321160
  C     -4.746010   17.691100   -1.002660
  C     -4.837450   18.365230    0.173320
  C     -5.454270   19.630320    0.362840
  C     -6.505550   20.182500   -0.308170
  C     -7.040960   21.509710   -0.043940
  C     -6.353430   22.555130    0.512470
  C     -6.905740   23.836200    0.723320
  N     -7.306120   24.892930    0.923660
  C     -4.995390   22.507420    0.894670
  N     -3.888620   22.545250    1.197630
  C     -8.397370   21.558010   -0.568400
  C     -8.657790   20.336750   -1.253660
  C     -7.473290   19.464900   -1.187450
  O     -7.348920   18.378370   -1.710150
  C     -9.856840   20.093470   -1.860440
  C    -10.869380   21.076950   -1.803620
  C    -10.619040   22.297600   -1.111400
  C     -9.366740   22.523070   -0.495790
  C    -11.639880   23.268090   -1.054830
  C    -12.850020   23.046520   -1.654050
  C    -13.094920   21.845610   -2.336760
  C    -12.125630   20.882180   -2.410770
  H      0.330720    2.294240  -14.048430
  H     -1.573110    6.906830  -14.037830
  H     -2.522200    6.512700  -16.236240
  H     -2.882480    5.045340  -18.181040
  H     -1.960000    2.761690  -18.202770
  H     -0.666600    1.927270  -16.279860
  H      2.410820    4.612540   -9.801070
  H      2.968960   10.006490   -9.654970
  H      3.044110    8.933280   -7.226700
  H      3.230470    4.201050   -7.952150
  H      3.198280    3.429160   -5.439390
  H      1.017940    8.161520   -6.548570
  H      1.117270    7.782750   -3.507030
  H     -0.571250    9.188040   -7.395750
  H     -2.680590   12.608380   -6.133870
  H     -1.708840   12.127920   -1.641880
  H     -2.795200   13.577870   -4.118320
  H     -2.588060   13.614580   -0.190710
  H     -5.139700   18.133470   -1.905450
  H     -4.343000   17.962100    1.047120
  H     -5.058070   20.192980    1.201080
  H    -10.030530   19.161620   -2.377870
  H     -9.208120   23.452870    0.027260
  H    -11.445790   24.191770   -0.529840
  H    -13.625490   23.796040   -1.605400
  H    -14.055610   21.687440   -2.803310
  H    -12.308860   19.955620   -2.934780

 Total Charge           Charge          ....    0
 Multiplicity           Mult            ....    1
 Number of Electrons    NEL             ....  542
 Basis Dimension        Dim             .... 1249

ORBITAL ENERGIES
----------------

  NO   OCC          E(Eh)            E(eV)
   0   2.0000     -89.001842     -2421.8633
   1   2.0000     -88.995796     -2421.6987
   2   2.0000     -19.232412      -523.3405
   3   2.0000     -19.231115      -523.3053
   4   2.0000     -19.227672      -523.2116
   5   2.0000     -19.222394      -523.0679
   6   2.0000     -19.219131      -522.9791
   7   2.0000     -19.215127      -522.8702
   8   2.0000     -14.639858      -398.3708
   9   2.0000     -14.631901      -398.1543
  10   2.0000     -14.490413      -394.3042
  11   2.0000     -14.439519      -392.9193
  12   2.0000     -14.429430      -392.6447
  13   2.0000     -14.423981      -392.4965
  14   2.0000     -14.421223      -392.4214
  15   2.0000     -14.420506      -392.4019
  16   2.0000     -14.413506      -392.2114
  17   2.0000     -10.379313      -282.4355
  18   2.0000     -10.365842      -282.0689
  19   2.0000     -10.363828      -282.0141
  20   2.0000     -10.361589      -281.9532
  21   2.0000     -10.354334      -281.7557
  22   2.0000     -10.354023      -281.7473
  23   2.0000     -10.350400      -281.6487
  24   2.0000     -10.350109      -281.6408
  25   2.0000     -10.348751      -281.6038
  26   2.0000     -10.347892      -281.5805
  27   2.0000     -10.346745      -281.5492
  28   2.0000     -10.344819      -281.4968
  29   2.0000     -10.344237      -281.4810
  30   2.0000     -10.341126      -281.3964
  31   2.0000     -10.336085      -281.2592
  32   2.0000     -10.329499      -281.0799
  33   2.0000     -10.327460      -281.0245
  34   2.0000     -10.326450      -280.9970
  35   2.0000     -10.325649      -280.9752
  36   2.0000     -10.324010      -280.9306
  37   2.0000     -10.323472      -280.9160
  38   2.0000     -10.322916      -280.9008
  39   2.0000     -10.322900      -280.9004
  40   2.0000     -10.322374      -280.8861
  41   2.0000     -10.322202      -280.8814
  42   2.0000     -10.320822      -280.8438
  43   2.0000     -10.320001      -280.8215
  44   2.0000     -10.316165      -280.7171
  45   2.0000     -10.315519      -280.6995
  46   2.0000     -10.314509      -280.6721
  47   2.0000     -10.311859      -280.5999
  48   2.0000     -10.311514      -280.5906
  49   2.0000     -10.309817      -280.5444
  50   2.0000     -10.307647      -280.4853
  51   2.0000     -10.307582      -280.4836
  52   2.0000     -10.306546      -280.4554
  53   2.0000     -10.304612      -280.4027
  54   2.0000     -10.304467      -280.3988
  55   2.0000     -10.304427      -280.3977
  56   2.0000     -10.304210      -280.3918
  57   2.0000     -10.303607      -280.3754
  58   2.0000     -10.303416      -280.3702
  59   2.0000     -10.303144      -280.3628
  60   2.0000     -10.303079      -280.3610
  61   2.0000     -10.298981      -280.2495
  62   2.0000     -10.297727      -280.2154
  63   2.0000     -10.297474      -280.2085
  64   2.0000     -10.297137      -280.1993
  65   2.0000     -10.296767      -280.1893
  66   2.0000     -10.296122      -280.1717
  67   2.0000     -10.292663      -280.0776
  68   2.0000     -10.292210      -280.0653
  69   2.0000     -10.291920      -280.0574
  70   2.0000     -10.291371      -280.0424
  71   2.0000     -10.289581      -279.9937
  72   2.0000     -10.286353      -279.9059
  73   2.0000     -10.285432      -279.8808
  74   2.0000     -10.285171      -279.8737
  75   2.0000     -10.284657      -279.8598
  76   2.0000     -10.278371      -279.6887
  77   2.0000     -10.275817      -279.6192
  78   2.0000     -10.274267      -279.5770
  79   2.0000      -8.097467      -220.3433
  80   2.0000      -8.091064      -220.1690
  81   2.0000      -6.066522      -165.0784
  82   2.0000      -6.062494      -164.9688
  83   2.0000      -6.060378      -164.9113
  84   2.0000      -6.059861      -164.8972
  85   2.0000      -6.056238      -164.7986
  86   2.0000      -6.053061      -164.7122
  87   2.0000      -1.308956       -35.6185
  88   2.0000      -1.299686       -35.3662
  89   2.0000      -1.142852       -31.0986
  90   2.0000      -1.130458       -30.7613
  91   2.0000      -1.125508       -30.6266
  92   2.0000      -1.121257       -30.5110
  93   2.0000      -1.116091       -30.3704
  94   2.0000      -1.037888       -28.2424
  95   2.0000      -1.032112       -28.0852
  96   2.0000      -1.024619       -27.8813
  97   2.0000      -1.016675       -27.6651
  98   2.0000      -1.008991       -27.4560
  99   2.0000      -1.007919       -27.4269
 100   2.0000      -1.007255       -27.4088
 101   2.0000      -1.005012       -27.3478
 102   2.0000      -1.002297       -27.2739
 103   2.0000      -0.999235       -27.1906
 104   2.0000      -0.995421       -27.0868
 105   2.0000      -0.987387       -26.8682
 106   2.0000      -0.978916       -26.6377
 107   2.0000      -0.971496       -26.4357
 108   2.0000      -0.955700       -26.0059
 109   2.0000      -0.942080       -25.6353
 110   2.0000      -0.930658       -25.3245
 111   2.0000      -0.926037       -25.1988
 112   2.0000      -0.921646       -25.0792
 113   2.0000      -0.905499       -24.6399
 114   2.0000      -0.903190       -24.5770
 115   2.0000      -0.901318       -24.5261
 116   2.0000      -0.899182       -24.4680
 117   2.0000      -0.894019       -24.3275
 118   2.0000      -0.887964       -24.1627
 119   2.0000      -0.881692       -23.9921
 120   2.0000      -0.881545       -23.9881
 121   2.0000      -0.875450       -23.8222
 122   2.0000      -0.870839       -23.6967
 123   2.0000      -0.870105       -23.6768
 124   2.0000      -0.855059       -23.2673
 125   2.0000      -0.835285       -22.7293
 126   2.0000      -0.834370       -22.7044
 127   2.0000      -0.828946       -22.5568
 128   2.0000      -0.823781       -22.4162
 129   2.0000      -0.810778       -22.0624
 130   2.0000      -0.796719       -21.6798
 131   2.0000      -0.785078       -21.3631
 132   2.0000      -0.771378       -20.9903
 133   2.0000      -0.768737       -20.9184
 134   2.0000      -0.764291       -20.7974
 135   2.0000      -0.759714       -20.6729
 136   2.0000      -0.757740       -20.6192
 137   2.0000      -0.749510       -20.3952
 138   2.0000      -0.729627       -19.8542
 139   2.0000      -0.722207       -19.6522
 140   2.0000      -0.714804       -19.4508
 141   2.0000      -0.712907       -19.3992
 142   2.0000      -0.711258       -19.3543
 143   2.0000      -0.711105       -19.3502
 144   2.0000      -0.705607       -19.2005
 145   2.0000      -0.702614       -19.1191
 146   2.0000      -0.693129       -18.8610
 147   2.0000      -0.691832       -18.8257
 148   2.0000      -0.683974       -18.6119
 149   2.0000      -0.682197       -18.5635
 150   2.0000      -0.674773       -18.3615
 151   2.0000      -0.663972       -18.0676
 152   2.0000      -0.658194       -17.9104
 153   2.0000      -0.655105       -17.8263
 154   2.0000      -0.647401       -17.6167
 155   2.0000      -0.642995       -17.4968
 156   2.0000      -0.636997       -17.3336
 157   2.0000      -0.634297       -17.2601
 158   2.0000      -0.631220       -17.1764
 159   2.0000      -0.628224       -17.0948
 160   2.0000      -0.622826       -16.9480
 161   2.0000      -0.620218       -16.8770
 162   2.0000      -0.615986       -16.7618
 163   2.0000      -0.613900       -16.7051
 164   2.0000      -0.611412       -16.6374
 165   2.0000      -0.609448       -16.5839
 166   2.0000      -0.608364       -16.5544
 167   2.0000      -0.602661       -16.3992
 168   2.0000      -0.597773       -16.2662
 169   2.0000      -0.590146       -16.0587
 170   2.0000      -0.588066       -16.0021
 171   2.0000      -0.583132       -15.8678
 172   2.0000      -0.578402       -15.7391
 173   2.0000      -0.571272       -15.5451
 174   2.0000      -0.569939       -15.5088
 175   2.0000      -0.568925       -15.4812
 176   2.0000      -0.568443       -15.4681
 177   2.0000      -0.565908       -15.3991
 178   2.0000      -0.559131       -15.2147
 179   2.0000      -0.553506       -15.0617
 180   2.0000      -0.549774       -14.9601
 181   2.0000      -0.546928       -14.8827
 182   2.0000      -0.546406       -14.8685
 183   2.0000      -0.545238       -14.8367
 184   2.0000      -0.544879       -14.8269
 185   2.0000      -0.541500       -14.7350
 186   2.0000      -0.536800       -14.6071
 187   2.0000      -0.535307       -14.5664
 188   2.0000      -0.532260       -14.4835
 189   2.0000      -0.530210       -14.4278
 190   2.0000      -0.528497       -14.3811
 191   2.0000      -0.528155       -14.3718
 192   2.0000      -0.522913       -14.2292
 193   2.0000      -0.521750       -14.1975
 194   2.0000      -0.520906       -14.1746
 195   2.0000      -0.517133       -14.0719
 196   2.0000      -0.516158       -14.0454
 197   2.0000      -0.514942       -14.0123
 198   2.0000      -0.511989       -13.9319
 199   2.0000      -0.507458       -13.8086
 200   2.0000      -0.502562       -13.6754
 201   2.0000      -0.501776       -13.6540
 202   2.0000      -0.499591       -13.5946
 203   2.0000      -0.497943       -13.5497
 204   2.0000      -0.496453       -13.5092
 205   2.0000      -0.492348       -13.3975
 206   2.0000      -0.491448       -13.3730
 207   2.0000      -0.488563       -13.2945
 208   2.0000      -0.486270       -13.2321
 209   2.0000      -0.484033       -13.1712
 210   2.0000      -0.482270       -13.1232
 211   2.0000      -0.481260       -13.0958
 212   2.0000      -0.476431       -12.9643
 213   2.0000      -0.474161       -12.9026
 214   2.0000      -0.471651       -12.8343
 215   2.0000      -0.470822       -12.8117
 216   2.0000      -0.466645       -12.6981
 217   2.0000      -0.464305       -12.6344
 218   2.0000      -0.463423       -12.6104
 219   2.0000      -0.458751       -12.4832
 220   2.0000      -0.456724       -12.4281
 221   2.0000      -0.455350       -12.3907
 222   2.0000      -0.453760       -12.3474
 223   2.0000      -0.452347       -12.3090
 224   2.0000      -0.449740       -12.2380
 225   2.0000      -0.449439       -12.2298
 226   2.0000      -0.447704       -12.1827
 227   2.0000      -0.446722       -12.1559
 228   2.0000      -0.445711       -12.1284
 229   2.0000      -0.440798       -11.9947
 230   2.0000      -0.440518       -11.9871
 231   2.0000      -0.439472       -11.9586
 232   2.0000      -0.438924       -11.9437
 233   2.0000      -0.438402       -11.9295
 234   2.0000      -0.433702       -11.8016
 235   2.0000      -0.431443       -11.7402
 236   2.0000      -0.430509       -11.7148
 237   2.0000      -0.428538       -11.6611
 238   2.0000      -0.426311       -11.6005
 239   2.0000      -0.426224       -11.5981
 240   2.0000      -0.423350       -11.5199
 241   2.0000      -0.422911       -11.5080
 242   2.0000      -0.415419       -11.3041
 243   2.0000      -0.412452       -11.2234
 244   2.0000      -0.408757       -11.1228
 245   2.0000      -0.402527       -10.9533
 246   2.0000      -0.389501       -10.5989
 247   2.0000      -0.382827       -10.4173
 248   2.0000      -0.380480       -10.3534
 249   2.0000      -0.375590       -10.2203
 250   2.0000      -0.374491       -10.1904
 251   2.0000      -0.373762       -10.1706
 252   2.0000      -0.372410       -10.1338
 253   2.0000      -0.362777        -9.8717
 254   2.0000      -0.361044        -9.8245
 255   2.0000      -0.354222        -9.6389
 256   2.0000      -0.353935        -9.6311
 257   2.0000      -0.350667        -9.5421
 258   2.0000      -0.348825        -9.4920
 259   2.0000      -0.345324        -9.3967
 260   2.0000      -0.332867        -9.0578
 261   2.0000      -0.332561        -9.0494
 262   2.0000      -0.327398        -8.9089
 263   2.0000      -0.324228        -8.8227
 264   2.0000      -0.316983        -8.6255
 265   2.0000      -0.313033        -8.5181
 266   2.0000      -0.300834        -8.1861
 267   2.0000      -0.297054        -8.0832
 268   2.0000      -0.289354        -7.8737
 269   2.0000      -0.285634        -7.7725
 270   2.0000      -0.246496        -6.7075
 271   0.0000      -0.147151        -4.0042
 272   0.0000      -0.112639        -3.0651
 273   0.0000      -0.094060        -2.5595
 274   0.0000      -0.078984        -2.1493
 275   0.0000      -0.066765        -1.8168

MULLIKEN ATOMIC CHARGES
-----------------------
   0 C :    0.332811
   1 C :   -0.373188
   2 C :   -0.200979
   3 N :    0.173639
   4 C :   -0.082336
   5 N :    0.112803
   6 C :    0.030249
   7 C :    0.023832
   8 C :   -0.083300
   9 C :    0.098036
  10 C :    0.088605
  11 C :   -0.063894
  12 C :   -0.012215
  13 C :    0.035649
  14 C :    0.037524
  15 C :   -0.015335
  16 C :    0.135141
  17 O :   -0.138879
  18 C :   -0.101400
  19 C :    0.002131
  20 C :    0.030700
  21 C :    0.027904
  22 N :    0.276576
  23 O :   -0.268765
  24 O :   -0.241451
  25 C :    0.004394
  26 C :   -0.009499
  27 C :    0.029020
  28 C :    0.046816
  29 C :   -0.033128
  30 C :    0.046855
  31 C :    0.022018
  32 N :    0.289359
  33 O :   -0.269222
  34 O :   -0.286531
  35 C :    0.099247
  36 C :   -0.096943
  37 C :    0.105265
  38 C :   -0.178011
  39 S :    0.191647
  40 C :   -0.116742
  41 C :    0.108006
  42 C :    0.122888
  43 N :    0.003092
  44 C :   -0.099302
  45 C :   -0.143485
  46 N :    0.190441
  47 C :   -0.050544
  48 C :    0.060170
  49 C :    0.083061
  50 C :   -0.080332
  51 S :    0.189488
  52 C :   -0.080763
  53 C :   -0.058467
  54 C :    0.023100
  55 C :   -0.176074
  56 N :    0.130565
  57 C :    0.127091
  58 C :   -0.023449
  59 C :    0.000812
  60 C :   -0.090055
  61 C :    0.288404
  62 C :   -0.334785
  63 C :   -0.178839
  64 N :    0.151963
  65 C :   -0.210206
  66 N :    0.170209
  67 C :    0.050445
  68 C :   -0.003595
  69 C :    0.154616
  70 O :   -0.154405
  71 C :   -0.077650
  72 C :    0.095924
  73 C :    0.095866
  74 C :   -0.080206
  75 C :   -0.017771
  76 C :    0.035869
  77 C :    0.038469
  78 C :   -0.013798
  79 H :   -0.012371
  80 H :   -0.000510
  81 H :   -0.009000
  82 H :   -0.004394
  83 H :   -0.004239
  84 H :   -0.017656
  85 H :    0.014470
  86 H :   -0.009013
  87 H :   -0.008053
  88 H :   -0.009039
  89 H :    0.009285
  90 H :   -0.007068
  91 H :    0.015141
  92 H :    0.126980
  93 H :   -0.003737
  94 H :   -0.010511
  95 H :   -0.017483
  96 H :    0.008154
  97 H :    0.011450
  98 H :    0.023063
  99 H :    0.039262
 100 H :   -0.013558
 101 H :   -0.006462
 102 H :   -0.008334
 103 H :   -0.001278
 104 H :   -0.003469
 105 H :   -0.016787
Sum of atomic charges:   -0.0000000

LOEWDIN ATOMIC CHARGES
----------------------
   0 C :    0.096923
   1 C :   -0.150607
   2 C :   -0.021504
   3 N :   -0.040929
   4 C :    0.056668
   5 N :   -0.072134
   6 C :   -0.018337
   7 C :   -0.051480
   8 C :    0.032658
   9 C :   -0.005398
  10 C :   -0.005067
  11 C :    0.031200
  12 C :   -0.002727
  13 C :   -0.012763
  14 C :   -0.010381
  15 C :   -0.009440
  16 C :    0.086685
  17 O :   -0.139110
  18 C :   -0.066275
  19 C :    0.061922
  20 C :   -0.030026
  21 C :   -0.051298
  22 N :    0.287294
  23 O :   -0.223217
  24 O :   -0.206577
  25 C :   -0.015501
  26 C :   -0.042681
  27 C :   -0.009753
  28 C :    0.066230
  29 C :   -0.081989
  30 C :    0.070616
  31 C :   -0.111341
  32 N :    0.289531
  33 O :   -0.232225
  34 O :   -0.246275
  35 C :    0.036326
  36 C :   -0.031574
  37 C :    0.033924
  38 C :   -0.190334
  39 S :    0.483474
  40 C :   -0.118375
  41 C :   -0.075007
  42 C :    0.017162
  43 N :    0.108555
  44 C :   -0.017377
  45 C :   -0.045718
  46 N :   -0.018436
  47 C :   -0.034465
  48 C :   -0.040417
  49 C :   -0.004020
  50 C :   -0.168098
  51 S :    0.492051
  52 C :   -0.136950
  53 C :   -0.090324
  54 C :   -0.007571
  55 C :   -0.029437
  56 N :   -0.040738
  57 C :    0.014732
  58 C :   -0.021410
  59 C :    0.063723
  60 C :   -0.079362
  61 C :    0.072829
  62 C :   -0.132533
  63 C :   -0.017296
  64 N :   -0.047983
  65 C :   -0.027045
  66 N :   -0.044811
  67 C :   -0.026195
  68 C :   -0.056734
  69 C :    0.084584
  70 O :   -0.141577
  71 C :    0.033941
  72 C :   -0.008141
  73 C :   -0.005073
  74 C :    0.020741
  75 C :   -0.004673
  76 C :   -0.011039
  77 C :   -0.010463
  78 C :   -0.008868
  79 H :    0.039671
  80 H :    0.041389
  81 H :    0.035409
  82 H :    0.033391
  83 H :    0.033103
  84 H :    0.032085
  85 H :    0.044303
  86 H :    0.033520
  87 H :    0.026578
  88 H :    0.028063
  89 H :    0.040997
  90 H :    0.032107
  91 H :    0.035769
  92 H :    0.060013
  93 H :    0.034319
  94 H :    0.033925
  95 H :    0.034872
  96 H :    0.042147
  97 H :    0.037172
  98 H :    0.043469
  99 H :    0.050828
 100 H :    0.038931
 101 H :    0.039625
 102 H :    0.035356
 103 H :    0.034355
 104 H :    0.033676
 105 H :    0.032238

  Mayer bond orders larger than 0.100000
B(  0-C ,  1-C ) :   1.6364 B(  0-C ,  6-C ) :   1.0109 B(  0-C , 18-C ) :   0.9920
B(  1-C ,  2-C ) :   1.1339 B(  1-C ,  4-C ) :   1.1996 B(  2-C ,  3-N ) :   3.0007
B(  4-C ,  5-N ) :   2.8300 B(  5-N , 92-H ) :   0.1762 B(  6-C ,  7-C ) :   1.2116
B(  6-C , 11-C ) :   1.4512 B(  7-C ,  8-C ) :   1.4698 B(  7-C , 16-C ) :   0.9229
B(  8-C ,  9-C ) :   1.1868 B(  8-C , 79-H ) :   1.0149 B(  9-C , 10-C ) :   1.2551
B(  9-C , 15-C ) :   1.2435 B( 10-C , 11-C ) :   1.2094 B( 10-C , 12-C ) :   1.2394
B( 11-C , 80-H ) :   0.9937 B( 12-C , 13-C ) :   1.4910 B( 12-C , 81-H ) :   0.9971
B( 13-C , 14-C ) :   1.2600 B( 13-C , 82-H ) :   0.9885 B( 14-C , 15-C ) :   1.4906
B( 14-C , 83-H ) :   0.9882 B( 15-C , 84-H ) :   0.9972 B( 16-C , 17-O ) :   2.2639
B( 16-C , 18-C ) :   0.9363 B( 18-C , 19-C ) :   1.7743 B( 19-C , 20-C ) :   1.0274
B( 19-C , 85-H ) :   0.9309 B( 20-C , 21-C ) :   1.4327 B( 20-C , 27-C ) :   1.1624
B( 21-C , 22-N ) :   0.9589 B( 21-C , 25-C ) :   1.1844 B( 22-N , 23-O ) :   1.4719
B( 22-N , 24-O ) :   1.5390 B( 23-O , 24-O ) :   0.2493 B( 25-C , 26-C ) :   1.5252
B( 25-C , 86-H ) :   1.0125 B( 26-C , 27-C ) :   1.1546 B( 26-C , 87-H ) :   1.0026
B( 27-C , 28-C ) :   1.3379 B( 28-C , 29-C ) :   1.2578 B( 28-C , 35-C ) :   0.9983
B( 29-C , 30-C ) :   1.4160 B( 29-C , 88-H ) :   1.0123 B( 30-C , 31-C ) :   1.2338
B( 30-C , 89-H ) :   1.0010 B( 31-C , 32-N ) :   0.9994 B( 31-C , 35-C ) :   1.2842
B( 32-N , 33-O ) :   1.5245 B( 32-N , 34-O ) :   1.4415 B( 33-O , 34-O ) :   0.2268
B( 34-O , 91-H ) :   0.1073 B( 35-C , 36-C ) :   1.3949 B( 36-C , 37-C ) :   1.3714
B( 36-C , 90-H ) :   0.9511 B( 37-C , 38-C ) :   1.3388 B( 37-C , 91-H ) :   0.9241
B( 38-C , 39-S ) :   1.0694 B( 38-C , 42-C ) :   1.2109 B( 39-S , 40-C ) :   1.1725
B( 40-C , 41-C ) :   1.2329 B( 40-C , 48-C ) :   1.2114 B( 41-C , 42-C ) :   1.2632
B( 41-C , 47-C ) :   1.1946 B( 42-C , 43-N ) :   1.2728 B( 43-N , 44-C ) :   1.2407
B( 43-N , 92-H ) :   0.8553 B( 44-C , 45-C ) :   1.0530 B( 44-C , 47-C ) :   1.5749
B( 45-C , 46-N ) :   3.0521 B( 47-C , 93-H ) :   1.0084 B( 48-C , 49-C ) :   1.6169
B( 48-C , 94-H ) :   0.9513 B( 49-C , 50-C ) :   1.1559 B( 49-C , 95-H ) :   0.9621
B( 50-C , 51-S ) :   1.1255 B( 50-C , 54-C ) :   1.4314 B( 51-S , 52-C ) :   1.1512
B( 52-C , 53-C ) :   1.4056 B( 52-C , 57-C ) :   1.1804 B( 53-C , 54-C ) :   1.3442
B( 53-C , 55-C ) :   1.1092 B( 54-C , 96-H ) :   0.9973 B( 55-C , 56-N ) :   2.9826
B( 57-C , 58-C ) :   1.6592 B( 57-C , 97-H ) :   0.9290 B( 58-C , 59-C ) :   1.1841
B( 58-C , 98-H ) :   0.9446 B( 59-C , 60-C ) :   1.6275 B( 59-C , 99-H ) :   0.9459
B( 60-C , 61-C ) :   1.0461 B( 60-C , 69-C ) :   0.9340 B( 61-C , 62-C ) :   1.6546
B( 61-C , 67-C ) :   0.9968 B( 62-C , 63-C ) :   1.1412 B( 62-C , 65-C ) :   1.1375
B( 63-C , 64-N ) :   2.9714 B( 65-C , 66-N ) :   3.0100 B( 67-C , 68-C ) :   1.2115
B( 67-C , 74-C ) :   1.4501 B( 68-C , 69-C ) :   0.9514 B( 68-C , 71-C ) :   1.4694
B( 69-C , 70-O ) :   2.2010 B( 71-C , 72-C ) :   1.1827 B( 71-C ,100-H ) :   1.0156
B( 72-C , 73-C ) :   1.2560 B( 72-C , 78-C ) :   1.2447 B( 73-C , 74-C ) :   1.2068
B( 73-C , 75-C ) :   1.2401 B( 74-C ,101-H ) :   0.9910 B( 75-C , 76-C ) :   1.4901
B( 75-C ,102-H ) :   0.9969 B( 76-C , 77-C ) :   1.2611 B( 76-C ,103-H ) :   0.9881
B( 77-C , 78-C ) :   1.4897 B( 77-C ,104-H ) :   0.9879 B( 78-C ,105-H ) :   0.9971

-----------------------------------------------------------------------------
         ABSORPTION SPECTRUM VIA TRANSITION ELECTRIC DIPOLE MOMENTS
-----------------------------------------------------------------------------
State   Energy  Wavelength   fosc         T2         TX        TY        TZ
        (cm-1)    (nm)                  (au**2)     (au)      (au)      (au)
-----------------------------------------------------------------------------
   0    5801.9   1723.6   0.375302106  21.29526   1.98238  -2.94999  -2.94330
   1   13472.7    742.2   0.024626040   0.60175  -0.68512  -0.09554  -0.35104
   2   16171.6    618.4   1.546722776  31.48727   2.95010  -4.64693  -1.09100
   3   17071.1    585.8   0.212812643   4.10403  -0.49442   1.44069   1.33566
   4   19074.5    524.3   0.061151275   1.05543  -0.31738  -0.50675  -0.83541
   5   19869.1    503.3   0.000860377   0.01426  -0.06866   0.06566   0.07232
   6   21467.2    465.8   0.072533211   1.11234   0.32619  -1.00014   0.07520
   7   21895.3    456.7   0.028725621   0.43191  -0.19028   0.01668  -0.62883
   8   22332.9    447.8   0.038520328   0.56783  -0.64051  -0.38919  -0.07816
   9   23063.8    433.6   0.041810936   0.59681  -0.51592   0.39989  -0.41318
  10   23163.1    431.7   0.055084066   0.78290   0.50563  -0.53909   0.48643
  11   23849.8    419.3   0.055144663   0.76119  -0.44764  -0.34612   0.66409
  12   24066.3    415.5   0.035175636   0.48118  -0.27035   0.60764  -0.19715
  13   24461.6    408.8   0.017946678   0.24153  -0.13900  -0.23510   0.40858
  14   25191.3    397.0   0.017516147   0.22891   0.14134  -0.26210   0.37448
  15   25460.7    392.8   0.086472227   1.11810   0.02465  -0.70610   0.78672
  16   26280.4    380.5   0.002767603   0.03467   0.16549   0.04352   0.07340
  17   26640.1    375.4   0.096827838   1.19658  -0.50972   0.76685   0.59051
  18   27357.5    365.5   0.025887029   0.31152  -0.04459   0.27877   0.48147
  19   27538.7    363.1   0.121310706   1.45021  -0.35625  -0.07915  -1.14762
  20   27938.6    357.9   0.051108311   0.60223  -0.16184  -0.04960  -0.75735
  21   28215.3    354.4   0.029623705   0.34565   0.24987   0.50779   0.15925
  22   28288.6    353.5   0.259002551   3.01417  -0.32834   0.22467  -1.68994
  23   28493.1    351.0   0.038058350   0.43973   0.15526   0.58088   0.27964
  24   28641.7    349.1   0.057904992   0.66557   0.24256   0.76300   0.15673
  25   28787.7    347.4   0.006330930   0.07240   0.13681   0.21335  -0.09037
  26   29453.3    339.5   0.281534834   3.14683   1.45137  -0.63535   0.79794
  27   29600.4    337.8   0.187739476   2.08802   0.25883   0.61036  -1.28393
  28   30152.7    331.6   0.032376804   0.35349  -0.06396   0.13761   0.57486
  29   30307.1    330.0   0.020211685   0.21955   0.25779  -0.05605  -0.38724
  30   30740.0    325.3   0.036183998   0.38752  -0.26639   0.23432   0.51152
  31   31073.2    321.8   0.015504726   0.16427  -0.30281  -0.26715   0.03478
  32   31502.3    317.4   0.012831339   0.13409  -0.31928   0.03717   0.17542
  33   31620.2    316.3   0.051861737   0.53996   0.54928   0.48769  -0.02010
  34   31947.4    313.0   0.503601909   5.18953   1.39574  -0.55988   1.71113
  35   32202.7    310.5   0.023343298   0.23864  -0.22859   0.42888   0.04952
  36   32463.6    308.0   0.046938565   0.47600  -0.43354   0.45766   0.28033
  37   32769.9    305.2   0.029750139   0.29888  -0.19688   0.08455   0.50295
  38   32807.3    304.8   0.133559891   1.34023  -0.24299   0.23219  -1.10783
  39   32995.9    303.1   0.075203289   0.75033  -0.70837  -0.42461  -0.26124
  40   33198.7    301.2   0.036974302   0.36665   0.03725   0.46562  -0.38531
  41   33298.0    300.3   0.130747659   1.29268   0.62300   0.40864   0.85881
  42   33566.7    297.9   0.316243956   3.10163  -0.40670  -1.22711  -1.19600
  43   33700.2    296.7   0.047408753   0.46313   0.51862  -0.43723  -0.05473
  44   33864.0    295.3   0.251785200   2.44775   1.27231  -0.84347   0.34283
  45   34003.3    294.1   0.023305361   0.22564   0.46839  -0.04867   0.06227
  46   34192.2    292.5   0.122652822   1.18094   0.81663   0.41536   0.58441
  47   34376.8    290.9   0.108611258   1.04012   0.72765   0.59264   0.39928
  48   34506.5    289.8   0.038053512   0.36305   0.08198  -0.02184  -0.59654
  49   34733.3    287.9   0.081532834   0.77279  -0.57773  -0.11426   0.65266
  50   35014.4    285.6   0.143375753   1.34805  -0.27643  -0.48207  -1.01943
  51   35306.3    283.2   0.027472858   0.25617  -0.46233  -0.20360   0.03116
  52   36046.4    277.4   0.067135916   0.61315   0.18768  -0.59682   0.47088
  53   36165.6    276.5   0.077673630   0.70706   0.16804   0.65382   0.50134
  54   36379.7    274.9   0.096679842   0.87489  -0.18523   0.13529   0.90679
  55   36468.7    274.2   0.164593490   1.48583  -0.11767  -0.62692  -1.03872
  56   36649.5    272.9   0.028772718   0.25846  -0.03194  -0.50480  -0.05113
  57   37101.4    269.5   0.086197901   0.76486   0.54415   0.30575  -0.61260
  58   37265.6    268.3   0.037720961   0.33323   0.17984  -0.35430   0.41876
  59   37475.5    266.8   0.038201681   0.33559   0.32854  -0.47362  -0.05775
  60   37592.2    266.0   0.149043521   1.30524   0.58160   0.28222   0.94199
  61   37740.1    265.0   0.057549875   0.50202  -0.30009  -0.64068   0.03865
  62   37871.7    264.0   0.058733307   0.51056   0.66776  -0.00605   0.25421
  63   38135.8    262.2   0.010242703   0.08842  -0.16867   0.21843  -0.11072
  64   38182.6    261.9   0.015786143   0.13611   0.25042  -0.26951   0.02762
  65   38250.2    261.4   0.030713559   0.26435  -0.12323  -0.31055  -0.39079
  66   38893.8    257.1   0.137883225   1.16710  -0.18317  -1.06352  -0.04971
  67   38967.8    256.6   0.148942888   1.25832   0.18599   0.79817   0.76593
  68   39219.2    255.0   0.003231216   0.02712   0.11784  -0.11502   0.00228
  69   39547.8    252.9   0.039698359   0.33047  -0.11565   0.54970   0.12217
  70   39679.0    252.0   0.006716552   0.05573   0.18532   0.14088   0.03920
  71   39950.7    250.3   0.119024361   0.98081  -0.42167  -0.19999  -0.87351
  72   40006.6    250.0   0.014059511   0.11569   0.18892  -0.18909  -0.21036
  73   40285.7    248.2   0.036691244   0.29984   0.26221   0.47969   0.03136
  74   40311.2    248.1   0.094402738   0.77096  -0.52550   0.12592  -0.69206

FINAL SINGLE POINT ENERGY     -4114.520686837514

DIPOLE MOMENT
-------------
                                X             Y             Z
Electronic contribution:     18.61885      -1.73362      14.25742
Nuclear contribution   :    -21.72559       1.79227     -15.41139
                        -----------------------------------------
Total Dipole Moment    :     -3.10674       0.05865      -1.15397
                        -----------------------------------------
Magnitude (a.u.)       :      3.31465
Magnitude (Debye)      :      8.42518

Rotational constants in cm-1:     0.001278     0.000203     0.000182
Rotational constants in MHz :    38.327452     6.074080     5.453537

                             ****ORCA TERMINATED NORMALLY****
TOTAL RUN TIME: 0 days 0 hours 13 minutes 42 seconds 654 msec
