                         Program Version 4.2.0 -  RELEASE  -
|  1> # ORCA input file
|  2> # SCF done       -245.044270230934          0.000514956648
|  3> ! CAM-B3LYP def2-SVP def2/J RIJCOSX Grid4 TightSCF
|  4> %maxcore 5000
|  5> %tddft
|  6>     Mode sTDDFT
|  7>     Ethresh 5.0
|  8>     maxcore 5000
|  9> end
| 10>
| 11> %pal
| 12>   nprocs 6
| 13>   end
| 14> * xyz 0 1
| 15>    C       -3.50015         3.63875         0.84499
| 16>    C       -3.95960         4.34319         1.92190
| 17>    F       -3.88710         5.67975         1.93278
| 18>    C       -4.51459         3.67515         3.03300
| 19>    F       -4.95612         4.39228         4.07372
| 20>    C       -4.60172         2.31133         3.05145
| 21>    C       -4.13611         1.55648         1.95702
| 22>    C       -3.57649         2.23085         0.83222
| 23>    C       -3.10740         1.49556        -0.27884
| 24>    C       -3.19810         0.12692        -0.26874
| 25>    C       -3.75151        -0.53811         0.86204
| 26>    C       -4.20893         0.14617         1.95165
| 27>    C       -3.71826        -1.99489         0.64591
| 28>    O       -3.99403        -2.86462         1.43471
| 29>    C       -3.13478        -2.17722        -0.72207
| 30>    C       -2.81770        -0.86596        -1.26597
| 31>    C       -2.32519        -0.60669        -2.51504
| 32>    C       -2.06919         0.68902        -3.01443
| 33>    N       -1.83480         1.71462        -3.47205
| 34>    C       -2.01900        -1.59422        -3.47625
| 35>    N       -1.76148        -2.34882        -4.30167
| 36>    C       -2.88027        -3.39356        -1.24915
| 37>    C       -3.39265        -4.61575        -0.68177
| 38>    S       -2.29071        -5.86346        -0.21760
| 39>    C       -3.58196        -6.89239         0.32724
| 40>    C       -4.80597        -6.28989         0.10098
| 41>    C       -4.69721        -5.00510        -0.47434
| 42>    C       -5.90981        -4.27736        -0.98044
| 43>    F       -5.80978        -2.90899        -0.88964
| 44>    C       -7.18476        -4.74287        -0.26633
| 45>    F       -7.16774        -4.39549         1.05584
| 46>    C       -7.27281        -6.26854        -0.37628
| 47>    F       -7.18246        -6.60063        -1.70904
| 48>    C       -6.13036        -6.90648         0.41832
| 49>    F       -6.12487        -8.26418         0.16733
| 50>    C       -3.32227        -8.14370         0.97152
| 51>    N       -2.31770        -9.00684         0.61278
| 52>    C       -1.39752        -8.90331        -0.49498
| 53>    C       -0.03322        -8.38711        -0.04617
| 54>    C       -2.29954       -10.15997         1.43065
| 55>    O       -1.51749       -11.07408         1.28195
| 56>    C       -3.37243        -9.93845         2.36708
| 57>    C       -3.98645        -8.69762         2.06175
| 58>    C       -5.02932        -8.48912         3.04190
| 59>    O       -5.80034        -7.56783         3.23283
| 60>    N       -5.00035        -9.63869         3.85174
| 61>    C       -5.94315        -9.76889         4.93722
| 62>    C       -7.16221       -10.59289         4.52826
| 63>    C       -4.01047       -10.51063         3.46265
| 64>    C       -3.61113       -11.75340         4.01704
| 65>    C       -4.20058       -12.50641         4.97835
| 66>    C       -3.64786       -13.72843         5.44361
| 67>    S       -2.14020       -14.33248         4.83362
| 68>    C       -2.21169       -15.73765         5.85647
| 69>    C       -3.37090       -15.72678         6.61663
| 70>    C       -4.16621       -14.58982         6.40300
| 71>    C       -5.48368       -14.39886         7.09863
| 72>    F       -5.70774       -13.08405         7.43697
| 73>    C       -5.59021       -15.25837         8.36625
| 74>    F       -4.74370       -14.79810         9.33833
| 75>    C       -5.19781       -16.69918         8.02480
| 76>    F       -5.95847       -17.10452         6.95509
| 77>    C       -3.70632       -16.74028         7.67014
| 78>    F       -3.37945       -18.01714         7.28260
| 79>    C       -1.20483       -16.74211         5.78839
| 80>    C        0.10103       -16.57044         5.46316
| 81>    C        0.91806       -17.72319         4.98054
| 82>    O        0.64094       -18.89431         5.06523
| 83>    C        2.09464       -17.10802         4.33068
| 84>    C        3.09102       -17.70863         3.61601
| 85>    C        4.11596       -16.90959         3.06127
| 86>    C        4.08415       -15.49677         3.25050
| 87>    C        5.10605       -14.70627         2.68704
| 88>    C        6.11505       -15.29057         1.97444
| 89>    C        6.14759       -16.68791         1.79059
| 90>    C        5.16953       -17.48139         2.32140
| 91>    F        7.14888       -17.23300         1.08771
| 92>    F        7.08659       -14.53851         1.44216
| 93>    C        3.04425       -14.90263         4.00063
| 94>    C        2.06941       -15.69879         4.53935
| 95>    C        0.92298       -15.37795         5.38094
| 96>    C        0.80005       -14.26754         6.17225
| 97>    C       -0.18237       -14.16164         7.17880
| 98>    N       -0.94374       -14.08505         8.03422
| 99>    C        1.68873       -13.17412         6.13389
|100>    N        2.38081       -12.25900         6.12595
|101>    H       -3.07985         4.16559         0.00255
|102>    H       -5.02863         1.81507         3.90882
|103>    H       -2.68512         2.03417        -1.11181
|104>    H       -4.62552        -0.38429         2.79419
|105>    H       -2.23991        -3.50390        -2.11532
|106>    H       -6.03275        -4.48652        -2.05588
|107>    H       -8.06013        -4.25336        -0.71175
|108>    H       -8.23768        -6.64978        -0.02392
|109>    H       -6.33805        -6.79935         1.49862
|110>    H       -1.82744        -8.26302        -1.26716
|111>    H       -1.27950        -9.91475        -0.89592
|112>    H       -0.11865        -7.40441         0.41131
|113>    H        0.63143        -8.31822        -0.90219
|114>    H        0.39697        -9.07551         0.67648
|115>    H       -6.26430        -8.75190         5.18162
|116>    H       -5.44207       -10.19453         5.80897
|117>    H       -7.70468       -10.07973         3.73820
|118>    H       -7.82295       -10.71893         5.38130
|119>    H       -6.86993       -11.57352         4.15895
|120>    H       -2.70255       -12.13096         3.56009
|121>    H       -5.12643       -12.20819         5.43892
|122>    H       -6.30897       -14.67949         6.42477
|123>    H       -6.60549       -15.19780         8.77687
|124>    H       -5.41284       -17.39165         8.84650
|125>    H       -3.12321       -16.53454         8.58089
|126>    H       -1.52776       -17.76778         5.93198
|127>    H        3.09827       -18.77883         3.47617
|128>    H        5.09748       -13.63595         2.82138
|129>    H        5.20882       -18.54884         2.17085
|130>    H        3.03532       -13.83121         4.12334
|131> *
|132>
|133>                          ****END OF INPUT****

CARTESIAN COORDINATES (ANGSTROEM)
---------------------------------
  C     -3.500150    3.638750    0.844990
  C     -3.959600    4.343190    1.921900
  F     -3.887100    5.679750    1.932780
  C     -4.514590    3.675150    3.033000
  F     -4.956120    4.392280    4.073720
  C     -4.601720    2.311330    3.051450
  C     -4.136110    1.556480    1.957020
  C     -3.576490    2.230850    0.832220
  C     -3.107400    1.495560   -0.278840
  C     -3.198100    0.126920   -0.268740
  C     -3.751510   -0.538110    0.862040
  C     -4.208930    0.146170    1.951650
  C     -3.718260   -1.994890    0.645910
  O     -3.994030   -2.864620    1.434710
  C     -3.134780   -2.177220   -0.722070
  C     -2.817700   -0.865960   -1.265970
  C     -2.325190   -0.606690   -2.515040
  C     -2.069190    0.689020   -3.014430
  N     -1.834800    1.714620   -3.472050
  C     -2.019000   -1.594220   -3.476250
  N     -1.761480   -2.348820   -4.301670
  C     -2.880270   -3.393560   -1.249150
  C     -3.392650   -4.615750   -0.681770
  S     -2.290710   -5.863460   -0.217600
  C     -3.581960   -6.892390    0.327240
  C     -4.805970   -6.289890    0.100980
  C     -4.697210   -5.005100   -0.474340
  C     -5.909810   -4.277360   -0.980440
  F     -5.809780   -2.908990   -0.889640
  C     -7.184760   -4.742870   -0.266330
  F     -7.167740   -4.395490    1.055840
  C     -7.272810   -6.268540   -0.376280
  F     -7.182460   -6.600630   -1.709040
  C     -6.130360   -6.906480    0.418320
  F     -6.124870   -8.264180    0.167330
  C     -3.322270   -8.143700    0.971520
  N     -2.317700   -9.006840    0.612780
  C     -1.397520   -8.903310   -0.494980
  C     -0.033220   -8.387110   -0.046170
  C     -2.299540  -10.159970    1.430650
  O     -1.517490  -11.074080    1.281950
  C     -3.372430   -9.938450    2.367080
  C     -3.986450   -8.697620    2.061750
  C     -5.029320   -8.489120    3.041900
  O     -5.800340   -7.567830    3.232830
  N     -5.000350   -9.638690    3.851740
  C     -5.943150   -9.768890    4.937220
  C     -7.162210  -10.592890    4.528260
  C     -4.010470  -10.510630    3.462650
  C     -3.611130  -11.753400    4.017040
  C     -4.200580  -12.506410    4.978350
  C     -3.647860  -13.728430    5.443610
  S     -2.140200  -14.332480    4.833620
  C     -2.211690  -15.737650    5.856470
  C     -3.370900  -15.726780    6.616630
  C     -4.166210  -14.589820    6.403000
  C     -5.483680  -14.398860    7.098630
  F     -5.707740  -13.084050    7.436970
  C     -5.590210  -15.258370    8.366250
  F     -4.743700  -14.798100    9.338330
  C     -5.197810  -16.699180    8.024800
  F     -5.958470  -17.104520    6.955090
  C     -3.706320  -16.740280    7.670140
  F     -3.379450  -18.017140    7.282600
  C     -1.204830  -16.742110    5.788390
  C      0.101030  -16.570440    5.463160
  C      0.918060  -17.723190    4.980540
  O      0.640940  -18.894310    5.065230
  C      2.094640  -17.108020    4.330680
  C      3.091020  -17.708630    3.616010
  C      4.115960  -16.909590    3.061270
  C      4.084150  -15.496770    3.250500
  C      5.106050  -14.706270    2.687040
  C      6.115050  -15.290570    1.974440
  C      6.147590  -16.687910    1.790590
  C      5.169530  -17.481390    2.321400
  F      7.148880  -17.233000    1.087710
  F      7.086590  -14.538510    1.442160
  C      3.044250  -14.902630    4.000630
  C      2.069410  -15.698790    4.539350
  C      0.922980  -15.377950    5.380940
  C      0.800050  -14.267540    6.172250
  C     -0.182370  -14.161640    7.178800
  N     -0.943740  -14.085050    8.034220
  C      1.688730  -13.174120    6.133890
  N      2.380810  -12.259000    6.125950
  H     -3.079850    4.165590    0.002550
  H     -5.028630    1.815070    3.908820
  H     -2.685120    2.034170   -1.111810
  H     -4.625520   -0.384290    2.794190
  H     -2.239910   -3.503900   -2.115320
  H     -6.032750   -4.486520   -2.055880
  H     -8.060130   -4.253360   -0.711750
  H     -8.237680   -6.649780   -0.023920
  H     -6.338050   -6.799350    1.498620
  H     -1.827440   -8.263020   -1.267160
  H     -1.279500   -9.914750   -0.895920
  H     -0.118650   -7.404410    0.411310
  H      0.631430   -8.318220   -0.902190
  H      0.396970   -9.075510    0.676480
  H     -6.264300   -8.751900    5.181620
  H     -5.442070  -10.194530    5.808970
  H     -7.704680  -10.079730    3.738200
  H     -7.822950  -10.718930    5.381300
  H     -6.869930  -11.573520    4.158950
  H     -2.702550  -12.130960    3.560090
  H     -5.126430  -12.208190    5.438920
  H     -6.308970  -14.679490    6.424770
  H     -6.605490  -15.197800    8.776870
  H     -5.412840  -17.391650    8.846500
  H     -3.123210  -16.534540    8.580890
  H     -1.527760  -17.767780    5.931980
  H      3.098270  -18.778830    3.476170
  H      5.097480  -13.635950    2.821380
  H      5.208820  -18.548840    2.170850
  H      3.035320  -13.831210    4.123340

 Total Charge           Charge          ....    0
 Multiplicity           Mult            ....    1
 Number of Electrons    NEL             ....  616
 Basis Dimension        Dim             .... 1362

ORBITAL ENERGIES
----------------

  NO   OCC          E(Eh)            E(eV)
   0   2.0000     -88.982503     -2421.3370
   1   2.0000     -88.978344     -2421.2238
   2   2.0000     -24.802724      -674.9164
   3   2.0000     -24.802112      -674.8998
   4   2.0000     -24.798929      -674.8132
   5   2.0000     -24.798399      -674.7987
   6   2.0000     -24.783968      -674.4060
   7   2.0000     -24.781297      -674.3334
   8   2.0000     -24.778761      -674.2644
   9   2.0000     -24.776212      -674.1950
  10   2.0000     -24.775927      -674.1873
  11   2.0000     -24.774289      -674.1427
  12   2.0000     -24.773991      -674.1346
  13   2.0000     -24.759538      -673.7413
  14   2.0000     -19.221715      -523.0495
  15   2.0000     -19.219213      -522.9814
  16   2.0000     -19.197124      -522.3803
  17   2.0000     -19.197044      -522.3781
  18   2.0000     -14.461140      -393.5076
  19   2.0000     -14.459028      -393.4502
  20   2.0000     -14.427199      -392.5841
  21   2.0000     -14.426087      -392.5538
  22   2.0000     -14.419495      -392.3744
  23   2.0000     -14.418695      -392.3526
  24   2.0000     -10.386623      -282.6344
  25   2.0000     -10.385938      -282.6157
  26   2.0000     -10.382262      -282.5157
  27   2.0000     -10.381851      -282.5045
  28   2.0000     -10.379947      -282.4527
  29   2.0000     -10.378930      -282.4251
  30   2.0000     -10.378456      -282.4122
  31   2.0000     -10.376587      -282.3613
  32   2.0000     -10.376430      -282.3570
  33   2.0000     -10.375498      -282.3317
  34   2.0000     -10.373897      -282.2881
  35   2.0000     -10.373532      -282.2782
  36   2.0000     -10.370759      -282.2027
  37   2.0000     -10.369203      -282.1604
  38   2.0000     -10.366054      -282.0747
  39   2.0000     -10.355936      -281.7993
  40   2.0000     -10.355704      -281.7930
  41   2.0000     -10.353853      -281.7427
  42   2.0000     -10.351533      -281.6795
  43   2.0000     -10.347983      -281.5829
  44   2.0000     -10.345239      -281.5083
  45   2.0000     -10.344045      -281.4758
  46   2.0000     -10.330873      -281.1173
  47   2.0000     -10.329633      -281.0836
  48   2.0000     -10.329395      -281.0771
  49   2.0000     -10.329259      -281.0734
  50   2.0000     -10.329108      -281.0693
  51   2.0000     -10.328039      -281.0402
  52   2.0000     -10.327876      -281.0358
  53   2.0000     -10.323354      -280.9127
  54   2.0000     -10.321540      -280.8634
  55   2.0000     -10.320607      -280.8380
  56   2.0000     -10.316370      -280.7227
  57   2.0000     -10.316080      -280.7148
  58   2.0000     -10.314828      -280.6807
  59   2.0000     -10.313483      -280.6441
  60   2.0000     -10.312316      -280.6124
  61   2.0000     -10.312074      -280.6058
  62   2.0000     -10.311734      -280.5965
  63   2.0000     -10.311284      -280.5843
  64   2.0000     -10.310157      -280.5536
  65   2.0000     -10.309988      -280.5490
  66   2.0000     -10.309219      -280.5281
  67   2.0000     -10.307743      -280.4880
  68   2.0000     -10.307559      -280.4830
  69   2.0000     -10.307303      -280.4760
  70   2.0000     -10.306607      -280.4570
  71   2.0000     -10.306549      -280.4555
  72   2.0000     -10.305757      -280.4339
  73   2.0000     -10.305375      -280.4235
  74   2.0000     -10.304569      -280.4016
  75   2.0000     -10.304111      -280.3891
  76   2.0000     -10.303795      -280.3805
  77   2.0000     -10.302943      -280.3573
  78   2.0000     -10.302067      -280.3335
  79   2.0000     -10.301195      -280.3098
  80   2.0000     -10.299091      -280.2525
  81   2.0000     -10.296111      -280.1714
  82   2.0000     -10.267907      -279.4039
  83   2.0000     -10.267092      -279.3818
  84   2.0000     -10.266889      -279.3763
  85   2.0000     -10.262232      -279.2495
  86   2.0000      -8.077687      -219.8050
  87   2.0000      -8.073173      -219.6822
  88   2.0000      -6.047092      -164.5497
  89   2.0000      -6.042641      -164.4286
  90   2.0000      -6.042363      -164.4210
  91   2.0000      -6.039812      -164.3517
  92   2.0000      -6.038360      -164.3121
  93   2.0000      -6.035348      -164.2302
  94   2.0000      -1.325664       -36.0731
  95   2.0000      -1.321779       -35.9674
  96   2.0000      -1.310725       -35.6666
  97   2.0000      -1.306920       -35.5631
  98   2.0000      -1.305517       -35.5249
  99   2.0000      -1.298792       -35.3419
 100   2.0000      -1.297693       -35.3120
 101   2.0000      -1.289098       -35.0781
 102   2.0000      -1.286150       -34.9979
 103   2.0000      -1.285096       -34.9692
 104   2.0000      -1.281905       -34.8824
 105   2.0000      -1.267516       -34.4909
 106   2.0000      -1.139908       -31.0185
 107   2.0000      -1.139079       -30.9959
 108   2.0000      -1.135308       -30.8933
 109   2.0000      -1.133259       -30.8375
 110   2.0000      -1.070686       -29.1348
 111   2.0000      -1.061330       -28.8803
 112   2.0000      -1.029372       -28.0106
 113   2.0000      -1.026060       -27.9205
 114   2.0000      -1.014858       -27.6157
 115   2.0000      -1.014198       -27.5977
 116   2.0000      -1.011520       -27.5249
 117   2.0000      -1.006010       -27.3749
 118   2.0000      -1.004922       -27.3453
 119   2.0000      -0.997117       -27.1329
 120   2.0000      -0.988049       -26.8862
 121   2.0000      -0.983680       -26.7673
 122   2.0000      -0.940772       -25.5997
 123   2.0000      -0.938924       -25.5494
 124   2.0000      -0.936962       -25.4960
 125   2.0000      -0.933762       -25.4090
 126   2.0000      -0.928595       -25.2683
 127   2.0000      -0.923441       -25.1281
 128   2.0000      -0.918197       -24.9854
 129   2.0000      -0.903708       -24.5911
 130   2.0000      -0.900212       -24.4960
 131   2.0000      -0.895518       -24.3683
 132   2.0000      -0.894107       -24.3299
 133   2.0000      -0.886496       -24.1228
 134   2.0000      -0.877560       -23.8796
 135   2.0000      -0.863712       -23.5028
 136   2.0000      -0.863516       -23.4975
 137   2.0000      -0.853090       -23.2137
 138   2.0000      -0.851469       -23.1696
 139   2.0000      -0.846474       -23.0337
 140   2.0000      -0.842195       -22.9173
 141   2.0000      -0.839862       -22.8538
 142   2.0000      -0.832669       -22.6581
 143   2.0000      -0.824452       -22.4345
 144   2.0000      -0.815879       -22.2012
 145   2.0000      -0.807924       -21.9847
 146   2.0000      -0.781428       -21.2637
 147   2.0000      -0.774692       -21.0805
 148   2.0000      -0.770085       -20.9551
 149   2.0000      -0.767286       -20.8789
 150   2.0000      -0.763724       -20.7820
 151   2.0000      -0.753520       -20.5043
 152   2.0000      -0.745969       -20.2989
 153   2.0000      -0.744243       -20.2519
 154   2.0000      -0.741921       -20.1887
 155   2.0000      -0.726144       -19.7594
 156   2.0000      -0.722633       -19.6638
 157   2.0000      -0.719571       -19.5805
 158   2.0000      -0.718941       -19.5634
 159   2.0000      -0.715935       -19.4816
 160   2.0000      -0.713360       -19.4115
 161   2.0000      -0.703043       -19.1308
 162   2.0000      -0.694105       -18.8876
 163   2.0000      -0.690233       -18.7822
 164   2.0000      -0.687420       -18.7057
 165   2.0000      -0.685419       -18.6512
 166   2.0000      -0.676052       -18.3963
 167   2.0000      -0.671494       -18.2723
 168   2.0000      -0.665622       -18.1125
 169   2.0000      -0.661213       -17.9925
 170   2.0000      -0.656954       -17.8766
 171   2.0000      -0.655503       -17.8371
 172   2.0000      -0.655132       -17.8270
 173   2.0000      -0.648914       -17.6578
 174   2.0000      -0.647352       -17.6153
 175   2.0000      -0.647193       -17.6110
 176   2.0000      -0.643106       -17.4998
 177   2.0000      -0.637283       -17.3414
 178   2.0000      -0.634213       -17.2578
 179   2.0000      -0.627735       -17.0815
 180   2.0000      -0.626521       -17.0485
 181   2.0000      -0.619007       -16.8440
 182   2.0000      -0.617387       -16.7999
 183   2.0000      -0.615493       -16.7484
 184   2.0000      -0.611118       -16.6294
 185   2.0000      -0.608457       -16.5570
 186   2.0000      -0.607119       -16.5205
 187   2.0000      -0.602507       -16.3951
 188   2.0000      -0.601285       -16.3618
 189   2.0000      -0.598814       -16.2945
 190   2.0000      -0.598300       -16.2806
 191   2.0000      -0.592415       -16.1204
 192   2.0000      -0.590790       -16.0762
 193   2.0000      -0.590029       -16.0555
 194   2.0000      -0.586224       -15.9520
 195   2.0000      -0.585329       -15.9276
 196   2.0000      -0.584631       -15.9086
 197   2.0000      -0.582063       -15.8387
 198   2.0000      -0.581500       -15.8234
 199   2.0000      -0.578237       -15.7346
 200   2.0000      -0.577003       -15.7010
 201   2.0000      -0.571249       -15.5445
 202   2.0000      -0.568828       -15.4786
 203   2.0000      -0.567994       -15.4559
 204   2.0000      -0.562615       -15.3095
 205   2.0000      -0.562454       -15.3052
 206   2.0000      -0.559799       -15.2329
 207   2.0000      -0.558076       -15.1860
 208   2.0000      -0.555240       -15.1089
 209   2.0000      -0.553910       -15.0726
 210   2.0000      -0.551531       -15.0079
 211   2.0000      -0.547859       -14.9080
 212   2.0000      -0.546222       -14.8635
 213   2.0000      -0.544089       -14.8054
 214   2.0000      -0.541418       -14.7327
 215   2.0000      -0.538472       -14.6526
 216   2.0000      -0.538050       -14.6411
 217   2.0000      -0.537442       -14.6245
 218   2.0000      -0.535536       -14.5727
 219   2.0000      -0.533382       -14.5141
 220   2.0000      -0.532626       -14.4935
 221   2.0000      -0.531627       -14.4663
 222   2.0000      -0.527270       -14.3477
 223   2.0000      -0.524817       -14.2810
 224   2.0000      -0.524131       -14.2623
 225   2.0000      -0.523697       -14.2505
 226   2.0000      -0.522554       -14.2194
 227   2.0000      -0.517453       -14.0806
 228   2.0000      -0.516758       -14.0617
 229   2.0000      -0.515011       -14.0142
 230   2.0000      -0.512692       -13.9511
 231   2.0000      -0.510448       -13.8900
 232   2.0000      -0.509453       -13.8629
 233   2.0000      -0.507860       -13.8196
 234   2.0000      -0.506393       -13.7797
 235   2.0000      -0.504488       -13.7278
 236   2.0000      -0.502610       -13.6767
 237   2.0000      -0.502286       -13.6679
 238   2.0000      -0.499598       -13.5947
 239   2.0000      -0.497441       -13.5361
 240   2.0000      -0.495882       -13.4936
 241   2.0000      -0.489861       -13.3298
 242   2.0000      -0.488163       -13.2836
 243   2.0000      -0.487839       -13.2748
 244   2.0000      -0.484415       -13.1816
 245   2.0000      -0.482815       -13.1381
 246   2.0000      -0.478855       -13.0303
 247   2.0000      -0.475624       -12.9424
 248   2.0000      -0.474127       -12.9017
 249   2.0000      -0.472630       -12.8609
 250   2.0000      -0.470209       -12.7950
 251   2.0000      -0.468803       -12.7568
 252   2.0000      -0.468166       -12.7395
 253   2.0000      -0.466167       -12.6850
 254   2.0000      -0.463669       -12.6171
 255   2.0000      -0.461629       -12.5616
 256   2.0000      -0.459987       -12.5169
 257   2.0000      -0.459110       -12.4930
 258   2.0000      -0.456554       -12.4235
 259   2.0000      -0.455043       -12.3823
 260   2.0000      -0.454076       -12.3560
 261   2.0000      -0.454036       -12.3550
 262   2.0000      -0.453154       -12.3310
 263   2.0000      -0.452475       -12.3125
 264   2.0000      -0.449629       -12.2350
 265   2.0000      -0.447706       -12.1827
 266   2.0000      -0.446583       -12.1522
 267   2.0000      -0.444854       -12.1051
 268   2.0000      -0.439982       -11.9725
 269   2.0000      -0.438405       -11.9296
 270   2.0000      -0.436527       -11.8785
 271   2.0000      -0.435558       -11.8521
 272   2.0000      -0.433302       -11.7908
 273   2.0000      -0.431439       -11.7400
 274   2.0000      -0.430547       -11.7158
 275   2.0000      -0.429056       -11.6752
 276   2.0000      -0.428840       -11.6693
 277   2.0000      -0.423732       -11.5303
 278   2.0000      -0.422465       -11.4959
 279   2.0000      -0.419895       -11.4259
 280   2.0000      -0.419791       -11.4231
 281   2.0000      -0.418646       -11.3919
 282   2.0000      -0.415089       -11.2952
 283   2.0000      -0.411032       -11.1848
 284   2.0000      -0.410213       -11.1625
 285   2.0000      -0.407440       -11.0870
 286   2.0000      -0.401158       -10.9161
 287   2.0000      -0.399640       -10.8748
 288   2.0000      -0.399553       -10.8724
 289   2.0000      -0.389547       -10.6001
 290   2.0000      -0.388895       -10.5824
 291   2.0000      -0.377095       -10.2613
 292   2.0000      -0.357068        -9.7163
 293   2.0000      -0.352737        -9.5985
 294   2.0000      -0.351776        -9.5723
 295   2.0000      -0.347050        -9.4437
 296   2.0000      -0.340133        -9.2555
 297   2.0000      -0.339467        -9.2374
 298   2.0000      -0.335814        -9.1380
 299   2.0000      -0.331434        -9.0188
 300   2.0000      -0.323383        -8.7997
 301   2.0000      -0.320150        -8.7117
 302   2.0000      -0.318156        -8.6575
 303   2.0000      -0.310353        -8.4451
 304   2.0000      -0.304114        -8.2754
 305   2.0000      -0.302966        -8.2441
 306   2.0000      -0.293173        -7.9776
 307   2.0000      -0.244533        -6.6541
 308   0.0000      -0.111265        -3.0277
 309   0.0000      -0.100591        -2.7372
 310   0.0000      -0.076731        -2.0880
 311   0.0000      -0.062697        -1.7061
 312   0.0000      -0.058036        -1.5792

MULLIKEN ATOMIC CHARGES
-----------------------
   0 C :   -0.109294
   1 C :    0.243381
   2 F :   -0.168834
   3 C :    0.240857
   4 F :   -0.169636
   5 C :   -0.104317
   6 C :    0.118288
   7 C :    0.116724
   8 C :   -0.087400
   9 C :    0.053814
  10 C :   -0.011270
  11 C :   -0.074396
  12 C :    0.152878
  13 O :   -0.119040
  14 C :   -0.052086
  15 C :    0.320466
  16 C :   -0.336639
  17 C :   -0.178913
  18 N :    0.155375
  19 C :   -0.199425
  20 N :    0.165311
  21 C :   -0.046449
  22 C :   -0.139066
  23 S :    0.166723
  24 C :   -0.209858
  25 C :   -0.033568
  26 C :   -0.012538
  27 C :    0.325810
  28 F :   -0.230928
  29 C :    0.184045
  30 F :   -0.224109
  31 C :    0.181305
  32 F :   -0.243171
  33 C :    0.316267
  34 F :   -0.243682
  35 C :    0.123689
  36 N :   -0.265909
  37 C :    0.094879
  38 C :    0.000374
  39 C :    0.157955
  40 O :   -0.191328
  41 C :   -0.054213
  42 C :   -0.006927
  43 C :    0.154940
  44 O :   -0.216813
  45 N :   -0.262594
  46 C :    0.096072
  47 C :    0.007146
  48 C :    0.124361
  49 C :   -0.037772
  50 C :    0.000859
  51 C :   -0.086050
  52 S :    0.165171
  53 C :   -0.191848
  54 C :    0.025056
  55 C :   -0.062721
  56 C :    0.328917
  57 F :   -0.234003
  58 C :    0.186108
  59 F :   -0.227386
  60 C :    0.170450
  61 F :   -0.238270
  62 C :    0.337342
  63 F :   -0.230445
  64 C :    0.035043
  65 C :   -0.128907
  66 C :    0.142377
  67 O :   -0.131918
  68 C :    0.010165
  69 C :   -0.082124
  70 C :    0.113220
  71 C :    0.112346
  72 C :   -0.106975
  73 C :    0.242385
  74 C :    0.241663
  75 C :   -0.106835
  76 F :   -0.171520
  77 F :   -0.170619
  78 C :   -0.078513
  79 C :    0.040935
  80 C :    0.243294
  81 C :   -0.317002
  82 C :   -0.186335
  83 N :    0.167703
  84 C :   -0.175119
  85 N :    0.159443
  86 H :    0.007904
  87 H :    0.002572
  88 H :   -0.005064
  89 H :   -0.004996
  90 H :    0.047955
  91 H :    0.045587
  92 H :    0.024159
  93 H :    0.024405
  94 H :    0.078229
  95 H :    0.033754
  96 H :    0.037341
  97 H :    0.016622
  98 H :    0.024676
  99 H :    0.038238
 100 H :    0.043157
 101 H :    0.035159
 102 H :    0.027911
 103 H :    0.024728
 104 H :    0.016084
 105 H :    0.016739
 106 H :   -0.001704
 107 H :    0.040496
 108 H :    0.026837
 109 H :    0.032494
 110 H :    0.054187
 111 H :    0.044216
 112 H :   -0.006699
 113 H :    0.007097
 114 H :    0.001218
 115 H :    0.000325
Sum of atomic charges:    0.0000000

LOEWDIN ATOMIC CHARGES
----------------------
   0 C :   -0.029041
   1 C :    0.067878
   2 F :   -0.046817
   3 C :    0.069357
   4 F :   -0.047108
   5 C :   -0.031934
   6 C :   -0.006673
   7 C :   -0.005516
   8 C :    0.018986
   9 C :   -0.023214
  10 C :   -0.051190
  11 C :    0.034901
  12 C :    0.079600
  13 O :   -0.118113
  14 C :   -0.059891
  15 C :    0.073616
  16 C :   -0.126115
  17 C :   -0.017284
  18 N :   -0.044107
  19 C :   -0.020166
  20 N :   -0.042831
  21 C :    0.035433
  22 C :   -0.160413
  23 S :    0.496301
  24 C :   -0.174986
  25 C :   -0.039960
  26 C :   -0.055441
  27 C :    0.097571
  28 F :   -0.104621
  29 C :    0.083016
  30 F :   -0.100211
  31 C :    0.086836
  32 F :   -0.115445
  33 C :    0.087929
  34 F :   -0.114381
  35 C :    0.067876
  36 N :   -0.000050
  37 C :    0.029281
  38 C :   -0.064612
  39 C :    0.081653
  40 O :   -0.191593
  41 C :   -0.108295
  42 C :   -0.119664
  43 C :    0.090431
  44 O :   -0.192923
  45 N :    0.002053
  46 C :    0.035936
  47 C :   -0.062584
  48 C :    0.070265
  49 C :   -0.023028
  50 C :   -0.025630
  51 C :   -0.137782
  52 S :    0.494156
  53 C :   -0.170352
  54 C :   -0.040910
  55 C :   -0.069852
  56 C :    0.096733
  57 F :   -0.109775
  58 C :    0.084864
  59 F :   -0.101126
  60 C :    0.086053
  61 F :   -0.110650
  62 C :    0.099696
  63 F :   -0.105589
  64 C :    0.048226
  65 C :   -0.088354
  66 C :    0.083814
  67 O :   -0.133250
  68 C :   -0.054373
  69 C :    0.031408
  70 C :   -0.008816
  71 C :   -0.004838
  72 C :   -0.029789
  73 C :    0.067498
  74 C :    0.067475
  75 C :   -0.032706
  76 F :   -0.048908
  77 F :   -0.048224
  78 C :    0.016257
  79 C :   -0.019793
  80 C :    0.059975
  81 C :   -0.135832
  82 C :   -0.026702
  83 N :   -0.048844
  84 C :   -0.019187
  85 N :   -0.046770
  86 H :    0.048039
  87 H :    0.046150
  88 H :    0.040179
  89 H :    0.042849
  90 H :    0.047495
  91 H :    0.037918
  92 H :    0.027550
  93 H :    0.029092
  94 H :    0.037433
  95 H :    0.018500
  96 H :    0.036700
  97 H :    0.011611
  98 H :    0.031407
  99 H :    0.033265
 100 H :    0.037962
 101 H :    0.026672
 102 H :    0.032651
 103 H :    0.031635
 104 H :    0.020144
 105 H :    0.038198
 106 H :    0.032574
 107 H :    0.034258
 108 H :    0.028852
 109 H :    0.030775
 110 H :    0.042131
 111 H :    0.052083
 112 H :    0.041314
 113 H :    0.047687
 114 H :    0.045269
 115 H :    0.040792

  Mayer bond orders larger than 0.100000
B(  0-C ,  1-C ) :   1.4436 B(  0-C ,  5-C ) :   0.1088 B(  0-C ,  7-C ) :   1.1849
B(  0-C , 86-H ) :   1.0068 B(  1-C ,  2-F ) :   1.1378 B(  1-C ,  3-C ) :   1.1882
B(  3-C ,  4-F ) :   1.1350 B(  3-C ,  5-C ) :   1.4445 B(  5-C ,  6-C ) :   1.1901
B(  5-C , 87-H ) :   1.0070 B(  6-C ,  7-C ) :   1.2513 B(  6-C , 11-C ) :   1.1920
B(  7-C ,  8-C ) :   1.2259 B(  8-C ,  9-C ) :   1.4372 B(  8-C , 88-H ) :   0.9892
B(  9-C , 10-C ) :   1.2208 B(  9-C , 15-C ) :   0.9982 B( 10-C , 11-C ) :   1.4723
B( 10-C , 12-C ) :   0.9367 B( 11-C , 89-H ) :   1.0165 B( 12-C , 13-O ) :   2.2629
B( 12-C , 14-C ) :   0.9042 B( 14-C , 15-C ) :   1.0421 B( 14-C , 21-C ) :   1.7535
B( 15-C , 16-C ) :   1.6611 B( 16-C , 17-C ) :   1.1372 B( 16-C , 19-C ) :   1.1452
B( 17-C , 18-N ) :   2.9663 B( 19-C , 20-N ) :   2.9806 B( 21-C , 22-C ) :   1.0103
B( 21-C , 90-H ) :   0.9337 B( 22-C , 23-S ) :   1.1357 B( 22-C , 24-C ) :   0.1150
B( 22-C , 26-C ) :   1.5749 B( 23-S , 24-C ) :   1.1308 B( 24-C , 25-C ) :   1.5536
B( 24-C , 35-C ) :   1.0589 B( 25-C , 26-C ) :   1.3041 B( 25-C , 33-C ) :   0.9526
B( 26-C , 27-C ) :   0.9493 B( 27-C , 28-F ) :   1.0174 B( 27-C , 29-C ) :   0.9926
B( 27-C , 91-H ) :   0.9202 B( 29-C , 30-F ) :   1.0331 B( 29-C , 31-C ) :   0.9973
B( 29-C , 92-H ) :   0.9313 B( 31-C , 32-F ) :   1.0032 B( 31-C , 33-C ) :   0.9870
B( 31-C , 93-H ) :   0.9295 B( 33-C , 34-F ) :   1.0278 B( 33-C , 94-H ) :   0.8733
B( 35-C , 36-N ) :   1.2135 B( 35-C , 42-C ) :   1.3943 B( 36-N , 37-C ) :   0.9407
B( 36-N , 39-C ) :   1.0209 B( 37-C , 38-C ) :   1.1149 B( 37-C , 95-H ) :   0.9468
B( 37-C , 96-H ) :   0.9303 B( 38-C , 97-H ) :   0.9630 B( 38-C , 98-H ) :   0.9666
B( 38-C , 99-H ) :   0.9638 B( 39-C , 40-O ) :   2.1203 B( 39-C , 41-C ) :   0.9847
B( 41-C , 42-C ) :   1.2248 B( 41-C , 48-C ) :   1.3571 B( 42-C , 43-C ) :   0.9806
B( 43-C , 44-O ) :   2.0102 B( 43-C , 45-N ) :   1.0643 B( 44-O , 94-H ) :   0.1087
B( 45-N , 46-C ) :   0.9400 B( 45-N , 48-C ) :   1.1613 B( 46-C , 47-C ) :   1.1185
B( 46-C ,100-H ) :   0.9248 B( 46-C ,101-H ) :   0.9514 B( 47-C ,102-H ) :   0.9600
B( 47-C ,103-H ) :   0.9688 B( 47-C ,104-H ) :   0.9664 B( 48-C , 49-C ) :   1.1884
B( 49-C , 50-C ) :   1.5653 B( 49-C ,105-H ) :   0.9433 B( 50-C , 51-C ) :   1.1677
B( 50-C ,106-H ) :   0.9658 B( 51-C , 52-S ) :   1.1388 B( 51-C , 55-C ) :   1.4830
B( 52-S , 53-C ) :   1.1331 B( 53-C , 54-C ) :   1.4941 B( 53-C , 64-C ) :   1.0927
B( 54-C , 55-C ) :   1.3376 B( 54-C , 62-C ) :   0.9455 B( 55-C , 56-C ) :   0.9467
B( 56-C , 57-F ) :   1.0153 B( 56-C , 58-C ) :   0.9922 B( 56-C ,107-H ) :   0.9208
B( 58-C , 59-F ) :   1.0273 B( 58-C , 60-C ) :   0.9975 B( 58-C ,108-H ) :   0.9306
B( 60-C , 61-F ) :   1.0109 B( 60-C , 62-C ) :   0.9911 B( 60-C ,109-H ) :   0.9329
B( 62-C , 63-F ) :   1.0270 B( 62-C ,110-H ) :   0.9158 B( 64-C , 65-C ) :   1.6686
B( 64-C ,111-H ) :   0.9452 B( 65-C , 66-C ) :   0.9303 B( 65-C , 80-C ) :   1.0279
B( 66-C , 67-O ) :   2.2855 B( 66-C , 68-C ) :   0.9161 B( 68-C , 69-C ) :   1.4745
B( 68-C , 79-C ) :   1.2186 B( 69-C , 70-C ) :   1.1964 B( 69-C ,112-H ) :   1.0159
B( 70-C , 71-C ) :   1.2554 B( 70-C , 75-C ) :   1.1936 B( 71-C , 72-C ) :   1.1881
B( 71-C , 78-C ) :   1.2166 B( 72-C , 73-C ) :   1.4424 B( 72-C , 75-C ) :   0.1088
B( 72-C ,113-H ) :   1.0072 B( 73-C , 74-C ) :   1.1900 B( 73-C , 77-F ) :   1.1351
B( 74-C , 75-C ) :   1.4442 B( 74-C , 76-F ) :   1.1331 B( 75-C ,114-H ) :   1.0070
B( 78-C , 79-C ) :   1.4556 B( 78-C ,115-H ) :   0.9947 B( 79-C , 80-C ) :   1.0046
B( 80-C , 81-C ) :   1.6718 B( 81-C , 82-C ) :   1.1559 B( 81-C , 84-C ) :   1.1339
B( 82-C , 83-N ) :   3.0061 B( 84-C , 85-N ) :   2.9923

-----------------------------------------------------------------------------
         ABSORPTION SPECTRUM VIA TRANSITION ELECTRIC DIPOLE MOMENTS
-----------------------------------------------------------------------------
State   Energy  Wavelength   fosc         T2         TX        TY        TZ
        (cm-1)    (nm)                  (au**2)     (au)      (au)      (au)
-----------------------------------------------------------------------------
   0   14274.1    700.6   0.737323883  17.00535   0.83736  -3.43070   2.12943
   1   18114.3    552.1   0.177908621   3.23335   1.29726   1.14217  -0.49589
   2   22299.0    448.5   0.241393866   3.56383   1.21278   0.72089  -1.25432
   3   23740.3    421.2   0.167790668   2.32679  -1.42547   0.35695  -0.40917
   4   24498.6    408.2   0.147986412   1.98864  -0.03572   1.34531  -0.42130
   5   26027.5    384.2   0.042642014   0.53936  -0.61662   0.19973   0.34533
   6   26551.9    376.6   0.079087688   0.98059  -0.64088   0.74943   0.09063
   7   26797.5    373.2   0.025308100   0.31091  -0.04906  -0.54081   0.12660
   8   27086.7    369.2   0.042866473   0.52100  -0.02757   0.14769   0.70599
   9   27644.0    361.7   0.194039753   2.31082   1.21069  -0.28890  -0.87268
  10   28020.2    356.9   0.066293638   0.77889   0.54368  -0.59572  -0.35837
  11   28863.5    346.5   0.026977789   0.30770  -0.32035  -0.30287   0.33668
  12   29056.7    344.2   0.077329174   0.87614  -0.21703   0.24004   0.87830
  13   29179.0    342.7   0.069990149   0.78966  -0.66793   0.15892   0.56416
  14   29692.9    336.8   0.447497300   4.96151  -0.43410   2.18435   0.04103
  15   29987.7    333.5   0.094656936   1.03917  -0.08048   1.01578   0.02979
  16   30911.5    323.5   0.017294713   0.18419   0.35994  -0.15805  -0.17221
  17   31415.1    318.3   0.002296757   0.02407   0.01037   0.13390   0.07767
  18   31438.8    318.1   0.022725234   0.23797   0.14181   0.45204   0.11626
  19   32016.4    312.3   0.051052869   0.52496  -0.48133  -0.40581   0.35860
  20   32670.1    306.1   0.047214117   0.47577  -0.20255  -0.65905  -0.01986
  21   33211.0    301.1   0.012801206   0.12689   0.31886  -0.15095  -0.04936
  22   33652.7    297.2   0.544227576   5.32398   1.50763  -1.40546  -1.03717
  23   33795.4    295.9   0.005840508   0.05689  -0.12480   0.00071   0.20327
  24   34044.2    293.7   0.159396675   1.54139   0.74835   0.07967  -0.98743
  25   34325.1    291.3   0.793873602   7.61403   0.70186  -1.61322  -2.12578
  26   34655.4    288.6   0.149781449   1.42286  -0.65885  -0.16969   0.97979
  27   34817.5    287.2   0.057098867   0.53989   0.64291   0.05802  -0.35098
  28   35224.6    283.9   0.047698515   0.44579   0.14292  -0.57320   0.31114
  29   35830.9    279.1   0.008117531   0.07458  -0.02076  -0.25053   0.10672
  30   35950.5    278.2   0.021509938   0.19697   0.32617  -0.04575  -0.29748
  31   36259.5    275.8   0.266757859   2.42198   1.10694  -0.29328  -1.05388
  32   36758.1    272.0   0.046005905   0.41204  -0.58237  -0.19709   0.18449
  33   36992.9    270.3   0.016625147   0.14795   0.00518  -0.38391  -0.02318
  34   37274.3    268.3   0.052396183   0.46277   0.30950  -0.36765  -0.48147
  35   37343.8    267.8   0.029818198   0.26287  -0.12678  -0.19763   0.45578
  36   37471.5    266.9   0.034448293   0.30265  -0.30555   0.43898   0.12879
  37   37830.0    264.3   0.091099925   0.79279  -0.40414  -0.24824   0.75354
  38   38136.1    262.2   0.085960052   0.74205  -0.16540  -0.64575  -0.54562
  39   38406.2    260.4   0.006209685   0.05323   0.22260  -0.06034   0.00620
  40   38557.1    259.4   0.072697102   0.62071  -0.16914   0.73500   0.22777
  41   39079.4    255.9   0.044695816   0.37653   0.23578  -0.41963  -0.38058
  42   39217.9    255.0   0.361799230   3.03710   0.01121   1.69341  -0.41150
  43   39670.2    252.1   0.121919001   1.01177  -0.56328   0.78418   0.28205
  44   40012.2    249.9   0.296673633   2.44097   0.73704   1.27185  -0.52927
  45   40297.1    248.2   0.037141803   0.30343  -0.10673   0.53941  -0.03280

FINAL SINGLE POINT ENERGY     -4999.247618771399

DIPOLE MOMENT
-------------
                                X             Y             Z
Electronic contribution:     10.46368      14.27020       1.53249
Nuclear contribution   :    -12.28121     -14.94745      -0.89881
                        -----------------------------------------
Total Dipole Moment    :     -1.81753      -0.67725       0.63368
                        -----------------------------------------
Magnitude (a.u.)       :      2.04050
Magnitude (Debye)      :      5.18653

Rotational constants in cm-1:     0.000914     0.000240     0.000212
Rotational constants in MHz :    27.394504     7.199530     6.355144

                             ****ORCA TERMINATED NORMALLY****
TOTAL RUN TIME: 0 days 0 hours 12 minutes 43 seconds 756 msec
