                         Program Version 4.2.0 -  RELEASE  -
|  1> # ORCA input file
|  2> # SCF done       -219.746554888837          0.000836440243
|  3> ! CAM-B3LYP def2-SVP def2/J RIJCOSX Grid4 TightSCF
|  4> %maxcore 5000
|  5> %tddft
|  6>     Mode sTDDFT
|  7>     Ethresh 5.0
|  8>     maxcore 5000
|  9> end
| 10>
| 11> %pal
| 12>   nprocs 6
| 13>   end
| 14> * xyz 0 1
| 15>    C       -0.48043         2.25601        -0.17595
| 16>    C        0.65149         2.51309        -0.89717
| 17>    F        0.92737         3.76171        -1.29486
| 18>    C        1.54188         1.47234        -1.23085
| 19>    F        2.64410         1.75444        -1.93789
| 20>    C        1.28801         0.18841        -0.83751
| 21>    C        0.13119        -0.10833        -0.09082
| 22>    C       -0.77143         0.94259         0.24506
| 23>    C       -1.94009         0.66807         0.99118
| 24>    C       -2.19578        -0.61772         1.39043
| 25>    C       -1.28426        -1.65808         1.05984
| 26>    C       -0.14947        -1.42445         0.33784
| 27>    C       -1.76407        -2.93960         1.61522
| 28>    O       -1.20747        -4.00945         1.52625
| 29>    C       -3.00369        -2.59976         2.36978
| 30>    C       -3.29504        -1.19350         2.15663
| 31>    C       -4.43879        -0.53911         2.53104
| 32>    C       -5.53030        -1.14097         3.19347
| 33>    N       -6.45665        -1.56730         3.72079
| 34>    C       -4.68822         0.82458         2.26864
| 35>    N       -4.94285         1.92952         2.09141
| 36>    C       -3.60560        -3.40195         3.29446
| 37>    C       -3.39988        -4.79331         3.48232
| 38>    C       -3.04991        -5.75905         2.56586
| 39>    C       -2.98019        -7.02465         3.22648
| 40>    C       -3.30208        -6.77079         4.64058
| 41>    C       -3.58344        -5.44844         4.77253
| 42>    C       -3.26621        -7.68574         5.70169
| 43>    N       -3.21084        -8.38031         6.61409
| 44>    C       -2.66848        -8.23682         2.65749
| 45>    C       -2.57360        -9.49761         3.30855
| 46>    C       -2.14996       -10.44824         2.40199
| 47>    C       -2.00013        -9.79222         1.10762
| 48>    C       -2.32341        -8.48046         1.24324
| 49>    C       -2.34612        -7.55932         0.18833
| 50>    N       -2.37591        -6.85413        -0.71749
| 51>    C       -1.95663       -11.81589         2.73134
| 52>    N       -1.20644       -12.74844         2.05871
| 53>    C       -0.28005       -12.51964         0.97355
| 54>    C        0.78954       -11.49422         1.33493
| 55>    C       -1.28021       -14.01789         2.66863
| 56>    O       -0.72301       -15.00405         2.23058
| 57>    C       -2.14199       -13.81931         3.81362
| 58>    C       -2.54328       -12.46312         3.81968
| 59>    C       -3.51417       -12.28356         4.88082
| 60>    O       -4.14933       -11.32768         5.26117
| 61>    N       -3.61773       -13.56552         5.46451
| 62>    C       -4.48798       -13.79282         6.59425
| 63>    C       -5.88732       -14.21406         6.15186
| 64>    C       -2.80997       -14.48216         4.84619
| 65>    C       -2.81817       -15.86419         5.19548
| 66>    C       -1.86289       -16.79236         4.95680
| 67>    C       -0.48611       -16.61195         4.57194
| 68>    C        0.16577       -17.58976         3.87865
| 69>    C        1.65103       -17.48401         3.60941
| 70>    C        1.97935       -16.05496         3.37613
| 71>    C        1.31837       -15.04828         4.12367
| 72>    C        0.29236       -15.44090         5.12089
| 73>    N        1.69728       -13.83786         3.79439
| 74>    S        2.82733       -13.95271         2.61811
| 75>    N        2.83840       -15.57532         2.51235
| 76>    C       -0.54412       -18.67970         3.26943
| 77>    C       -0.10536       -19.94616         3.05860
| 78>    C       -0.76079       -20.81787         2.04006
| 79>    O       -1.82313       -20.62605         1.49962
| 80>    C        0.18904       -21.92855         1.81802
| 81>    C        0.12748       -22.94101         0.90433
| 82>    C        1.16477       -23.90010         0.87008
| 83>    C        2.25385       -23.78799         1.78324
| 84>    C        3.28479       -24.74812         1.74263
| 85>    C        3.23535       -25.77379         0.84084
| 86>    C        2.15764       -25.88440        -0.06136
| 87>    C        1.14379       -24.96777        -0.04837
| 88>    F        2.13599       -26.89918        -0.93441
| 89>    F        4.21339       -26.68680         0.80584
| 90>    C        2.28955       -22.73159         2.72146
| 91>    C        1.26843       -21.81963         2.74211
| 92>    C        1.01387       -20.67877         3.61425
| 93>    C        1.54600       -20.49128         4.86287
| 94>    C        2.58559       -21.27726         5.40033
| 95>    N        3.44583       -21.87734         5.86573
| 96>    C        1.02099       -19.55697         5.77828
| 97>    N        0.57391       -18.84146         6.55706
| 98>    H       -1.15200         3.06399         0.06907
| 99>    H        1.97889        -0.59723        -1.10037
|100>    H       -2.60013         1.48476         1.23533
|101>    H        0.52304        -2.23393         0.09826
|102>    H       -4.27943        -2.94097         4.00835
|103>    H       -2.89433        -5.61485         1.51632
|104>    H       -3.86026        -4.94046         5.67819
|105>    H       -2.78672        -9.66778         4.34493
|106>    H       -1.73913       -10.27362         0.18458
|107>    H       -0.82168       -12.22451         0.06977
|108>    H        0.18319       -13.49281         0.78343
|109>    H        0.37170       -10.49348         1.41524
|110>    H        1.55881       -11.48554         0.56790
|111>    H        1.24564       -11.75338         2.28716
|112>    H       -4.55321       -12.84156         7.12996
|113>    H       -4.03805       -14.54155         7.25040
|114>    H       -5.85988       -15.13430         5.57220
|115>    H       -6.32977       -13.43227         5.53992
|116>    H       -6.51570       -14.36893         7.02419
|117>    H       -3.73763       -16.21374         5.64662
|118>    H       -2.14501       -17.82182         5.13888
|119>    H        1.94764       -18.09189         2.75416
|120>    H        2.21918       -17.81759         4.48695
|121>    H       -0.34696       -14.60414         5.38952
|122>    H        0.79971       -15.78258         6.03280
|123>    H       -1.51088       -18.44757         2.83485
|124>    H       -0.70278       -23.01178         0.21829
|125>    H        4.11480       -24.68017         2.42842
|126>    H        0.32638       -25.06698        -0.74529
|127>    H        3.12726       -22.66408         3.39749
|128> *
|129>
|130>                          ****END OF INPUT****

CARTESIAN COORDINATES (ANGSTROEM)
---------------------------------
  C     -0.480430    2.256010   -0.175950
  C      0.651490    2.513090   -0.897170
  F      0.927370    3.761710   -1.294860
  C      1.541880    1.472340   -1.230850
  F      2.644100    1.754440   -1.937890
  C      1.288010    0.188410   -0.837510
  C      0.131190   -0.108330   -0.090820
  C     -0.771430    0.942590    0.245060
  C     -1.940090    0.668070    0.991180
  C     -2.195780   -0.617720    1.390430
  C     -1.284260   -1.658080    1.059840
  C     -0.149470   -1.424450    0.337840
  C     -1.764070   -2.939600    1.615220
  O     -1.207470   -4.009450    1.526250
  C     -3.003690   -2.599760    2.369780
  C     -3.295040   -1.193500    2.156630
  C     -4.438790   -0.539110    2.531040
  C     -5.530300   -1.140970    3.193470
  N     -6.456650   -1.567300    3.720790
  C     -4.688220    0.824580    2.268640
  N     -4.942850    1.929520    2.091410
  C     -3.605600   -3.401950    3.294460
  C     -3.399880   -4.793310    3.482320
  C     -3.049910   -5.759050    2.565860
  C     -2.980190   -7.024650    3.226480
  C     -3.302080   -6.770790    4.640580
  C     -3.583440   -5.448440    4.772530
  C     -3.266210   -7.685740    5.701690
  N     -3.210840   -8.380310    6.614090
  C     -2.668480   -8.236820    2.657490
  C     -2.573600   -9.497610    3.308550
  C     -2.149960  -10.448240    2.401990
  C     -2.000130   -9.792220    1.107620
  C     -2.323410   -8.480460    1.243240
  C     -2.346120   -7.559320    0.188330
  N     -2.375910   -6.854130   -0.717490
  C     -1.956630  -11.815890    2.731340
  N     -1.206440  -12.748440    2.058710
  C     -0.280050  -12.519640    0.973550
  C      0.789540  -11.494220    1.334930
  C     -1.280210  -14.017890    2.668630
  O     -0.723010  -15.004050    2.230580
  C     -2.141990  -13.819310    3.813620
  C     -2.543280  -12.463120    3.819680
  C     -3.514170  -12.283560    4.880820
  O     -4.149330  -11.327680    5.261170
  N     -3.617730  -13.565520    5.464510
  C     -4.487980  -13.792820    6.594250
  C     -5.887320  -14.214060    6.151860
  C     -2.809970  -14.482160    4.846190
  C     -2.818170  -15.864190    5.195480
  C     -1.862890  -16.792360    4.956800
  C     -0.486110  -16.611950    4.571940
  C      0.165770  -17.589760    3.878650
  C      1.651030  -17.484010    3.609410
  C      1.979350  -16.054960    3.376130
  C      1.318370  -15.048280    4.123670
  C      0.292360  -15.440900    5.120890
  N      1.697280  -13.837860    3.794390
  S      2.827330  -13.952710    2.618110
  N      2.838400  -15.575320    2.512350
  C     -0.544120  -18.679700    3.269430
  C     -0.105360  -19.946160    3.058600
  C     -0.760790  -20.817870    2.040060
  O     -1.823130  -20.626050    1.499620
  C      0.189040  -21.928550    1.818020
  C      0.127480  -22.941010    0.904330
  C      1.164770  -23.900100    0.870080
  C      2.253850  -23.787990    1.783240
  C      3.284790  -24.748120    1.742630
  C      3.235350  -25.773790    0.840840
  C      2.157640  -25.884400   -0.061360
  C      1.143790  -24.967770   -0.048370
  F      2.135990  -26.899180   -0.934410
  F      4.213390  -26.686800    0.805840
  C      2.289550  -22.731590    2.721460
  C      1.268430  -21.819630    2.742110
  C      1.013870  -20.678770    3.614250
  C      1.546000  -20.491280    4.862870
  C      2.585590  -21.277260    5.400330
  N      3.445830  -21.877340    5.865730
  C      1.020990  -19.556970    5.778280
  N      0.573910  -18.841460    6.557060
  H     -1.152000    3.063990    0.069070
  H      1.978890   -0.597230   -1.100370
  H     -2.600130    1.484760    1.235330
  H      0.523040   -2.233930    0.098260
  H     -4.279430   -2.940970    4.008350
  H     -2.894330   -5.614850    1.516320
  H     -3.860260   -4.940460    5.678190
  H     -2.786720   -9.667780    4.344930
  H     -1.739130  -10.273620    0.184580
  H     -0.821680  -12.224510    0.069770
  H      0.183190  -13.492810    0.783430
  H      0.371700  -10.493480    1.415240
  H      1.558810  -11.485540    0.567900
  H      1.245640  -11.753380    2.287160
  H     -4.553210  -12.841560    7.129960
  H     -4.038050  -14.541550    7.250400
  H     -5.859880  -15.134300    5.572200
  H     -6.329770  -13.432270    5.539920
  H     -6.515700  -14.368930    7.024190
  H     -3.737630  -16.213740    5.646620
  H     -2.145010  -17.821820    5.138880
  H      1.947640  -18.091890    2.754160
  H      2.219180  -17.817590    4.486950
  H     -0.346960  -14.604140    5.389520
  H      0.799710  -15.782580    6.032800
  H     -1.510880  -18.447570    2.834850
  H     -0.702780  -23.011780    0.218290
  H      4.114800  -24.680170    2.428420
  H      0.326380  -25.066980   -0.745290
  H      3.127260  -22.664080    3.397490

 Total Charge           Charge          ....    0
 Multiplicity           Mult            ....    1
 Number of Electrons    NEL             ....  568
 Basis Dimension        Dim             .... 1316

ORBITAL ENERGIES
----------------

  NO   OCC          E(Eh)            E(eV)
   0   2.0000     -88.999283     -2421.7936
   1   2.0000     -24.803449      -674.9362
   2   2.0000     -24.802847      -674.9198
   3   2.0000     -24.801694      -674.8884
   4   2.0000     -24.800778      -674.8635
   5   2.0000     -19.225752      -523.1593
   6   2.0000     -19.224884      -523.1357
   7   2.0000     -19.205535      -522.6092
   8   2.0000     -19.203536      -522.5548
   9   2.0000     -14.467430      -393.6788
  10   2.0000     -14.466820      -393.6622
  11   2.0000     -14.431152      -392.6916
  12   2.0000     -14.430757      -392.6808
  13   2.0000     -14.428579      -392.6216
  14   2.0000     -14.427195      -392.5839
  15   2.0000     -14.422921      -392.4676
  16   2.0000     -14.422809      -392.4646
  17   2.0000     -14.416009      -392.2796
  18   2.0000     -14.406064      -392.0089
  19   2.0000     -10.387258      -282.6517
  20   2.0000     -10.387220      -282.6506
  21   2.0000     -10.387215      -282.6505
  22   2.0000     -10.386734      -282.6374
  23   2.0000     -10.385363      -282.6001
  24   2.0000     -10.384771      -282.5840
  25   2.0000     -10.377640      -282.3899
  26   2.0000     -10.375904      -282.3427
  27   2.0000     -10.357751      -281.8487
  28   2.0000     -10.356028      -281.8018
  29   2.0000     -10.355336      -281.7830
  30   2.0000     -10.352162      -281.6967
  31   2.0000     -10.352129      -281.6957
  32   2.0000     -10.348884      -281.6075
  33   2.0000     -10.335717      -281.2492
  34   2.0000     -10.332053      -281.1494
  35   2.0000     -10.330596      -281.1098
  36   2.0000     -10.329189      -281.0715
  37   2.0000     -10.328651      -281.0569
  38   2.0000     -10.327683      -281.0305
  39   2.0000     -10.325087      -280.9599
  40   2.0000     -10.325023      -280.9582
  41   2.0000     -10.323970      -280.9295
  42   2.0000     -10.321362      -280.8585
  43   2.0000     -10.320141      -280.8253
  44   2.0000     -10.318739      -280.7872
  45   2.0000     -10.318497      -280.7806
  46   2.0000     -10.317587      -280.7558
  47   2.0000     -10.317560      -280.7551
  48   2.0000     -10.317506      -280.7536
  49   2.0000     -10.317265      -280.7471
  50   2.0000     -10.317123      -280.7432
  51   2.0000     -10.317069      -280.7417
  52   2.0000     -10.315954      -280.7114
  53   2.0000     -10.315127      -280.6889
  54   2.0000     -10.314843      -280.6812
  55   2.0000     -10.314299      -280.6664
  56   2.0000     -10.312966      -280.6301
  57   2.0000     -10.312456      -280.6162
  58   2.0000     -10.311849      -280.5997
  59   2.0000     -10.311071      -280.5785
  60   2.0000     -10.310331      -280.5584
  61   2.0000     -10.310242      -280.5560
  62   2.0000     -10.310090      -280.5518
  63   2.0000     -10.308811      -280.5170
  64   2.0000     -10.307663      -280.4858
  65   2.0000     -10.307327      -280.4766
  66   2.0000     -10.307263      -280.4749
  67   2.0000     -10.307082      -280.4700
  68   2.0000     -10.306985      -280.4673
  69   2.0000     -10.306277      -280.4481
  70   2.0000     -10.304738      -280.4062
  71   2.0000     -10.304197      -280.3915
  72   2.0000     -10.303899      -280.3833
  73   2.0000     -10.303309      -280.3673
  74   2.0000     -10.301609      -280.3210
  75   2.0000     -10.298642      -280.2403
  76   2.0000     -10.295903      -280.1658
  77   2.0000     -10.295686      -280.1599
  78   2.0000     -10.292256      -280.0665
  79   2.0000     -10.279946      -279.7316
  80   2.0000     -10.279166      -279.7103
  81   2.0000     -10.270640      -279.4783
  82   2.0000     -10.269951      -279.4596
  83   2.0000      -8.091781      -220.1885
  84   2.0000      -6.063553      -164.9977
  85   2.0000      -6.056040      -164.7932
  86   2.0000      -6.052641      -164.7007
  87   2.0000      -1.326446       -36.0944
  88   2.0000      -1.324274       -36.0353
  89   2.0000      -1.311562       -35.6894
  90   2.0000      -1.309377       -35.6299
  91   2.0000      -1.148115       -31.2418
  92   2.0000      -1.141957       -31.0742
  93   2.0000      -1.141205       -31.0538
  94   2.0000      -1.140439       -31.0329
  95   2.0000      -1.111604       -30.2483
  96   2.0000      -1.078761       -29.3546
  97   2.0000      -1.069994       -29.1160
  98   2.0000      -1.031066       -28.0567
  99   2.0000      -1.027084       -27.9484
 100   2.0000      -1.024409       -27.8756
 101   2.0000      -1.012882       -27.5619
 102   2.0000      -1.009923       -27.4814
 103   2.0000      -1.006624       -27.3916
 104   2.0000      -1.006219       -27.3806
 105   2.0000      -1.001152       -27.2427
 106   2.0000      -0.991543       -26.9813
 107   2.0000      -0.990363       -26.9491
 108   2.0000      -0.987907       -26.8823
 109   2.0000      -0.983082       -26.7510
 110   2.0000      -0.973522       -26.4909
 111   2.0000      -0.969898       -26.3923
 112   2.0000      -0.941777       -25.6270
 113   2.0000      -0.939079       -25.5536
 114   2.0000      -0.938454       -25.5366
 115   2.0000      -0.917986       -24.9797
 116   2.0000      -0.915269       -24.9057
 117   2.0000      -0.910942       -24.7880
 118   2.0000      -0.899973       -24.4895
 119   2.0000      -0.898978       -24.4624
 120   2.0000      -0.895013       -24.3545
 121   2.0000      -0.888462       -24.1763
 122   2.0000      -0.887730       -24.1564
 123   2.0000      -0.878864       -23.9151
 124   2.0000      -0.864805       -23.5325
 125   2.0000      -0.858033       -23.3483
 126   2.0000      -0.847802       -23.0699
 127   2.0000      -0.847365       -23.0580
 128   2.0000      -0.844724       -22.9861
 129   2.0000      -0.843608       -22.9557
 130   2.0000      -0.831119       -22.6159
 131   2.0000      -0.825859       -22.4728
 132   2.0000      -0.809053       -22.0155
 133   2.0000      -0.802861       -21.8469
 134   2.0000      -0.796632       -21.6775
 135   2.0000      -0.776595       -21.1322
 136   2.0000      -0.774488       -21.0749
 137   2.0000      -0.773352       -21.0440
 138   2.0000      -0.770354       -20.9624
 139   2.0000      -0.764942       -20.8151
 140   2.0000      -0.744786       -20.2667
 141   2.0000      -0.741925       -20.1888
 142   2.0000      -0.730235       -19.8707
 143   2.0000      -0.725202       -19.7338
 144   2.0000      -0.725161       -19.7326
 145   2.0000      -0.719266       -19.5722
 146   2.0000      -0.718902       -19.5623
 147   2.0000      -0.711461       -19.3598
 148   2.0000      -0.706484       -19.2244
 149   2.0000      -0.697718       -18.9859
 150   2.0000      -0.694861       -18.9081
 151   2.0000      -0.691101       -18.8058
 152   2.0000      -0.689514       -18.7626
 153   2.0000      -0.682923       -18.5833
 154   2.0000      -0.677013       -18.4225
 155   2.0000      -0.670475       -18.2446
 156   2.0000      -0.665353       -18.1052
 157   2.0000      -0.662154       -18.0181
 158   2.0000      -0.661321       -17.9955
 159   2.0000      -0.656757       -17.8713
 160   2.0000      -0.650282       -17.6951
 161   2.0000      -0.649994       -17.6872
 162   2.0000      -0.646140       -17.5824
 163   2.0000      -0.642164       -17.4742
 164   2.0000      -0.635784       -17.3006
 165   2.0000      -0.624316       -16.9885
 166   2.0000      -0.622224       -16.9316
 167   2.0000      -0.616891       -16.7865
 168   2.0000      -0.608817       -16.5667
 169   2.0000      -0.602254       -16.3882
 170   2.0000      -0.600025       -16.3275
 171   2.0000      -0.598646       -16.2900
 172   2.0000      -0.592093       -16.1117
 173   2.0000      -0.590860       -16.0781
 174   2.0000      -0.588789       -16.0218
 175   2.0000      -0.588303       -16.0085
 176   2.0000      -0.585771       -15.9396
 177   2.0000      -0.583744       -15.8845
 178   2.0000      -0.581510       -15.8237
 179   2.0000      -0.577735       -15.7210
 180   2.0000      -0.574886       -15.6434
 181   2.0000      -0.569664       -15.5013
 182   2.0000      -0.561344       -15.2750
 183   2.0000      -0.561056       -15.2671
 184   2.0000      -0.558752       -15.2044
 185   2.0000      -0.555766       -15.1232
 186   2.0000      -0.554701       -15.0942
 187   2.0000      -0.552288       -15.0285
 188   2.0000      -0.551840       -15.0163
 189   2.0000      -0.550279       -14.9739
 190   2.0000      -0.546256       -14.8644
 191   2.0000      -0.544907       -14.8277
 192   2.0000      -0.544168       -14.8076
 193   2.0000      -0.540564       -14.7095
 194   2.0000      -0.538636       -14.6570
 195   2.0000      -0.536996       -14.6124
 196   2.0000      -0.535806       -14.5800
 197   2.0000      -0.535274       -14.5655
 198   2.0000      -0.532141       -14.4803
 199   2.0000      -0.531596       -14.4655
 200   2.0000      -0.530610       -14.4386
 201   2.0000      -0.528682       -14.3862
 202   2.0000      -0.526184       -14.3182
 203   2.0000      -0.524761       -14.2795
 204   2.0000      -0.521515       -14.1911
 205   2.0000      -0.519886       -14.1468
 206   2.0000      -0.519648       -14.1403
 207   2.0000      -0.518174       -14.1002
 208   2.0000      -0.514783       -14.0080
 209   2.0000      -0.511613       -13.9217
 210   2.0000      -0.508597       -13.8396
 211   2.0000      -0.507981       -13.8229
 212   2.0000      -0.505140       -13.7456
 213   2.0000      -0.503649       -13.7050
 214   2.0000      -0.502437       -13.6720
 215   2.0000      -0.499237       -13.5849
 216   2.0000      -0.496631       -13.5140
 217   2.0000      -0.494078       -13.4445
 218   2.0000      -0.491810       -13.3828
 219   2.0000      -0.489582       -13.3222
 220   2.0000      -0.488510       -13.2930
 221   2.0000      -0.485966       -13.2238
 222   2.0000      -0.481126       -13.0921
 223   2.0000      -0.479669       -13.0525
 224   2.0000      -0.479049       -13.0356
 225   2.0000      -0.476323       -12.9614
 226   2.0000      -0.475372       -12.9355
 227   2.0000      -0.473938       -12.8965
 228   2.0000      -0.471773       -12.8376
 229   2.0000      -0.467695       -12.7266
 230   2.0000      -0.467026       -12.7084
 231   2.0000      -0.463874       -12.6227
 232   2.0000      -0.462206       -12.5773
 233   2.0000      -0.460402       -12.5282
 234   2.0000      -0.458846       -12.4858
 235   2.0000      -0.455647       -12.3988
 236   2.0000      -0.454374       -12.3641
 237   2.0000      -0.453235       -12.3332
 238   2.0000      -0.451194       -12.2776
 239   2.0000      -0.450335       -12.2543
 240   2.0000      -0.449672       -12.2362
 241   2.0000      -0.447220       -12.1695
 242   2.0000      -0.445152       -12.1132
 243   2.0000      -0.440149       -11.9771
 244   2.0000      -0.438168       -11.9232
 245   2.0000      -0.437609       -11.9079
 246   2.0000      -0.436509       -11.8780
 247   2.0000      -0.435705       -11.8561
 248   2.0000      -0.435551       -11.8519
 249   2.0000      -0.435312       -11.8455
 250   2.0000      -0.433812       -11.8046
 251   2.0000      -0.431477       -11.7411
 252   2.0000      -0.431076       -11.7302
 253   2.0000      -0.430112       -11.7039
 254   2.0000      -0.425956       -11.5909
 255   2.0000      -0.420369       -11.4388
 256   2.0000      -0.418323       -11.3831
 257   2.0000      -0.416328       -11.3289
 258   2.0000      -0.405548       -11.0355
 259   2.0000      -0.401530       -10.9262
 260   2.0000      -0.400532       -10.8990
 261   2.0000      -0.392697       -10.6858
 262   2.0000      -0.389519       -10.5994
 263   2.0000      -0.388787       -10.5794
 264   2.0000      -0.381270       -10.3749
 265   2.0000      -0.373959       -10.1759
 266   2.0000      -0.364147        -9.9089
 267   2.0000      -0.362033        -9.8514
 268   2.0000      -0.360826        -9.8186
 269   2.0000      -0.359375        -9.7791
 270   2.0000      -0.349127        -9.5002
 271   2.0000      -0.345982        -9.4147
 272   2.0000      -0.342100        -9.3090
 273   2.0000      -0.335440        -9.1278
 274   2.0000      -0.329715        -8.9720
 275   2.0000      -0.325757        -8.8643
 276   2.0000      -0.324165        -8.8210
 277   2.0000      -0.322359        -8.7718
 278   2.0000      -0.318859        -8.6766
 279   2.0000      -0.308868        -8.4047
 280   2.0000      -0.307910        -8.3786
 281   2.0000      -0.301672        -8.2089
 282   2.0000      -0.294722        -8.0198
 283   2.0000      -0.255333        -6.9480
 284   0.0000      -0.142686        -3.8827
 285   0.0000      -0.108237        -2.9453
 286   0.0000      -0.088673        -2.4129
 287   0.0000      -0.073777        -2.0076
 288   0.0000      -0.063230        -1.7206

MULLIKEN ATOMIC CHARGES
-----------------------
   0 C :   -0.106728
   1 C :    0.242407
   2 F :   -0.169523
   3 C :    0.239450
   4 F :   -0.169933
   5 C :   -0.102755
   6 C :    0.115077
   7 C :    0.113710
   8 C :   -0.083561
   9 C :    0.057725
  10 C :   -0.011000
  11 C :   -0.074614
  12 C :    0.154383
  13 O :   -0.135719
  14 C :   -0.080623
  15 C :    0.296302
  16 C :   -0.338797
  17 C :   -0.203545
  18 N :    0.170195
  19 C :   -0.178984
  20 N :    0.153753
  21 C :   -0.016889
  22 C :    0.078926
  23 C :   -0.023876
  24 C :    0.070573
  25 C :   -0.082877
  26 C :    0.003509
  27 C :   -0.182050
  28 N :    0.148924
  29 C :    0.132755
  30 C :   -0.097644
  31 C :    0.023019
  32 C :   -0.025876
  33 C :   -0.087668
  34 C :   -0.176034
  35 N :    0.149786
  36 C :    0.164351
  37 N :   -0.254575
  38 C :    0.100714
  39 C :   -0.020882
  40 C :    0.164741
  41 O :   -0.198895
  42 C :   -0.060427
  43 C :   -0.053684
  44 C :    0.154036
  45 O :   -0.171894
  46 N :   -0.262814
  47 C :    0.097605
  48 C :    0.002967
  49 C :    0.112651
  50 C :   -0.027103
  51 C :   -0.012988
  52 C :   -0.052225
  53 C :   -0.136697
  54 C :    0.318506
  55 C :   -0.144201
  56 C :   -0.123184
  57 C :    0.302138
  58 N :   -0.277007
  59 S :    0.411949
  60 N :   -0.252536
  61 C :   -0.020153
  62 C :   -0.116688
  63 C :    0.147791
  64 O :   -0.130564
  65 C :    0.010888
  66 C :   -0.080948
  67 C :    0.112489
  68 C :    0.110584
  69 C :   -0.105028
  70 C :    0.241692
  71 C :    0.238395
  72 C :   -0.101671
  73 F :   -0.170329
  74 F :   -0.169587
  75 C :   -0.079986
  76 C :    0.039901
  77 C :    0.264652
  78 C :   -0.331822
  79 C :   -0.174212
  80 N :    0.161438
  81 C :   -0.202614
  82 N :    0.165156
  83 H :    0.008329
  84 H :    0.001748
  85 H :   -0.004659
  86 H :   -0.006545
  87 H :    0.028846
  88 H :    0.018628
  89 H :    0.005687
  90 H :    0.030015
  91 H :   -0.002864
  92 H :    0.025126
  93 H :    0.047406
  94 H :    0.027557
  95 H :    0.028674
  96 H :    0.032440
  97 H :    0.051086
  98 H :    0.026823
  99 H :    0.013979
 100 H :    0.036652
 101 H :    0.028515
 102 H :    0.004267
 103 H :    0.024792
 104 H :    0.020877
 105 H :    0.044218
 106 H :    0.026752
 107 H :    0.048443
 108 H :    0.036899
 109 H :   -0.005371
 110 H :    0.008307
 111 H :    0.002268
 112 H :   -0.000620
Sum of atomic charges:   -0.0000000

LOEWDIN ATOMIC CHARGES
----------------------
   0 C :   -0.029130
   1 C :    0.068094
   2 F :   -0.047511
   3 C :    0.068829
   4 F :   -0.047994
   5 C :   -0.032006
   6 C :   -0.007583
   7 C :   -0.005456
   8 C :    0.018458
   9 C :   -0.023594
  10 C :   -0.052249
  11 C :    0.033763
  12 C :    0.085339
  13 O :   -0.124252
  14 C :   -0.074972
  15 C :    0.072474
  16 C :   -0.130827
  17 C :   -0.025039
  18 N :   -0.043613
  19 C :   -0.017247
  20 N :   -0.046689
  21 C :    0.069036
  22 C :   -0.039473
  23 C :    0.045175
  24 C :    0.037217
  25 C :   -0.084141
  26 C :    0.060609
  27 C :   -0.035873
  28 N :   -0.048791
  29 C :    0.048063
  30 C :    0.015584
  31 C :   -0.028180
  32 C :    0.051480
  33 C :   -0.075516
  34 C :   -0.032169
  35 N :   -0.052506
  36 C :    0.075258
  37 N :    0.003083
  38 C :    0.035798
  39 C :   -0.068309
  40 C :    0.085108
  41 O :   -0.189866
  42 C :   -0.119494
  43 C :   -0.099810
  44 C :    0.082383
  45 O :   -0.166286
  46 N :    0.004308
  47 C :    0.037842
  48 C :   -0.060145
  49 C :    0.075648
  50 C :   -0.034716
  51 C :    0.024056
  52 C :    0.021613
  53 C :   -0.025398
  54 C :   -0.017019
  55 C :   -0.047726
  56 C :   -0.047244
  57 C :   -0.016740
  58 N :   -0.277428
  59 S :    0.563203
  60 N :   -0.266543
  61 C :    0.075874
  62 C :   -0.085511
  63 C :    0.084366
  64 O :   -0.133161
  65 C :   -0.054651
  66 C :    0.032632
  67 C :   -0.008562
  68 C :   -0.005292
  69 C :   -0.029738
  70 C :    0.068287
  71 C :    0.068354
  72 C :   -0.032211
  73 F :   -0.047504
  74 F :   -0.046851
  75 C :    0.015666
  76 C :   -0.021851
  77 C :    0.068978
  78 C :   -0.134827
  79 C :   -0.020291
  80 N :   -0.044377
  81 C :   -0.015717
  82 N :   -0.053362
  83 H :    0.048098
  84 H :    0.045764
  85 H :    0.040300
  86 H :    0.041884
  87 H :    0.047983
  88 H :    0.037858
  89 H :    0.040070
  90 H :    0.041136
  91 H :    0.037631
  92 H :    0.019815
  93 H :    0.035211
  94 H :    0.023594
  95 H :    0.032995
  96 H :    0.021233
  97 H :    0.041809
  98 H :    0.026580
  99 H :    0.020427
 100 H :    0.034564
 101 H :    0.032962
 102 H :    0.041151
 103 H :    0.043113
 104 H :    0.044180
 105 H :    0.050947
 106 H :    0.043093
 107 H :    0.060670
 108 H :    0.049927
 109 H :    0.041823
 110 H :    0.047939
 111 H :    0.045695
 112 H :    0.040410

  Mayer bond orders larger than 0.100000
B(  0-C ,  1-C ) :   1.4431 B(  0-C ,  5-C ) :   0.1084 B(  0-C ,  7-C ) :   1.1864
B(  0-C , 83-H ) :   1.0061 B(  1-C ,  2-F ) :   1.1362 B(  1-C ,  3-C ) :   1.1906
B(  3-C ,  4-F ) :   1.1352 B(  3-C ,  5-C ) :   1.4431 B(  5-C ,  6-C ) :   1.1933
B(  5-C , 84-H ) :   1.0064 B(  6-C ,  7-C ) :   1.2540 B(  6-C , 11-C ) :   1.1899
B(  7-C ,  8-C ) :   1.2213 B(  8-C ,  9-C ) :   1.4451 B(  8-C , 85-H ) :   0.9901
B(  9-C , 10-C ) :   1.2175 B(  9-C , 15-C ) :   0.9927 B( 10-C , 11-C ) :   1.4754
B( 10-C , 12-C ) :   0.9411 B( 11-C , 86-H ) :   1.0152 B( 12-C , 13-O ) :   2.2230
B( 12-C , 14-C ) :   0.9323 B( 14-C , 15-C ) :   1.0489 B( 14-C , 21-C ) :   1.6218
B( 15-C , 16-C ) :   1.6528 B( 16-C , 17-C ) :   1.1403 B( 16-C , 19-C ) :   1.1435
B( 17-C , 18-N ) :   2.9971 B( 19-C , 20-N ) :   2.9674 B( 21-C , 22-C ) :   1.1109
B( 21-C , 87-H ) :   0.9463 B( 22-C , 23-C ) :   1.5485 B( 22-C , 26-C ) :   1.0306
B( 23-C , 24-C ) :   1.1143 B( 23-C , 88-H ) :   0.9884 B( 24-C , 25-C ) :   1.1071
B( 24-C , 29-C ) :   1.4138 B( 25-C , 26-C ) :   1.6700 B( 25-C , 27-C ) :   1.0860
B( 26-C , 89-H ) :   1.0229 B( 27-C , 28-N ) :   2.9830 B( 29-C , 30-C ) :   1.1089
B( 29-C , 33-C ) :   1.0925 B( 30-C , 31-C ) :   1.5620 B( 30-C , 90-H ) :   0.9937
B( 31-C , 32-C ) :   1.0154 B( 31-C , 36-C ) :   1.0321 B( 32-C , 33-C ) :   1.6751
B( 32-C , 91-H ) :   1.0283 B( 33-C , 34-C ) :   1.0855 B( 34-C , 35-N ) :   2.9730
B( 36-C , 37-N ) :   1.2034 B( 36-C , 43-C ) :   1.3927 B( 37-N , 38-C ) :   0.9405
B( 37-N , 40-C ) :   1.0359 B( 38-C , 39-C ) :   1.1111 B( 38-C , 92-H ) :   0.9502
B( 38-C , 93-H ) :   0.9231 B( 39-C , 94-H ) :   0.9582 B( 39-C , 95-H ) :   0.9640
B( 39-C , 96-H ) :   0.9536 B( 40-C , 41-O ) :   2.0715 B( 40-C , 42-C ) :   0.9913
B( 42-C , 43-C ) :   1.2350 B( 42-C , 49-C ) :   1.3398 B( 43-C , 44-C ) :   0.9633
B( 44-C , 45-O ) :   2.1141 B( 44-C , 46-N ) :   1.0310 B( 46-N , 47-C ) :   0.9409
B( 46-N , 49-C ) :   1.1948 B( 47-C , 48-C ) :   1.1216 B( 47-C , 97-H ) :   0.9310
B( 47-C , 98-H ) :   0.9491 B( 48-C , 99-H ) :   0.9677 B( 48-C ,100-H ) :   0.9630
B( 48-C ,101-H ) :   0.9669 B( 49-C , 50-C ) :   1.1028 B( 50-C , 51-C ) :   1.7379
B( 50-C ,102-H ) :   0.9436 B( 51-C , 52-C ) :   1.1115 B( 51-C ,103-H ) :   0.9421
B( 52-C , 53-C ) :   1.6422 B( 52-C , 57-C ) :   1.0423 B( 53-C , 54-C ) :   1.0090
B( 53-C , 61-C ) :   1.1227 B( 54-C , 55-C ) :   1.0789 B( 54-C ,104-H ) :   0.8931
B( 54-C ,105-H ) :   0.8519 B( 55-C , 56-C ) :   1.1819 B( 55-C , 60-N ) :   1.7058
B( 56-C , 57-C ) :   1.0751 B( 56-C , 58-N ) :   1.6786 B( 57-C ,106-H ) :   0.8847
B( 57-C ,107-H ) :   0.8576 B( 58-N , 59-S ) :   1.1660 B( 58-N , 60-N ) :   0.1171
B( 59-S , 60-N ) :   1.1926 B( 61-C , 62-C ) :   1.6760 B( 61-C ,108-H ) :   0.9426
B( 62-C , 63-C ) :   0.9262 B( 62-C , 77-C ) :   1.0371 B( 63-C , 64-O ) :   2.2873
B( 63-C , 65-C ) :   0.9139 B( 65-C , 66-C ) :   1.4742 B( 65-C , 76-C ) :   1.2191
B( 66-C , 67-C ) :   1.1974 B( 66-C ,109-H ) :   1.0157 B( 67-C , 68-C ) :   1.2547
B( 67-C , 72-C ) :   1.1942 B( 68-C , 69-C ) :   1.1907 B( 68-C , 75-C ) :   1.2159
B( 69-C , 70-C ) :   1.4432 B( 69-C , 72-C ) :   0.1077 B( 69-C ,110-H ) :   1.0062
B( 70-C , 71-C ) :   1.1901 B( 70-C , 74-F ) :   1.1355 B( 71-C , 72-C ) :   1.4447
B( 71-C , 73-F ) :   1.1348 B( 72-C ,111-H ) :   1.0063 B( 75-C , 76-C ) :   1.4566
B( 75-C ,112-H ) :   0.9937 B( 76-C , 77-C ) :   1.0022 B( 77-C , 78-C ) :   1.6467
B( 78-C , 79-C ) :   1.1282 B( 78-C , 81-C ) :   1.1743 B( 79-C , 80-N ) :   2.9895
B( 81-C , 82-N ) :   2.9830

-----------------------------------------------------------------------------
         ABSORPTION SPECTRUM VIA TRANSITION ELECTRIC DIPOLE MOMENTS
-----------------------------------------------------------------------------
State   Energy  Wavelength   fosc         T2         TX        TY        TZ
        (cm-1)    (nm)                  (au**2)     (au)      (au)      (au)
-----------------------------------------------------------------------------
   0    8991.0   1112.2   0.460654873  16.86729  -0.32315   4.06365  -0.49963
   1   15078.1    663.2   0.030869619   0.67400  -0.14013   0.77759   0.22298
   2   16564.3    603.7   0.181682755   3.61091  -0.42076   1.79475  -0.46122
   3   19703.6    507.5   0.015387427   0.25710  -0.16394  -0.28300   0.38747
   4   21481.6    465.5   0.568515951   8.71266  -1.20697   2.67690   0.30020
   5   22047.7    453.6   0.017625339   0.26318   0.32568  -0.36602  -0.15211
   6   22843.2    437.8   0.005929044   0.08545   0.16052   0.13836  -0.20134
   7   23216.1    430.7   0.094705297   1.34295  -0.21625   1.13371  -0.10440
   8   24059.6    415.6   0.079658114   1.08998  -0.70053   0.31511   0.70707
   9   24477.3    408.5   0.019548089   0.26292  -0.37851  -0.17557   0.29803
  10   24822.1    402.9   0.082127856   1.08925  -0.63414   0.38653   0.73329
  11   24995.5    400.1   0.351726379   4.63254  -0.07733   2.14231  -0.19254
  12   25397.3    393.7   0.034163246   0.44284  -0.23510  -0.60647   0.14057
  13   25654.4    389.8   0.254077080   3.26046  -0.24438   1.76534  -0.29033
  14   26198.1    381.7   0.032772134   0.41182   0.02227  -0.34647  -0.53971
  15   26497.2    377.4   0.181399329   2.25378   0.30367   1.45237   0.22843
  16   27664.6    361.5   0.165653354   1.97129   0.38501  -1.34227   0.14622
  17   27761.3    360.2   0.010109313   0.11988   0.24106   0.06081   0.24099
  18   28593.1    349.7   0.052565241   0.60522   0.25981  -0.36217  -0.63761
  19   28954.9    345.4   0.006007132   0.06830   0.06846   0.18275   0.17383
  20   29193.5    342.5   0.073270232   0.82626   0.30472  -0.70350  -0.48836
  21   29433.9    339.7   0.104295982   1.16653  -0.70828  -0.70443   0.41067
  22   29545.8    338.5   0.042625032   0.47495  -0.29567   0.35415   0.51196
  23   30051.7    332.8   0.060255846   0.66009  -0.03775   0.59101   0.55622
  24   30563.9    327.2   0.009361272   0.10083   0.10659   0.16038  -0.25248
  25   30862.0    324.0   0.201193522   2.14617  -0.89425  -0.99912   0.59012
  26   31485.7    317.6   0.122122604   1.27690  -0.50704   0.80539   0.60923
  27   31660.2    315.9   0.025550273   0.26568  -0.09778   0.13278   0.48835
  28   31790.9    314.6   0.001809167   0.01873  -0.04948  -0.07660   0.10207
  29   32058.6    311.9   0.171110911   1.75715  -1.00658  -0.15714   0.84809
  30   32160.7    310.9   0.054397919   0.55684  -0.04911   0.61184   0.42437
  31   33000.4    303.0   0.017466175   0.17424  -0.02565  -0.41023   0.07280
  32   33408.5    299.3   0.109811372   1.08210  -0.16128   0.10113   1.02267
  33   33462.6    298.8   0.016569744   0.16302   0.15036  -0.25860  -0.27118
  34   33650.9    297.2   0.101743266   0.99537   0.11968   0.69669   0.70404
  35   33783.0    296.0   0.140748580   1.37158  -0.04082   0.92813   0.71308
  36   34123.6    293.1   0.179770774   1.73436  -0.65110   0.95702   0.62812
  37   34497.5    289.9   0.016847688   0.16078   0.27325   0.08124  -0.28198
  38   34735.8    287.9   0.430160844   4.07689  -0.01125  -1.48980  -1.36281
  39   35025.0    285.5   0.005120830   0.04813  -0.19996  -0.08193  -0.03790
  40   35113.1    284.8   0.035207822   0.33010  -0.16749   0.54954   0.00751
  41   35289.0    283.4   0.347003852   3.23720  -1.26372  -0.69230   1.07747
  42   35450.4    282.1   0.285386931   2.65026   1.48664  -0.00701  -0.66341
  43   35742.2    279.8   0.043399256   0.39974  -0.48842   0.38761   0.10462
  44   35984.7    277.9   0.237578902   2.17353  -1.27388   0.21470   0.71040
  45   36046.4    277.4   0.064404754   0.58821  -0.30300  -0.59403  -0.37885
  46   36515.9    273.9   0.034495382   0.31100  -0.19321  -0.32172  -0.41251
  47   36678.0    272.6   0.059752638   0.53632  -0.05932   0.72635  -0.07224
  48   36892.2    271.1   0.039964787   0.35663  -0.36982   0.35600   0.30516
  49   37059.6    269.8   0.026740753   0.23755   0.36214   0.32560   0.01967
  50   37214.3    268.7   0.027549093   0.24371   0.25053  -0.33139  -0.26669
  51   37307.2    268.0   0.033322459   0.29405  -0.27430   0.43478   0.17255
  52   37518.5    266.5   0.044911217   0.39408  -0.29867   0.51410   0.20143
  53   37690.4    265.3   0.060089023   0.52486  -0.51063   0.09718   0.50465
  54   37974.4    263.3   0.017645541   0.15297  -0.17923   0.33651   0.08723
  55   38030.9    262.9   0.011130088   0.09635  -0.09117   0.27974  -0.09889
  56   38167.0    262.0   0.073282491   0.63210  -0.21226   0.73566  -0.21415
  57   38820.1    257.6   0.129432010   1.09764   0.19362  -0.94744   0.40313
  58   38885.5    257.2   0.051232401   0.43374  -0.34952  -0.55612  -0.04809
  59   39241.6    254.8   0.003112109   0.02611  -0.01424  -0.16083  -0.00624
  60   39346.1    254.2   0.006168621   0.05161   0.07664   0.19580   0.08604
  61   39424.3    253.7   0.008162136   0.06816  -0.15476   0.14951   0.14783
  62   39602.9    252.5   0.056444359   0.46921   0.07039   0.15825  -0.66273
  63   39766.1    251.5   0.170671907   1.41294  -1.07161   0.49426  -0.14252
  64   39920.3    250.5   0.047391319   0.39082  -0.42423  -0.13882  -0.43770
  65   40116.2    249.3   0.074611068   0.61229  -0.02588   0.77528  -0.10279
  66   40181.8    248.9   0.140234206   1.14895  -0.61436   0.66874  -0.56947

FINAL SINGLE POINT ENERGY     -4097.967927735549

DIPOLE MOMENT
-------------
                                X             Y             Z
Electronic contribution:     26.60559      19.97346     -27.48165
Nuclear contribution   :    -25.78192     -21.90158      26.68613
                        -----------------------------------------
Total Dipole Moment    :      0.82367      -1.92811      -0.79552
                        -----------------------------------------
Magnitude (a.u.)       :      2.24252
Magnitude (Debye)      :      5.70003

Rotational constants in cm-1:     0.001690     0.000191     0.000179
Rotational constants in MHz :    50.662581     5.730764     5.380809

                             ****ORCA TERMINATED NORMALLY****
TOTAL RUN TIME: 0 days 0 hours 15 minutes 19 seconds 768 msec
