                         Program Version 4.2.0 -  RELEASE  -
|  1> # ORCA input file
|  2> # SCF done       -190.049478522310          0.000786481538
|  3> ! CAM-B3LYP def2-SVP def2/J RIJCOSX Grid4 TightSCF
|  4> %maxcore 5000
|  5> %tddft
|  6>     Mode sTDDFT
|  7>     Ethresh 5.0
|  8>     maxcore 5000
|  9> end
| 10>
| 11> %pal
| 12>   nprocs 6
| 13>   end
| 14> * xyz 0 1
| 15>    C        3.36132         0.66490        -7.76156
| 16>    S        1.91416         0.46712        -8.65175
| 17>    C        2.53436        -0.98611        -9.35526
| 18>    C        1.71128        -1.76899       -10.31442
| 19>    F        1.45934        -1.10300       -11.45505
| 20>    F        2.30441        -2.91734       -10.66171
| 21>    F        0.50634        -2.10020        -9.80998
| 22>    C        3.79196        -1.27812        -8.92945
| 23>    C        4.27926        -0.32364        -7.99788
| 24>    C        5.58579        -0.39139        -7.37158
| 25>    C        6.81462        -0.57197        -7.98824
| 26>    N        7.08065        -0.65570        -9.36258
| 27>    O        6.16385        -0.45432       -10.14799
| 28>    O        8.22853        -0.88777        -9.70187
| 29>    C        7.85735        -0.53853        -6.99371
| 30>    C        7.28781        -0.27012        -5.79616
| 31>    C        5.85641        -0.16634        -5.97114
| 32>    C        4.91594         0.02126        -4.96068
| 33>    C        3.62541        -0.54961        -4.88496
| 34>    C        3.12342        -0.35793        -3.61863
| 35>    C        4.04059         0.41287        -2.86322
| 36>    N        3.80113         0.82496        -1.55087
| 37>    O        4.66249         1.47585        -0.96791
| 38>    O        2.73732         0.50713        -1.04225
| 39>    C        5.15114         0.72327        -3.67974
| 40>    C        6.13940         1.66155        -3.41019
| 41>    C        6.98181         2.21162        -4.36258
| 42>    C        8.07264         3.03116        -4.09521
| 43>    C        8.61440         3.31427        -2.82664
| 44>    C        9.80899         4.00864        -2.97836
| 45>    O       10.61138         4.48215        -2.01832
| 46>    C       10.20398         4.29493        -0.67597
| 47>    C       10.08069         4.18183        -4.37163
| 48>    C        9.00481         3.55446        -5.09335
| 49>    C        8.92651         3.36484        -6.46260
| 50>    C        7.77648         3.14727        -7.26477
| 51>    C        8.19349         2.91111        -8.55577
| 52>    O        7.52179         2.67015        -9.65800
| 53>    C        6.10893         2.63471        -9.61833
| 54>    C        9.66546         2.92600        -8.58518
| 55>    C       10.09699         3.23797        -7.35871
| 56>    C       11.09120         4.97498        -4.95126
| 57>    C       12.13454         5.53008        -4.26802
| 58>    C       13.14704         6.34745        -4.82027
| 59>    C       13.40610         6.74328        -6.13516
| 60>    C       12.68286         6.26412        -7.23654
| 61>    N       12.11240         5.82945        -8.13274
| 62>    C       14.53130         7.60581        -6.23385
| 63>    C       15.11865         7.81842        -4.98785
| 64>    S       14.31904         7.01789        -3.69799
| 65>    S       16.52648         8.82684        -4.99015
| 66>    C       16.33032         8.99115        -6.70428
| 67>    C       15.24329         8.31603        -7.24860
| 68>    C       15.14669         8.54782        -8.65090
| 69>    C       14.10812         8.06386        -9.46266
| 70>    N       13.24899         7.70076       -10.12963
| 71>    C       16.16287         9.36583        -9.12492
| 72>    S       17.24971         9.87481        -7.85525
| 73>    C       16.40224         9.81782       -10.46012
| 74>    S       17.69296        10.94843       -10.76115
| 75>    C       17.32253        10.95781       -12.44301
| 76>    C       18.11571        11.79425       -13.38294
| 77>    F       18.07897        13.10269       -13.07234
| 78>    F       19.41823        11.45736       -13.40601
| 79>    F       17.66982        11.68587       -14.64034
| 80>    C       16.27095        10.14036       -12.75047
| 81>    C       15.74608         9.49045       -11.62483
| 82>    H        3.46487         1.50912        -7.10846
| 83>    H        4.34294        -2.14114        -9.25381
| 84>    H        8.89432        -0.69669        -7.21597
| 85>    H        7.78128        -0.22655        -4.84488
| 86>    H        3.17226        -1.14533        -5.65296
| 87>    H        2.19176        -0.72683        -3.23194
| 88>    H        6.18496         2.02113        -2.39092
| 89>    H        6.78993         1.97753        -5.39636
| 90>    H        8.16955         3.01637        -1.89665
| 91>    H       10.96876         4.76824        -0.06330
| 92>    H       10.14340         3.23196        -0.42848
| 93>    H        9.23752         4.76905        -0.48763
| 94>    H        6.76352         3.29036        -6.94470
| 95>    H        5.79058         2.09303       -10.50799
| 96>    H        5.70554         3.65064        -9.63511
| 97>    H        5.74715         2.11438        -8.72890
| 98>    H       10.23737         2.71155        -9.46556
| 99>    H       11.11585         3.27196        -7.02902
|100>    H       10.99900         5.16626        -6.00859
|101>    H       12.21837         5.35251        -3.20608
|102>    H       15.89388        10.01495       -13.74911
|103>    H       14.91945         8.80752       -11.67116
|104> *
|105>
|106>                          ****END OF INPUT****

CARTESIAN COORDINATES (ANGSTROEM)
---------------------------------
  C      3.361320    0.664900   -7.761560
  S      1.914160    0.467120   -8.651750
  C      2.534360   -0.986110   -9.355260
  C      1.711280   -1.768990  -10.314420
  F      1.459340   -1.103000  -11.455050
  F      2.304410   -2.917340  -10.661710
  F      0.506340   -2.100200   -9.809980
  C      3.791960   -1.278120   -8.929450
  C      4.279260   -0.323640   -7.997880
  C      5.585790   -0.391390   -7.371580
  C      6.814620   -0.571970   -7.988240
  N      7.080650   -0.655700   -9.362580
  O      6.163850   -0.454320  -10.147990
  O      8.228530   -0.887770   -9.701870
  C      7.857350   -0.538530   -6.993710
  C      7.287810   -0.270120   -5.796160
  C      5.856410   -0.166340   -5.971140
  C      4.915940    0.021260   -4.960680
  C      3.625410   -0.549610   -4.884960
  C      3.123420   -0.357930   -3.618630
  C      4.040590    0.412870   -2.863220
  N      3.801130    0.824960   -1.550870
  O      4.662490    1.475850   -0.967910
  O      2.737320    0.507130   -1.042250
  C      5.151140    0.723270   -3.679740
  C      6.139400    1.661550   -3.410190
  C      6.981810    2.211620   -4.362580
  C      8.072640    3.031160   -4.095210
  C      8.614400    3.314270   -2.826640
  C      9.808990    4.008640   -2.978360
  O     10.611380    4.482150   -2.018320
  C     10.203980    4.294930   -0.675970
  C     10.080690    4.181830   -4.371630
  C      9.004810    3.554460   -5.093350
  C      8.926510    3.364840   -6.462600
  C      7.776480    3.147270   -7.264770
  C      8.193490    2.911110   -8.555770
  O      7.521790    2.670150   -9.658000
  C      6.108930    2.634710   -9.618330
  C      9.665460    2.926000   -8.585180
  C     10.096990    3.237970   -7.358710
  C     11.091200    4.974980   -4.951260
  C     12.134540    5.530080   -4.268020
  C     13.147040    6.347450   -4.820270
  C     13.406100    6.743280   -6.135160
  C     12.682860    6.264120   -7.236540
  N     12.112400    5.829450   -8.132740
  C     14.531300    7.605810   -6.233850
  C     15.118650    7.818420   -4.987850
  S     14.319040    7.017890   -3.697990
  S     16.526480    8.826840   -4.990150
  C     16.330320    8.991150   -6.704280
  C     15.243290    8.316030   -7.248600
  C     15.146690    8.547820   -8.650900
  C     14.108120    8.063860   -9.462660
  N     13.248990    7.700760  -10.129630
  C     16.162870    9.365830   -9.124920
  S     17.249710    9.874810   -7.855250
  C     16.402240    9.817820  -10.460120
  S     17.692960   10.948430  -10.761150
  C     17.322530   10.957810  -12.443010
  C     18.115710   11.794250  -13.382940
  F     18.078970   13.102690  -13.072340
  F     19.418230   11.457360  -13.406010
  F     17.669820   11.685870  -14.640340
  C     16.270950   10.140360  -12.750470
  C     15.746080    9.490450  -11.624830
  H      3.464870    1.509120   -7.108460
  H      4.342940   -2.141140   -9.253810
  H      8.894320   -0.696690   -7.215970
  H      7.781280   -0.226550   -4.844880
  H      3.172260   -1.145330   -5.652960
  H      2.191760   -0.726830   -3.231940
  H      6.184960    2.021130   -2.390920
  H      6.789930    1.977530   -5.396360
  H      8.169550    3.016370   -1.896650
  H     10.968760    4.768240   -0.063300
  H     10.143400    3.231960   -0.428480
  H      9.237520    4.769050   -0.487630
  H      6.763520    3.290360   -6.944700
  H      5.790580    2.093030  -10.507990
  H      5.705540    3.650640   -9.635110
  H      5.747150    2.114380   -8.728900
  H     10.237370    2.711550   -9.465560
  H     11.115850    3.271960   -7.029020
  H     10.999000    5.166260   -6.008590
  H     12.218370    5.352510   -3.206080
  H     15.893880   10.014950  -13.749110
  H     14.919450    8.807520  -11.671160

 Total Charge           Charge          ....    0
 Multiplicity           Mult            ....    1
 Number of Electrons    NEL             ....  508
 Basis Dimension        Dim             .... 1068

ORBITAL ENERGIES
----------------

  NO   OCC          E(Eh)            E(eV)
   0   2.0000     -88.999399     -2421.7968
   1   2.0000     -88.998899     -2421.7832
   2   2.0000     -88.994519     -2421.6640
   3   2.0000     -88.986138     -2421.4359
   4   2.0000     -88.970047     -2420.9980
   5   2.0000     -24.806562      -675.0209
   6   2.0000     -24.799911      -674.8399
   7   2.0000     -24.799690      -674.8339
   8   2.0000     -24.794290      -674.6869
   9   2.0000     -24.787644      -674.5061
  10   2.0000     -24.787396      -674.4993
  11   2.0000     -19.292258      -524.9690
  12   2.0000     -19.282718      -524.7094
  13   2.0000     -19.231862      -523.3256
  14   2.0000     -19.229792      -523.2693
  15   2.0000     -19.213202      -522.8178
  16   2.0000     -19.212745      -522.8054
  17   2.0000     -14.638848      -398.3433
  18   2.0000     -14.623932      -397.9374
  19   2.0000     -14.417549      -392.3215
  20   2.0000     -14.417111      -392.3095
  21   2.0000     -10.528273      -286.4889
  22   2.0000     -10.514915      -286.1254
  23   2.0000     -10.373273      -282.2711
  24   2.0000     -10.360031      -281.9108
  25   2.0000     -10.353570      -281.7350
  26   2.0000     -10.350289      -281.6457
  27   2.0000     -10.348752      -281.6039
  28   2.0000     -10.347813      -281.5783
  29   2.0000     -10.344803      -281.4964
  30   2.0000     -10.336957      -281.2829
  31   2.0000     -10.336780      -281.2781
  32   2.0000     -10.334984      -281.2292
  33   2.0000     -10.331775      -281.1419
  34   2.0000     -10.330574      -281.1092
  35   2.0000     -10.326855      -281.0080
  36   2.0000     -10.322963      -280.9021
  37   2.0000     -10.322578      -280.8916
  38   2.0000     -10.318843      -280.7900
  39   2.0000     -10.317476      -280.7528
  40   2.0000     -10.317200      -280.7453
  41   2.0000     -10.314729      -280.6780
  42   2.0000     -10.312970      -280.6302
  43   2.0000     -10.309077      -280.5242
  44   2.0000     -10.307964      -280.4940
  45   2.0000     -10.307834      -280.4904
  46   2.0000     -10.307768      -280.4886
  47   2.0000     -10.304662      -280.4041
  48   2.0000     -10.303066      -280.3607
  49   2.0000     -10.303029      -280.3597
  50   2.0000     -10.302785      -280.3530
  51   2.0000     -10.302328      -280.3406
  52   2.0000     -10.301556      -280.3196
  53   2.0000     -10.300869      -280.3009
  54   2.0000     -10.299930      -280.2753
  55   2.0000     -10.299715      -280.2695
  56   2.0000     -10.297286      -280.2034
  57   2.0000     -10.295022      -280.1418
  58   2.0000     -10.294495      -280.1274
  59   2.0000     -10.294381      -280.1243
  60   2.0000     -10.292664      -280.0776
  61   2.0000     -10.291800      -280.0541
  62   2.0000     -10.289545      -279.9928
  63   2.0000     -10.272810      -279.5374
  64   2.0000     -10.271982      -279.5148
  65   2.0000     -10.271973      -279.5146
  66   2.0000     -10.268451      -279.4188
  67   2.0000      -8.094900      -220.2734
  68   2.0000      -8.094050      -220.2503
  69   2.0000      -8.090034      -220.1410
  70   2.0000      -8.081992      -219.9222
  71   2.0000      -8.066054      -219.4885
  72   2.0000      -6.064483      -165.0230
  73   2.0000      -6.064032      -165.0107
  74   2.0000      -6.060267      -164.9083
  75   2.0000      -6.059792      -164.8953
  76   2.0000      -6.059558      -164.8890
  77   2.0000      -6.056416      -164.8034
  78   2.0000      -6.055362      -164.7748
  79   2.0000      -6.054845      -164.7607
  80   2.0000      -6.051657      -164.6740
  81   2.0000      -6.051328      -164.6650
  82   2.0000      -6.047134      -164.5509
  83   2.0000      -6.043967      -164.4647
  84   2.0000      -6.035334      -164.2298
  85   2.0000      -6.031050      -164.1132
  86   2.0000      -6.028236      -164.0366
  87   2.0000      -1.392899       -37.9027
  88   2.0000      -1.380447       -37.5639
  89   2.0000      -1.308614       -35.6092
  90   2.0000      -1.297296       -35.3012
  91   2.0000      -1.291322       -35.1387
  92   2.0000      -1.291129       -35.1334
  93   2.0000      -1.284877       -34.9633
  94   2.0000      -1.278741       -34.7963
  95   2.0000      -1.197215       -32.5779
  96   2.0000      -1.187214       -32.3057
  97   2.0000      -1.125748       -30.6332
  98   2.0000      -1.107839       -30.1458
  99   2.0000      -1.053996       -28.6807
 100   2.0000      -1.026029       -27.9197
 101   2.0000      -1.009011       -27.4566
 102   2.0000      -1.008116       -27.4322
 103   2.0000      -1.004914       -27.3451
 104   2.0000      -1.004341       -27.3295
 105   2.0000      -0.994880       -27.0721
 106   2.0000      -0.993690       -27.0397
 107   2.0000      -0.980343       -26.6765
 108   2.0000      -0.978657       -26.6306
 109   2.0000      -0.960809       -26.1449
 110   2.0000      -0.923049       -25.1174
 111   2.0000      -0.909711       -24.7545
 112   2.0000      -0.902377       -24.5549
 113   2.0000      -0.895541       -24.3689
 114   2.0000      -0.887290       -24.1444
 115   2.0000      -0.877589       -23.8804
 116   2.0000      -0.875055       -23.8115
 117   2.0000      -0.873265       -23.7627
 118   2.0000      -0.866001       -23.5651
 119   2.0000      -0.859730       -23.3944
 120   2.0000      -0.852246       -23.1908
 121   2.0000      -0.850305       -23.1380
 122   2.0000      -0.837535       -22.7905
 123   2.0000      -0.832020       -22.6404
 124   2.0000      -0.826843       -22.4995
 125   2.0000      -0.820427       -22.3250
 126   2.0000      -0.809647       -22.0316
 127   2.0000      -0.807574       -21.9752
 128   2.0000      -0.789599       -21.4861
 129   2.0000      -0.782188       -21.2844
 130   2.0000      -0.767963       -20.8973
 131   2.0000      -0.760636       -20.6979
 132   2.0000      -0.749672       -20.3996
 133   2.0000      -0.740683       -20.1550
 134   2.0000      -0.727642       -19.8001
 135   2.0000      -0.716431       -19.4951
 136   2.0000      -0.710765       -19.3409
 137   2.0000      -0.701674       -19.0935
 138   2.0000      -0.700308       -19.0564
 139   2.0000      -0.697173       -18.9710
 140   2.0000      -0.693750       -18.8779
 141   2.0000      -0.682327       -18.5671
 142   2.0000      -0.680396       -18.5145
 143   2.0000      -0.674994       -18.3675
 144   2.0000      -0.674931       -18.3658
 145   2.0000      -0.667370       -18.1601
 146   2.0000      -0.662637       -18.0313
 147   2.0000      -0.661138       -17.9905
 148   2.0000      -0.656018       -17.8512
 149   2.0000      -0.655060       -17.8251
 150   2.0000      -0.653369       -17.7791
 151   2.0000      -0.646833       -17.6012
 152   2.0000      -0.645681       -17.5699
 153   2.0000      -0.639794       -17.4097
 154   2.0000      -0.637825       -17.3561
 155   2.0000      -0.633633       -17.2420
 156   2.0000      -0.625542       -17.0219
 157   2.0000      -0.623786       -16.9741
 158   2.0000      -0.619088       -16.8463
 159   2.0000      -0.615726       -16.7548
 160   2.0000      -0.610246       -16.6056
 161   2.0000      -0.605443       -16.4749
 162   2.0000      -0.601007       -16.3542
 163   2.0000      -0.600067       -16.3286
 164   2.0000      -0.589835       -16.0502
 165   2.0000      -0.583629       -15.8814
 166   2.0000      -0.579800       -15.7772
 167   2.0000      -0.576819       -15.6960
 168   2.0000      -0.573059       -15.5937
 169   2.0000      -0.568900       -15.4805
 170   2.0000      -0.564788       -15.3687
 171   2.0000      -0.559931       -15.2365
 172   2.0000      -0.556469       -15.1423
 173   2.0000      -0.554087       -15.0775
 174   2.0000      -0.551709       -15.0128
 175   2.0000      -0.551520       -15.0076
 176   2.0000      -0.548863       -14.9353
 177   2.0000      -0.542563       -14.7639
 178   2.0000      -0.540266       -14.7014
 179   2.0000      -0.539970       -14.6933
 180   2.0000      -0.538358       -14.6495
 181   2.0000      -0.537057       -14.6141
 182   2.0000      -0.532075       -14.4785
 183   2.0000      -0.530495       -14.4355
 184   2.0000      -0.527440       -14.3524
 185   2.0000      -0.523284       -14.2393
 186   2.0000      -0.520657       -14.1678
 187   2.0000      -0.519191       -14.1279
 188   2.0000      -0.514357       -13.9964
 189   2.0000      -0.511894       -13.9293
 190   2.0000      -0.508712       -13.8428
 191   2.0000      -0.506155       -13.7732
 192   2.0000      -0.504587       -13.7305
 193   2.0000      -0.503495       -13.7008
 194   2.0000      -0.501766       -13.6538
 195   2.0000      -0.497651       -13.5418
 196   2.0000      -0.494127       -13.4459
 197   2.0000      -0.491956       -13.3868
 198   2.0000      -0.491761       -13.3815
 199   2.0000      -0.489011       -13.3067
 200   2.0000      -0.487531       -13.2664
 201   2.0000      -0.487083       -13.2542
 202   2.0000      -0.484623       -13.1873
 203   2.0000      -0.482450       -13.1281
 204   2.0000      -0.480107       -13.0644
 205   2.0000      -0.479207       -13.0399
 206   2.0000      -0.476404       -12.9636
 207   2.0000      -0.475253       -12.9323
 208   2.0000      -0.475104       -12.9282
 209   2.0000      -0.473439       -12.8829
 210   2.0000      -0.471564       -12.8319
 211   2.0000      -0.469302       -12.7704
 212   2.0000      -0.468757       -12.7555
 213   2.0000      -0.467729       -12.7275
 214   2.0000      -0.464385       -12.6366
 215   2.0000      -0.461387       -12.5550
 216   2.0000      -0.458205       -12.4684
 217   2.0000      -0.452926       -12.3248
 218   2.0000      -0.451757       -12.2929
 219   2.0000      -0.448702       -12.2098
 220   2.0000      -0.448158       -12.1950
 221   2.0000      -0.444128       -12.0853
 222   2.0000      -0.440380       -11.9834
 223   2.0000      -0.437524       -11.9056
 224   2.0000      -0.436081       -11.8664
 225   2.0000      -0.433586       -11.7985
 226   2.0000      -0.432150       -11.7594
 227   2.0000      -0.430221       -11.7069
 228   2.0000      -0.426136       -11.5958
 229   2.0000      -0.419422       -11.4131
 230   2.0000      -0.413720       -11.2579
 231   2.0000      -0.403254       -10.9731
 232   2.0000      -0.394292       -10.7292
 233   2.0000      -0.386602       -10.5200
 234   2.0000      -0.380780       -10.3616
 235   2.0000      -0.377498       -10.2722
 236   2.0000      -0.371085       -10.0977
 237   2.0000      -0.363918        -9.9027
 238   2.0000      -0.361126        -9.8267
 239   2.0000      -0.360179        -9.8010
 240   2.0000      -0.354549        -9.6478
 241   2.0000      -0.348403        -9.4805
 242   2.0000      -0.342316        -9.3149
 243   2.0000      -0.335854        -9.1391
 244   2.0000      -0.334864        -9.1121
 245   2.0000      -0.328842        -8.9483
 246   2.0000      -0.325402        -8.8546
 247   2.0000      -0.323656        -8.8071
 248   2.0000      -0.316786        -8.6202
 249   2.0000      -0.293836        -7.9957
 250   2.0000      -0.287516        -7.8237
 251   2.0000      -0.286891        -7.8067
 252   2.0000      -0.276816        -7.5325
 253   2.0000      -0.234779        -6.3887
 254   0.0000      -0.138627        -3.7722
 255   0.0000      -0.102249        -2.7823
 256   0.0000      -0.064318        -1.7502
 257   0.0000      -0.055669        -1.5148
 258   0.0000      -0.037090        -1.0093

MULLIKEN ATOMIC CHARGES
-----------------------
   0 C :   -0.105347
   1 S :    0.159668
   2 C :   -0.275925
   3 C :    0.546953
   4 F :   -0.162713
   5 F :   -0.154495
   6 F :   -0.168886
   7 C :    0.097652
   8 C :   -0.035101
   9 C :    0.079041
  10 C :    0.042181
  11 N :    0.266116
  12 O :   -0.261238
  13 O :   -0.247320
  14 C :   -0.002102
  15 C :   -0.001573
  16 C :   -0.016096
  17 C :    0.007252
  18 C :   -0.019028
  19 C :    0.029363
  20 C :    0.064587
  21 N :    0.279166
  22 O :   -0.285885
  23 O :   -0.273070
  24 C :    0.051286
  25 C :   -0.047911
  26 C :   -0.013763
  27 C :    0.089211
  28 C :   -0.134570
  29 C :    0.195057
  30 O :   -0.295850
  31 C :    0.179145
  32 C :    0.043890
  33 C :    0.089715
  34 C :    0.000587
  35 C :   -0.165577
  36 C :    0.219961
  37 O :   -0.234743
  38 C :    0.158167
  39 C :    0.033730
  40 C :    0.038799
  41 C :   -0.066037
  42 C :    0.031513
  43 C :   -0.088915
  44 C :   -0.030875
  45 C :   -0.304628
  46 N :    0.191332
  47 C :    0.153039
  48 C :   -0.238184
  49 S :    0.172518
  50 S :    0.196790
  51 C :   -0.234813
  52 C :    0.146580
  53 C :   -0.026627
  54 C :   -0.317138
  55 N :    0.202122
  56 C :   -0.037519
  57 S :    0.177536
  58 C :   -0.098078
  59 S :    0.165563
  60 C :   -0.225359
  61 C :    0.548090
  62 F :   -0.162343
  63 F :   -0.162662
  64 F :   -0.152713
  65 C :    0.050083
  66 C :   -0.005424
  67 H :    0.030646
  68 H :    0.000417
  69 H :   -0.014950
  70 H :   -0.011007
  71 H :   -0.004480
  72 H :    0.003145
  73 H :    0.014164
  74 H :    0.018477
  75 H :   -0.006942
  76 H :    0.046158
  77 H :    0.036672
  78 H :    0.036861
  79 H :   -0.005335
  80 H :    0.073559
  81 H :    0.037633
  82 H :    0.038627
  83 H :    0.012073
  84 H :    0.003318
  85 H :    0.011456
  86 H :   -0.002847
  87 H :    0.010194
  88 H :    0.017975
Sum of atomic charges:   -0.0000000

LOEWDIN ATOMIC CHARGES
----------------------
   0 C :   -0.171641
   1 S :    0.467155
   2 C :   -0.247093
   3 C :    0.149993
   4 F :   -0.065766
   5 F :   -0.053293
   6 F :   -0.070640
   7 C :   -0.009032
   8 C :   -0.069852
   9 C :   -0.015895
  10 C :   -0.055234
  11 N :    0.285077
  12 O :   -0.221517
  13 O :   -0.212504
  14 C :   -0.031528
  15 C :   -0.038929
  16 C :   -0.012548
  17 C :    0.051810
  18 C :   -0.072958
  19 C :    0.051627
  20 C :   -0.104081
  21 N :    0.286936
  22 O :   -0.252541
  23 O :   -0.236985
  24 C :    0.021150
  25 C :   -0.010779
  26 C :    0.037254
  27 C :   -0.028486
  28 C :   -0.029754
  29 C :    0.054014
  30 O :   -0.076525
  31 C :    0.085320
  32 C :   -0.033914
  33 C :   -0.013818
  34 C :    0.079357
  35 C :   -0.155070
  36 C :    0.109586
  37 O :   -0.022384
  38 C :    0.085563
  39 C :    0.006297
  40 C :    0.002586
  41 C :   -0.002013
  42 C :   -0.046776
  43 C :   -0.122343
  44 C :   -0.105973
  45 C :   -0.033850
  46 N :   -0.040567
  47 C :   -0.058577
  48 C :   -0.336001
  49 S :    0.454989
  50 S :    0.429038
  51 C :   -0.332696
  52 C :   -0.061292
  53 C :   -0.096575
  54 C :   -0.033661
  55 N :   -0.032229
  56 C :   -0.143415
  57 S :    0.452595
  58 C :   -0.183043
  59 S :    0.458959
  60 C :   -0.236962
  61 C :    0.148898
  62 F :   -0.065159
  63 F :   -0.065542
  64 F :   -0.052100
  65 C :   -0.025234
  66 C :   -0.037151
  67 H :    0.023624
  68 H :    0.037228
  69 H :    0.030743
  70 H :    0.027373
  71 H :    0.029400
  72 H :    0.038976
  73 H :    0.034953
  74 H :    0.037012
  75 H :    0.032675
  76 H :    0.032659
  77 H :    0.022829
  78 H :    0.023418
  79 H :    0.023267
  80 H :    0.039647
  81 H :    0.025345
  82 H :    0.020602
  83 H :    0.042088
  84 H :    0.032585
  85 H :    0.038257
  86 H :    0.028295
  87 H :    0.042286
  88 H :    0.042461

  Mayer bond orders larger than 0.100000
B(  0-C ,  1-S ) :   1.1702 B(  0-C ,  8-C ) :   1.5709 B(  0-C , 67-H ) :   0.9664
B(  1-S ,  2-C ) :   1.1335 B(  2-C ,  3-C ) :   0.9591 B(  2-C ,  7-C ) :   1.5909
B(  3-C ,  4-F ) :   1.1784 B(  3-C ,  5-F ) :   1.1768 B(  3-C ,  6-F ) :   1.1682
B(  7-C ,  8-C ) :   1.2348 B(  7-C , 68-H ) :   1.0007 B(  8-C ,  9-C ) :   0.9667
B(  9-C , 10-C ) :   1.5117 B(  9-C , 16-C ) :   1.1795 B( 10-C , 11-N ) :   0.9494
B( 10-C , 14-C ) :   1.1500 B( 11-N , 12-O ) :   1.4826 B( 11-N , 13-O ) :   1.5292
B( 12-O , 13-O ) :   0.2500 B( 14-C , 15-C ) :   1.5681 B( 14-C , 69-H ) :   1.0168
B( 15-C , 16-C ) :   1.1227 B( 15-C , 70-H ) :   0.9980 B( 16-C , 17-C ) :   1.3351
B( 17-C , 18-C ) :   1.2759 B( 17-C , 24-C ) :   0.9912 B( 18-C , 19-C ) :   1.4169
B( 18-C , 71-H ) :   1.0100 B( 19-C , 20-C ) :   1.2172 B( 19-C , 72-H ) :   1.0107
B( 20-C , 21-N ) :   0.9937 B( 20-C , 24-C ) :   1.3088 B( 21-N , 22-O ) :   1.4692
B( 21-N , 23-O ) :   1.5178 B( 22-O , 23-O ) :   0.2328 B( 24-C , 25-C ) :   1.3738
B( 25-C , 26-C ) :   1.3195 B( 25-C , 73-H ) :   0.9565 B( 26-C , 27-C ) :   1.3114
B( 26-C , 74-H ) :   0.9497 B( 27-C , 28-C ) :   1.2873 B( 27-C , 33-C ) :   1.0815
B( 28-C , 29-C ) :   1.2658 B( 28-C , 75-H ) :   1.0159 B( 29-C , 30-O ) :   1.1726
B( 29-C , 32-C ) :   1.2890 B( 30-O , 31-C ) :   0.9373 B( 31-C , 76-H ) :   0.9794
B( 31-C , 77-H ) :   0.9711 B( 31-C , 78-H ) :   0.9708 B( 32-C , 33-C ) :   1.1400
B( 32-C , 41-C ) :   1.2002 B( 33-C , 34-C ) :   1.4189 B( 34-C , 35-C ) :   1.1861
B( 34-C , 40-C ) :   1.0246 B( 35-C , 36-C ) :   1.4298 B( 35-C , 79-H ) :   0.9976
B( 36-C , 37-O ) :   1.2882 B( 36-C , 39-C ) :   1.0429 B( 37-O , 38-C ) :   0.9080
B( 38-C , 80-H ) :   0.9738 B( 38-C , 81-H ) :   0.9710 B( 38-C , 82-H ) :   0.9635
B( 39-C , 40-C ) :   1.7331 B( 39-C , 83-H ) :   1.0146 B( 40-C , 84-H ) :   1.0015
B( 41-C , 42-C ) :   1.6020 B( 41-C , 85-H ) :   0.9522 B( 42-C , 43-C ) :   1.1630
B( 42-C , 86-H ) :   0.9393 B( 43-C , 44-C ) :   1.4519 B( 43-C , 49-S ) :   1.1280
B( 44-C , 45-C ) :   1.1937 B( 44-C , 47-C ) :   1.2693 B( 45-C , 46-N ) :   2.9268
B( 47-C , 48-C ) :   1.4013 B( 47-C , 52-C ) :   1.0672 B( 48-C , 49-S ) :   1.0917
B( 48-C , 50-S ) :   1.0839 B( 50-S , 51-C ) :   1.0838 B( 51-C , 52-C ) :   1.4188
B( 51-C , 57-S ) :   1.0918 B( 52-C , 53-C ) :   1.2537 B( 53-C , 54-C ) :   1.1761
B( 53-C , 56-C ) :   1.5458 B( 54-C , 55-N ) :   2.9380 B( 56-C , 57-S ) :   1.1331
B( 56-C , 58-C ) :   1.1319 B( 58-C , 59-S ) :   1.1298 B( 58-C , 60-C ) :   0.1152
B( 58-C , 66-C ) :   1.5338 B( 59-S , 60-C ) :   1.1309 B( 60-C , 61-C ) :   0.9543
B( 60-C , 65-C ) :   1.5805 B( 61-C , 62-F ) :   1.1772 B( 61-C , 63-F ) :   1.1770
B( 61-C , 64-F ) :   1.1793 B( 65-C , 66-C ) :   1.2392 B( 65-C , 87-H ) :   1.0023
B( 66-C , 88-H ) :   0.9895

-----------------------------------------------------------------------------
         ABSORPTION SPECTRUM VIA TRANSITION ELECTRIC DIPOLE MOMENTS
-----------------------------------------------------------------------------
State   Energy  Wavelength   fosc         T2         TX        TY        TZ
        (cm-1)    (nm)                  (au**2)     (au)      (au)      (au)
-----------------------------------------------------------------------------
   0    4586.0   2180.6   0.147663546  10.60023   2.40347   2.19624  -0.00922
   1   10740.4    931.1   0.041861950   1.28314  -0.54351  -0.00768   0.99382
   2   12922.8    773.8   0.067340045   1.71551   0.82195   1.01834   0.05378
   3   14279.3    700.3   0.128515670   2.96295  -1.06352  -0.64728  -1.18865
   4   16536.5    604.7   0.148025238   2.94691   1.44133   0.79221  -0.49183
   5   19874.7    503.2   0.087447462   1.44851  -0.77456  -0.84194   0.37377
   6   20465.3    488.6   0.071895510   1.15654   0.74623   0.71392  -0.29998
   7   21273.3    470.1   0.002926396   0.04529   0.20964   0.03480  -0.01134
   8   21903.2    456.6   0.381986836   5.74138  -1.83246  -1.17365   1.00301
   9   22362.9    447.2   0.379743669   5.59034  -1.79366  -1.38755  -0.66919
  10   23692.7    422.1   0.344089645   4.78115   0.92222   0.18415  -1.97402
  11   24258.9    412.2   0.007832587   0.10629  -0.31181   0.02023   0.09307
  12   24572.4    407.0   0.045406839   0.60834   0.65601   0.36306  -0.21491
  13   25023.7    399.6   0.142806881   1.87876  -1.27282  -0.47915   0.17063
  14   25863.0    386.7   0.003170254   0.04035  -0.11106  -0.11044  -0.12579
  15   26327.1    379.8   0.379124960   4.74084  -1.26183  -0.35667   1.73822
  16   26626.1    375.6   0.006127039   0.07576   0.19113   0.18036  -0.08182
  17   27306.6    366.2   0.053070941   0.63983   0.02839   0.47628   0.64202
  18   28895.7    346.1   0.002781580   0.03169   0.14773   0.06821  -0.07220
  19   29112.6    343.5   0.006732602   0.07613   0.20192   0.06571   0.17620
  20   29434.7    339.7   0.014556970   0.16281   0.03768   0.25841   0.30760
  21   30179.9    331.3   0.020497968   0.22360   0.32156   0.16876  -0.30285
  22   30339.4    329.6   0.135054513   1.46547  -0.69959  -0.16230  -0.97453
  23   30600.4    326.8   0.017496255   0.18823  -0.42960  -0.04534   0.04024
  24   30693.9    325.8   0.004592501   0.04926   0.02465   0.03380   0.21796
  25   31529.8    317.2   0.657940891   6.86975  -1.52857  -0.36903   2.09691
  26   31673.2    315.7   0.100101536   1.04046  -0.19732  -0.78952   0.61497
  27   31863.8    313.8   0.393355491   4.06410   0.01584   0.59431  -1.92630
  28   32387.1    308.8   0.045625102   0.46378   0.40961   0.01359  -0.54389
  29   32567.0    307.1   0.028872658   0.29187  -0.33904  -0.31067  -0.28355
  30   33057.9    302.5   0.048510852   0.48310   0.39349   0.31023  -0.48169
  31   33360.9    299.8   0.038093318   0.37591  -0.05129  -0.14590   0.59329
  32   33545.2    298.1   0.057441693   0.56373  -0.01394  -0.12370  -0.74043
  33   33715.3    296.6   0.001142435   0.01116  -0.01040   0.02030   0.10313
  34   33840.9    295.5   0.009025356   0.08780   0.13386  -0.05147   0.25929
  35   34095.5    293.3   0.024506623   0.23663  -0.45263  -0.07595   0.16119
  36   34812.9    287.2   0.009101613   0.08607  -0.20934  -0.08297  -0.18806
  37   34875.6    286.7   0.031432128   0.29671   0.15231   0.31289   0.41906
  38   35213.0    284.0   0.188098505   1.75856   0.66984  -0.31393  -1.10061
  39   35610.3    280.8   0.013923296   0.12872   0.04520   0.17483   0.31002
  40   36009.9    277.7   0.002484986   0.02272  -0.09570   0.03462   0.11119
  41   36384.5    274.8   0.007221565   0.06534   0.00430  -0.04474   0.25164
  42   36791.5    271.8   0.241943102   2.16492  -0.67905   0.12468   1.29933
  43   37138.2    269.3   0.014388376   0.12755  -0.28499  -0.21274   0.03274
  44   37469.2    266.9   0.060230593   0.52920  -0.21355  -0.01219  -0.69530
  45   37478.4    266.8   0.106288725   0.93364  -0.56323  -0.47072  -0.62836
  46   37659.1    265.5   0.009150933   0.08000  -0.23000  -0.13032  -0.10056
  47   38257.6    261.4   0.037931325   0.32640  -0.09287  -0.01481   0.56353
  48   38343.1    260.8   0.042592065   0.36569   0.02174   0.08338   0.59855
  49   38792.9    257.8   0.048782441   0.41399  -0.58964  -0.23357  -0.10841
  50   38861.0    257.3   0.014609520   0.12377   0.21206   0.14596   0.23978
  51   38908.8    257.0   0.002321961   0.01965   0.01663  -0.07606  -0.11655
  52   39043.8    256.1   0.003476074   0.02931   0.12513   0.07015  -0.09344
  53   39856.8    250.9   0.019659500   0.16238   0.21479   0.34078  -0.01074
  54   39965.6    250.2   0.001054862   0.00869   0.07457   0.05553   0.00670
  55   39995.4    250.0   0.102090860   0.84033   0.12583   0.00396  -0.90801
  56   40296.8    248.2   0.024248713   0.19810  -0.31840  -0.24263  -0.19456

FINAL SINGLE POINT ENERGY     -5021.873379399482

DIPOLE MOMENT
-------------
                                X             Y             Z
Electronic contribution:     39.16519      36.86591     -50.26594
Nuclear contribution   :    -36.15850     -34.53548      52.73295
                        -----------------------------------------
Total Dipole Moment    :      3.00669       2.33042       2.46700
                        -----------------------------------------
Magnitude (a.u.)       :      4.53400
Magnitude (Debye)      :     11.52452

Rotational constants in cm-1:     0.001495     0.000325     0.000275
Rotational constants in MHz :    44.825246     9.739049     8.241126

                             ****ORCA TERMINATED NORMALLY****
TOTAL RUN TIME: 0 days 0 hours 10 minutes 11 seconds 230 msec
