                         Program Version 4.2.0 -  RELEASE  -
|  1> # ORCA input file
|  2> # SCF done       -216.143105935157          0.000985095775
|  3> ! CAM-B3LYP def2-SVP def2/J RIJCOSX Grid4 TightSCF
|  4> %maxcore 5000
|  5> %tddft
|  6>     Mode sTDDFT
|  7>     Ethresh 5.0
|  8>     maxcore 5000
|  9> end
| 10>
| 11> %pal
| 12>   nprocs 6
| 13>   end
| 14> * xyz 0 1
| 15>    C       15.36669        -7.80860         5.79795
| 16>    C       15.61834        -8.61386         6.87397
| 17>    F       16.84617        -9.13925         7.03445
| 18>    C       14.64007        -8.91813         7.83022
| 19>    C       13.38669        -8.39170         7.68444
| 20>    C       13.07241        -7.55471         6.59429
| 21>    C       14.08096        -7.25904         5.63120
| 22>    C       13.78687        -6.42953         4.52324
| 23>    C       12.52795        -5.91170         4.39008
| 24>    C       11.52800        -6.19707         5.36475
| 25>    C       11.78177        -7.00076         6.43815
| 26>    C       10.28400        -5.48942         5.00683
| 27>    O        9.21312        -5.52767         5.56967
| 28>    C       10.63865        -4.65167         3.82952
| 29>    C       11.93227        -5.07358         3.35216
| 30>    C       12.39774        -4.95378         2.06633
| 31>    C       11.62833        -4.39866         1.02539
| 32>    N       10.99676        -3.99089         0.15715
| 33>    C       13.63797        -5.45873         1.63056
| 34>    N       14.64944        -5.83215         1.23630
| 35>    C        9.79987        -3.63255         3.47228
| 36>    C       10.05011        -2.45616         2.74998
| 37>    S       11.63703        -1.81298         2.46909
| 38>    C       11.04045        -0.34056         1.78960
| 39>    C        9.63330        -0.36886         1.70737
| 40>    C        9.07575        -1.55188         2.27741
| 41>    C        7.68413        -1.74533         2.28365
| 42>    C        6.88237        -0.79313         1.71875
| 43>    F        5.55354        -0.95273         1.71657
| 44>    C        7.43486         0.35184         1.10497
| 45>    F        6.61610         1.23561         0.51714
| 46>    C        8.78454         0.56728         1.08933
| 47>    C       11.97265         0.66721         1.45398
| 48>    C       11.71163         1.99822         1.35890
| 49>    C       12.67809         2.97406         1.02283
| 50>    S       14.27781         2.54872         0.49338
| 51>    C       14.74913         4.22155         0.34765
| 52>    C       13.69606         5.05933         0.71115
| 53>    C       12.53615         4.35805         1.06721
| 54>    C       11.25914         5.05530         1.43828
| 55>    C       11.24923         6.40662         0.75668
| 56>    O       10.43285         6.76821        -0.04160
| 57>    C       12.47076         7.20065         1.19157
| 58>    O       12.42286         8.19365         1.86431
| 59>    C       13.76263         6.55687         0.73452
| 60>    C       16.05833         4.46733        -0.14091
| 61>    C       16.69941         5.66175        -0.22850
| 62>    C       17.99622         5.88688        -0.75552
| 63>    S       18.80653         7.33592        -0.25776
| 64>    C       20.20401         7.02384        -1.22792
| 65>    C       20.06392         5.79528        -1.89404
| 66>    C       18.80455         5.15934        -1.64742
| 67>    C       18.49856         3.96042        -2.32194
| 68>    C       19.44732         3.37818        -3.11223
| 69>    F       19.16610         2.23587        -3.75376
| 70>    C       20.73586         3.94376        -3.25073
| 71>    F       21.65830         3.29455        -3.97195
| 72>    C       21.04398         5.13533        -2.66368
| 73>    C       21.27552         7.95808        -1.20394
| 74>    C       22.07045         8.34890        -2.23941
| 75>    C       21.83205         8.02567        -3.59381
| 76>    C       22.52096         8.40958        -4.70594
| 77>    C       22.25343         7.66762        -5.97239
| 78>    O       21.31404         6.93500        -6.18624
| 79>    C       23.39368         7.97311        -6.85225
| 80>    C       23.68897         7.46406        -8.08424
| 81>    C       24.86448         7.88932        -8.74173
| 82>    C       25.72215         8.82894        -8.09853
| 83>    C       26.89576         9.24505        -8.75639
| 84>    C       27.18329         8.74493        -9.99601
| 85>    C       26.35191         7.82219       -10.64583
| 86>    C       25.21050         7.40475       -10.01994
| 87>    F       28.30163         9.14371       -10.62727
| 88>    C       25.38993         9.34057        -6.82224
| 89>    C       24.23615         8.92830        -6.21242
| 90>    C       23.61952         9.31946        -4.94481
| 91>    C       23.90560        10.47491        -4.26489
| 92>    C       23.12122        11.00970        -3.22238
| 93>    N       22.49618        11.52014        -2.40569
| 94>    C       24.96631        11.34150        -4.60382
| 95>    N       25.82160        12.07622        -4.81934
| 96>    H       16.14344        -7.59927         5.07916
| 97>    H       14.89666        -9.55959         8.65829
| 98>    H       12.61620        -8.61169         8.40797
| 99>    H       14.56914        -6.21619         3.81188
|100>    H       11.00771        -7.21239         7.16047
|101>    H        8.80903        -3.70371         3.91175
|102>    H        7.24109        -2.63150         2.70697
|103>    H        9.17290         1.42396         0.56586
|104>    H       12.99729         0.33750         1.33068
|105>    H       10.72856         2.36838         1.60643
|106>    H       11.21485         5.20736         2.52208
|107>    H       10.38311         4.48497         1.12614
|108>    H       14.56253         6.90825         1.39311
|109>    H       13.96678         6.93421        -0.27458
|110>    H       16.58741         3.57296        -0.43661
|111>    H       16.24197         6.54454         0.18966
|112>    H       17.52903         3.49991        -2.24546
|113>    H       22.03091         5.55091        -2.78211
|114>    H       21.42453         8.45791        -0.25431
|115>    H       22.89016         9.00992        -2.00537
|116>    H       21.00117         7.36200        -3.80624
|117>    H       23.03185         6.74654        -8.55220
|118>    H       27.55706         9.95709        -8.28787
|119>    H       26.63054         7.46261       -11.62363
|120>    H       24.55438         6.69449       -10.50003
|121>    H       26.06360        10.04229        -6.35683
|122> *
|123>
|124>                          ****END OF INPUT****

CARTESIAN COORDINATES (ANGSTROEM)
---------------------------------
  C     15.366690   -7.808600    5.797950
  C     15.618340   -8.613860    6.873970
  F     16.846170   -9.139250    7.034450
  C     14.640070   -8.918130    7.830220
  C     13.386690   -8.391700    7.684440
  C     13.072410   -7.554710    6.594290
  C     14.080960   -7.259040    5.631200
  C     13.786870   -6.429530    4.523240
  C     12.527950   -5.911700    4.390080
  C     11.528000   -6.197070    5.364750
  C     11.781770   -7.000760    6.438150
  C     10.284000   -5.489420    5.006830
  O      9.213120   -5.527670    5.569670
  C     10.638650   -4.651670    3.829520
  C     11.932270   -5.073580    3.352160
  C     12.397740   -4.953780    2.066330
  C     11.628330   -4.398660    1.025390
  N     10.996760   -3.990890    0.157150
  C     13.637970   -5.458730    1.630560
  N     14.649440   -5.832150    1.236300
  C      9.799870   -3.632550    3.472280
  C     10.050110   -2.456160    2.749980
  S     11.637030   -1.812980    2.469090
  C     11.040450   -0.340560    1.789600
  C      9.633300   -0.368860    1.707370
  C      9.075750   -1.551880    2.277410
  C      7.684130   -1.745330    2.283650
  C      6.882370   -0.793130    1.718750
  F      5.553540   -0.952730    1.716570
  C      7.434860    0.351840    1.104970
  F      6.616100    1.235610    0.517140
  C      8.784540    0.567280    1.089330
  C     11.972650    0.667210    1.453980
  C     11.711630    1.998220    1.358900
  C     12.678090    2.974060    1.022830
  S     14.277810    2.548720    0.493380
  C     14.749130    4.221550    0.347650
  C     13.696060    5.059330    0.711150
  C     12.536150    4.358050    1.067210
  C     11.259140    5.055300    1.438280
  C     11.249230    6.406620    0.756680
  O     10.432850    6.768210   -0.041600
  C     12.470760    7.200650    1.191570
  O     12.422860    8.193650    1.864310
  C     13.762630    6.556870    0.734520
  C     16.058330    4.467330   -0.140910
  C     16.699410    5.661750   -0.228500
  C     17.996220    5.886880   -0.755520
  S     18.806530    7.335920   -0.257760
  C     20.204010    7.023840   -1.227920
  C     20.063920    5.795280   -1.894040
  C     18.804550    5.159340   -1.647420
  C     18.498560    3.960420   -2.321940
  C     19.447320    3.378180   -3.112230
  F     19.166100    2.235870   -3.753760
  C     20.735860    3.943760   -3.250730
  F     21.658300    3.294550   -3.971950
  C     21.043980    5.135330   -2.663680
  C     21.275520    7.958080   -1.203940
  C     22.070450    8.348900   -2.239410
  C     21.832050    8.025670   -3.593810
  C     22.520960    8.409580   -4.705940
  C     22.253430    7.667620   -5.972390
  O     21.314040    6.935000   -6.186240
  C     23.393680    7.973110   -6.852250
  C     23.688970    7.464060   -8.084240
  C     24.864480    7.889320   -8.741730
  C     25.722150    8.828940   -8.098530
  C     26.895760    9.245050   -8.756390
  C     27.183290    8.744930   -9.996010
  C     26.351910    7.822190  -10.645830
  C     25.210500    7.404750  -10.019940
  F     28.301630    9.143710  -10.627270
  C     25.389930    9.340570   -6.822240
  C     24.236150    8.928300   -6.212420
  C     23.619520    9.319460   -4.944810
  C     23.905600   10.474910   -4.264890
  C     23.121220   11.009700   -3.222380
  N     22.496180   11.520140   -2.405690
  C     24.966310   11.341500   -4.603820
  N     25.821600   12.076220   -4.819340
  H     16.143440   -7.599270    5.079160
  H     14.896660   -9.559590    8.658290
  H     12.616200   -8.611690    8.407970
  H     14.569140   -6.216190    3.811880
  H     11.007710   -7.212390    7.160470
  H      8.809030   -3.703710    3.911750
  H      7.241090   -2.631500    2.706970
  H      9.172900    1.423960    0.565860
  H     12.997290    0.337500    1.330680
  H     10.728560    2.368380    1.606430
  H     11.214850    5.207360    2.522080
  H     10.383110    4.484970    1.126140
  H     14.562530    6.908250    1.393110
  H     13.966780    6.934210   -0.274580
  H     16.587410    3.572960   -0.436610
  H     16.241970    6.544540    0.189660
  H     17.529030    3.499910   -2.245460
  H     22.030910    5.550910   -2.782110
  H     21.424530    8.457910   -0.254310
  H     22.890160    9.009920   -2.005370
  H     21.001170    7.362000   -3.806240
  H     23.031850    6.746540   -8.552200
  H     27.557060    9.957090   -8.287870
  H     26.630540    7.462610  -11.623630
  H     24.554380    6.694490  -10.500030
  H     26.063600   10.042290   -6.356830

 Total Charge           Charge          ....    0
 Multiplicity           Mult            ....    1
 Number of Electrons    NEL             ....  572
 Basis Dimension        Dim             .... 1276

ORBITAL ENERGIES
----------------

  NO   OCC          E(Eh)            E(eV)
   0   2.0000     -88.990435     -2421.5529
   1   2.0000     -88.989553     -2421.5288
   2   2.0000     -88.979913     -2421.2665
   3   2.0000     -24.801418      -674.8809
   4   2.0000     -24.799106      -674.8180
   5   2.0000     -24.798671      -674.8061
   6   2.0000     -24.798068      -674.7897
   7   2.0000     -24.787691      -674.5074
   8   2.0000     -24.785447      -674.4463
   9   2.0000     -19.242703      -523.6206
  10   2.0000     -19.242604      -523.6179
  11   2.0000     -19.216869      -522.9176
  12   2.0000     -19.210875      -522.7545
  13   2.0000     -14.419483      -392.3741
  14   2.0000     -14.418736      -392.3538
  15   2.0000     -14.414197      -392.2302
  16   2.0000     -14.413803      -392.2195
  17   2.0000     -10.386251      -282.6243
  18   2.0000     -10.385480      -282.6033
  19   2.0000     -10.384811      -282.5851
  20   2.0000     -10.382420      -282.5200
  21   2.0000     -10.382223      -282.5146
  22   2.0000     -10.381902      -282.5059
  23   2.0000     -10.371615      -282.2260
  24   2.0000     -10.368827      -282.1501
  25   2.0000     -10.367597      -282.1167
  26   2.0000     -10.362801      -281.9861
  27   2.0000     -10.348830      -281.6060
  28   2.0000     -10.345994      -281.5288
  29   2.0000     -10.342345      -281.4295
  30   2.0000     -10.340658      -281.3836
  31   2.0000     -10.339953      -281.3644
  32   2.0000     -10.333742      -281.1954
  33   2.0000     -10.332706      -281.1672
  34   2.0000     -10.328895      -281.0635
  35   2.0000     -10.328101      -281.0419
  36   2.0000     -10.324785      -280.9517
  37   2.0000     -10.322221      -280.8819
  38   2.0000     -10.321719      -280.8682
  39   2.0000     -10.320885      -280.8456
  40   2.0000     -10.320506      -280.8352
  41   2.0000     -10.318045      -280.7683
  42   2.0000     -10.317153      -280.7440
  43   2.0000     -10.317068      -280.7417
  44   2.0000     -10.316627      -280.7297
  45   2.0000     -10.316343      -280.7220
  46   2.0000     -10.315723      -280.7051
  47   2.0000     -10.315124      -280.6888
  48   2.0000     -10.314660      -280.6762
  49   2.0000     -10.313907      -280.6557
  50   2.0000     -10.313599      -280.6473
  51   2.0000     -10.313549      -280.6459
  52   2.0000     -10.313530      -280.6454
  53   2.0000     -10.313281      -280.6387
  54   2.0000     -10.311536      -280.5912
  55   2.0000     -10.310708      -280.5686
  56   2.0000     -10.309159      -280.5265
  57   2.0000     -10.308515      -280.5089
  58   2.0000     -10.307593      -280.4839
  59   2.0000     -10.305168      -280.4179
  60   2.0000     -10.304768      -280.4070
  61   2.0000     -10.304351      -280.3957
  62   2.0000     -10.304213      -280.3919
  63   2.0000     -10.303473      -280.3718
  64   2.0000     -10.302563      -280.3470
  65   2.0000     -10.302553      -280.3467
  66   2.0000     -10.301522      -280.3187
  67   2.0000     -10.300686      -280.2959
  68   2.0000     -10.300017      -280.2777
  69   2.0000     -10.299772      -280.2710
  70   2.0000     -10.299286      -280.2578
  71   2.0000     -10.298540      -280.2375
  72   2.0000     -10.297014      -280.1960
  73   2.0000     -10.296955      -280.1944
  74   2.0000     -10.296517      -280.1825
  75   2.0000     -10.293796      -280.1084
  76   2.0000     -10.293681      -280.1053
  77   2.0000     -10.292551      -280.0746
  78   2.0000     -10.291000      -280.0323
  79   2.0000     -10.288514      -279.9647
  80   2.0000     -10.288365      -279.9606
  81   2.0000      -8.085149      -220.0081
  82   2.0000      -8.085081      -220.0062
  83   2.0000      -8.075557      -219.7471
  84   2.0000      -6.054112      -164.7408
  85   2.0000      -6.053969      -164.7369
  86   2.0000      -6.049946      -164.6274
  87   2.0000      -6.049913      -164.6265
  88   2.0000      -6.048017      -164.5749
  89   2.0000      -6.047912      -164.5720
  90   2.0000      -6.044692      -164.4844
  91   2.0000      -6.040832      -164.3794
  92   2.0000      -6.037659      -164.2931
  93   2.0000      -1.323548       -36.0156
  94   2.0000      -1.321448       -35.9584
  95   2.0000      -1.308280       -35.6001
  96   2.0000      -1.306573       -35.5537
  97   2.0000      -1.302840       -35.4521
  98   2.0000      -1.300414       -35.3861
  99   2.0000      -1.169295       -31.8181
 100   2.0000      -1.147766       -31.2323
 101   2.0000      -1.131968       -30.8024
 102   2.0000      -1.126377       -30.6503
 103   2.0000      -1.027542       -27.9608
 104   2.0000      -1.024893       -27.8887
 105   2.0000      -1.021981       -27.8095
 106   2.0000      -1.019959       -27.7545
 107   2.0000      -1.015850       -27.6427
 108   2.0000      -1.003502       -27.3067
 109   2.0000      -0.999134       -27.1878
 110   2.0000      -0.997356       -27.1394
 111   2.0000      -0.992731       -27.0136
 112   2.0000      -0.979046       -26.6412
 113   2.0000      -0.975399       -26.5420
 114   2.0000      -0.962481       -26.1904
 115   2.0000      -0.961268       -26.1574
 116   2.0000      -0.946925       -25.7671
 117   2.0000      -0.942144       -25.6371
 118   2.0000      -0.934777       -25.4366
 119   2.0000      -0.928822       -25.2745
 120   2.0000      -0.925124       -25.1739
 121   2.0000      -0.917041       -24.9539
 122   2.0000      -0.905465       -24.6390
 123   2.0000      -0.896550       -24.3964
 124   2.0000      -0.892093       -24.2751
 125   2.0000      -0.887458       -24.1490
 126   2.0000      -0.885010       -24.0823
 127   2.0000      -0.878602       -23.9080
 128   2.0000      -0.872655       -23.7462
 129   2.0000      -0.867434       -23.6041
 130   2.0000      -0.860542       -23.4165
 131   2.0000      -0.855052       -23.2672
 132   2.0000      -0.853134       -23.2150
 133   2.0000      -0.838970       -22.8295
 134   2.0000      -0.836327       -22.7576
 135   2.0000      -0.833713       -22.6865
 136   2.0000      -0.827533       -22.5183
 137   2.0000      -0.821623       -22.3575
 138   2.0000      -0.807831       -21.9822
 139   2.0000      -0.794456       -21.6182
 140   2.0000      -0.776990       -21.1430
 141   2.0000      -0.765790       -20.8382
 142   2.0000      -0.760159       -20.6850
 143   2.0000      -0.754534       -20.5319
 144   2.0000      -0.753360       -20.5000
 145   2.0000      -0.750719       -20.4281
 146   2.0000      -0.738583       -20.0979
 147   2.0000      -0.735908       -20.0251
 148   2.0000      -0.729435       -19.8489
 149   2.0000      -0.722444       -19.6587
 150   2.0000      -0.720962       -19.6184
 151   2.0000      -0.711668       -19.3655
 152   2.0000      -0.709613       -19.3096
 153   2.0000      -0.708116       -19.2688
 154   2.0000      -0.693633       -18.8747
 155   2.0000      -0.687023       -18.6949
 156   2.0000      -0.683401       -18.5963
 157   2.0000      -0.682826       -18.5806
 158   2.0000      -0.678302       -18.4575
 159   2.0000      -0.677541       -18.4368
 160   2.0000      -0.668074       -18.1792
 161   2.0000      -0.659110       -17.9353
 162   2.0000      -0.654277       -17.8038
 163   2.0000      -0.644971       -17.5505
 164   2.0000      -0.643370       -17.5070
 165   2.0000      -0.636874       -17.3302
 166   2.0000      -0.633879       -17.2487
 167   2.0000      -0.631457       -17.1828
 168   2.0000      -0.629839       -17.1388
 169   2.0000      -0.627488       -17.0748
 170   2.0000      -0.625669       -17.0253
 171   2.0000      -0.623246       -16.9594
 172   2.0000      -0.621666       -16.9164
 173   2.0000      -0.618533       -16.8311
 174   2.0000      -0.611819       -16.6484
 175   2.0000      -0.605324       -16.4717
 176   2.0000      -0.599479       -16.3126
 177   2.0000      -0.599061       -16.3013
 178   2.0000      -0.595392       -16.2014
 179   2.0000      -0.590673       -16.0730
 180   2.0000      -0.588242       -16.0069
 181   2.0000      -0.586069       -15.9477
 182   2.0000      -0.585495       -15.9321
 183   2.0000      -0.582154       -15.8412
 184   2.0000      -0.579521       -15.7696
 185   2.0000      -0.576144       -15.6777
 186   2.0000      -0.568811       -15.4781
 187   2.0000      -0.566866       -15.4252
 188   2.0000      -0.563893       -15.3443
 189   2.0000      -0.561430       -15.2773
 190   2.0000      -0.560292       -15.2463
 191   2.0000      -0.559010       -15.2114
 192   2.0000      -0.557853       -15.1800
 193   2.0000      -0.552270       -15.0280
 194   2.0000      -0.551886       -15.0176
 195   2.0000      -0.550911       -14.9911
 196   2.0000      -0.549811       -14.9611
 197   2.0000      -0.549167       -14.9436
 198   2.0000      -0.548112       -14.9149
 199   2.0000      -0.547389       -14.8952
 200   2.0000      -0.546484       -14.8706
 201   2.0000      -0.542250       -14.7554
 202   2.0000      -0.540599       -14.7105
 203   2.0000      -0.536802       -14.6071
 204   2.0000      -0.535705       -14.5773
 205   2.0000      -0.533196       -14.5090
 206   2.0000      -0.531240       -14.4558
 207   2.0000      -0.528712       -14.3870
 208   2.0000      -0.525944       -14.3117
 209   2.0000      -0.525101       -14.2887
 210   2.0000      -0.523665       -14.2496
 211   2.0000      -0.522754       -14.2248
 212   2.0000      -0.522181       -14.2093
 213   2.0000      -0.518458       -14.1080
 214   2.0000      -0.517248       -14.0750
 215   2.0000      -0.512763       -13.9530
 216   2.0000      -0.510088       -13.8802
 217   2.0000      -0.505668       -13.7599
 218   2.0000      -0.502642       -13.6776
 219   2.0000      -0.500121       -13.6090
 220   2.0000      -0.499184       -13.5835
 221   2.0000      -0.497432       -13.5358
 222   2.0000      -0.495853       -13.4929
 223   2.0000      -0.494659       -13.4604
 224   2.0000      -0.491630       -13.3779
 225   2.0000      -0.490264       -13.3407
 226   2.0000      -0.490123       -13.3369
 227   2.0000      -0.484583       -13.1862
 228   2.0000      -0.481982       -13.1154
 229   2.0000      -0.480715       -13.0809
 230   2.0000      -0.479004       -13.0344
 231   2.0000      -0.477712       -12.9992
 232   2.0000      -0.476959       -12.9787
 233   2.0000      -0.474146       -12.9022
 234   2.0000      -0.466640       -12.6979
 235   2.0000      -0.464138       -12.6298
 236   2.0000      -0.460292       -12.5252
 237   2.0000      -0.458088       -12.4652
 238   2.0000      -0.456741       -12.4285
 239   2.0000      -0.455901       -12.4057
 240   2.0000      -0.454441       -12.3660
 241   2.0000      -0.452610       -12.3161
 242   2.0000      -0.451030       -12.2731
 243   2.0000      -0.449931       -12.2432
 244   2.0000      -0.446850       -12.1594
 245   2.0000      -0.445855       -12.1323
 246   2.0000      -0.444489       -12.0951
 247   2.0000      -0.443947       -12.0804
 248   2.0000      -0.443217       -12.0606
 249   2.0000      -0.440142       -11.9769
 250   2.0000      -0.438428       -11.9302
 251   2.0000      -0.436855       -11.8874
 252   2.0000      -0.436067       -11.8660
 253   2.0000      -0.432990       -11.7822
 254   2.0000      -0.431115       -11.7312
 255   2.0000      -0.429130       -11.6772
 256   2.0000      -0.427965       -11.6455
 257   2.0000      -0.426086       -11.5944
 258   2.0000      -0.424166       -11.5421
 259   2.0000      -0.422397       -11.4940
 260   2.0000      -0.416683       -11.3385
 261   2.0000      -0.414496       -11.2790
 262   2.0000      -0.408114       -11.1053
 263   2.0000      -0.405831       -11.0432
 264   2.0000      -0.401949       -10.9376
 265   2.0000      -0.396374       -10.7859
 266   2.0000      -0.384984       -10.4760
 267   2.0000      -0.383672       -10.4402
 268   2.0000      -0.377389       -10.2693
 269   2.0000      -0.373651       -10.1676
 270   2.0000      -0.361102        -9.8261
 271   2.0000      -0.346935        -9.4406
 272   2.0000      -0.341864        -9.3026
 273   2.0000      -0.341099        -9.2818
 274   2.0000      -0.333227        -9.0676
 275   2.0000      -0.329989        -8.9795
 276   2.0000      -0.328523        -8.9396
 277   2.0000      -0.326607        -8.8874
 278   2.0000      -0.322915        -8.7870
 279   2.0000      -0.316402        -8.6097
 280   2.0000      -0.312914        -8.5148
 281   2.0000      -0.308025        -8.3818
 282   2.0000      -0.299672        -8.1545
 283   2.0000      -0.297370        -8.0919
 284   2.0000      -0.268047        -7.2939
 285   2.0000      -0.243911        -6.6372
 286   0.0000      -0.117165        -3.1882
 287   0.0000      -0.102606        -2.7921
 288   0.0000      -0.076951        -2.0939
 289   0.0000      -0.062090        -1.6896
 290   0.0000      -0.055867        -1.5202

MULLIKEN ATOMIC CHARGES
-----------------------
   0 C :   -0.098380
   1 C :    0.303100
   2 F :   -0.190676
   3 C :   -0.032113
   4 C :   -0.009973
   5 C :    0.100642
   6 C :    0.101773
   7 C :   -0.088454
   8 C :    0.042220
   9 C :    0.011050
  10 C :   -0.081750
  11 C :    0.139748
  12 O :   -0.151582
  13 C :   -0.143522
  14 C :    0.256812
  15 C :   -0.330842
  16 C :   -0.220054
  17 N :    0.170510
  18 C :   -0.172146
  19 N :    0.149497
  20 C :    0.014820
  21 C :   -0.125402
  22 S :    0.203839
  23 C :   -0.098885
  24 C :    0.119675
  25 C :    0.159310
  26 C :   -0.108908
  27 C :    0.236704
  28 F :   -0.167470
  29 C :    0.226943
  30 F :   -0.172768
  31 C :   -0.116417
  32 C :    0.021638
  33 C :   -0.007639
  34 C :   -0.102026
  35 S :    0.132292
  36 C :   -0.119309
  37 C :   -0.080978
  38 C :   -0.101472
  39 C :    0.174527
  40 C :    0.012905
  41 O :   -0.131352
  42 C :    0.005057
  43 O :   -0.136333
  44 C :    0.164184
  45 C :    0.029043
  46 C :    0.028786
  47 C :   -0.125964
  48 S :    0.190400
  49 C :   -0.164115
  50 C :    0.140769
  51 C :    0.115694
  52 C :   -0.117363
  53 C :    0.231901
  54 F :   -0.171374
  55 C :    0.241533
  56 F :   -0.169906
  57 C :   -0.123551
  58 C :    0.033366
  59 C :    0.011131
  60 C :    0.015162
  61 C :   -0.114248
  62 C :    0.136762
  63 O :   -0.147338
  64 C :    0.007567
  65 C :   -0.079006
  66 C :    0.100181
  67 C :    0.103040
  68 C :   -0.100172
  69 C :    0.305407
  70 C :   -0.027741
  71 C :   -0.011212
  72 F :   -0.188671
  73 C :   -0.086505
  74 C :    0.040616
  75 C :    0.288402
  76 C :   -0.330838
  77 C :   -0.209994
  78 N :    0.170916
  79 C :   -0.177198
  80 N :    0.151381
  81 H :   -0.003377
  82 H :    0.003230
  83 H :   -0.008967
  84 H :   -0.005408
  85 H :   -0.012192
  86 H :    0.021126
  87 H :    0.003946
  88 H :   -0.007616
  89 H :    0.004359
  90 H :    0.000212
  91 H :    0.061287
  92 H :    0.036173
  93 H :    0.058103
  94 H :    0.066899
  95 H :   -0.006591
  96 H :   -0.017976
  97 H :   -0.009402
  98 H :    0.004956
  99 H :    0.026624
 100 H :    0.010114
 101 H :    0.034832
 102 H :   -0.010120
 103 H :   -0.000422
 104 H :    0.004381
 105 H :   -0.007172
 106 H :   -0.002654
Sum of atomic charges:   -0.0000000

LOEWDIN ATOMIC CHARGES
----------------------
   0 C :   -0.042969
   1 C :    0.092456
   2 F :   -0.065244
   3 C :   -0.038052
   4 C :    0.004300
   5 C :   -0.019304
   6 C :    0.003067
   7 C :    0.008469
   8 C :   -0.016146
   9 C :   -0.058370
  10 C :    0.032853
  11 C :    0.081023
  12 O :   -0.151916
  13 C :   -0.108543
  14 C :    0.060915
  15 C :   -0.151835
  16 C :   -0.037802
  17 N :   -0.052794
  18 C :   -0.020659
  19 N :   -0.056213
  20 C :    0.044242
  21 C :   -0.194307
  22 S :    0.530241
  23 C :   -0.136373
  24 C :   -0.048981
  25 C :   -0.011891
  26 C :   -0.036009
  27 C :    0.075138
  28 F :   -0.045121
  29 C :    0.061718
  30 F :   -0.051345
  31 C :   -0.035817
  32 C :   -0.052279
  33 C :   -0.021597
  34 C :   -0.176309
  35 S :    0.452500
  36 C :   -0.155768
  37 C :   -0.063248
  38 C :   -0.048452
  39 C :   -0.044811
  40 C :    0.064573
  41 O :   -0.091839
  42 C :    0.065366
  43 O :   -0.096703
  44 C :   -0.051032
  45 C :   -0.043593
  46 C :   -0.042886
  47 C :   -0.167241
  48 S :    0.501546
  49 C :   -0.192598
  50 C :   -0.036295
  51 C :   -0.042987
  52 C :   -0.042521
  53 C :    0.067499
  54 F :   -0.049741
  55 C :    0.069731
  56 F :   -0.047517
  57 C :   -0.038096
  58 C :    0.007976
  59 C :   -0.037597
  60 C :    0.058198
  61 C :   -0.086123
  62 C :    0.082240
  63 O :   -0.145667
  64 C :   -0.060253
  65 C :    0.036070
  66 C :   -0.018455
  67 C :    0.003926
  68 C :   -0.041939
  69 C :    0.093852
  70 C :   -0.035591
  71 C :    0.005134
  72 F :   -0.063490
  73 C :    0.010944
  74 C :   -0.017047
  75 C :    0.069455
  76 C :   -0.134084
  77 C :   -0.024174
  78 N :   -0.047112
  79 C :   -0.018636
  80 N :   -0.048348
  81 H :    0.042676
  82 H :    0.041680
  83 H :    0.035640
  84 H :    0.038625
  85 H :    0.039439
  86 H :    0.048619
  87 H :    0.045999
  88 H :    0.040803
  89 H :    0.027859
  90 H :    0.034440
  91 H :    0.057171
  92 H :    0.044043
  93 H :    0.049033
  94 H :    0.062910
  95 H :    0.029942
  96 H :    0.028499
  97 H :    0.040181
  98 H :    0.045261
  99 H :    0.043556
 100 H :    0.036914
 101 H :    0.044844
 102 H :    0.040454
 103 H :    0.043643
 104 H :    0.042354
 105 H :    0.036303
 106 H :    0.039397

  Mayer bond orders larger than 0.100000
B(  0-C ,  1-C ) :   1.4403 B(  0-C ,  6-C ) :   1.2038 B(  0-C , 81-H ) :   1.0059
B(  1-C ,  2-F ) :   1.0886 B(  1-C ,  3-C ) :   1.2570 B(  3-C ,  4-C ) :   1.4587
B(  3-C , 82-H ) :   0.9929 B(  4-C ,  5-C ) :   1.2363 B(  4-C , 83-H ) :   0.9965
B(  5-C ,  6-C ) :   1.2570 B(  5-C , 10-C ) :   1.1881 B(  6-C ,  7-C ) :   1.2000
B(  7-C ,  8-C ) :   1.4673 B(  7-C , 84-H ) :   0.9943 B(  8-C ,  9-C ) :   1.2160
B(  8-C , 14-C ) :   0.9956 B(  9-C , 10-C ) :   1.4775 B(  9-C , 11-C ) :   0.9219
B( 10-C , 85-H ) :   1.0145 B( 11-C , 12-O ) :   2.2504 B( 11-C , 13-C ) :   0.9518
B( 13-C , 14-C ) :   1.0609 B( 13-C , 20-C ) :   1.5825 B( 14-C , 15-C ) :   1.6299
B( 15-C , 16-C ) :   1.1598 B( 15-C , 18-C ) :   1.1353 B( 16-C , 17-N ) :   3.0206
B( 18-C , 19-N ) :   2.9856 B( 20-C , 21-C ) :   1.2247 B( 20-C , 86-H ) :   0.9317
B( 21-C , 22-S ) :   1.1154 B( 21-C , 25-C ) :   1.2710 B( 22-S , 23-C ) :   1.2070
B( 23-C , 24-C ) :   1.2999 B( 23-C , 32-C ) :   1.1696 B( 24-C , 25-C ) :   1.2382
B( 24-C , 31-C ) :   1.1680 B( 25-C , 26-C ) :   1.1937 B( 26-C , 27-C ) :   1.4778
B( 26-C , 31-C ) :   0.1097 B( 26-C , 87-H ) :   0.9974 B( 27-C , 28-F ) :   1.1385
B( 27-C , 29-C ) :   1.1689 B( 29-C , 30-F ) :   1.1320 B( 29-C , 31-C ) :   1.4917
B( 31-C , 88-H ) :   0.9943 B( 32-C , 33-C ) :   1.6203 B( 32-C , 89-H ) :   0.9507
B( 33-C , 34-C ) :   1.1948 B( 33-C , 90-H ) :   0.9629 B( 34-C , 35-S ) :   1.1119
B( 34-C , 38-C ) :   1.4815 B( 35-S , 36-C ) :   1.1325 B( 36-C , 37-C ) :   1.4953
B( 36-C , 45-C ) :   1.1613 B( 37-C , 38-C ) :   1.3345 B( 37-C , 44-C ) :   1.0170
B( 38-C , 39-C ) :   1.0235 B( 39-C , 40-C ) :   0.9573 B( 39-C , 91-H ) :   0.8929
B( 39-C , 92-H ) :   0.8992 B( 40-C , 41-O ) :   2.2663 B( 40-C , 42-C ) :   0.8484
B( 42-C , 43-O ) :   2.2569 B( 42-C , 44-C ) :   0.9380 B( 44-C , 93-H ) :   0.8942
B( 44-C , 94-H ) :   0.8858 B( 45-C , 46-C ) :   1.6538 B( 45-C , 95-H ) :   0.9466
B( 46-C , 47-C ) :   1.1550 B( 46-C , 96-H ) :   0.9412 B( 47-C , 48-S ) :   1.1761
B( 47-C , 49-C ) :   0.1092 B( 47-C , 51-C ) :   1.3362 B( 48-S , 49-C ) :   1.1550
B( 49-C , 50-C ) :   1.3419 B( 49-C , 58-C ) :   1.1139 B( 50-C , 51-C ) :   1.2292
B( 50-C , 57-C ) :   1.1617 B( 51-C , 52-C ) :   1.1568 B( 52-C , 53-C ) :   1.5071
B( 52-C , 57-C ) :   0.1092 B( 52-C , 97-H ) :   0.9944 B( 53-C , 54-F ) :   1.1338
B( 53-C , 55-C ) :   1.1514 B( 55-C , 56-F ) :   1.1367 B( 55-C , 57-C ) :   1.5027
B( 57-C , 98-H ) :   0.9947 B( 58-C , 59-C ) :   1.6990 B( 58-C , 99-H ) :   0.9547
B( 59-C , 60-C ) :   1.1287 B( 59-C ,100-H ) :   0.9587 B( 60-C , 61-C ) :   1.6730
B( 60-C ,101-H ) :   0.9240 B( 61-C , 62-C ) :   0.9405 B( 61-C , 75-C ) :   1.0178
B( 62-C , 63-O ) :   2.2433 B( 62-C , 64-C ) :   0.9272 B( 64-C , 65-C ) :   1.4710
B( 64-C , 74-C ) :   1.2147 B( 65-C , 66-C ) :   1.1927 B( 65-C ,102-H ) :   1.0159
B( 66-C , 67-C ) :   1.2539 B( 66-C , 71-C ) :   1.2332 B( 67-C , 68-C ) :   1.2033
B( 67-C , 73-C ) :   1.2049 B( 68-C , 69-C ) :   1.4411 B( 68-C ,103-H ) :   1.0066
B( 69-C , 70-C ) :   1.2533 B( 69-C , 72-F ) :   1.0908 B( 70-C , 71-C ) :   1.4617
B( 70-C ,104-H ) :   0.9929 B( 71-C ,105-H ) :   0.9973 B( 73-C , 74-C ) :   1.4612
B( 73-C ,106-H ) :   0.9924 B( 74-C , 75-C ) :   0.9991 B( 75-C , 76-C ) :   1.6507
B( 76-C , 77-C ) :   1.1640 B( 76-C , 79-C ) :   1.1282 B( 77-C , 78-N ) :   3.0073
B( 79-C , 80-N ) :   2.9828

-----------------------------------------------------------------------------
         ABSORPTION SPECTRUM VIA TRANSITION ELECTRIC DIPOLE MOMENTS
-----------------------------------------------------------------------------
State   Energy  Wavelength   fosc         T2         TX        TY        TZ
        (cm-1)    (nm)                  (au**2)     (au)      (au)      (au)
-----------------------------------------------------------------------------
   0   13253.6    754.5   1.722504028  42.78599  -3.19877  -5.08363   2.59049
   1   16817.0    594.6   0.440452588   8.62234   2.70017  -0.38657  -1.08719
   2   20462.9    488.7   0.137497260   2.21209   1.41662  -0.35432  -0.28236
   3   22266.1    449.1   0.340626963   5.03628   2.22733  -0.07168  -0.26481
   4   24627.9    406.0   0.006855777   0.09164   0.05262  -0.27598  -0.11274
   5   25182.4    397.1   0.018307486   0.23934  -0.06833  -0.34971   0.33522
   6   25849.6    386.9   0.064496018   0.82140   0.06892   0.73120  -0.53104
   7   26285.6    380.4   0.021485045   0.26909  -0.41434   0.25319   0.18250
   8   26931.0    371.3   0.147040879   1.79747  -0.55091  -0.75768   0.95911
   9   27059.2    369.6   0.012686491   0.15435   0.07656   0.00849   0.38525
  10   27357.0    365.5   0.032502564   0.39113  -0.00762   0.61898   0.08909
  11   27915.1    358.2   0.030532112   0.36008  -0.53943  -0.26200   0.02116
  12   28687.6    348.6   0.060260149   0.69153  -0.39781   0.31031  -0.66105
  13   28720.9    348.2   0.050776350   0.58202   0.75003  -0.04775   0.13112
  14   29254.2    341.8   0.068119763   0.76659   0.00554   0.49278   0.72369
  15   29671.5    337.0   0.273032940   3.02936   1.21108  -0.98700   0.76713
  16   29786.7    335.7   0.003202562   0.03540  -0.03241  -0.09634  -0.15832
  17   30078.1    332.5   0.072893909   0.79784   0.71175  -0.20246   0.50026
  18   30323.8    329.8   0.038095632   0.41359   0.45443   0.23491  -0.38974
  19   30922.7    323.4   0.074667508   0.79493   0.26054   0.82904  -0.19935
  20   31496.4    317.5   0.106642309   1.11467  -0.40901   0.11969   0.96594
  21   32138.3    311.2   0.114147409   1.16928  -0.77565  -0.45278   0.60220
  22   32703.5    305.8   0.209402043   2.10796  -0.43713   0.50059  -1.29085
  23   32876.1    304.2   0.079338178   0.79447  -0.70908   0.26910   0.46826
  24   33078.1    302.3   0.294721633   2.93323   1.08820  -0.55044  -1.20252
  25   33310.6    300.2   0.046404509   0.45862   0.53351  -0.37281   0.18708
  26   33695.4    296.8   0.267913119   2.61757  -0.76262   0.64236  -1.27411
  27   33882.7    295.1   0.133029423   1.29254   0.82152  -0.78536   0.02922
  28   33971.9    294.4   0.053000763   0.51361   0.19891   0.67453  -0.13805
  29   34034.3    293.8   0.005679238   0.05493  -0.04778  -0.03865   0.22618
  30   34129.4    293.0   0.027206237   0.26243  -0.18195  -0.03891  -0.47729
  31   34521.2    289.7   0.323448177   3.08457  -0.85616  -0.10489   1.52989
  32   34884.5    286.7   0.046361879   0.43753  -0.32419   0.29714   0.49410
  33   35360.7    282.8   0.017611459   0.16396   0.37192  -0.10603   0.11998
  34   35507.4    281.6   0.048047639   0.44548  -0.30331   0.49340   0.33172
  35   35613.5    280.8   0.045160394   0.41746   0.16849   0.62274  -0.03555
  36   36294.0    275.5   0.009866821   0.08950   0.27734  -0.07800   0.08060
  37   36377.4    274.9   0.139178112   1.25955   0.54879  -0.85420   0.47826
  38   36519.0    273.8   0.116998677   1.05472  -0.22812  -0.61231  -0.79231
  39   36662.4    272.8   0.096377889   0.86543  -0.01030   0.10398  -0.92440
  40   37335.1    267.8   0.126223160   1.11300   0.00124   0.25625  -1.02340
  41   37386.0    267.5   0.034351923   0.30249  -0.12897   0.22853  -0.48336
  42   37624.8    265.8   0.349236889   3.05578  -0.30040   0.90327   1.46617
  43   37708.5    265.2   0.054317231   0.47421  -0.41001  -0.31448   0.45520
  44   38295.5    261.1   0.043697523   0.37565   0.18822  -0.44764   0.37395
  45   38651.6    258.7   0.021304370   0.18146   0.14178  -0.05669   0.39767
  46   38815.6    257.6   0.008118228   0.06885   0.15860  -0.16297  -0.13093
  47   38942.0    256.8   0.026066574   0.22036  -0.30046  -0.35575  -0.05939
  48   39113.0    255.7   0.039314097   0.33090  -0.18405  -0.41239  -0.35632
  49   39231.2    254.9   0.196913054   1.65241  -0.40580   0.00735   1.21971
  50   39311.4    254.4   0.064664053   0.54153   0.55129   0.44840  -0.19115
  51   39684.6    252.0   0.079177462   0.65683   0.39099   0.69827   0.12799
  52   39792.3    251.3   0.010017461   0.08288  -0.07094   0.13211  -0.24575
  53   40175.9    248.9   0.071458619   0.58555  -0.57283  -0.47787   0.17047

FINAL SINGLE POINT ENERGY     -4763.116617476319

DIPOLE MOMENT
-------------
                                X             Y             Z
Electronic contribution:     -7.89578     -14.02037      -7.36118
Nuclear contribution   :      8.63709      13.10813       8.84369
                        -----------------------------------------
Total Dipole Moment    :      0.74132      -0.91224       1.48250
                        -----------------------------------------
Magnitude (a.u.)       :      1.89197
Magnitude (Debye)      :      4.80901

Rotational constants in cm-1:     0.000978     0.000187     0.000169
Rotational constants in MHz :    29.330407     5.597246     5.058854

                             ****ORCA TERMINATED NORMALLY****
TOTAL RUN TIME: 0 days 0 hours 12 minutes 3 seconds 419 msec
