                         Program Version 4.2.0 -  RELEASE  -
|  1> # ORCA input file
|  2> # SCF done       -161.256938330554          0.000857028898
|  3> ! CAM-B3LYP def2-SVP def2/J RIJCOSX Grid4 TightSCF
|  4> %maxcore 5000
|  5> %tddft
|  6>     Mode sTDDFT
|  7>     Ethresh 5.0
|  8>     maxcore 5000
|  9> end
| 10>
| 11> %pal
| 12>   nprocs 6
| 13>   end
| 14> * xyz 0 1
| 15>    C        0.07872        -0.77430         2.35094
| 16>    C        0.60418         0.45164         2.67747
| 17>    C        1.63342         0.64198         3.62010
| 18>    N        2.47296         0.85348         4.37496
| 19>    C        0.14549         1.67999         2.15980
| 20>    N       -0.20132         2.71734         1.80812
| 21>    C        0.42775        -2.04379         2.97481
| 22>    C       -0.46526        -3.03604         2.50256
| 23>    C       -0.39776        -4.34515         2.90996
| 24>    C        0.60129        -4.69379         3.82598
| 25>    C        1.49176        -3.69663         4.28754
| 26>    C        1.42194        -2.37055         3.87769
| 27>    S        2.65564        -4.34614         5.40346
| 28>    C        1.93698        -5.92620         5.23837
| 29>    C        0.88114        -5.96790         4.39188
| 30>   Br        2.64772        -7.37270         6.19903
| 31>    C       -1.40620        -2.43290         1.53520
| 32>    O       -2.28607        -3.01915         0.93670
| 33>    C       -0.99045        -1.02269         1.40782
| 34>    C       -1.38600        -0.15928         0.41981
| 35>    C       -2.45384        -0.31614        -0.48943
| 36>    S       -2.23760         0.32409        -2.10477
| 37>    C       -3.72690        -0.35703        -2.60605
| 38>    C       -4.39293        -1.00046        -1.60690
| 39>    C       -5.72433        -1.65123        -1.77465
| 40>    C       -3.68728        -0.95481        -0.37132
| 41>    C       -4.26330        -1.40357         0.86832
| 42>    C       -4.11477        -0.75730         2.04202
| 43>    C       -4.67535        -1.17025         3.29272
| 44>    C       -5.10972        -2.41518         3.58298
| 45>    C       -5.67885        -2.76006         4.85025
| 46>    C       -6.07028        -3.98810         5.22842
| 47>    C       -5.94977        -5.20744         4.36468
| 48>    C       -6.68157        -4.20872         6.58795
| 49>    N       -7.90495        -4.96328         6.48773
| 50>    C       -8.29143        -5.92968         7.33589
| 51>    C       -9.45750        -6.62416         7.21657
| 52>    C       -9.86972        -7.61533         8.11966
| 53>    C      -11.03468        -8.33056         7.98845
| 54>    C      -11.55167        -9.32059         8.85507
| 55>    C      -12.73807        -9.85698         8.44880
| 56>    C      -13.21669        -9.32405         7.23238
| 57>    S      -12.12518        -8.10783         6.62373
| 58>    C      -14.36237        -9.65574         6.52908
| 59>    C      -15.36904       -10.58567         6.85305
| 60>    C      -16.35885       -10.66899         5.91878
| 61>    C      -16.18265        -9.81262         4.80189
| 62>    S      -14.71100        -8.88507         4.99546
| 63>    C      -17.03733        -9.72895         3.72951
| 64>    C      -16.91447        -8.92572         2.58110
| 65>    S      -18.16973        -9.00278         1.34794
| 66>    C      -17.41283        -7.85859         0.30737
| 67>    C      -16.23827        -7.41970         0.86729
| 68>    C      -15.96434        -8.01846         2.13926
| 69>    O      -14.79755        -7.55250         2.63713
| 70>    C      -14.32791        -6.67546         1.71361
| 71>    N      -13.10516        -6.03004         1.97864
| 72>    O      -12.70158        -5.25480         1.12533
| 73>    O      -12.52762        -6.27787         3.01890
| 74>    C      -15.14568        -6.54619         0.61991
| 75>    H       -1.09067        -5.08026         2.53159
| 76>    H        2.12723        -1.64747         4.25209
| 77>    H        0.32376        -6.86003         4.17163
| 78>    H       -0.75752         0.70486         0.23313
| 79>    H       -4.03803        -0.24110        -3.62634
| 80>    H       -6.07025        -1.55152        -2.80002
| 81>    H       -6.45640        -1.19432        -1.11003
| 82>    H       -5.65749        -2.71020        -1.52848
| 83>    H       -4.91543        -2.26160         0.80155
| 84>    H       -3.55381         0.16958         2.05633
| 85>    H       -4.71856        -0.41262         4.06602
| 86>    H       -5.02566        -3.19300         2.83967
| 87>    H       -5.79602        -1.94046         5.54924
| 88>    H       -6.69445        -5.19250         3.56830
| 89>    H       -6.10369        -6.10933         4.95173
| 90>    H       -4.96810        -5.25710         3.89897
| 91>    H       -6.86782        -3.24042         7.07300
| 92>    H       -5.98613        -4.77244         7.22062
| 93>    H       -8.53799        -4.71109         5.74303
| 94>    H       -7.60548        -6.14270         8.14568
| 95>    H      -10.11462        -6.40445         6.38553
| 96>    H       -9.24202        -7.82959         8.97511
| 97>    H      -11.03274        -9.60545         9.75388
| 98>    H      -13.27448       -10.62002         8.98402
| 99>    H      -15.34193       -11.16493         7.75894
|100>    H      -17.21080       -11.32193         5.99096
|101>    H      -17.91562       -10.35986         3.76042
|102>    H      -17.86833        -7.59176        -0.62230
|103>    H      -14.97216        -5.91371        -0.22554
|104> *
|105>
|106>                          ****END OF INPUT****

CARTESIAN COORDINATES (ANGSTROEM)
---------------------------------
  C      0.078720   -0.774300    2.350940
  C      0.604180    0.451640    2.677470
  C      1.633420    0.641980    3.620100
  N      2.472960    0.853480    4.374960
  C      0.145490    1.679990    2.159800
  N     -0.201320    2.717340    1.808120
  C      0.427750   -2.043790    2.974810
  C     -0.465260   -3.036040    2.502560
  C     -0.397760   -4.345150    2.909960
  C      0.601290   -4.693790    3.825980
  C      1.491760   -3.696630    4.287540
  C      1.421940   -2.370550    3.877690
  S      2.655640   -4.346140    5.403460
  C      1.936980   -5.926200    5.238370
  C      0.881140   -5.967900    4.391880
  Br     2.647720   -7.372700    6.199030
  C     -1.406200   -2.432900    1.535200
  O     -2.286070   -3.019150    0.936700
  C     -0.990450   -1.022690    1.407820
  C     -1.386000   -0.159280    0.419810
  C     -2.453840   -0.316140   -0.489430
  S     -2.237600    0.324090   -2.104770
  C     -3.726900   -0.357030   -2.606050
  C     -4.392930   -1.000460   -1.606900
  C     -5.724330   -1.651230   -1.774650
  C     -3.687280   -0.954810   -0.371320
  C     -4.263300   -1.403570    0.868320
  C     -4.114770   -0.757300    2.042020
  C     -4.675350   -1.170250    3.292720
  C     -5.109720   -2.415180    3.582980
  C     -5.678850   -2.760060    4.850250
  C     -6.070280   -3.988100    5.228420
  C     -5.949770   -5.207440    4.364680
  C     -6.681570   -4.208720    6.587950
  N     -7.904950   -4.963280    6.487730
  C     -8.291430   -5.929680    7.335890
  C     -9.457500   -6.624160    7.216570
  C     -9.869720   -7.615330    8.119660
  C    -11.034680   -8.330560    7.988450
  C    -11.551670   -9.320590    8.855070
  C    -12.738070   -9.856980    8.448800
  C    -13.216690   -9.324050    7.232380
  S    -12.125180   -8.107830    6.623730
  C    -14.362370   -9.655740    6.529080
  C    -15.369040  -10.585670    6.853050
  C    -16.358850  -10.668990    5.918780
  C    -16.182650   -9.812620    4.801890
  S    -14.711000   -8.885070    4.995460
  C    -17.037330   -9.728950    3.729510
  C    -16.914470   -8.925720    2.581100
  S    -18.169730   -9.002780    1.347940
  C    -17.412830   -7.858590    0.307370
  C    -16.238270   -7.419700    0.867290
  C    -15.964340   -8.018460    2.139260
  O    -14.797550   -7.552500    2.637130
  C    -14.327910   -6.675460    1.713610
  N    -13.105160   -6.030040    1.978640
  O    -12.701580   -5.254800    1.125330
  O    -12.527620   -6.277870    3.018900
  C    -15.145680   -6.546190    0.619910
  H     -1.090670   -5.080260    2.531590
  H      2.127230   -1.647470    4.252090
  H      0.323760   -6.860030    4.171630
  H     -0.757520    0.704860    0.233130
  H     -4.038030   -0.241100   -3.626340
  H     -6.070250   -1.551520   -2.800020
  H     -6.456400   -1.194320   -1.110030
  H     -5.657490   -2.710200   -1.528480
  H     -4.915430   -2.261600    0.801550
  H     -3.553810    0.169580    2.056330
  H     -4.718560   -0.412620    4.066020
  H     -5.025660   -3.193000    2.839670
  H     -5.796020   -1.940460    5.549240
  H     -6.694450   -5.192500    3.568300
  H     -6.103690   -6.109330    4.951730
  H     -4.968100   -5.257100    3.898970
  H     -6.867820   -3.240420    7.073000
  H     -5.986130   -4.772440    7.220620
  H     -8.537990   -4.711090    5.743030
  H     -7.605480   -6.142700    8.145680
  H    -10.114620   -6.404450    6.385530
  H     -9.242020   -7.829590    8.975110
  H    -11.032740   -9.605450    9.753880
  H    -13.274480  -10.620020    8.984020
  H    -15.341930  -11.164930    7.758940
  H    -17.210800  -11.321930    5.990960
  H    -17.915620  -10.359860    3.760420
  H    -17.868330   -7.591760   -0.622300
  H    -14.972160   -5.913710   -0.225540

 Total Charge           Charge          ....    0
 Multiplicity           Mult            ....    1
 Number of Electrons    NEL             ....  480
 Basis Dimension        Dim             .... 1023

ORBITAL ENERGIES
----------------

  NO   OCC          E(Eh)            E(eV)
   0   2.0000    -482.886366    -13140.0060
   1   2.0000     -88.975408     -2421.1439
   2   2.0000     -88.963452     -2420.8186
   3   2.0000     -88.957581     -2420.6588
   4   2.0000     -88.923428     -2419.7295
   5   2.0000     -88.919220     -2419.6150
   6   2.0000     -62.564067     -1702.4548
   7   2.0000     -56.398019     -1534.6681
   8   2.0000     -56.395301     -1534.5942
   9   2.0000     -56.395272     -1534.5934
  10   2.0000     -19.293101      -524.9920
  11   2.0000     -19.235622      -523.4279
  12   2.0000     -19.232434      -523.3411
  13   2.0000     -19.214654      -522.8573
  14   2.0000     -14.646243      -398.5445
  15   2.0000     -14.441178      -392.9644
  16   2.0000     -14.413086      -392.2000
  17   2.0000     -14.412674      -392.1888
  18   2.0000     -10.375493      -282.3315
  19   2.0000     -10.363822      -282.0139
  20   2.0000     -10.359105      -281.8856
  21   2.0000     -10.339194      -281.3438
  22   2.0000     -10.338571      -281.3268
  23   2.0000     -10.329345      -281.0758
  24   2.0000     -10.324783      -280.9516
  25   2.0000     -10.323294      -280.9111
  26   2.0000     -10.320333      -280.8305
  27   2.0000     -10.318240      -280.7736
  28   2.0000     -10.316117      -280.7158
  29   2.0000     -10.315772      -280.7064
  30   2.0000     -10.309284      -280.5299
  31   2.0000     -10.307259      -280.4748
  32   2.0000     -10.306313      -280.4490
  33   2.0000     -10.305666      -280.4314
  34   2.0000     -10.304919      -280.4111
  35   2.0000     -10.303700      -280.3779
  36   2.0000     -10.300183      -280.2822
  37   2.0000     -10.300030      -280.2781
  38   2.0000     -10.297060      -280.1973
  39   2.0000     -10.296081      -280.1706
  40   2.0000     -10.294673      -280.1323
  41   2.0000     -10.294117      -280.1172
  42   2.0000     -10.293023      -280.0874
  43   2.0000     -10.291544      -280.0471
  44   2.0000     -10.291210      -280.0381
  45   2.0000     -10.287924      -279.9487
  46   2.0000     -10.285674      -279.8874
  47   2.0000     -10.283941      -279.8403
  48   2.0000     -10.280143      -279.7369
  49   2.0000     -10.279415      -279.7171
  50   2.0000     -10.279094      -279.7084
  51   2.0000     -10.276377      -279.6344
  52   2.0000     -10.275671      -279.6152
  53   2.0000     -10.275523      -279.6112
  54   2.0000     -10.275024      -279.5976
  55   2.0000     -10.274102      -279.5725
  56   2.0000     -10.271878      -279.5120
  57   2.0000     -10.271256      -279.4951
  58   2.0000     -10.270381      -279.4713
  59   2.0000     -10.268783      -279.4278
  60   2.0000     -10.265473      -279.3377
  61   2.0000     -10.263937      -279.2959
  62   2.0000     -10.260347      -279.1982
  63   2.0000     -10.253083      -279.0006
  64   2.0000      -8.793482      -239.2828
  65   2.0000      -8.071425      -219.6346
  66   2.0000      -8.059489      -219.3098
  67   2.0000      -8.052513      -219.1200
  68   2.0000      -8.019751      -218.2285
  69   2.0000      -8.015438      -218.1111
  70   2.0000      -6.629787      -180.4057
  71   2.0000      -6.615223      -180.0094
  72   2.0000      -6.615002      -180.0034
  73   2.0000      -6.041128      -164.3875
  74   2.0000      -6.036840      -164.2708
  75   2.0000      -6.032623      -164.1560
  76   2.0000      -6.028760      -164.0509
  77   2.0000      -6.024531      -163.9358
  78   2.0000      -6.021879      -163.8637
  79   2.0000      -6.021677      -163.8582
  80   2.0000      -6.017621      -163.7478
  81   2.0000      -6.014761      -163.6700
  82   2.0000      -5.989475      -162.9819
  83   2.0000      -5.985428      -162.8718
  84   2.0000      -5.985200      -162.8656
  85   2.0000      -5.981056      -162.7528
  86   2.0000      -5.980676      -162.7425
  87   2.0000      -5.976226      -162.6214
  88   2.0000      -2.745635       -74.7125
  89   2.0000      -2.741554       -74.6015
  90   2.0000      -2.741457       -74.5988
  91   2.0000      -2.729841       -74.2827
  92   2.0000      -2.729828       -74.2824
  93   2.0000      -1.315884       -35.8070
  94   2.0000      -1.215117       -33.0650
  95   2.0000      -1.130956       -30.7749
  96   2.0000      -1.128284       -30.7022
  97   2.0000      -1.042827       -28.3768
  98   2.0000      -1.021935       -27.8083
  99   2.0000      -1.011766       -27.5316
 100   2.0000      -0.996851       -27.1257
 101   2.0000      -0.991377       -26.9767
 102   2.0000      -0.987376       -26.8679
 103   2.0000      -0.979424       -26.6515
 104   2.0000      -0.973309       -26.4851
 105   2.0000      -0.952196       -25.9106
 106   2.0000      -0.942144       -25.6370
 107   2.0000      -0.926510       -25.2116
 108   2.0000      -0.923660       -25.1341
 109   2.0000      -0.907819       -24.7030
 110   2.0000      -0.906597       -24.6698
 111   2.0000      -0.903374       -24.5821
 112   2.0000      -0.888327       -24.1726
 113   2.0000      -0.885152       -24.0862
 114   2.0000      -0.881530       -23.9877
 115   2.0000      -0.874611       -23.7994
 116   2.0000      -0.867395       -23.6030
 117   2.0000      -0.858750       -23.3678
 118   2.0000      -0.841955       -22.9108
 119   2.0000      -0.833686       -22.6857
 120   2.0000      -0.828590       -22.5471
 121   2.0000      -0.822671       -22.3860
 122   2.0000      -0.809723       -22.0337
 123   2.0000      -0.804484       -21.8911
 124   2.0000      -0.798633       -21.7319
 125   2.0000      -0.787697       -21.4343
 126   2.0000      -0.784804       -21.3556
 127   2.0000      -0.773622       -21.0513
 128   2.0000      -0.761639       -20.7252
 129   2.0000      -0.758971       -20.6527
 130   2.0000      -0.750394       -20.4193
 131   2.0000      -0.743975       -20.2446
 132   2.0000      -0.717213       -19.5164
 133   2.0000      -0.713363       -19.4116
 134   2.0000      -0.703748       -19.1500
 135   2.0000      -0.694475       -18.8976
 136   2.0000      -0.690901       -18.8004
 137   2.0000      -0.689245       -18.7553
 138   2.0000      -0.678192       -18.4546
 139   2.0000      -0.665057       -18.0971
 140   2.0000      -0.658017       -17.9056
 141   2.0000      -0.655091       -17.8259
 142   2.0000      -0.650442       -17.6994
 143   2.0000      -0.639230       -17.3943
 144   2.0000      -0.637742       -17.3539
 145   2.0000      -0.630461       -17.1557
 146   2.0000      -0.627073       -17.0635
 147   2.0000      -0.624159       -16.9842
 148   2.0000      -0.617709       -16.8087
 149   2.0000      -0.616461       -16.7748
 150   2.0000      -0.612215       -16.6592
 151   2.0000      -0.608365       -16.5544
 152   2.0000      -0.602042       -16.3824
 153   2.0000      -0.597049       -16.2465
 154   2.0000      -0.595112       -16.1938
 155   2.0000      -0.590053       -16.0561
 156   2.0000      -0.579821       -15.7777
 157   2.0000      -0.577275       -15.7084
 158   2.0000      -0.576674       -15.6921
 159   2.0000      -0.571810       -15.5597
 160   2.0000      -0.566949       -15.4275
 161   2.0000      -0.556334       -15.1386
 162   2.0000      -0.554318       -15.0837
 163   2.0000      -0.551762       -15.0142
 164   2.0000      -0.543283       -14.7835
 165   2.0000      -0.540154       -14.6983
 166   2.0000      -0.538690       -14.6585
 167   2.0000      -0.536743       -14.6055
 168   2.0000      -0.534104       -14.5337
 169   2.0000      -0.530729       -14.4419
 170   2.0000      -0.525292       -14.2939
 171   2.0000      -0.515657       -14.0317
 172   2.0000      -0.514290       -13.9945
 173   2.0000      -0.512243       -13.9388
 174   2.0000      -0.510391       -13.8884
 175   2.0000      -0.508688       -13.8421
 176   2.0000      -0.506318       -13.7776
 177   2.0000      -0.503734       -13.7073
 178   2.0000      -0.502053       -13.6616
 179   2.0000      -0.498756       -13.5718
 180   2.0000      -0.496912       -13.5217
 181   2.0000      -0.492911       -13.4128
 182   2.0000      -0.492152       -13.3922
 183   2.0000      -0.486594       -13.2409
 184   2.0000      -0.479853       -13.0575
 185   2.0000      -0.477782       -13.0011
 186   2.0000      -0.475996       -12.9525
 187   2.0000      -0.469122       -12.7655
 188   2.0000      -0.468596       -12.7511
 189   2.0000      -0.466171       -12.6852
 190   2.0000      -0.459577       -12.5057
 191   2.0000      -0.459007       -12.4902
 192   2.0000      -0.458143       -12.4667
 193   2.0000      -0.457240       -12.4421
 194   2.0000      -0.456235       -12.4148
 195   2.0000      -0.455024       -12.3818
 196   2.0000      -0.451807       -12.2943
 197   2.0000      -0.448169       -12.1953
 198   2.0000      -0.447670       -12.1817
 199   2.0000      -0.446364       -12.1462
 200   2.0000      -0.443617       -12.0714
 201   2.0000      -0.441697       -12.0192
 202   2.0000      -0.438767       -11.9394
 203   2.0000      -0.437302       -11.8996
 204   2.0000      -0.431433       -11.7399
 205   2.0000      -0.429828       -11.6962
 206   2.0000      -0.425898       -11.5893
 207   2.0000      -0.424609       -11.5542
 208   2.0000      -0.421591       -11.4721
 209   2.0000      -0.418788       -11.3958
 210   2.0000      -0.416548       -11.3348
 211   2.0000      -0.414914       -11.2904
 212   2.0000      -0.412072       -11.2131
 213   2.0000      -0.410325       -11.1655
 214   2.0000      -0.406735       -11.0678
 215   2.0000      -0.399947       -10.8831
 216   2.0000      -0.394137       -10.7250
 217   2.0000      -0.388523       -10.5722
 218   2.0000      -0.382845       -10.4177
 219   2.0000      -0.376811       -10.2536
 220   2.0000      -0.375739       -10.2244
 221   2.0000      -0.372846       -10.1457
 222   2.0000      -0.370633       -10.0854
 223   2.0000      -0.369660       -10.0590
 224   2.0000      -0.367596       -10.0028
 225   2.0000      -0.361582        -9.8391
 226   2.0000      -0.346240        -9.4217
 227   2.0000      -0.338271        -9.2048
 228   2.0000      -0.335663        -9.1339
 229   2.0000      -0.318663        -8.6712
 230   2.0000      -0.317584        -8.6419
 231   2.0000      -0.315116        -8.5747
 232   2.0000      -0.306873        -8.3505
 233   2.0000      -0.302331        -8.2268
 234   2.0000      -0.295401        -8.0383
 235   2.0000      -0.291610        -7.9351
 236   2.0000      -0.286491        -7.7958
 237   2.0000      -0.259169        -7.0524
 238   2.0000      -0.247686        -6.7399
 239   2.0000      -0.183997        -5.0068
 240   0.0000      -0.090796        -2.4707
 241   0.0000      -0.063799        -1.7361
 242   0.0000      -0.061313        -1.6684
 243   0.0000      -0.046399        -1.2626
 244   0.0000      -0.024637        -0.6704

MULLIKEN ATOMIC CHARGES
-----------------------
   0 C :    0.294983
   1 C :   -0.342655
   2 C :   -0.185368
   3 N :    0.146158
   4 C :   -0.215632
   5 N :    0.166895
   6 C :    0.015905
   7 C :   -0.011779
   8 C :   -0.077642
   9 C :    0.118514
  10 C :   -0.091048
  11 C :   -0.022402
  12 S :    0.184433
  13 C :   -0.122873
  14 C :    0.036390
  15 Br:    0.021368
  16 C :    0.165385
  17 O :   -0.154800
  18 C :   -0.101421
  19 C :    0.012642
  20 C :   -0.193284
  21 S :    0.139091
  22 C :   -0.105290
  23 C :   -0.094274
  24 C :    0.115309
  25 C :    0.165976
  26 C :    0.004454
  27 C :    0.018055
  28 C :   -0.006638
  29 C :    0.013282
  30 C :    0.011382
  31 C :   -0.242552
  32 C :    0.095450
  33 C :    0.247342
  34 N :   -0.159182
  35 C :    0.060336
  36 C :   -0.038966
  37 C :    0.000756
  38 C :   -0.048036
  39 C :    0.048315
  40 C :    0.002608
  41 C :   -0.035018
  42 S :    0.072490
  43 C :   -0.055464
  44 C :    0.038181
  45 C :    0.012753
  46 C :   -0.021831
  47 S :    0.079356
  48 C :    0.023860
  49 C :   -0.220617
  50 S :    0.130515
  51 C :   -0.151751
  52 C :    0.132833
  53 C :    0.185778
  54 O :   -0.192912
  55 C :    0.245829
  56 N :    0.275315
  57 O :   -0.263048
  58 O :   -0.237027
  59 C :   -0.088876
  60 H :   -0.015935
  61 H :   -0.006151
  62 H :   -0.005290
  63 H :    0.028919
  64 H :    0.026150
  65 H :    0.010593
  66 H :    0.036755
  67 H :    0.038586
  68 H :   -0.008650
  69 H :    0.004184
  70 H :   -0.011374
  71 H :   -0.003042
  72 H :   -0.026641
  73 H :    0.038637
  74 H :    0.015014
  75 H :    0.032678
  76 H :    0.010023
  77 H :    0.022654
  78 H :    0.129528
  79 H :    0.001234
  80 H :    0.001336
  81 H :   -0.024613
  82 H :   -0.022595
  83 H :   -0.022373
  84 H :   -0.022180
  85 H :   -0.023856
  86 H :   -0.033518
  87 H :    0.021642
  88 H :    0.006731
Sum of atomic charges:   -0.0000000

LOEWDIN ATOMIC CHARGES
----------------------
   0 C :    0.076880
   1 C :   -0.145912
   2 C :   -0.018688
   3 N :   -0.056768
   4 C :   -0.027636
   5 N :   -0.053850
   6 C :   -0.021632
   7 C :   -0.045723
   8 C :    0.017229
   9 C :   -0.033310
  10 C :   -0.145582
  11 C :   -0.009790
  12 S :    0.430992
  13 C :   -0.272208
  14 C :   -0.071628
  15 Br:    0.134926
  16 C :    0.083945
  17 O :   -0.135798
  18 C :   -0.101931
  19 C :    0.055153
  20 C :   -0.185473
  21 S :    0.448313
  22 C :   -0.165829
  23 C :   -0.056652
  24 C :   -0.043056
  25 C :   -0.009869
  26 C :   -0.003198
  27 C :   -0.020960
  28 C :   -0.028711
  29 C :   -0.013402
  30 C :   -0.044476
  31 C :   -0.042605
  32 C :   -0.055200
  33 C :    0.047974
  34 N :    0.007240
  35 C :    0.051839
  36 C :   -0.126689
  37 C :   -0.025930
  38 C :   -0.183136
  39 C :   -0.023897
  40 C :   -0.058205
  41 C :   -0.161687
  42 S :    0.374093
  43 C :   -0.209969
  44 C :   -0.026901
  45 C :   -0.058241
  46 C :   -0.135069
  47 S :    0.389108
  48 C :   -0.119342
  49 C :   -0.188420
  50 S :    0.458724
  51 C :   -0.208597
  52 C :   -0.081179
  53 C :   -0.000199
  54 O :   -0.002412
  55 C :    0.021909
  56 N :    0.274819
  57 O :   -0.223588
  58 O :   -0.199005
  59 C :   -0.011680
  60 H :    0.038583
  61 H :    0.040924
  62 H :    0.037979
  63 H :    0.045211
  64 H :    0.026502
  65 H :    0.034045
  66 H :    0.039835
  67 H :    0.039278
  68 H :    0.029487
  69 H :    0.030995
  70 H :    0.028620
  71 H :    0.026462
  72 H :    0.025453
  73 H :    0.041239
  74 H :    0.031266
  75 H :    0.035925
  76 H :    0.022337
  77 H :    0.032777
  78 H :    0.085632
  79 H :    0.027592
  80 H :    0.022015
  81 H :    0.029068
  82 H :    0.029526
  83 H :    0.027632
  84 H :    0.028560
  85 H :    0.027584
  86 H :    0.028431
  87 H :    0.023929
  88 H :    0.044007

  Mayer bond orders larger than 0.100000
B(  0-C ,  1-C ) :   1.6341 B(  0-C ,  6-C ) :   1.0036 B(  0-C , 18-C ) :   1.0710
B(  1-C ,  2-C ) :   1.1411 B(  1-C ,  4-C ) :   1.1461 B(  2-C ,  3-N ) :   2.9719
B(  4-C ,  5-N ) :   3.0001 B(  6-C ,  7-C ) :   1.2741 B(  6-C , 11-C ) :   1.4116
B(  7-C ,  8-C ) :   1.4298 B(  7-C , 16-C ) :   0.9413 B(  8-C ,  9-C ) :   1.2417
B(  8-C , 60-H ) :   1.0162 B(  9-C , 10-C ) :   1.3113 B(  9-C , 14-C ) :   1.1615
B( 10-C , 11-C ) :   1.3267 B( 10-C , 12-S ) :   1.0830 B( 11-C , 61-H ) :   0.9806
B( 12-S , 13-C ) :   1.0871 B( 13-C , 14-C ) :   1.6185 B( 13-C , 15-Br) :   1.0173
B( 14-C , 62-H ) :   1.0004 B( 16-C , 17-O ) :   2.1800 B( 16-C , 18-C ) :   0.9650
B( 18-C , 19-C ) :   1.5797 B( 19-C , 20-C ) :   1.1926 B( 19-C , 63-H ) :   0.9345
B( 20-C , 21-S ) :   1.1056 B( 20-C , 25-C ) :   1.4123 B( 21-S , 22-C ) :   1.1742
B( 22-C , 23-C ) :   1.5530 B( 22-C , 64-H ) :   0.9664 B( 23-C , 24-C ) :   1.0950
B( 23-C , 25-C ) :   1.2672 B( 24-C , 65-H ) :   0.9498 B( 24-C , 66-H ) :   0.9426
B( 24-C , 67-H ) :   0.9447 B( 25-C , 26-C ) :   1.0914 B( 26-C , 27-C ) :   1.7567
B( 26-C , 68-H ) :   0.9360 B( 27-C , 28-C ) :   1.1066 B( 27-C , 69-H ) :   0.9643
B( 28-C , 29-C ) :   1.7194 B( 28-C , 70-H ) :   0.9804 B( 29-C , 30-C ) :   1.1099
B( 29-C , 71-H ) :   0.9616 B( 30-C , 31-C ) :   1.7634 B( 30-C , 72-H ) :   0.9752
B( 31-C , 32-C ) :   1.0647 B( 31-C , 33-C ) :   1.0506 B( 32-C , 73-H ) :   0.9467
B( 32-C , 74-H ) :   0.9532 B( 32-C , 75-H ) :   0.9465 B( 33-C , 34-N ) :   0.9818
B( 33-C , 76-H ) :   0.9380 B( 33-C , 77-H ) :   0.9225 B( 34-N , 35-C ) :   1.2469
B( 34-N , 78-H ) :   0.9382 B( 35-C , 36-C ) :   1.5721 B( 35-C , 79-H ) :   0.9691
B( 36-C , 37-C ) :   1.1888 B( 36-C , 80-H ) :   0.9652 B( 37-C , 38-C ) :   1.5645
B( 37-C , 81-H ) :   0.9796 B( 38-C , 39-C ) :   1.1585 B( 38-C , 42-S ) :   1.0112
B( 39-C , 40-C ) :   1.5727 B( 39-C , 82-H ) :   0.9976 B( 40-C , 41-C ) :   1.1986
B( 40-C , 83-H ) :   0.9947 B( 41-C , 42-S ) :   1.0688 B( 41-C , 43-C ) :   1.4816
B( 43-C , 44-C ) :   1.2068 B( 43-C , 47-S ) :   1.0187 B( 44-C , 45-C ) :   1.5712
B( 44-C , 84-H ) :   0.9924 B( 45-C , 46-C ) :   1.1546 B( 45-C , 85-H ) :   0.9994
B( 46-C , 47-S ) :   1.0597 B( 46-C , 48-C ) :   1.5757 B( 48-C , 49-C ) :   1.1610
B( 48-C , 86-H ) :   0.9419 B( 49-C , 50-S ) :   1.1368 B( 49-C , 51-C ) :   0.1078
B( 49-C , 53-C ) :   1.4222 B( 50-S , 51-C ) :   1.1591 B( 51-C , 52-C ) :   1.4334
B( 51-C , 87-H ) :   0.9773 B( 52-C , 53-C ) :   1.2312 B( 52-C , 59-C ) :   1.0661
B( 53-C , 54-O ) :   1.0793 B( 54-O , 55-C ) :   1.1273 B( 55-C , 56-N ) :   0.9248
B( 55-C , 59-C ) :   1.5612 B( 56-N , 57-O ) :   1.5213 B( 56-N , 58-O ) :   1.5109
B( 57-O , 58-O ) :   0.2751 B( 59-C , 88-H ) :   1.0258

-----------------------------------------------------------------------------
         ABSORPTION SPECTRUM VIA TRANSITION ELECTRIC DIPOLE MOMENTS
-----------------------------------------------------------------------------
State   Energy  Wavelength   fosc         T2         TX        TY        TZ
        (cm-1)    (nm)                  (au**2)     (au)      (au)      (au)
-----------------------------------------------------------------------------
   0   11031.0    906.5   0.159051935   4.74677  -1.55038  -0.10783  -1.52692
   1   12671.6    789.2   0.017195358   0.44674   0.58998   0.29870  -0.09715
   2   15661.0    638.5   0.994542044  20.90642  -3.84227  -1.23966  -2.14630
   3   18270.4    547.3   0.012045387   0.21704  -0.27777  -0.12429   0.35276
   4   18589.6    537.9   0.212818482   3.76891  -1.89817  -0.29444   0.28137
   5   23878.9    418.8   0.041746487   0.57555  -0.58400   0.05924   0.48060
   6   24206.6    413.1   0.329904566   4.48672   0.92139  -0.15742   1.90078
   7   24233.8    412.6   0.000722730   0.00982  -0.03359   0.07409   0.05658
   8   24988.0    400.2   0.033693876   0.44391   0.15137   0.39067  -0.51805
   9   25984.6    384.8   0.013744120   0.17413  -0.04884  -0.24014   0.33775
  10   26500.0    377.4   0.002329902   0.02894   0.02644   0.16385  -0.03738
  11   27659.7    361.5   0.237574788   2.82767  -1.06598   0.94668  -0.89172
  12   28129.4    355.5   0.116311403   1.36125  -0.36245  -1.05065  -0.35497
  13   29283.9    341.5   1.137507934  12.78797  -1.56203  -2.49934   2.02517
  14   29903.1    334.4   0.061655370   0.67878   0.39836  -0.48990   0.52923
  15   30214.0    331.0   0.168999066   1.84142   0.40611  -0.96192   0.86672
  16   30469.2    328.2   0.006142345   0.06637   0.01938   0.20618  -0.15323
  17   31947.4    313.0   0.001488757   0.01534   0.04009  -0.01760   0.11586
  18   32278.1    309.8   0.017292212   0.17637  -0.35923  -0.21246  -0.04675
  19   32371.4    308.9   0.000414682   0.00422   0.04717  -0.00711   0.04406
  20   32662.5    306.2   0.303316032   3.05718  -0.25672   1.72948  -0.01346
  21   33173.3    301.4   0.061318586   0.60853   0.18827   0.75265  -0.08123
  22   33361.6    299.7   0.011960285   0.11802   0.17941  -0.19825   0.21571
  23   33680.7    296.9   0.169344023   1.65525  -0.32272  -1.00311   0.73816
  24   33903.9    295.0   0.129823292   1.26060  -0.03688   0.63682  -0.92396
  25   34833.2    287.1   0.816981706   7.72137   0.18224   1.82704  -2.08569
  26   35293.6    283.3   0.109748514   1.02371  -0.88703  -0.40882  -0.26410
  27   35394.4    282.5   0.011607360   0.10796  -0.24423  -0.21950   0.01155
  28   35535.7    281.4   0.340479429   3.15429   1.43429   1.04359  -0.08962
  29   35953.3    278.1   0.048068700   0.44015   0.22758  -0.33915   0.52281
  30   36094.5    277.1   0.112877553   1.02954   0.77749   0.05200   0.64988
  31   36514.6    273.9   0.236069840   2.12838   1.09244   0.31207   0.91519
  32   36576.7    273.4   0.006679999   0.06012  -0.14284   0.04903  -0.19317
  33   36739.8    272.2   0.000533699   0.00478   0.00169   0.04078  -0.05583
  34   37173.9    269.0   0.062792181   0.55609  -0.64700  -0.34819  -0.12741
  35   37834.6    264.3   0.037382398   0.32528  -0.06965  -0.06071   0.56280
  36   38469.1    259.9   0.004314765   0.03692   0.00917   0.13791   0.13350
  37   38864.8    257.3   0.021929241   0.18576  -0.00357   0.32469  -0.28340
  38   39227.1    254.9   0.007974256   0.06692   0.19768  -0.00691   0.16673
  39   39334.5    254.2   0.030993525   0.25940  -0.39401  -0.01339  -0.32245
  40   39762.7    251.5   0.090849041   0.75218   0.45902   0.24020   0.69555
  41   39923.1    250.5   0.092436638   0.76225  -0.46372  -0.04852   0.73815

FINAL SINGLE POINT ENERGY     -6851.407636880085

DIPOLE MOMENT
-------------
                                X             Y             Z
Electronic contribution:    113.93186     -26.26509      19.31676
Nuclear contribution   :   -114.27122      24.57440     -19.64863
                        -----------------------------------------
Total Dipole Moment    :     -0.33936      -1.69069      -0.33186
                        -----------------------------------------
Magnitude (a.u.)       :      1.75605
Magnitude (Debye)      :      4.46354

Rotational constants in cm-1:     0.001260     0.000313     0.000266
Rotational constants in MHz :    37.787345     9.377438     7.962420

                             ****ORCA TERMINATED NORMALLY****
TOTAL RUN TIME: 0 days 0 hours 7 minutes 32 seconds 899 msec
