                         Program Version 4.2.0 -  RELEASE  -
|  1> # ORCA input file
|  2> # SCF done       -191.076289167618          0.000425929081
|  3> ! CAM-B3LYP def2-SVP def2/J RIJCOSX Grid4 TightSCF
|  4> %maxcore 5000
|  5> %tddft
|  6>     Mode sTDDFT
|  7>     Ethresh 5.0
|  8>     maxcore 5000
|  9> end
| 10>
| 11> %pal
| 12>   nprocs 6
| 13>   end
| 14> * xyz 0 1
| 15>    C      -11.55071        -1.31736         2.86661
| 16>    C      -11.64566        -2.66597         3.09540
| 17>    C      -12.12058        -3.23586         4.29387
| 18>    N      -12.49933        -3.75287         5.24618
| 19>    C      -11.27976        -3.65067         2.15553
| 20>    N      -10.99762        -4.48156         1.41537
| 21>    C      -11.92205        -0.26104         3.80593
| 22>    C      -11.67862         0.99953         3.20028
| 23>    C      -11.93170         2.19023         3.83738
| 24>    C      -12.45381         2.13689         5.13396
| 25>    C      -12.69604         0.87635         5.72963
| 26>    C      -12.43656        -0.32881         5.08534
| 27>    S      -13.34726         1.04119         7.33054
| 28>    C      -13.28713         2.77708         7.18159
| 29>    C      -12.80304         3.21316         5.99398
| 30>   Br      -13.87177         3.85092         8.60322
| 31>    C      -11.14871         0.77997         1.85177
| 32>    O      -10.82532         1.63693         1.02811
| 33>    C      -11.07791        -0.66914         1.66648
| 34>    C      -10.61950        -1.22002         0.49030
| 35>    N      -10.25043        -0.41208        -0.50778
| 36>    C       -9.76642        -0.74407        -1.72660
| 37>    S       -9.45878        -2.39131        -2.17850
| 38>    C       -8.90158        -1.83080        -3.72228
| 39>    N       -8.46344        -2.78793        -4.65126
| 40>    O       -8.07857        -2.38508        -5.73224
| 41>    O       -8.50370        -3.95231        -4.29993
| 42>    C       -8.95189        -0.47373        -3.87413
| 43>    C       -9.45511         0.18946        -2.73282
| 44>    C       -9.64362         1.59749        -2.58604
| 45>    C       -9.39705         2.50754        -3.56818
| 46>    C       -9.54737         3.90576        -3.50485
| 47>    C       -9.62209         4.73385        -4.63467
| 48>    C       -9.55748         4.42372        -6.00825
| 49>    C       -9.75694         5.41128        -6.92766
| 50>    C      -10.06098         6.73529        -6.53020
| 51>    C      -10.11627         7.08446        -5.21447
| 52>    C       -9.86472         6.09955        -4.23094
| 53>    C       -9.90150         6.14208        -2.84106
| 54>    C       -9.68665         4.77940        -2.32964
| 55>    C       -9.48005         4.49354        -1.03809
| 56>    N      -10.04556         7.23272        -2.03594
| 57>    C       -9.53608         8.45877        -2.28436
| 58>    S       -8.21105         8.69722        -3.39021
| 59>    C       -8.09211        10.35222        -2.86544
| 60>    N       -7.12487        11.15267        -3.48246
| 61>    O       -7.04103        12.31516        -3.13177
| 62>    O       -6.43613        10.61514        -4.33385
| 63>    C       -9.00131        10.69247        -1.90397
| 64>    C       -9.86580         9.62958        -1.57339
| 65>    C      -10.95104         9.76325        -0.65682
| 66>    C      -12.09928         9.03819        -0.66982
| 67>    C      -13.15843         9.22205         0.25311
| 68>    C      -13.08392         9.64909         1.54823
| 69>    C      -11.98929         9.73520         2.48279
| 70>    C      -10.86207         8.94110         2.50200
| 71>    C       -9.88790         8.97863         3.51920
| 72>    N       -9.06616         8.97026         4.32059
| 73>    C      -10.60931         7.95212         1.54782
| 74>    N      -10.38502         7.11183         0.79234
| 75>    C      -12.40497        10.62057         3.56366
| 76>    C      -13.79081        10.88988         3.42281
| 77>    C      -14.29310        10.21395         2.20891
| 78>    O      -15.43112        10.15531         1.80565
| 79>    C      -14.48103        11.67926         4.30871
| 80>    C      -13.76851        12.24047         5.37543
| 81>    C      -12.38248        11.97734         5.49841
| 82>    C      -11.68551        11.16920         4.60797
| 83>    S      -11.69904        12.78238         6.87701
| 84>    C      -13.26163        13.44883         7.26856
| 85>    C      -14.24653        13.08848         6.41021
| 86>   Br      -13.44541        14.55714         8.76943
| 87>    H      -11.73505         3.13340         3.35202
| 88>    H      -12.63774        -1.26311         5.58207
| 89>    H      -12.69609         4.25050         5.73430
| 90>    H      -10.54517        -2.28743         0.33035
| 91>    H      -10.35734         0.59405        -0.27351
| 92>    H       -8.63211         0.00477        -4.78102
| 93>    H      -10.05195         1.93951        -1.64848
| 94>    H       -9.08876         2.13443        -4.53508
| 95>    H       -9.35894         3.41234        -6.32781
| 96>    H       -9.70528         5.18769        -7.98244
| 97>    H      -10.25624         7.47303        -7.29339
| 98>    H      -10.38325         8.08918        -4.92587
| 99>    H       -9.57889         5.24150        -0.26881
|100>    H       -9.19267         3.51460        -0.70090
|101>    H      -10.34557         7.07130        -1.06488
|102>    H       -9.06119        11.68004        -1.48338
|103>    H      -10.86368        10.58121         0.04790
|104>    H      -12.28507         8.35549        -1.48873
|105>    H      -14.16557         9.06790        -0.12080
|106>    H      -15.53695        11.86126         4.18506
|107>    H      -10.62846        11.00252         4.73553
|108>    H      -15.26830        13.40846         6.50221
|109> *
|110>
|111>                          ****END OF INPUT****

CARTESIAN COORDINATES (ANGSTROEM)
---------------------------------
  C    -11.550710   -1.317360    2.866610
  C    -11.645660   -2.665970    3.095400
  C    -12.120580   -3.235860    4.293870
  N    -12.499330   -3.752870    5.246180
  C    -11.279760   -3.650670    2.155530
  N    -10.997620   -4.481560    1.415370
  C    -11.922050   -0.261040    3.805930
  C    -11.678620    0.999530    3.200280
  C    -11.931700    2.190230    3.837380
  C    -12.453810    2.136890    5.133960
  C    -12.696040    0.876350    5.729630
  C    -12.436560   -0.328810    5.085340
  S    -13.347260    1.041190    7.330540
  C    -13.287130    2.777080    7.181590
  C    -12.803040    3.213160    5.993980
  Br   -13.871770    3.850920    8.603220
  C    -11.148710    0.779970    1.851770
  O    -10.825320    1.636930    1.028110
  C    -11.077910   -0.669140    1.666480
  C    -10.619500   -1.220020    0.490300
  N    -10.250430   -0.412080   -0.507780
  C     -9.766420   -0.744070   -1.726600
  S     -9.458780   -2.391310   -2.178500
  C     -8.901580   -1.830800   -3.722280
  N     -8.463440   -2.787930   -4.651260
  O     -8.078570   -2.385080   -5.732240
  O     -8.503700   -3.952310   -4.299930
  C     -8.951890   -0.473730   -3.874130
  C     -9.455110    0.189460   -2.732820
  C     -9.643620    1.597490   -2.586040
  C     -9.397050    2.507540   -3.568180
  C     -9.547370    3.905760   -3.504850
  C     -9.622090    4.733850   -4.634670
  C     -9.557480    4.423720   -6.008250
  C     -9.756940    5.411280   -6.927660
  C    -10.060980    6.735290   -6.530200
  C    -10.116270    7.084460   -5.214470
  C     -9.864720    6.099550   -4.230940
  C     -9.901500    6.142080   -2.841060
  C     -9.686650    4.779400   -2.329640
  C     -9.480050    4.493540   -1.038090
  N    -10.045560    7.232720   -2.035940
  C     -9.536080    8.458770   -2.284360
  S     -8.211050    8.697220   -3.390210
  C     -8.092110   10.352220   -2.865440
  N     -7.124870   11.152670   -3.482460
  O     -7.041030   12.315160   -3.131770
  O     -6.436130   10.615140   -4.333850
  C     -9.001310   10.692470   -1.903970
  C     -9.865800    9.629580   -1.573390
  C    -10.951040    9.763250   -0.656820
  C    -12.099280    9.038190   -0.669820
  C    -13.158430    9.222050    0.253110
  C    -13.083920    9.649090    1.548230
  C    -11.989290    9.735200    2.482790
  C    -10.862070    8.941100    2.502000
  C     -9.887900    8.978630    3.519200
  N     -9.066160    8.970260    4.320590
  C    -10.609310    7.952120    1.547820
  N    -10.385020    7.111830    0.792340
  C    -12.404970   10.620570    3.563660
  C    -13.790810   10.889880    3.422810
  C    -14.293100   10.213950    2.208910
  O    -15.431120   10.155310    1.805650
  C    -14.481030   11.679260    4.308710
  C    -13.768510   12.240470    5.375430
  C    -12.382480   11.977340    5.498410
  C    -11.685510   11.169200    4.607970
  S    -11.699040   12.782380    6.877010
  C    -13.261630   13.448830    7.268560
  C    -14.246530   13.088480    6.410210
  Br   -13.445410   14.557140    8.769430
  H    -11.735050    3.133400    3.352020
  H    -12.637740   -1.263110    5.582070
  H    -12.696090    4.250500    5.734300
  H    -10.545170   -2.287430    0.330350
  H    -10.357340    0.594050   -0.273510
  H     -8.632110    0.004770   -4.781020
  H    -10.051950    1.939510   -1.648480
  H     -9.088760    2.134430   -4.535080
  H     -9.358940    3.412340   -6.327810
  H     -9.705280    5.187690   -7.982440
  H    -10.256240    7.473030   -7.293390
  H    -10.383250    8.089180   -4.925870
  H     -9.578890    5.241500   -0.268810
  H     -9.192670    3.514600   -0.700900
  H    -10.345570    7.071300   -1.064880
  H     -9.061190   11.680040   -1.483380
  H    -10.863680   10.581210    0.047900
  H    -12.285070    8.355490   -1.488730
  H    -14.165570    9.067900   -0.120800
  H    -15.536950   11.861260    4.185060
  H    -10.628460   11.002520    4.735530
  H    -15.268300   13.408460    6.502210

 Total Charge           Charge          ....    0
 Multiplicity           Mult            ....    1
 Number of Electrons    NEL             ....  572
 Basis Dimension        Dim             .... 1170

ORBITAL ENERGIES
----------------

  NO   OCC          E(Eh)            E(eV)
   0   2.0000    -482.895480    -13140.2541
   1   2.0000    -482.890831    -13140.1275
   2   2.0000     -88.988863     -2421.5101
   3   2.0000     -88.988311     -2421.4951
   4   2.0000     -88.987607     -2421.4759
   5   2.0000     -88.982024     -2421.3240
   6   2.0000     -62.573185     -1702.7029
   7   2.0000     -62.568566     -1702.5772
   8   2.0000     -56.407150     -1534.9166
   9   2.0000     -56.404409     -1534.8420
  10   2.0000     -56.404382     -1534.8413
  11   2.0000     -56.402523     -1534.7907
  12   2.0000     -56.399795     -1534.7165
  13   2.0000     -56.399760     -1534.7155
  14   2.0000     -19.240095      -523.5496
  15   2.0000     -19.239485      -523.5330
  16   2.0000     -19.239191      -523.5250
  17   2.0000     -19.238726      -523.5124
  18   2.0000     -19.238346      -523.5020
  19   2.0000     -19.227450      -523.2055
  20   2.0000     -14.651244      -398.6806
  21   2.0000     -14.650740      -398.6669
  22   2.0000     -14.497372      -394.4935
  23   2.0000     -14.483601      -394.1188
  24   2.0000     -14.449620      -393.1941
  25   2.0000     -14.429627      -392.6501
  26   2.0000     -14.421660      -392.4333
  27   2.0000     -14.417551      -392.3215
  28   2.0000     -10.384319      -282.5717
  29   2.0000     -10.378861      -282.4232
  30   2.0000     -10.378621      -282.4166
  31   2.0000     -10.371833      -282.2319
  32   2.0000     -10.370564      -282.1974
  33   2.0000     -10.367698      -282.1194
  34   2.0000     -10.364617      -282.0356
  35   2.0000     -10.362514      -281.9783
  36   2.0000     -10.359286      -281.8905
  37   2.0000     -10.356243      -281.8077
  38   2.0000     -10.349167      -281.6152
  39   2.0000     -10.348121      -281.5867
  40   2.0000     -10.345820      -281.5241
  41   2.0000     -10.344895      -281.4989
  42   2.0000     -10.338544      -281.3261
  43   2.0000     -10.334160      -281.2068
  44   2.0000     -10.333435      -281.1871
  45   2.0000     -10.332206      -281.1536
  46   2.0000     -10.329891      -281.0906
  47   2.0000     -10.325707      -280.9768
  48   2.0000     -10.324096      -280.9329
  49   2.0000     -10.322844      -280.8989
  50   2.0000     -10.320843      -280.8444
  51   2.0000     -10.320777      -280.8426
  52   2.0000     -10.320734      -280.8414
  53   2.0000     -10.317239      -280.7464
  54   2.0000     -10.315650      -280.7031
  55   2.0000     -10.314236      -280.6646
  56   2.0000     -10.314164      -280.6627
  57   2.0000     -10.312345      -280.6132
  58   2.0000     -10.310742      -280.5695
  59   2.0000     -10.310587      -280.5653
  60   2.0000     -10.309921      -280.5472
  61   2.0000     -10.309685      -280.5408
  62   2.0000     -10.308866      -280.5185
  63   2.0000     -10.307808      -280.4897
  64   2.0000     -10.307274      -280.4752
  65   2.0000     -10.306586      -280.4565
  66   2.0000     -10.305375      -280.4235
  67   2.0000     -10.304259      -280.3931
  68   2.0000     -10.302971      -280.3581
  69   2.0000     -10.302259      -280.3387
  70   2.0000     -10.301475      -280.3174
  71   2.0000     -10.291122      -280.0357
  72   2.0000     -10.289250      -279.9847
  73   2.0000     -10.287991      -279.9505
  74   2.0000     -10.286464      -279.9089
  75   2.0000     -10.285971      -279.8955
  76   2.0000     -10.285242      -279.8757
  77   2.0000     -10.283851      -279.8378
  78   2.0000     -10.283491      -279.8280
  79   2.0000     -10.282022      -279.7880
  80   2.0000      -8.802611      -239.5312
  81   2.0000      -8.798017      -239.4062
  82   2.0000      -8.083953      -219.9756
  83   2.0000      -8.083589      -219.9656
  84   2.0000      -8.083187      -219.9547
  85   2.0000      -8.078031      -219.8144
  86   2.0000      -6.638966      -180.6554
  87   2.0000      -6.634364      -180.5302
  88   2.0000      -6.624323      -180.2570
  89   2.0000      -6.624101      -180.2509
  90   2.0000      -6.619721      -180.1318
  91   2.0000      -6.619530      -180.1266
  92   2.0000      -6.053620      -164.7274
  93   2.0000      -6.053274      -164.7180
  94   2.0000      -6.052875      -164.7071
  95   2.0000      -6.049279      -164.6093
  96   2.0000      -6.048981      -164.6011
  97   2.0000      -6.048409      -164.5856
  98   2.0000      -6.047712      -164.5666
  99   2.0000      -6.045422      -164.5043
 100   2.0000      -6.044834      -164.4883
 101   2.0000      -6.044616      -164.4824
 102   2.0000      -6.043399      -164.4492
 103   2.0000      -6.039297      -164.3376
 104   2.0000      -2.754834       -74.9628
 105   2.0000      -2.750734       -74.8513
 106   2.0000      -2.750538       -74.8460
 107   2.0000      -2.750187       -74.8364
 108   2.0000      -2.746140       -74.7263
 109   2.0000      -2.745983       -74.7220
 110   2.0000      -2.738912       -74.5296
 111   2.0000      -2.738904       -74.5294
 112   2.0000      -2.734344       -74.4053
 113   2.0000      -2.734335       -74.4050
 114   2.0000      -1.321555       -35.9613
 115   2.0000      -1.320055       -35.9205
 116   2.0000      -1.152100       -31.3502
 117   2.0000      -1.142802       -31.0972
 118   2.0000      -1.140840       -31.0438
 119   2.0000      -1.139402       -31.0047
 120   2.0000      -1.104692       -30.0602
 121   2.0000      -1.096165       -29.8282
 122   2.0000      -1.044611       -28.4253
 123   2.0000      -1.032326       -28.0910
 124   2.0000      -1.029656       -28.0184
 125   2.0000      -1.018748       -27.7216
 126   2.0000      -1.016922       -27.6719
 127   2.0000      -1.012245       -27.5446
 128   2.0000      -1.009881       -27.4803
 129   2.0000      -1.004840       -27.3431
 130   2.0000      -0.999196       -27.1895
 131   2.0000      -0.995644       -27.0929
 132   2.0000      -0.987416       -26.8690
 133   2.0000      -0.959860       -26.1191
 134   2.0000      -0.948304       -25.8047
 135   2.0000      -0.941778       -25.6271
 136   2.0000      -0.935189       -25.4478
 137   2.0000      -0.923762       -25.1368
 138   2.0000      -0.921603       -25.0781
 139   2.0000      -0.915252       -24.9053
 140   2.0000      -0.909801       -24.7569
 141   2.0000      -0.902378       -24.5550
 142   2.0000      -0.899902       -24.4876
 143   2.0000      -0.892881       -24.2965
 144   2.0000      -0.888995       -24.1908
 145   2.0000      -0.883645       -24.0452
 146   2.0000      -0.873621       -23.7724
 147   2.0000      -0.868595       -23.6357
 148   2.0000      -0.862285       -23.4640
 149   2.0000      -0.853984       -23.2381
 150   2.0000      -0.843937       -22.9647
 151   2.0000      -0.842755       -22.9325
 152   2.0000      -0.836758       -22.7693
 153   2.0000      -0.836553       -22.7638
 154   2.0000      -0.807700       -21.9786
 155   2.0000      -0.799837       -21.7647
 156   2.0000      -0.790807       -21.5190
 157   2.0000      -0.778374       -21.1806
 158   2.0000      -0.774088       -21.0640
 159   2.0000      -0.768948       -20.9241
 160   2.0000      -0.761295       -20.7159
 161   2.0000      -0.750496       -20.4220
 162   2.0000      -0.738959       -20.1081
 163   2.0000      -0.733754       -19.9665
 164   2.0000      -0.721529       -19.6338
 165   2.0000      -0.716904       -19.5079
 166   2.0000      -0.706979       -19.2379
 167   2.0000      -0.703204       -19.1352
 168   2.0000      -0.698126       -18.9970
 169   2.0000      -0.696562       -18.9544
 170   2.0000      -0.685331       -18.6488
 171   2.0000      -0.681765       -18.5518
 172   2.0000      -0.674401       -18.3514
 173   2.0000      -0.671329       -18.2678
 174   2.0000      -0.663417       -18.0525
 175   2.0000      -0.662522       -18.0281
 176   2.0000      -0.654981       -17.8229
 177   2.0000      -0.641631       -17.4597
 178   2.0000      -0.640321       -17.4240
 179   2.0000      -0.638362       -17.3707
 180   2.0000      -0.636235       -17.3128
 181   2.0000      -0.634822       -17.2744
 182   2.0000      -0.632664       -17.2157
 183   2.0000      -0.632375       -17.2078
 184   2.0000      -0.630264       -17.1504
 185   2.0000      -0.624946       -17.0056
 186   2.0000      -0.620828       -16.8936
 187   2.0000      -0.615906       -16.7597
 188   2.0000      -0.608375       -16.5547
 189   2.0000      -0.603212       -16.4142
 190   2.0000      -0.600710       -16.3461
 191   2.0000      -0.598445       -16.2845
 192   2.0000      -0.593264       -16.1435
 193   2.0000      -0.585739       -15.9388
 194   2.0000      -0.580778       -15.8038
 195   2.0000      -0.577240       -15.7075
 196   2.0000      -0.568648       -15.4737
 197   2.0000      -0.566496       -15.4152
 198   2.0000      -0.565201       -15.3799
 199   2.0000      -0.561623       -15.2825
 200   2.0000      -0.560942       -15.2640
 201   2.0000      -0.557669       -15.1749
 202   2.0000      -0.554234       -15.0815
 203   2.0000      -0.553443       -15.0600
 204   2.0000      -0.551633       -15.0107
 205   2.0000      -0.547552       -14.8997
 206   2.0000      -0.543692       -14.7946
 207   2.0000      -0.541539       -14.7360
 208   2.0000      -0.538971       -14.6661
 209   2.0000      -0.537634       -14.6298
 210   2.0000      -0.535258       -14.5651
 211   2.0000      -0.529835       -14.4175
 212   2.0000      -0.527790       -14.3619
 213   2.0000      -0.525163       -14.2904
 214   2.0000      -0.524861       -14.2822
 215   2.0000      -0.521507       -14.1909
 216   2.0000      -0.518749       -14.1159
 217   2.0000      -0.515916       -14.0388
 218   2.0000      -0.514631       -14.0038
 219   2.0000      -0.513592       -13.9756
 220   2.0000      -0.510729       -13.8976
 221   2.0000      -0.505580       -13.7575
 222   2.0000      -0.503941       -13.7129
 223   2.0000      -0.502951       -13.6860
 224   2.0000      -0.500200       -13.6111
 225   2.0000      -0.496912       -13.5217
 226   2.0000      -0.495401       -13.4806
 227   2.0000      -0.485871       -13.2212
 228   2.0000      -0.484485       -13.1835
 229   2.0000      -0.483023       -13.1437
 230   2.0000      -0.481085       -13.0910
 231   2.0000      -0.475886       -12.9495
 232   2.0000      -0.473775       -12.8921
 233   2.0000      -0.470602       -12.8057
 234   2.0000      -0.466998       -12.7077
 235   2.0000      -0.465865       -12.6768
 236   2.0000      -0.461935       -12.5699
 237   2.0000      -0.460475       -12.5302
 238   2.0000      -0.457817       -12.4578
 239   2.0000      -0.457053       -12.4371
 240   2.0000      -0.455371       -12.3913
 241   2.0000      -0.453833       -12.3494
 242   2.0000      -0.453302       -12.3350
 243   2.0000      -0.450470       -12.2579
 244   2.0000      -0.448279       -12.1983
 245   2.0000      -0.447720       -12.1831
 246   2.0000      -0.445404       -12.1201
 247   2.0000      -0.441775       -12.0213
 248   2.0000      -0.435179       -11.8418
 249   2.0000      -0.431803       -11.7500
 250   2.0000      -0.431642       -11.7456
 251   2.0000      -0.429876       -11.6975
 252   2.0000      -0.428342       -11.6558
 253   2.0000      -0.424413       -11.5489
 254   2.0000      -0.418664       -11.3924
 255   2.0000      -0.417893       -11.3715
 256   2.0000      -0.414679       -11.2840
 257   2.0000      -0.408301       -11.1104
 258   2.0000      -0.399220       -10.8633
 259   2.0000      -0.397865       -10.8265
 260   2.0000      -0.395070       -10.7504
 261   2.0000      -0.387069       -10.5327
 262   2.0000      -0.386752       -10.5241
 263   2.0000      -0.384638       -10.4665
 264   2.0000      -0.382153       -10.3989
 265   2.0000      -0.380406       -10.3514
 266   2.0000      -0.379371       -10.3232
 267   2.0000      -0.377484       -10.2718
 268   2.0000      -0.376775       -10.2526
 269   2.0000      -0.368827       -10.0363
 270   2.0000      -0.367914       -10.0114
 271   2.0000      -0.365934        -9.9576
 272   2.0000      -0.361155        -9.8275
 273   2.0000      -0.360691        -9.8149
 274   2.0000      -0.345615        -9.4047
 275   2.0000      -0.343705        -9.3527
 276   2.0000      -0.338245        -9.2041
 277   2.0000      -0.328390        -8.9360
 278   2.0000      -0.325613        -8.8604
 279   2.0000      -0.323987        -8.8161
 280   2.0000      -0.322238        -8.7685
 281   2.0000      -0.308120        -8.3844
 282   2.0000      -0.301032        -8.1915
 283   2.0000      -0.293894        -7.9973
 284   2.0000      -0.279954        -7.6179
 285   2.0000      -0.224449        -6.1076
 286   0.0000      -0.112680        -3.0662
 287   0.0000      -0.096291        -2.6202
 288   0.0000      -0.087204        -2.3729
 289   0.0000      -0.073201        -1.9919
 290   0.0000      -0.071558        -1.9472

MULLIKEN ATOMIC CHARGES
-----------------------
   0 C :    0.328214
   1 C :   -0.343510
   2 C :   -0.184946
   3 N :    0.152543
   4 C :   -0.198357
   5 N :    0.144894
   6 C :    0.013832
   7 C :   -0.004567
   8 C :   -0.072166
   9 C :    0.121339
  10 C :   -0.090862
  11 C :   -0.023084
  12 S :    0.192921
  13 C :   -0.122348
  14 C :    0.034036
  15 Br:    0.026540
  16 C :    0.172552
  17 O :   -0.239232
  18 C :   -0.135510
  19 C :    0.028385
  20 N :   -0.003679
  21 C :   -0.135081
  22 S :    0.177234
  23 C :    0.007149
  24 N :    0.272899
  25 O :   -0.246716
  26 O :   -0.254724
  27 C :   -0.000247
  28 C :    0.144847
  29 C :   -0.072720
  30 C :   -0.020368
  31 C :    0.073112
  32 C :    0.036854
  33 C :   -0.013589
  34 C :    0.031154
  35 C :    0.022015
  36 C :   -0.007556
  37 C :   -0.005361
  38 C :    0.000556
  39 C :    0.016905
  40 C :   -0.017585
  41 N :   -0.002209
  42 C :   -0.103359
  43 S :    0.190429
  44 C :   -0.014985
  45 N :    0.276442
  46 O :   -0.252050
  47 O :   -0.263707
  48 C :    0.016745
  49 C :    0.099434
  50 C :    0.005505
  51 C :   -0.042582
  52 C :    0.054289
  53 C :   -0.139344
  54 C :    0.268386
  55 C :   -0.363868
  56 C :   -0.184056
  57 N :    0.164383
  58 C :   -0.101524
  59 N :    0.100969
  60 C :   -0.008406
  61 C :    0.005836
  62 C :    0.135639
  63 O :   -0.139191
  64 C :   -0.069221
  65 C :    0.109389
  66 C :   -0.091039
  67 C :   -0.015385
  68 S :    0.191788
  69 C :   -0.125544
  70 C :    0.043642
  71 Br:    0.032629
  72 H :   -0.012381
  73 H :   -0.005314
  74 H :   -0.003165
  75 H :    0.045671
  76 H :    0.185368
  77 H :    0.012258
  78 H :   -0.024513
  79 H :   -0.031269
  80 H :   -0.026753
  81 H :   -0.005628
  82 H :   -0.005728
  83 H :   -0.017578
  84 H :    0.034803
  85 H :    0.037097
  86 H :    0.160674
  87 H :    0.008432
  88 H :    0.017619
  89 H :    0.018342
  90 H :    0.031635
  91 H :   -0.004859
  92 H :    0.000491
  93 H :   -0.000014
Sum of atomic charges:    0.0000000

LOEWDIN ATOMIC CHARGES
----------------------
   0 C :    0.078219
   1 C :   -0.148900
   2 C :   -0.020234
   3 N :   -0.053979
   4 C :   -0.020494
   5 N :   -0.052916
   6 C :   -0.016945
   7 C :   -0.051556
   8 C :    0.023209
   9 C :   -0.034357
  10 C :   -0.143744
  11 C :   -0.007248
  12 S :    0.438694
  13 C :   -0.271805
  14 C :   -0.070221
  15 Br:    0.138845
  16 C :    0.098461
  17 O :   -0.187982
  18 C :   -0.149863
  19 C :    0.110762
  20 N :    0.085759
  21 C :   -0.127490
  22 S :    0.466055
  23 C :   -0.196968
  24 N :    0.272798
  25 O :   -0.213732
  26 O :   -0.220903
  27 C :   -0.000997
  28 C :   -0.074038
  29 C :   -0.063871
  30 C :   -0.000043
  31 C :   -0.054628
  32 C :    0.003965
  33 C :   -0.015790
  34 C :   -0.010453
  35 C :   -0.017402
  36 C :   -0.027221
  37 C :   -0.060342
  38 C :    0.004915
  39 C :   -0.022167
  40 C :    0.065629
  41 N :    0.057616
  42 C :   -0.084109
  43 S :    0.489039
  44 C :   -0.212449
  45 N :    0.272775
  46 O :   -0.218302
  47 O :   -0.229679
  48 C :    0.003182
  49 C :   -0.114079
  50 C :    0.039037
  51 C :   -0.060465
  52 C :    0.071282
  53 C :   -0.106058
  54 C :    0.080239
  55 C :   -0.166725
  56 C :   -0.026626
  57 N :   -0.052120
  58 C :    0.049091
  59 N :   -0.077768
  60 C :   -0.023942
  61 C :   -0.050821
  62 C :    0.083299
  63 O :   -0.138848
  64 C :    0.023816
  65 C :   -0.030246
  66 C :   -0.144741
  67 C :   -0.008648
  68 S :    0.437414
  69 C :   -0.269226
  70 C :   -0.069572
  71 Br:    0.143620
  72 H :    0.040508
  73 H :    0.042171
  74 H :    0.038692
  75 H :    0.036899
  76 H :    0.082230
  77 H :    0.043461
  78 H :    0.022806
  79 H :    0.028607
  80 H :    0.028649
  81 H :    0.032401
  82 H :    0.032386
  83 H :    0.021477
  84 H :    0.029018
  85 H :    0.033902
  86 H :    0.076525
  87 H :    0.045846
  88 H :    0.037678
  89 H :    0.035684
  90 H :    0.048883
  91 H :    0.043091
  92 H :    0.041877
  93 H :    0.040203

  Mayer bond orders larger than 0.100000
B(  0-C ,  1-C ) :   1.6255 B(  0-C ,  6-C ) :   1.0006 B(  0-C , 18-C ) :   1.1007
B(  1-C ,  2-C ) :   1.1424 B(  1-C ,  4-C ) :   1.1493 B(  2-C ,  3-N ) :   2.9689
B(  4-C ,  5-N ) :   2.9545 B(  6-C ,  7-C ) :   1.2736 B(  6-C , 11-C ) :   1.4258
B(  7-C ,  8-C ) :   1.4221 B(  7-C , 16-C ) :   0.9853 B(  8-C ,  9-C ) :   1.2385
B(  8-C , 72-H ) :   1.0187 B(  9-C , 10-C ) :   1.3123 B(  9-C , 14-C ) :   1.1612
B( 10-C , 11-C ) :   1.3145 B( 10-C , 12-S ) :   1.0919 B( 11-C , 73-H ) :   0.9814
B( 12-S , 13-C ) :   1.0882 B( 13-C , 14-C ) :   1.6173 B( 13-C , 15-Br) :   1.0205
B( 14-C , 74-H ) :   1.0012 B( 16-C , 17-O ) :   1.9949 B( 16-C , 18-C ) :   1.0214
B( 17-O , 76-H ) :   0.1481 B( 18-C , 19-C ) :   1.4236 B( 19-C , 20-N ) :   1.3593
B( 19-C , 75-H ) :   0.9336 B( 20-N , 21-C ) :   1.1915 B( 20-N , 76-H ) :   0.8198
B( 21-C , 22-S ) :   1.1224 B( 21-C , 28-C ) :   1.3585 B( 22-S , 23-C ) :   1.0844
B( 23-C , 24-N ) :   0.9599 B( 23-C , 27-C ) :   1.5109 B( 24-N , 25-O ) :   1.5348
B( 24-N , 26-O ) :   1.5193 B( 25-O , 26-O ) :   0.2626 B( 27-C , 28-C ) :   1.2065
B( 27-C , 77-H ) :   0.9959 B( 28-C , 29-C ) :   1.0993 B( 29-C , 30-C ) :   1.6259
B( 29-C , 78-H ) :   0.9675 B( 30-C , 31-C ) :   1.1972 B( 30-C , 79-H ) :   0.9592
B( 31-C , 32-C ) :   1.3965 B( 31-C , 39-C ) :   0.9963 B( 32-C , 33-C ) :   1.1815
B( 32-C , 37-C ) :   1.1325 B( 33-C , 34-C ) :   1.5875 B( 33-C , 80-H ) :   0.9900
B( 34-C , 35-C ) :   1.1661 B( 34-C , 81-H ) :   0.9840 B( 35-C , 36-C ) :   1.6015
B( 35-C , 82-H ) :   0.9832 B( 36-C , 37-C ) :   1.1316 B( 36-C , 83-H ) :   0.9917
B( 37-C , 38-C ) :   1.4406 B( 38-C , 39-C ) :   1.0482 B( 38-C , 41-N ) :   1.1699
B( 39-C , 40-C ) :   1.8668 B( 40-C , 84-H ) :   0.9226 B( 40-C , 85-H ) :   0.9287
B( 41-N , 42-C ) :   1.2418 B( 41-N , 86-H ) :   0.8437 B( 42-C , 43-S ) :   1.1501
B( 42-C , 49-C ) :   1.3079 B( 43-S , 44-C ) :   1.0625 B( 44-C , 45-N ) :   0.9715
B( 44-C , 48-C ) :   1.5009 B( 45-N , 46-O ) :   1.5327 B( 45-N , 47-O ) :   1.5119
B( 46-O , 47-O ) :   0.2581 B( 48-C , 49-C ) :   1.2060 B( 48-C , 87-H ) :   1.0072
B( 49-C , 50-C ) :   1.1561 B( 50-C , 51-C ) :   1.6175 B( 50-C , 88-H ) :   0.9619
B( 51-C , 52-C ) :   1.1788 B( 51-C , 89-H ) :   0.9567 B( 52-C , 53-C ) :   1.6125
B( 52-C , 90-H ) :   0.9343 B( 53-C , 54-C ) :   1.0726 B( 53-C , 62-C ) :   0.9413
B( 54-C , 55-C ) :   1.5895 B( 54-C , 60-C ) :   1.0190 B( 55-C , 56-C ) :   1.1223
B( 55-C , 58-C ) :   1.2096 B( 56-C , 57-N ) :   2.9977 B( 58-C , 59-N ) :   2.8568
B( 59-N , 86-H ) :   0.1174 B( 60-C , 61-C ) :   1.2676 B( 60-C , 67-C ) :   1.4129
B( 61-C , 62-C ) :   0.9161 B( 61-C , 64-C ) :   1.4325 B( 62-C , 63-O ) :   2.2750
B( 64-C , 65-C ) :   1.2460 B( 64-C , 91-H ) :   1.0161 B( 65-C , 66-C ) :   1.3045
B( 65-C , 70-C ) :   1.1702 B( 66-C , 67-C ) :   1.3288 B( 66-C , 68-S ) :   1.0861
B( 67-C , 92-H ) :   0.9833 B( 68-S , 69-C ) :   1.0904 B( 69-C , 70-C ) :   1.6134
B( 69-C , 71-Br) :   1.0241 B( 70-C , 93-H ) :   0.9996

-----------------------------------------------------------------------------
         ABSORPTION SPECTRUM VIA TRANSITION ELECTRIC DIPOLE MOMENTS
-----------------------------------------------------------------------------
State   Energy  Wavelength   fosc         T2         TX        TY        TZ
        (cm-1)    (nm)                  (au**2)     (au)      (au)      (au)
-----------------------------------------------------------------------------
   0    8774.4   1139.7   0.289616188  10.86623  -0.34740   3.17879   0.80051
   1   12530.8    798.0   0.165676820   4.35269  -0.77784  -0.65838   1.82049
   2   15870.3    630.1   0.278054238   5.76792  -0.72982  -0.74522   2.16332
   3   18852.7    530.4   0.010233929   0.17871   0.09913  -0.28603  -0.29507
   4   20350.4    491.4   0.033826778   0.54722  -0.26900   0.65962  -0.19940
   5   20440.4    489.2   0.497649854   8.01512   0.93155  -0.26150  -2.66063
   6   21746.9    459.8   0.166840360   2.52569  -0.85315  -1.33938   0.06231
   7   23406.1    427.2   0.092668813   1.30341   0.13610  -0.53797  -0.99773
   8   24378.8    410.2   0.267444128   3.61158  -0.24739  -1.49033   1.15294
   9   25423.2    393.3   0.111542444   1.44439  -0.72069  -0.13071   0.95285
  10   26313.9    380.0   0.225398046   2.81994   0.64292  -0.18093  -1.54073
  11   26609.3    375.8   0.384398502   4.75580  -0.54150   1.58518   1.39634
  12   27849.2    359.1   0.129586772   1.53187  -0.39051   0.64104   0.98410
  13   28178.3    354.9   0.020206923   0.23608   0.28010  -0.19937   0.34333
  14   28935.6    345.6   0.011342470   0.12905   0.27837  -0.22347   0.04025
  15   29247.0    341.9   0.035646470   0.40125  -0.31490   0.12228   0.53584
  16   29492.4    339.1   0.429376062   4.79295  -0.48920   1.47901   1.53823
  17   29636.0    337.4   0.015068513   0.16739  -0.08165   0.28929   0.27755
  18   29788.4    335.7   0.021765490   0.24055  -0.03418   0.43076  -0.23200
  19   30218.9    330.9   0.219752920   2.39404   0.93722  -0.45256  -1.14493
  20   30413.7    328.8   0.314639692   3.40580   0.37119  -1.72989  -0.52490
  21   30715.3    325.6   0.140363231   1.50444  -0.97358   0.01610   0.74587
  22   31202.7    320.5   0.123890563   1.30714  -0.33525   0.74199   0.80262
  23   31673.9    315.7   0.158143464   1.64371  -1.06442   0.30211   0.64765
  24   32054.8    312.0   0.080697522   0.82879  -0.15239   0.68853   0.57575
  25   32848.5    304.4   0.617031553   6.18397   0.87597  -2.27884  -0.47279
  26   33062.8    302.5   0.194258574   1.93427  -0.63946  -0.06971   1.23309
  27   33122.0    301.9   0.065043476   0.64649  -0.37772   0.46275   0.53822
  28   33355.3    299.8   0.087456107   0.86318   0.14970   0.24304  -0.88414
  29   33876.1    295.2   0.382906571   3.72113   0.09833  -1.90206  -0.30599
  30   33975.2    294.3   0.067807602   0.65704  -0.16109   0.36310  -0.70657
  31   34029.6    293.9   0.008580555   0.08301   0.00103   0.06281   0.28118
  32   34772.6    287.6   0.001038779   0.00983  -0.00765  -0.07928   0.05909
  33   34814.7    287.2   0.099670027   0.94249   0.32634   0.87625  -0.26111
  34   35052.3    285.3   0.005433603   0.05103  -0.14531   0.16792   0.04149
  35   35328.0    283.1   0.020602154   0.19199  -0.09906   0.32129  -0.28098
  36   35451.8    282.1   0.096540531   0.89649   0.20016   0.80267  -0.46059
  37   35547.9    281.3   0.033390498   0.30923   0.34827  -0.39969  -0.16791
  38   35730.4    279.9   0.060330534   0.55587   0.18010  -0.69596  -0.19767
  39   35776.5    279.5   0.024370772   0.22426  -0.08979   0.44062   0.14849
  40   35859.0    278.9   0.024560766   0.22549   0.13134  -0.33074  -0.31440
  41   36208.8    276.2   0.008570501   0.07792  -0.12919   0.09981   0.22643
  42   36522.0    273.8   0.031059128   0.27997  -0.35136   0.00380   0.39560
  43   36674.3    272.7   0.084896837   0.76209  -0.32513   0.64746  -0.48701
  44   36865.9    271.3   0.040188887   0.35889  -0.28141   0.20954   0.48558
  45   37129.5    269.3   0.000459347   0.00407   0.02152   0.03804  -0.04651
  46   37285.3    268.2   0.018372898   0.16222  -0.18221  -0.12200   0.33785
  47   37446.6    267.0   0.033361135   0.29329   0.00889   0.25358  -0.47845
  48   37846.8    264.2   0.322484575   2.80515   0.44411   0.31844  -1.58320
  49   38317.9    261.0   0.121400689   1.04303   0.25954   0.67780  -0.71851
  50   38654.2    258.7   0.112480153   0.95798   0.94396  -0.15068   0.21028
  51   38854.6    257.4   0.040406917   0.34236  -0.49377  -0.11706  -0.29129
  52   39117.1    255.6   0.051524870   0.43364   0.25361  -0.13212   0.59318
  53   39439.0    253.6   0.078821816   0.65795   0.27321   0.41918   0.63843
  54   39460.4    253.4   0.045392870   0.37871  -0.53971   0.13392  -0.26359
  55   39504.1    253.1   0.008938676   0.07449  -0.02650   0.23404   0.13789
  56   39625.5    252.4   0.043433190   0.36085   0.20385  -0.40363  -0.39544
  57   39900.7    250.6   0.033124559   0.27330  -0.48475  -0.01156  -0.19541
  58   40047.5    249.7   0.058148356   0.47801  -0.24562  -0.52650   0.37480

FINAL SINGLE POINT ENERGY     -9620.422184713028

DIPOLE MOMENT
-------------
                                X             Y             Z
Electronic contribution:    -52.01054      69.82469     178.56543
Nuclear contribution   :     49.57457     -65.68298    -176.90665
                        -----------------------------------------
Total Dipole Moment    :     -2.43598       4.14171       1.65878
                        -----------------------------------------
Magnitude (a.u.)       :      5.08324
Magnitude (Debye)      :     12.92056

Rotational constants in cm-1:     0.000674     0.000397     0.000260
Rotational constants in MHz :    20.219845    11.904749     7.801972

                             ****ORCA TERMINATED NORMALLY****
TOTAL RUN TIME: 0 days 0 hours 10 minutes 18 seconds 369 msec
