                         Program Version 4.2.0 -  RELEASE  -
|  1> # ORCA input file
|  2> # SCF done       -171.276255789339          0.000850810948
|  3> ! CAM-B3LYP def2-SVP def2/J RIJCOSX Grid4 TightSCF
|  4> %maxcore 5000
|  5> %tddft
|  6>     Mode sTDDFT
|  7>     Ethresh 5.0
|  8>     maxcore 5000
|  9> end
| 10>
| 11> %pal
| 12>   nprocs 6
| 13>   end
| 14> * xyz 0 1
| 15>    C      -18.34654         6.14884        -6.31657
| 16>    C      -19.29013         6.65340        -7.16695
| 17>    F      -19.03035         7.76167        -7.87962
| 18>    C      -20.53988         6.02121        -7.30586
| 19>    F      -21.44830         6.53829        -8.14844
| 20>    C      -20.83049         4.89303        -6.59012
| 21>    C      -19.88055         4.35064        -5.70400
| 22>    C      -18.61485         4.98770        -5.56508
| 23>    C      -17.64326         4.45933        -4.68331
| 24>    C      -17.93096         3.33248        -3.96207
| 25>    C      -19.19896         2.70594        -4.10375
| 26>    C      -20.15510         3.18811        -4.94699
| 27>    C      -19.25321         1.51705        -3.22525
| 28>    O      -20.21060         0.78873        -3.06170
| 29>    C      -17.92241         1.43601        -2.58864
| 30>    C      -17.14085         2.56573        -2.99982
| 31>    C      -15.86810         2.90396        -2.58433
| 32>    C      -15.08667         2.20184        -1.65022
| 33>    N      -14.36271         1.69314        -0.91446
| 34>    C      -15.15287         4.01294        -3.06417
| 35>    N      -14.49838         4.88773        -3.42518
| 36>    C      -17.49534         0.37268        -1.81337
| 37>    C      -18.26039        -0.74496        -1.50862
| 38>    C      -17.74838        -1.84442        -0.84377
| 39>    C      -18.44892        -3.01008        -0.46496
| 40>    C      -17.68056        -3.93930         0.17803
| 41>    C      -16.33228        -3.55472         0.31546
| 42>    S      -16.07519        -1.97039        -0.37157
| 43>    C      -15.27887        -4.25483         0.88452
| 44>    C      -15.30838        -5.47384         1.59446
| 45>    C      -14.08665        -5.86476         2.05994
| 46>    C      -13.03080        -4.98449         1.72445
| 47>    S      -13.65037        -3.63925         0.78938
| 48>    C      -11.70396        -5.09994         2.07211
| 49>    C      -10.72969        -4.18391         1.65452
| 50>    O      -11.08834        -3.19674         0.80181
| 51>    C      -10.00120        -2.43348         0.53497
| 52>    C       -8.91323        -2.92552         1.23193
| 53>    C       -9.36075        -4.05112         1.94762
| 54>    C       -8.51187        -4.86645         2.80925
| 55>    O       -7.33653        -4.66603         2.99357
| 56>    O       -9.15900        -5.89086         3.39929
| 57>    C      -10.11558        -1.35011        -0.37739
| 58>    C      -11.24996        -1.11042        -1.07452
| 59>    N      -11.38128        -0.09470        -1.96604
| 60>    C      -12.44918         0.12902        -2.76869
| 61>    S      -13.79422        -0.95852        -2.78791
| 62>    C      -14.58018         0.05786        -3.95666
| 63>    N      -15.85509        -0.28684        -4.36979
| 64>    O      -16.42138         0.45381        -5.16531
| 65>    O      -16.34514        -1.30351        -3.88967
| 66>    C      -13.82991         1.15329        -4.31282
| 67>    C      -12.59476         1.21404        -3.64970
| 68>    C      -11.60491         2.24492        -3.81831
| 69>    C      -11.79777         3.40127        -4.48035
| 70>    C      -10.77763         4.39762        -4.60788
| 71>    C      -10.95751         5.62091        -5.13146
| 72>    C      -12.27591         6.11749        -5.63671
| 73>    C       -9.82249         6.61441        -5.23800
| 74>    N       -8.49766         6.10485        -5.00484
| 75>    C       -8.03179         5.89319        -3.72830
| 76>    C       -7.05304         5.05591        -3.39996
| 77>    H      -17.39369         6.64600        -6.22264
| 78>    H      -21.79280         4.42014        -6.70809
| 79>    H      -16.69518         4.96601        -4.60446
| 80>    H      -21.10763         2.68886        -5.03998
| 81>    H      -16.47742         0.38488        -1.43855
| 82>    H      -19.29180        -0.77682        -1.82762
| 83>    H      -19.49689        -3.12554        -0.67675
| 84>    H      -18.04495        -4.88596         0.53507
| 85>    H      -16.22145        -6.01685         1.76002
| 86>    H      -13.90921        -6.75687         2.63394
| 87>    H      -11.38561        -5.91826         2.69657
| 88>    H       -7.91404        -2.54197         1.23154
| 89>    H       -8.53327        -6.38310         3.95410
| 90>    H       -9.23737        -0.73565        -0.50544
| 91>    H      -12.11625        -1.74467        -0.95190
| 92>    H      -10.61962         0.57098        -2.03115
| 93>    H      -14.17636         1.86721        -5.03738
| 94>    H      -10.63688         2.07407        -3.36282
| 95>    H      -12.75751         3.61605        -4.92095
| 96>    H       -9.80271         4.12406        -4.22496
| 97>    H      -13.06445         5.90969        -4.91696
| 98>    H      -12.53549         5.62402        -6.57369
| 99>    H      -12.23841         7.18903        -5.81687
|100>    H      -10.00530         7.42584        -4.52288
|101>    H       -9.84367         7.05684        -6.24180
|102>    H       -8.18510         5.42316        -5.68284
|103>    H       -8.49757         6.52394        -2.98271
|104>    H       -6.57983         4.42252        -4.13153
|105>    H       -6.68056         5.00062        -2.39506
|106> *
|107>
|108>                          ****END OF INPUT****

CARTESIAN COORDINATES (ANGSTROEM)
---------------------------------
  C    -18.346540    6.148840   -6.316570
  C    -19.290130    6.653400   -7.166950
  F    -19.030350    7.761670   -7.879620
  C    -20.539880    6.021210   -7.305860
  F    -21.448300    6.538290   -8.148440
  C    -20.830490    4.893030   -6.590120
  C    -19.880550    4.350640   -5.704000
  C    -18.614850    4.987700   -5.565080
  C    -17.643260    4.459330   -4.683310
  C    -17.930960    3.332480   -3.962070
  C    -19.198960    2.705940   -4.103750
  C    -20.155100    3.188110   -4.946990
  C    -19.253210    1.517050   -3.225250
  O    -20.210600    0.788730   -3.061700
  C    -17.922410    1.436010   -2.588640
  C    -17.140850    2.565730   -2.999820
  C    -15.868100    2.903960   -2.584330
  C    -15.086670    2.201840   -1.650220
  N    -14.362710    1.693140   -0.914460
  C    -15.152870    4.012940   -3.064170
  N    -14.498380    4.887730   -3.425180
  C    -17.495340    0.372680   -1.813370
  C    -18.260390   -0.744960   -1.508620
  C    -17.748380   -1.844420   -0.843770
  C    -18.448920   -3.010080   -0.464960
  C    -17.680560   -3.939300    0.178030
  C    -16.332280   -3.554720    0.315460
  S    -16.075190   -1.970390   -0.371570
  C    -15.278870   -4.254830    0.884520
  C    -15.308380   -5.473840    1.594460
  C    -14.086650   -5.864760    2.059940
  C    -13.030800   -4.984490    1.724450
  S    -13.650370   -3.639250    0.789380
  C    -11.703960   -5.099940    2.072110
  C    -10.729690   -4.183910    1.654520
  O    -11.088340   -3.196740    0.801810
  C    -10.001200   -2.433480    0.534970
  C     -8.913230   -2.925520    1.231930
  C     -9.360750   -4.051120    1.947620
  C     -8.511870   -4.866450    2.809250
  O     -7.336530   -4.666030    2.993570
  O     -9.159000   -5.890860    3.399290
  C    -10.115580   -1.350110   -0.377390
  C    -11.249960   -1.110420   -1.074520
  N    -11.381280   -0.094700   -1.966040
  C    -12.449180    0.129020   -2.768690
  S    -13.794220   -0.958520   -2.787910
  C    -14.580180    0.057860   -3.956660
  N    -15.855090   -0.286840   -4.369790
  O    -16.421380    0.453810   -5.165310
  O    -16.345140   -1.303510   -3.889670
  C    -13.829910    1.153290   -4.312820
  C    -12.594760    1.214040   -3.649700
  C    -11.604910    2.244920   -3.818310
  C    -11.797770    3.401270   -4.480350
  C    -10.777630    4.397620   -4.607880
  C    -10.957510    5.620910   -5.131460
  C    -12.275910    6.117490   -5.636710
  C     -9.822490    6.614410   -5.238000
  N     -8.497660    6.104850   -5.004840
  C     -8.031790    5.893190   -3.728300
  C     -7.053040    5.055910   -3.399960
  H    -17.393690    6.646000   -6.222640
  H    -21.792800    4.420140   -6.708090
  H    -16.695180    4.966010   -4.604460
  H    -21.107630    2.688860   -5.039980
  H    -16.477420    0.384880   -1.438550
  H    -19.291800   -0.776820   -1.827620
  H    -19.496890   -3.125540   -0.676750
  H    -18.044950   -4.885960    0.535070
  H    -16.221450   -6.016850    1.760020
  H    -13.909210   -6.756870    2.633940
  H    -11.385610   -5.918260    2.696570
  H     -7.914040   -2.541970    1.231540
  H     -8.533270   -6.383100    3.954100
  H     -9.237370   -0.735650   -0.505440
  H    -12.116250   -1.744670   -0.951900
  H    -10.619620    0.570980   -2.031150
  H    -14.176360    1.867210   -5.037380
  H    -10.636880    2.074070   -3.362820
  H    -12.757510    3.616050   -4.920950
  H     -9.802710    4.124060   -4.224960
  H    -13.064450    5.909690   -4.916960
  H    -12.535490    5.624020   -6.573690
  H    -12.238410    7.189030   -5.816870
  H    -10.005300    7.425840   -4.522880
  H     -9.843670    7.056840   -6.241800
  H     -8.185100    5.423160   -5.682840
  H     -8.497570    6.523940   -2.982710
  H     -6.579830    4.422520   -4.131530
  H     -6.680560    5.000620   -2.395060

 Total Charge           Charge          ....    0
 Multiplicity           Mult            ....    1
 Number of Electrons    NEL             ....  454
 Basis Dimension        Dim             .... 1025

ORBITAL ENERGIES
----------------

  NO   OCC          E(Eh)            E(eV)
   0   2.0000     -88.972702     -2421.0703
   1   2.0000     -88.962137     -2420.7828
   2   2.0000     -88.955917     -2420.6136
   3   2.0000     -24.786171      -674.4660
   4   2.0000     -24.785666      -674.4523
   5   2.0000     -19.309661      -525.4426
   6   2.0000     -19.271703      -524.4097
   7   2.0000     -19.227194      -523.1985
   8   2.0000     -19.225070      -523.1407
   9   2.0000     -19.209637      -522.7208
  10   2.0000     -19.196373      -522.3599
  11   2.0000     -14.636030      -398.2666
  12   2.0000     -14.483141      -394.1063
  13   2.0000     -14.406717      -392.0267
  14   2.0000     -14.402975      -391.9249
  15   2.0000     -14.402959      -391.9244
  16   2.0000     -10.413814      -283.3743
  17   2.0000     -10.367885      -282.1245
  18   2.0000     -10.367340      -282.1097
  19   2.0000     -10.359237      -281.8892
  20   2.0000     -10.355366      -281.7838
  21   2.0000     -10.352108      -281.6952
  22   2.0000     -10.346645      -281.5465
  23   2.0000     -10.339231      -281.3448
  24   2.0000     -10.329303      -281.0746
  25   2.0000     -10.327885      -281.0360
  26   2.0000     -10.324847      -280.9534
  27   2.0000     -10.324052      -280.9317
  28   2.0000     -10.321898      -280.8731
  29   2.0000     -10.320048      -280.8228
  30   2.0000     -10.320038      -280.8225
  31   2.0000     -10.313240      -280.6375
  32   2.0000     -10.308055      -280.4964
  33   2.0000     -10.304428      -280.3977
  34   2.0000     -10.304041      -280.3872
  35   2.0000     -10.302283      -280.3394
  36   2.0000     -10.301558      -280.3196
  37   2.0000     -10.298397      -280.2336
  38   2.0000     -10.297348      -280.2051
  39   2.0000     -10.296005      -280.1685
  40   2.0000     -10.295106      -280.1441
  41   2.0000     -10.294992      -280.1410
  42   2.0000     -10.294721      -280.1336
  43   2.0000     -10.290395      -280.0159
  44   2.0000     -10.290064      -280.0069
  45   2.0000     -10.289567      -279.9934
  46   2.0000     -10.287775      -279.9446
  47   2.0000     -10.287645      -279.9411
  48   2.0000     -10.286455      -279.9087
  49   2.0000     -10.286300      -279.9045
  50   2.0000     -10.285656      -279.8869
  51   2.0000     -10.285589      -279.8851
  52   2.0000     -10.284231      -279.8482
  53   2.0000     -10.274306      -279.5781
  54   2.0000     -10.273581      -279.5584
  55   2.0000     -10.271850      -279.5113
  56   2.0000     -10.269845      -279.4567
  57   2.0000     -10.265572      -279.3404
  58   2.0000     -10.264665      -279.3157
  59   2.0000     -10.247758      -278.8557
  60   2.0000     -10.245760      -278.8013
  61   2.0000     -10.224908      -278.2339
  62   2.0000      -8.067658      -219.5321
  63   2.0000      -8.057541      -219.2568
  64   2.0000      -8.051981      -219.1055
  65   2.0000      -6.037363      -164.2850
  66   2.0000      -6.033078      -164.1684
  67   2.0000      -6.028976      -164.0568
  68   2.0000      -6.027368      -164.0130
  69   2.0000      -6.022959      -163.8930
  70   2.0000      -6.021490      -163.8531
  71   2.0000      -6.018627      -163.7752
  72   2.0000      -6.017515      -163.7449
  73   2.0000      -6.013238      -163.6285
  74   2.0000      -1.307719       -35.5848
  75   2.0000      -1.302319       -35.4379
  76   2.0000      -1.293012       -35.1846
  77   2.0000      -1.230640       -33.4874
  78   2.0000      -1.196087       -32.5472
  79   2.0000      -1.120837       -30.4995
  80   2.0000      -1.110414       -30.2159
  81   2.0000      -1.099025       -29.9060
  82   2.0000      -1.088726       -29.6257
  83   2.0000      -1.010744       -27.5037
  84   2.0000      -1.007583       -27.4177
  85   2.0000      -1.007289       -27.4097
  86   2.0000      -0.994190       -27.0533
  87   2.0000      -0.989777       -26.9332
  88   2.0000      -0.987868       -26.8812
  89   2.0000      -0.983770       -26.7697
  90   2.0000      -0.965378       -26.2693
  91   2.0000      -0.932169       -25.3656
  92   2.0000      -0.921574       -25.0773
  93   2.0000      -0.918210       -24.9858
  94   2.0000      -0.911536       -24.8042
  95   2.0000      -0.903843       -24.5948
  96   2.0000      -0.895738       -24.3743
  97   2.0000      -0.884909       -24.0796
  98   2.0000      -0.879511       -23.9327
  99   2.0000      -0.874160       -23.7871
 100   2.0000      -0.868165       -23.6240
 101   2.0000      -0.863107       -23.4863
 102   2.0000      -0.845421       -23.0051
 103   2.0000      -0.836711       -22.7681
 104   2.0000      -0.836175       -22.7535
 105   2.0000      -0.826750       -22.4970
 106   2.0000      -0.824982       -22.4489
 107   2.0000      -0.812058       -22.0972
 108   2.0000      -0.804699       -21.8970
 109   2.0000      -0.783603       -21.3229
 110   2.0000      -0.779237       -21.2041
 111   2.0000      -0.764503       -20.8032
 112   2.0000      -0.751674       -20.4541
 113   2.0000      -0.750616       -20.4253
 114   2.0000      -0.742861       -20.2143
 115   2.0000      -0.733481       -19.9590
 116   2.0000      -0.723932       -19.6992
 117   2.0000      -0.716940       -19.5089
 118   2.0000      -0.706014       -19.2116
 119   2.0000      -0.699272       -19.0282
 120   2.0000      -0.696936       -18.9646
 121   2.0000      -0.692210       -18.8360
 122   2.0000      -0.676932       -18.4202
 123   2.0000      -0.673522       -18.3275
 124   2.0000      -0.665416       -18.1069
 125   2.0000      -0.664914       -18.0932
 126   2.0000      -0.657612       -17.8945
 127   2.0000      -0.650783       -17.7087
 128   2.0000      -0.644848       -17.5472
 129   2.0000      -0.637827       -17.3561
 130   2.0000      -0.637088       -17.3360
 131   2.0000      -0.628354       -17.0984
 132   2.0000      -0.623727       -16.9725
 133   2.0000      -0.622394       -16.9362
 134   2.0000      -0.619405       -16.8549
 135   2.0000      -0.617504       -16.8031
 136   2.0000      -0.614295       -16.7158
 137   2.0000      -0.606208       -16.4958
 138   2.0000      -0.598662       -16.2904
 139   2.0000      -0.597000       -16.2452
 140   2.0000      -0.592895       -16.1335
 141   2.0000      -0.580598       -15.7989
 142   2.0000      -0.579335       -15.7645
 143   2.0000      -0.574568       -15.6348
 144   2.0000      -0.572958       -15.5910
 145   2.0000      -0.572680       -15.5834
 146   2.0000      -0.568455       -15.4684
 147   2.0000      -0.565545       -15.3893
 148   2.0000      -0.560047       -15.2396
 149   2.0000      -0.556397       -15.1403
 150   2.0000      -0.551445       -15.0056
 151   2.0000      -0.550957       -14.9923
 152   2.0000      -0.544627       -14.8201
 153   2.0000      -0.542697       -14.7675
 154   2.0000      -0.540119       -14.6974
 155   2.0000      -0.539623       -14.6839
 156   2.0000      -0.535946       -14.5838
 157   2.0000      -0.534787       -14.5523
 158   2.0000      -0.531657       -14.4671
 159   2.0000      -0.525425       -14.2975
 160   2.0000      -0.518990       -14.1224
 161   2.0000      -0.517684       -14.0869
 162   2.0000      -0.515333       -14.0229
 163   2.0000      -0.512783       -13.9535
 164   2.0000      -0.511493       -13.9184
 165   2.0000      -0.509230       -13.8569
 166   2.0000      -0.508660       -13.8414
 167   2.0000      -0.502269       -13.6674
 168   2.0000      -0.500905       -13.6303
 169   2.0000      -0.498351       -13.5608
 170   2.0000      -0.497192       -13.5293
 171   2.0000      -0.493537       -13.4298
 172   2.0000      -0.492937       -13.4135
 173   2.0000      -0.488285       -13.2869
 174   2.0000      -0.486331       -13.2337
 175   2.0000      -0.480841       -13.0843
 176   2.0000      -0.479565       -13.0496
 177   2.0000      -0.477943       -13.0055
 178   2.0000      -0.475715       -12.9449
 179   2.0000      -0.472117       -12.8470
 180   2.0000      -0.468244       -12.7416
 181   2.0000      -0.464154       -12.6303
 182   2.0000      -0.461380       -12.5548
 183   2.0000      -0.461187       -12.5495
 184   2.0000      -0.458102       -12.4656
 185   2.0000      -0.454959       -12.3801
 186   2.0000      -0.453280       -12.3344
 187   2.0000      -0.449944       -12.2436
 188   2.0000      -0.448238       -12.1972
 189   2.0000      -0.444912       -12.1067
 190   2.0000      -0.438611       -11.9352
 191   2.0000      -0.437016       -11.8918
 192   2.0000      -0.433912       -11.8074
 193   2.0000      -0.430868       -11.7245
 194   2.0000      -0.427718       -11.6388
 195   2.0000      -0.425588       -11.5809
 196   2.0000      -0.420840       -11.4516
 197   2.0000      -0.416665       -11.3380
 198   2.0000      -0.412825       -11.2335
 199   2.0000      -0.412034       -11.2120
 200   2.0000      -0.408956       -11.1283
 201   2.0000      -0.407690       -11.0938
 202   2.0000      -0.405100       -11.0233
 203   2.0000      -0.399057       -10.8589
 204   2.0000      -0.397253       -10.8098
 205   2.0000      -0.392783       -10.6882
 206   2.0000      -0.384467       -10.4619
 207   2.0000      -0.382035       -10.3957
 208   2.0000      -0.377191       -10.2639
 209   2.0000      -0.375314       -10.2128
 210   2.0000      -0.369114       -10.0441
 211   2.0000      -0.366047        -9.9606
 212   2.0000      -0.364010        -9.9052
 213   2.0000      -0.354905        -9.6575
 214   2.0000      -0.349821        -9.5191
 215   2.0000      -0.345375        -9.3981
 216   2.0000      -0.339304        -9.2329
 217   2.0000      -0.331613        -9.0237
 218   2.0000      -0.324165        -8.8210
 219   2.0000      -0.316463        -8.6114
 220   2.0000      -0.305428        -8.3111
 221   2.0000      -0.295641        -8.0448
 222   2.0000      -0.283054        -7.7023
 223   2.0000      -0.274172        -7.4606
 224   2.0000      -0.255796        -6.9606
 225   2.0000      -0.241655        -6.5758
 226   2.0000      -0.218296        -5.9401
 227   0.0000      -0.111654        -3.0382
 228   0.0000      -0.063735        -1.7343
 229   0.0000      -0.049039        -1.3344
 230   0.0000      -0.039737        -1.0813
 231   0.0000      -0.018584        -0.5057

MULLIKEN ATOMIC CHARGES
-----------------------
   0 C :   -0.112574
   1 C :    0.238453
   2 F :   -0.178330
   3 C :    0.236649
   4 F :   -0.178123
   5 C :   -0.106072
   6 C :    0.116864
   7 C :    0.117948
   8 C :   -0.097600
   9 C :    0.063310
  10 C :    0.009997
  11 C :   -0.088568
  12 C :    0.151982
  13 O :   -0.160813
  14 C :   -0.086193
  15 C :    0.349794
  16 C :   -0.398749
  17 C :   -0.186851
  18 N :    0.134406
  19 C :   -0.186275
  20 N :    0.142817
  21 C :   -0.057371
  22 C :    0.009243
  23 C :    0.015470
  24 C :    0.029254
  25 C :    0.042251
  26 C :   -0.051040
  27 S :    0.104076
  28 C :   -0.018462
  29 C :    0.023123
  30 C :    0.040133
  31 C :   -0.011539
  32 S :    0.106709
  33 C :   -0.034639
  34 C :    0.136176
  35 O :   -0.237890
  36 C :    0.201451
  37 C :   -0.066598
  38 C :    0.001764
  39 C :    0.117317
  40 O :   -0.184742
  41 O :   -0.181545
  42 C :   -0.045392
  43 C :    0.083071
  44 N :   -0.011047
  45 C :   -0.097229
  46 S :    0.151775
  47 C :   -0.047996
  48 N :    0.283320
  49 O :   -0.265994
  50 O :   -0.275033
  51 C :    0.026017
  52 C :    0.151358
  53 C :   -0.053124
  54 C :    0.037539
  55 C :   -0.014200
  56 C :   -0.213834
  57 C :    0.082013
  58 C :    0.186603
  59 N :   -0.180849
  60 C :    0.052361
  61 C :   -0.087512
  62 H :   -0.001248
  63 H :   -0.005025
  64 H :   -0.019348
  65 H :   -0.016538
  66 H :    0.009947
  67 H :    0.015872
  68 H :    0.000359
  69 H :   -0.007403
  70 H :   -0.007275
  71 H :   -0.002907
  72 H :    0.008479
  73 H :   -0.000273
  74 H :    0.194159
  75 H :   -0.004626
  76 H :    0.042065
  77 H :    0.141403
  78 H :    0.009574
  79 H :   -0.047638
  80 H :   -0.015358
  81 H :   -0.029213
  82 H :    0.042049
  83 H :    0.022727
  84 H :   -0.000345
  85 H :    0.026164
  86 H :    0.014561
  87 H :    0.106058
  88 H :    0.002564
  89 H :   -0.010823
  90 H :    0.004979
Sum of atomic charges:   -0.0000000

LOEWDIN ATOMIC CHARGES
----------------------
   0 C :   -0.032736
   1 C :    0.062754
   2 F :   -0.056048
   3 C :    0.064096
   4 F :   -0.055308
   5 C :   -0.034143
   6 C :   -0.009087
   7 C :   -0.008218
   8 C :    0.008798
   9 C :   -0.014172
  10 C :   -0.041450
  11 C :    0.024381
  12 C :    0.087842
  13 O :   -0.152981
  14 C :   -0.108331
  15 C :    0.079277
  16 C :   -0.172960
  17 C :   -0.018710
  18 N :   -0.084181
  19 C :    0.000867
  20 N :   -0.077219
  21 C :    0.047133
  22 C :   -0.058593
  23 C :   -0.099867
  24 C :   -0.036211
  25 C :   -0.010658
  26 C :   -0.188410
  27 S :    0.416811
  28 C :   -0.156685
  29 C :   -0.036734
  30 C :   -0.015607
  31 C :   -0.147753
  32 S :    0.411658
  33 C :   -0.048909
  34 C :    0.045371
  35 O :    0.003461
  36 C :    0.054674
  37 C :   -0.038188
  38 C :   -0.097228
  39 C :    0.082943
  40 O :   -0.177277
  41 O :   -0.044581
  42 C :   -0.099958
  43 C :    0.048952
  44 N :    0.058080
  45 C :   -0.090020
  46 S :    0.461330
  47 C :   -0.225963
  48 N :    0.277425
  49 O :   -0.234855
  50 O :   -0.239363
  51 C :    0.009984
  52 C :   -0.094867
  53 C :   -0.051124
  54 C :    0.002287
  55 C :   -0.067906
  56 C :   -0.027683
  57 C :   -0.061411
  58 C :    0.031631
  59 N :   -0.037340
  60 C :    0.028030
  61 C :   -0.168052
  62 H :    0.044142
  63 H :    0.043174
  64 H :    0.035348
  65 H :    0.037947
  66 H :    0.025483
  67 H :    0.039722
  68 H :    0.039259
  69 H :    0.034807
  70 H :    0.034145
  71 H :    0.037445
  72 H :    0.044267
  73 H :    0.039939
  74 H :    0.102657
  75 H :    0.037931
  76 H :    0.024552
  77 H :    0.099473
  78 H :    0.042676
  79 H :    0.016901
  80 H :    0.023922
  81 H :    0.024119
  82 H :    0.035612
  83 H :    0.035969
  84 H :    0.025243
  85 H :    0.034933
  86 H :    0.027737
  87 H :    0.069932
  88 H :    0.024731
  89 H :    0.011510
  90 H :    0.019420

  Mayer bond orders larger than 0.100000
B(  0-C ,  1-C ) :   1.4376 B(  0-C ,  5-C ) :   0.1096 B(  0-C ,  7-C ) :   1.1895
B(  0-C , 62-H ) :   1.0064 B(  1-C ,  2-F ) :   1.1276 B(  1-C ,  3-C ) :   1.1988
B(  3-C ,  4-F ) :   1.1265 B(  3-C ,  5-C ) :   1.4369 B(  5-C ,  6-C ) :   1.1970
B(  5-C , 63-H ) :   1.0071 B(  6-C ,  7-C ) :   1.2624 B(  6-C , 11-C ) :   1.1760
B(  7-C ,  8-C ) :   1.2084 B(  8-C ,  9-C ) :   1.4567 B(  8-C , 64-H ) :   0.9886
B(  9-C , 10-C ) :   1.2236 B(  9-C , 15-C ) :   0.9740 B( 10-C , 11-C ) :   1.4857
B( 10-C , 12-C ) :   0.9320 B( 11-C , 65-H ) :   1.0150 B( 12-C , 13-O ) :   2.1926
B( 12-C , 14-C ) :   0.9603 B( 14-C , 15-C ) :   1.1353 B( 14-C , 21-C ) :   1.4476
B( 15-C , 16-C ) :   1.5462 B( 16-C , 17-C ) :   1.1648 B( 16-C , 19-C ) :   1.1750
B( 17-C , 18-N ) :   2.9168 B( 19-C , 20-N ) :   2.8818 B( 21-C , 22-C ) :   1.2743
B( 21-C , 66-H ) :   0.9476 B( 22-C , 23-C ) :   1.4045 B( 22-C , 67-H ) :   0.9739
B( 23-C , 24-C ) :   1.1909 B( 23-C , 27-S ) :   1.0905 B( 24-C , 25-C ) :   1.5281
B( 24-C , 68-H ) :   1.0013 B( 25-C , 26-C ) :   1.2272 B( 25-C , 69-H ) :   0.9946
B( 26-C , 27-S ) :   1.0574 B( 26-C , 28-C ) :   1.4452 B( 28-C , 29-C ) :   1.2099
B( 28-C , 32-S ) :   1.0600 B( 29-C , 30-C ) :   1.5640 B( 29-C , 70-H ) :   0.9963
B( 30-C , 31-C ) :   1.1648 B( 30-C , 71-H ) :   0.9995 B( 31-C , 32-S ) :   1.0461
B( 31-C , 33-C ) :   1.4985 B( 33-C , 34-C ) :   1.2508 B( 33-C , 72-H ) :   0.9578
B( 34-C , 35-O ) :   1.1160 B( 34-C , 38-C ) :   1.3204 B( 35-O , 36-C ) :   1.1114
B( 36-C , 37-C ) :   1.4066 B( 36-C , 42-C ) :   1.1854 B( 37-C , 38-C ) :   1.2627
B( 37-C , 73-H ) :   1.0212 B( 38-C , 39-C ) :   0.9463 B( 39-C , 40-O ) :   2.1864
B( 39-C , 41-O ) :   1.2580 B( 41-O , 74-H ) :   0.9387 B( 42-C , 43-C ) :   1.6277
B( 42-C , 75-H ) :   0.9561 B( 43-C , 44-N ) :   1.1497 B( 43-C , 76-H ) :   0.9618
B( 44-N , 45-C ) :   1.2277 B( 44-N , 77-H ) :   0.9122 B( 45-C , 46-S ) :   1.1312
B( 45-C , 52-C ) :   1.3386 B( 46-S , 47-C ) :   1.0764 B( 47-C , 48-N ) :   1.0145
B( 47-C , 51-C ) :   1.4198 B( 48-N , 49-O ) :   1.4953 B( 48-N , 50-O ) :   1.4641
B( 49-O , 50-O ) :   0.2291 B( 51-C , 52-C ) :   1.2752 B( 51-C , 78-H ) :   0.9968
B( 52-C , 53-C ) :   1.0286 B( 53-C , 54-C ) :   1.7453 B( 53-C , 79-H ) :   0.9737
B( 54-C , 55-C ) :   1.1015 B( 54-C , 80-H ) :   0.9657 B( 55-C , 56-C ) :   1.7839
B( 55-C , 81-H ) :   0.9654 B( 56-C , 57-C ) :   1.0786 B( 56-C , 58-C ) :   0.9940
B( 57-C , 82-H ) :   0.9271 B( 57-C , 83-H ) :   0.9374 B( 57-C , 84-H ) :   0.9500
B( 58-C , 59-N ) :   1.0761 B( 58-C , 85-H ) :   0.9197 B( 58-C , 86-H ) :   0.9407
B( 59-N , 60-C ) :   1.1570 B( 59-N , 87-H ) :   0.9455 B( 60-C , 61-C ) :   1.8882
B( 60-C , 88-H ) :   0.9608 B( 61-C , 89-H ) :   0.9553 B( 61-C , 90-H ) :   0.9533

-----------------------------------------------------------------------------
         ABSORPTION SPECTRUM VIA TRANSITION ELECTRIC DIPOLE MOMENTS
-----------------------------------------------------------------------------
State   Energy  Wavelength   fosc         T2         TX        TY        TZ
        (cm-1)    (nm)                  (au**2)     (au)      (au)      (au)
-----------------------------------------------------------------------------
   0    8302.2   1204.5   0.334041676  13.24602  -2.88662   1.92593  -1.09739
   1   14592.2    685.3   0.387417159   8.74046  -1.05770   2.30437  -1.52041
   2   17718.1    564.4   0.351574108   6.53243  -0.24697   1.87348  -1.72090
   3   20527.6    487.1   0.428242850   6.86795  -0.67636  -2.17428   1.29730
   4   20954.2    477.2   0.062233735   0.97776   0.88077  -0.07246   0.44357
   5   21899.2    456.6   0.007542952   0.11339   0.18812   0.19396  -0.20096
   6   23096.0    433.0   0.029507986   0.42061  -0.48431   0.09729  -0.42023
   7   23689.0    422.1   0.292320220   4.06244   0.89784  -1.36966   1.17489
   8   24121.4    414.6   0.805692694  10.99619  -3.12953  -0.18634  -1.08052
   9   25394.4    393.8   0.027104653   0.35138  -0.50247   0.02063  -0.31382
  10   25894.2    386.2   0.007856260   0.09988  -0.27532  -0.15107   0.03547
  11   26224.2    381.3   0.098335290   1.23448   0.73666   0.74216  -0.37552
  12   27884.4    358.6   0.028617602   0.33787   0.23146  -0.27164   0.45881
  13   28599.6    349.7   0.103055663   1.18628   0.34148  -0.89431   0.51951
  14   29252.1    341.9   0.580827326   6.53681   0.88034  -1.85261   1.52631
  15   29701.6    336.7   0.000724213   0.00803   0.05730  -0.00884  -0.06831
  16   30050.9    332.8   0.042578528   0.46645   0.64796   0.19251   0.09765
  17   30371.7    329.3   0.089362174   0.96864   0.81733   0.54063   0.09128
  18   30543.2    327.4   0.000985452   0.01062  -0.09818   0.03065  -0.00658
  19   30872.5    323.9   0.014599598   0.15568  -0.18807  -0.30888   0.15781
  20   31710.0    315.4   0.005392114   0.05598   0.10880   0.18164  -0.10560
  21   31795.9    314.5   0.046788588   0.48444  -0.58556  -0.37621  -0.00584
  22   32515.2    307.5   0.186478125   1.88807  -0.56447   0.86775  -0.90358
  23   32921.7    303.8   0.066872674   0.66872  -0.48915   0.41173  -0.50983
  24   33150.5    301.7   0.111169077   1.10400  -0.88550  -0.00122  -0.56559
  25   33522.3    298.3   0.141873344   1.39329  -0.13491  -1.02045   0.57773
  26   34007.4    294.1   0.013773300   0.13333  -0.07515   0.30897  -0.17951
  27   34246.6    292.0   0.175403652   1.68615   0.28375   1.11360  -0.60459
  28   34361.6    291.0   0.163531834   1.56677   0.66912  -0.69457   0.79789
  29   34669.7    288.4   0.133102949   1.26390   0.79235  -0.62428   0.49635
  30   34955.2    286.1   0.008352609   0.07867  -0.01620   0.27262  -0.06390
  31   35066.1    285.2   0.004465985   0.04193  -0.16658  -0.10812   0.04991
  32   35116.0    284.8   0.012464260   0.11685  -0.17954  -0.28503   0.05809
  33   35389.8    282.6   0.154815871   1.44017  -1.06894   0.14189  -0.52669
  34   35669.2    280.4   0.032727736   0.30206   0.38391  -0.16894   0.35515
  35   35973.0    278.0   0.154768776   1.41639   0.81911   0.85376  -0.12863
  36   36305.3    275.4   0.002787563   0.02528  -0.00158  -0.07697  -0.13910
  37   36655.0    272.8   0.089947171   0.80785  -0.71212   0.23978  -0.49320
  38   37252.6    268.4   0.118389615   1.04624  -0.93501  -0.14850  -0.38723
  39   37517.8    266.5   0.207594558   1.82160  -1.18198  -0.31385  -0.57099
  40   37601.1    265.9   0.003754096   0.03287  -0.13865  -0.04447  -0.10802
  41   37702.6    265.2   0.011641446   0.10165  -0.26263  -0.17816  -0.03059
  42   37880.5    264.0   0.068578641   0.59600  -0.70233  -0.31893   0.03195
  43   38280.0    261.2   0.037425329   0.32186   0.53969   0.17317  -0.02462
  44   39145.7    255.5   0.027661930   0.23263  -0.37774  -0.21830  -0.20565
  45   39268.5    254.7   0.002128080   0.01784  -0.08429  -0.05554  -0.08747
  46   39429.0    253.6   0.009613769   0.08027  -0.14881  -0.24053   0.01644
  47   39833.8    251.0   0.012123578   0.10020  -0.08435  -0.30471   0.01529
  48   40239.2    248.5   0.008727420   0.07140  -0.08322   0.09889  -0.23387
  49   40270.0    248.3   0.001804031   0.01475   0.06062   0.08895  -0.05622

FINAL SINGLE POINT ENERGY     -3885.834995056044

DIPOLE MOMENT
-------------
                                X             Y             Z
Electronic contribution:    -53.21304     -16.72025      -0.67272
Nuclear contribution   :     54.10043      14.02522       2.18647
                        -----------------------------------------
Total Dipole Moment    :      0.88739      -2.69503       1.51375
                        -----------------------------------------
Magnitude (a.u.)       :      3.21591
Magnitude (Debye)      :      8.17419

Rotational constants in cm-1:     0.001611     0.000683     0.000496
Rotational constants in MHz :    48.309247    20.488627    14.883750

                             ****ORCA TERMINATED NORMALLY****
TOTAL RUN TIME: 0 days 0 hours 9 minutes 35 seconds 117 msec
