                         Program Version 4.2.0 -  RELEASE  -
|  1> # ORCA input file
|  2> # SCF done       -170.506095887785          0.000310504336
|  3> ! CAM-B3LYP def2-SVP def2/J RIJCOSX Grid4 TightSCF
|  4> %maxcore 5000
|  5> %tddft
|  6>     Mode sTDDFT
|  7>     Ethresh 5.0
|  8>     maxcore 5000
|  9> end
| 10>
| 11> %pal
| 12>   nprocs 6
| 13>   end
| 14> * xyz 0 1
| 15>    C       -5.15644         0.30294        -4.35095
| 16>    C       -4.33231        -0.60634        -3.70550
| 17>    C       -4.60119        -0.91286        -2.38607
| 18>    C       -5.66588        -0.29550        -1.71910
| 19>    C       -5.71893        -0.83744        -0.33997
| 20>    O       -6.51122        -0.60857         0.54153
| 21>    N       -4.66244        -1.72514        -0.25387
| 22>    C       -3.93879        -1.83176        -1.43982
| 23>    O       -2.98473        -2.55207        -1.59693
| 24>    C       -4.32788        -2.45787         0.94757
| 25>    C       -3.29000        -1.71087         1.77810
| 26>    C       -6.47166         0.62116        -2.34611
| 27>    C       -6.23574         0.91453        -3.70302
| 28>    C       -7.11255         1.85950        -4.36197
| 29>    S       -7.72458         3.17743        -3.40263
| 30>    C       -8.65251         3.79407        -4.74140
| 31>    C       -8.50192         2.97949        -5.85413
| 32>    C       -7.62689         1.89384        -5.64538
| 33>    C       -7.41921         0.83081        -6.68262
| 34>    C       -7.98759         1.23700        -8.04223
| 35>    C       -9.38024         1.87083        -7.90623
| 36>    N      -10.37009         1.03262        -7.25114
| 37>    C       -9.24773         3.18738        -7.13488
| 38>    C       -9.42766         4.97063        -4.58281
| 39>    C       -9.72079         5.47389        -3.35097
| 40>    C      -10.47722         6.61479        -3.04012
| 41>    C      -10.90896         6.84830        -1.75424
| 42>    C      -11.67616         7.91685        -1.23224
| 43>    C      -12.03515         7.76919         0.07821
| 44>    C      -11.59020         6.56353         0.65831
| 45>    S      -10.62225         5.66461        -0.48810
| 46>    C      -11.88346         5.96168         1.86934
| 47>    C      -12.68587         6.35939         2.95814
| 48>    C      -12.86405         5.38106         3.89424
| 49>    C      -12.23955         4.14540         3.58272
| 50>    S      -11.30667         4.32616         2.11439
| 51>    C      -12.40891         2.93474         4.21444
| 52>    C      -11.96870         1.69252         3.72496
| 53>    S      -10.97154         1.56197         2.30924
| 54>    C      -11.16214        -0.16988         2.24517
| 55>    C      -11.92159        -0.61992         3.32258
| 56>    C      -12.33946         0.41504         4.16547
| 57>    C      -13.15355         0.17400         5.39850
| 58>    C      -13.05638        -1.28835         5.82788
| 59>    C      -13.33468        -2.23138         4.64551
| 60>    N      -14.63622        -2.05789         4.02227
| 61>    C      -12.25472        -2.05781         3.57254
| 62>    C      -10.60865        -0.74762         1.07209
| 63>    C      -10.80636        -1.95167         0.49202
| 64>    C      -10.34961        -2.21540        -0.85474
| 65>    C      -11.08099        -3.11089        -1.65913
| 66>    C      -10.77273        -3.19759        -2.99508
| 67>    C       -9.74012        -2.43548        -3.55742
| 68>    C       -9.72949        -2.66906        -5.00925
| 69>    O       -9.05063        -2.15416        -5.86978
| 70>    N      -10.72795        -3.60371        -5.24324
| 71>    C      -11.40088        -3.97933        -4.08710
| 72>    O      -12.30747        -4.77249        -4.04733
| 73>    C      -11.03077        -4.14328        -6.55030
| 74>    C      -10.26434        -5.43650        -6.80604
| 75>    C       -8.95260        -1.62536        -2.76207
| 76>    C       -9.26116        -1.53002        -1.41651
| 77>    H       -4.93542         0.56893        -5.37154
| 78>    H       -3.49981        -1.06245        -4.21817
| 79>    H       -3.93796        -3.43201         0.64179
| 80>    H       -5.25206        -2.58812         1.51606
| 81>    H       -2.37902        -1.57216         1.20052
| 82>    H       -3.05391        -2.28053         2.67247
| 83>    H       -3.67442        -0.73710         2.07313
| 84>    H       -7.28367         1.09812        -1.81799
| 85>    H       -7.90023        -0.09183        -6.33920
| 86>    H       -6.36074         0.60401        -6.80451
| 87>    H       -8.04096         0.35383        -8.68236
| 88>    H       -7.32398         1.96015        -8.52203
| 89>    H       -9.76942         2.08808        -8.90972
| 90>    H      -10.10556         0.87105        -6.28485
| 91>    H      -10.41596         0.12660        -7.70502
| 92>    H      -10.24551         3.57554        -6.92567
| 93>    H       -8.72081         3.91920        -7.75488
| 94>    H       -9.80983         5.44380        -5.47641
| 95>    H       -9.36500         4.90752        -2.49639
| 96>    H      -10.75743         7.30848        -3.82054
| 97>    H      -11.95302         8.75843        -1.84328
| 98>    H      -12.62959         8.47792         0.62780
| 99>    H      -13.12665         7.33919         3.01487
|100>    H      -13.46552         5.49495         4.77951
|101>    H      -13.01835         2.92524         5.10813
|102>    H      -14.20013         0.43916         5.20652
|103>    H      -12.80444         0.82002         6.20771
|104>    H      -13.76696        -1.48296         6.63488
|105>    H      -12.05275        -1.49197         6.20546
|106>    H      -13.30370        -3.26639         5.00988
|107>    H      -14.69557        -1.14855         3.57730
|108>    H      -15.37611        -2.12247         4.71255
|109>    H      -12.62636        -2.51630         2.65535
|110>    H      -11.34525        -2.58800         3.86769
|111>    H      -10.01844        -0.03005         0.51497
|112>    H      -11.43176        -2.70423         0.94669
|113>    H      -11.89791        -3.68252        -1.24495
|114>    H      -10.75620        -3.38403        -7.28687
|115>    H      -12.10735        -4.32692        -6.59053
|116>    H       -9.19300        -5.25713        -6.74680
|117>    H      -10.50226        -5.81716        -7.79533
|118>    H      -10.53880        -6.18529        -6.06671
|119>    H       -8.12670        -1.07696        -3.18766
|120>    H       -8.64414        -0.91752        -0.77809
|121> *
|122>
|123>                          ****END OF INPUT****

CARTESIAN COORDINATES (ANGSTROEM)
---------------------------------
  C     -5.156440    0.302940   -4.350950
  C     -4.332310   -0.606340   -3.705500
  C     -4.601190   -0.912860   -2.386070
  C     -5.665880   -0.295500   -1.719100
  C     -5.718930   -0.837440   -0.339970
  O     -6.511220   -0.608570    0.541530
  N     -4.662440   -1.725140   -0.253870
  C     -3.938790   -1.831760   -1.439820
  O     -2.984730   -2.552070   -1.596930
  C     -4.327880   -2.457870    0.947570
  C     -3.290000   -1.710870    1.778100
  C     -6.471660    0.621160   -2.346110
  C     -6.235740    0.914530   -3.703020
  C     -7.112550    1.859500   -4.361970
  S     -7.724580    3.177430   -3.402630
  C     -8.652510    3.794070   -4.741400
  C     -8.501920    2.979490   -5.854130
  C     -7.626890    1.893840   -5.645380
  C     -7.419210    0.830810   -6.682620
  C     -7.987590    1.237000   -8.042230
  C     -9.380240    1.870830   -7.906230
  N    -10.370090    1.032620   -7.251140
  C     -9.247730    3.187380   -7.134880
  C     -9.427660    4.970630   -4.582810
  C     -9.720790    5.473890   -3.350970
  C    -10.477220    6.614790   -3.040120
  C    -10.908960    6.848300   -1.754240
  C    -11.676160    7.916850   -1.232240
  C    -12.035150    7.769190    0.078210
  C    -11.590200    6.563530    0.658310
  S    -10.622250    5.664610   -0.488100
  C    -11.883460    5.961680    1.869340
  C    -12.685870    6.359390    2.958140
  C    -12.864050    5.381060    3.894240
  C    -12.239550    4.145400    3.582720
  S    -11.306670    4.326160    2.114390
  C    -12.408910    2.934740    4.214440
  C    -11.968700    1.692520    3.724960
  S    -10.971540    1.561970    2.309240
  C    -11.162140   -0.169880    2.245170
  C    -11.921590   -0.619920    3.322580
  C    -12.339460    0.415040    4.165470
  C    -13.153550    0.174000    5.398500
  C    -13.056380   -1.288350    5.827880
  C    -13.334680   -2.231380    4.645510
  N    -14.636220   -2.057890    4.022270
  C    -12.254720   -2.057810    3.572540
  C    -10.608650   -0.747620    1.072090
  C    -10.806360   -1.951670    0.492020
  C    -10.349610   -2.215400   -0.854740
  C    -11.080990   -3.110890   -1.659130
  C    -10.772730   -3.197590   -2.995080
  C     -9.740120   -2.435480   -3.557420
  C     -9.729490   -2.669060   -5.009250
  O     -9.050630   -2.154160   -5.869780
  N    -10.727950   -3.603710   -5.243240
  C    -11.400880   -3.979330   -4.087100
  O    -12.307470   -4.772490   -4.047330
  C    -11.030770   -4.143280   -6.550300
  C    -10.264340   -5.436500   -6.806040
  C     -8.952600   -1.625360   -2.762070
  C     -9.261160   -1.530020   -1.416510
  H     -4.935420    0.568930   -5.371540
  H     -3.499810   -1.062450   -4.218170
  H     -3.937960   -3.432010    0.641790
  H     -5.252060   -2.588120    1.516060
  H     -2.379020   -1.572160    1.200520
  H     -3.053910   -2.280530    2.672470
  H     -3.674420   -0.737100    2.073130
  H     -7.283670    1.098120   -1.817990
  H     -7.900230   -0.091830   -6.339200
  H     -6.360740    0.604010   -6.804510
  H     -8.040960    0.353830   -8.682360
  H     -7.323980    1.960150   -8.522030
  H     -9.769420    2.088080   -8.909720
  H    -10.105560    0.871050   -6.284850
  H    -10.415960    0.126600   -7.705020
  H    -10.245510    3.575540   -6.925670
  H     -8.720810    3.919200   -7.754880
  H     -9.809830    5.443800   -5.476410
  H     -9.365000    4.907520   -2.496390
  H    -10.757430    7.308480   -3.820540
  H    -11.953020    8.758430   -1.843280
  H    -12.629590    8.477920    0.627800
  H    -13.126650    7.339190    3.014870
  H    -13.465520    5.494950    4.779510
  H    -13.018350    2.925240    5.108130
  H    -14.200130    0.439160    5.206520
  H    -12.804440    0.820020    6.207710
  H    -13.766960   -1.482960    6.634880
  H    -12.052750   -1.491970    6.205460
  H    -13.303700   -3.266390    5.009880
  H    -14.695570   -1.148550    3.577300
  H    -15.376110   -2.122470    4.712550
  H    -12.626360   -2.516300    2.655350
  H    -11.345250   -2.588000    3.867690
  H    -10.018440   -0.030050    0.514970
  H    -11.431760   -2.704230    0.946690
  H    -11.897910   -3.682520   -1.244950
  H    -10.756200   -3.384030   -7.286870
  H    -12.107350   -4.326920   -6.590530
  H     -9.193000   -5.257130   -6.746800
  H    -10.502260   -5.817160   -7.795330
  H    -10.538800   -6.185290   -6.066710
  H     -8.126700   -1.076960   -3.187660
  H     -8.644140   -0.917520   -0.778090

 Total Charge           Charge          ....    0
 Multiplicity           Mult            ....    1
 Number of Electrons    NEL             ....  468
 Basis Dimension        Dim             .... 1104

ORBITAL ENERGIES
----------------

  NO   OCC          E(Eh)            E(eV)
   0   2.0000     -88.943227     -2420.2683
   1   2.0000     -88.941323     -2420.2164
   2   2.0000     -88.937789     -2420.1203
   3   2.0000     -88.936425     -2420.0832
   4   2.0000     -19.207833      -522.6717
   5   2.0000     -19.205464      -522.6072
   6   2.0000     -19.205075      -522.5967
   7   2.0000     -19.201765      -522.5066
   8   2.0000     -14.446716      -393.1151
   9   2.0000     -14.443191      -393.0192
  10   2.0000     -14.376988      -391.2177
  11   2.0000     -14.366773      -390.9398
  12   2.0000     -10.386466      -282.6301
  13   2.0000     -10.384550      -282.5780
  14   2.0000     -10.383133      -282.5394
  15   2.0000     -10.380629      -282.4713
  16   2.0000     -10.306321      -280.4493
  17   2.0000     -10.302615      -280.3484
  18   2.0000     -10.301941      -280.3301
  19   2.0000     -10.301929      -280.3297
  20   2.0000     -10.301679      -280.3229
  21   2.0000     -10.300075      -280.2793
  22   2.0000     -10.299300      -280.2582
  23   2.0000     -10.292345      -280.0689
  24   2.0000     -10.291541      -280.0471
  25   2.0000     -10.290603      -280.0215
  26   2.0000     -10.289615      -279.9946
  27   2.0000     -10.289290      -279.9858
  28   2.0000     -10.288533      -279.9652
  29   2.0000     -10.286844      -279.9193
  30   2.0000     -10.286842      -279.9192
  31   2.0000     -10.286294      -279.9043
  32   2.0000     -10.286250      -279.9031
  33   2.0000     -10.285810      -279.8911
  34   2.0000     -10.285705      -279.8883
  35   2.0000     -10.282707      -279.8067
  36   2.0000     -10.282416      -279.7988
  37   2.0000     -10.281088      -279.7626
  38   2.0000     -10.280894      -279.7573
  39   2.0000     -10.280701      -279.7521
  40   2.0000     -10.280672      -279.7513
  41   2.0000     -10.279935      -279.7313
  42   2.0000     -10.279573      -279.7214
  43   2.0000     -10.277607      -279.6679
  44   2.0000     -10.277350      -279.6609
  45   2.0000     -10.276220      -279.6302
  46   2.0000     -10.276077      -279.6263
  47   2.0000     -10.271997      -279.5152
  48   2.0000     -10.271711      -279.5075
  49   2.0000     -10.271610      -279.5047
  50   2.0000     -10.270362      -279.4708
  51   2.0000     -10.268444      -279.4186
  52   2.0000     -10.268235      -279.4129
  53   2.0000     -10.268096      -279.4091
  54   2.0000     -10.266748      -279.3724
  55   2.0000     -10.261099      -279.2187
  56   2.0000     -10.258378      -279.1447
  57   2.0000     -10.258377      -279.1446
  58   2.0000     -10.256930      -279.1053
  59   2.0000     -10.254002      -279.0256
  60   2.0000     -10.253386      -279.0088
  61   2.0000     -10.250601      -278.9330
  62   2.0000      -8.038726      -218.7448
  63   2.0000      -8.037083      -218.7001
  64   2.0000      -8.034253      -218.6231
  65   2.0000      -8.032892      -218.5861
  66   2.0000      -6.007905      -163.4834
  67   2.0000      -6.006173      -163.4363
  68   2.0000      -6.004024      -163.3778
  69   2.0000      -6.004004      -163.3772
  70   2.0000      -6.002629      -163.3398
  71   2.0000      -6.002166      -163.3272
  72   2.0000      -6.000803      -163.2901
  73   2.0000      -5.999716      -163.2606
  74   2.0000      -5.999285      -163.2488
  75   2.0000      -5.998599      -163.2302
  76   2.0000      -5.995176      -163.1370
  77   2.0000      -5.993737      -163.0979
  78   2.0000      -1.151567       -31.3357
  79   2.0000      -1.147780       -31.2327
  80   2.0000      -1.127869       -30.6909
  81   2.0000      -1.124178       -30.5904
  82   2.0000      -1.042303       -28.3625
  83   2.0000      -1.038300       -28.2536
  84   2.0000      -0.993148       -27.0249
  85   2.0000      -0.988182       -26.8898
  86   2.0000      -0.984956       -26.8020
  87   2.0000      -0.970202       -26.4005
  88   2.0000      -0.968855       -26.3639
  89   2.0000      -0.962984       -26.2041
  90   2.0000      -0.960232       -26.1292
  91   2.0000      -0.956058       -26.0156
  92   2.0000      -0.909719       -24.7547
  93   2.0000      -0.906008       -24.6537
  94   2.0000      -0.896471       -24.3942
  95   2.0000      -0.887191       -24.1417
  96   2.0000      -0.883161       -24.0320
  97   2.0000      -0.875246       -23.8167
  98   2.0000      -0.867971       -23.6187
  99   2.0000      -0.860768       -23.4227
 100   2.0000      -0.851781       -23.1781
 101   2.0000      -0.847413       -23.0593
 102   2.0000      -0.841216       -22.8907
 103   2.0000      -0.835398       -22.7323
 104   2.0000      -0.830397       -22.5963
 105   2.0000      -0.824510       -22.4361
 106   2.0000      -0.820093       -22.3159
 107   2.0000      -0.813714       -22.1423
 108   2.0000      -0.802268       -21.8308
 109   2.0000      -0.799327       -21.7508
 110   2.0000      -0.792602       -21.5678
 111   2.0000      -0.776417       -21.1274
 112   2.0000      -0.764233       -20.7958
 113   2.0000      -0.750201       -20.4140
 114   2.0000      -0.748835       -20.3768
 115   2.0000      -0.743867       -20.2416
 116   2.0000      -0.733311       -19.9544
 117   2.0000      -0.720878       -19.6161
 118   2.0000      -0.712179       -19.3794
 119   2.0000      -0.704607       -19.1733
 120   2.0000      -0.704016       -19.1572
 121   2.0000      -0.697728       -18.9861
 122   2.0000      -0.693359       -18.8673
 123   2.0000      -0.686199       -18.6724
 124   2.0000      -0.684195       -18.6179
 125   2.0000      -0.672394       -18.2968
 126   2.0000      -0.663883       -18.0652
 127   2.0000      -0.656192       -17.8559
 128   2.0000      -0.650224       -17.6935
 129   2.0000      -0.639268       -17.3954
 130   2.0000      -0.635185       -17.2843
 131   2.0000      -0.628431       -17.1005
 132   2.0000      -0.626227       -17.0405
 133   2.0000      -0.623954       -16.9787
 134   2.0000      -0.611414       -16.6374
 135   2.0000      -0.603999       -16.4356
 136   2.0000      -0.599676       -16.3180
 137   2.0000      -0.596343       -16.2273
 138   2.0000      -0.586620       -15.9628
 139   2.0000      -0.582186       -15.8421
 140   2.0000      -0.581603       -15.8262
 141   2.0000      -0.578725       -15.7479
 142   2.0000      -0.575763       -15.6673
 143   2.0000      -0.567593       -15.4450
 144   2.0000      -0.563708       -15.3393
 145   2.0000      -0.561632       -15.2828
 146   2.0000      -0.560155       -15.2426
 147   2.0000      -0.555397       -15.1131
 148   2.0000      -0.552035       -15.0216
 149   2.0000      -0.548567       -14.9273
 150   2.0000      -0.540144       -14.6981
 151   2.0000      -0.536273       -14.5927
 152   2.0000      -0.534061       -14.5325
 153   2.0000      -0.532793       -14.4980
 154   2.0000      -0.531145       -14.4532
 155   2.0000      -0.529434       -14.4066
 156   2.0000      -0.525997       -14.3131
 157   2.0000      -0.524173       -14.2635
 158   2.0000      -0.521691       -14.1959
 159   2.0000      -0.519437       -14.1346
 160   2.0000      -0.518855       -14.1188
 161   2.0000      -0.514800       -14.0084
 162   2.0000      -0.512750       -13.9526
 163   2.0000      -0.511025       -13.9057
 164   2.0000      -0.509050       -13.8520
 165   2.0000      -0.502313       -13.6686
 166   2.0000      -0.500225       -13.6118
 167   2.0000      -0.497281       -13.5317
 168   2.0000      -0.494873       -13.4662
 169   2.0000      -0.493228       -13.4214
 170   2.0000      -0.488351       -13.2887
 171   2.0000      -0.487680       -13.2705
 172   2.0000      -0.483032       -13.1440
 173   2.0000      -0.482405       -13.1269
 174   2.0000      -0.479466       -13.0469
 175   2.0000      -0.477976       -13.0064
 176   2.0000      -0.476045       -12.9538
 177   2.0000      -0.475113       -12.9285
 178   2.0000      -0.473725       -12.8907
 179   2.0000      -0.471409       -12.8277
 180   2.0000      -0.469737       -12.7822
 181   2.0000      -0.466230       -12.6868
 182   2.0000      -0.463697       -12.6178
 183   2.0000      -0.462133       -12.5753
 184   2.0000      -0.461518       -12.5585
 185   2.0000      -0.459590       -12.5061
 186   2.0000      -0.455214       -12.3870
 187   2.0000      -0.454705       -12.3732
 188   2.0000      -0.451436       -12.2842
 189   2.0000      -0.449869       -12.2416
 190   2.0000      -0.448939       -12.2163
 191   2.0000      -0.442958       -12.0535
 192   2.0000      -0.442820       -12.0497
 193   2.0000      -0.440900       -11.9975
 194   2.0000      -0.436704       -11.8833
 195   2.0000      -0.436005       -11.8643
 196   2.0000      -0.431165       -11.7326
 197   2.0000      -0.429326       -11.6826
 198   2.0000      -0.425640       -11.5822
 199   2.0000      -0.423529       -11.5248
 200   2.0000      -0.421080       -11.4582
 201   2.0000      -0.420616       -11.4455
 202   2.0000      -0.419425       -11.4131
 203   2.0000      -0.419029       -11.4024
 204   2.0000      -0.402960       -10.9651
 205   2.0000      -0.401655       -10.9296
 206   2.0000      -0.395017       -10.7489
 207   2.0000      -0.392945       -10.6926
 208   2.0000      -0.388017       -10.5585
 209   2.0000      -0.385207       -10.4820
 210   2.0000      -0.383516       -10.4360
 211   2.0000      -0.382278       -10.4023
 212   2.0000      -0.366623        -9.9763
 213   2.0000      -0.366227        -9.9656
 214   2.0000      -0.359641        -9.7863
 215   2.0000      -0.356626        -9.7043
 216   2.0000      -0.350782        -9.5453
 217   2.0000      -0.342800        -9.3281
 218   2.0000      -0.339781        -9.2459
 219   2.0000      -0.337998        -9.1974
 220   2.0000      -0.335853        -9.1390
 221   2.0000      -0.334689        -9.1073
 222   2.0000      -0.333703        -9.0805
 223   2.0000      -0.327183        -8.9031
 224   2.0000      -0.323568        -8.8047
 225   2.0000      -0.318969        -8.6796
 226   2.0000      -0.303331        -8.2541
 227   2.0000      -0.303214        -8.2509
 228   2.0000      -0.301661        -8.2086
 229   2.0000      -0.292917        -7.9707
 230   2.0000      -0.289713        -7.8835
 231   2.0000      -0.271720        -7.3939
 232   2.0000      -0.242678        -6.6036
 233   2.0000      -0.198772        -5.4089
 234   0.0000      -0.082526        -2.2456
 235   0.0000      -0.048657        -1.3240
 236   0.0000      -0.042476        -1.1558
 237   0.0000      -0.020307        -0.5526
 238   0.0000      -0.003750        -0.1020

MULLIKEN ATOMIC CHARGES
-----------------------
   0 C :   -0.004589
   1 C :   -0.029418
   2 C :   -0.000113
   3 C :    0.020569
   4 C :    0.200694
   5 O :   -0.171793
   6 N :   -0.299371
   7 C :    0.186765
   8 O :   -0.158633
   9 C :    0.135765
  10 C :   -0.009046
  11 C :   -0.126207
  12 C :    0.105362
  13 C :   -0.157081
  14 S :    0.103029
  15 C :   -0.101758
  16 C :   -0.116496
  17 C :   -0.039012
  18 C :    0.104581
  19 C :    0.056468
  20 C :   -0.040255
  21 N :   -0.182843
  22 C :    0.177110
  23 C :    0.007513
  24 C :   -0.019108
  25 C :    0.004985
  26 C :   -0.025424
  27 C :    0.034856
  28 C :    0.030038
  29 C :   -0.039369
  30 S :    0.050719
  31 C :   -0.030352
  32 C :    0.032478
  33 C :    0.031576
  34 C :   -0.037463
  35 S :    0.048121
  36 C :   -0.002555
  37 C :   -0.097690
  38 S :    0.092908
  39 C :   -0.122930
  40 C :   -0.077117
  41 C :   -0.091028
  42 C :    0.107218
  43 C :    0.066559
  44 C :   -0.027997
  45 N :   -0.185527
  46 C :    0.139312
  47 C :    0.085330
  48 C :   -0.034464
  49 C :    0.104141
  50 C :   -0.091415
  51 C :    0.011691
  52 C :   -0.000292
  53 C :    0.199499
  54 O :   -0.178486
  55 N :   -0.301955
  56 C :    0.187355
  57 O :   -0.160166
  58 C :    0.133006
  59 C :   -0.008187
  60 C :   -0.020924
  61 C :   -0.028544
  62 H :   -0.011294
  63 H :   -0.003218
  64 H :    0.029080
  65 H :    0.031596
  66 H :    0.028228
  67 H :    0.021517
  68 H :    0.024290
  69 H :    0.004283
  70 H :    0.032273
  71 H :   -0.002529
  72 H :   -0.003575
  73 H :   -0.008485
  74 H :   -0.013076
  75 H :    0.095754
  76 H :    0.090520
  77 H :    0.013663
  78 H :    0.009346
  79 H :   -0.009290
  80 H :    0.018825
  81 H :   -0.016894
  82 H :   -0.012378
  83 H :   -0.012859
  84 H :   -0.017437
  85 H :   -0.014889
  86 H :   -0.018114
  87 H :   -0.001434
  88 H :    0.015115
  89 H :   -0.010032
  90 H :    0.001225
  91 H :   -0.010083
  92 H :    0.095298
  93 H :    0.087645
  94 H :    0.031196
  95 H :    0.019335
  96 H :   -0.008108
  97 H :   -0.017754
  98 H :   -0.011888
  99 H :    0.024768
 100 H :    0.030980
 101 H :    0.023932
 102 H :    0.019083
 103 H :    0.029870
 104 H :   -0.014346
 105 H :   -0.000182
Sum of atomic charges:   -0.0000000

LOEWDIN ATOMIC CHARGES
----------------------
   0 C :   -0.000972
   1 C :    0.015307
   2 C :   -0.059733
   3 C :   -0.050542
   4 C :    0.091254
   5 O :   -0.165972
   6 N :   -0.034805
   7 C :    0.090369
   8 O :   -0.159298
   9 C :    0.044212
  10 C :   -0.059957
  11 C :   -0.003649
  12 C :   -0.019385
  13 C :   -0.179047
  14 S :    0.437708
  15 C :   -0.169138
  16 C :   -0.059402
  17 C :   -0.049564
  18 C :   -0.036079
  19 C :   -0.040376
  20 C :    0.013612
  21 N :   -0.103467
  22 C :   -0.026141
  23 C :   -0.034668
  24 C :   -0.041767
  25 C :   -0.053088
  26 C :   -0.142643
  27 C :   -0.034515
  28 C :   -0.032791
  29 C :   -0.174529
  30 S :    0.374106
  31 C :   -0.182656
  32 C :   -0.040386
  33 C :   -0.034940
  34 C :   -0.154967
  35 S :    0.375650
  36 C :   -0.074181
  37 C :   -0.176601
  38 S :    0.445105
  39 C :   -0.178790
  40 C :   -0.053034
  41 C :   -0.064757
  42 C :   -0.032170
  43 C :   -0.039182
  44 C :    0.013726
  45 N :   -0.102277
  46 C :   -0.026229
  47 C :   -0.019943
  48 C :   -0.041655
  49 C :    0.003045
  50 C :    0.008069
  51 C :   -0.049870
  52 C :   -0.068930
  53 C :    0.095371
  54 O :   -0.178512
  55 N :   -0.037772
  56 C :    0.091759
  57 O :   -0.159378
  58 C :    0.042948
  59 C :   -0.060303
  60 C :    0.008862
  61 C :   -0.008910
  62 H :    0.032765
  63 H :    0.040285
  64 H :    0.031479
  65 H :    0.032085
  66 H :    0.028402
  67 H :    0.029648
  68 H :    0.027496
  69 H :    0.029329
  70 H :    0.033940
  71 H :    0.027295
  72 H :    0.021981
  73 H :    0.019018
  74 H :    0.018268
  75 H :    0.050923
  76 H :    0.053082
  77 H :    0.031775
  78 H :    0.032056
  79 H :    0.031948
  80 H :    0.010500
  81 H :    0.032001
  82 H :    0.032945
  83 H :    0.032164
  84 H :    0.030952
  85 H :    0.031525
  86 H :    0.035010
  87 H :    0.021871
  88 H :    0.031264
  89 H :    0.018586
  90 H :    0.024144
  91 H :    0.020108
  92 H :    0.050859
  93 H :    0.052177
  94 H :    0.033735
  95 H :    0.036509
  96 H :    0.028768
  97 H :    0.025518
  98 H :    0.036360
  99 H :    0.028508
 100 H :    0.031798
 101 H :    0.027091
 102 H :    0.028732
 103 H :    0.029100
 104 H :    0.035812
 105 H :    0.028055

  Mayer bond orders larger than 0.100000
B(  0-C ,  1-C ) :   1.3597 B(  0-C , 12-C ) :   1.3809 B(  0-C , 62-H ) :   0.9939
B(  1-C ,  2-C ) :   1.3886 B(  1-C , 63-H ) :   1.0050 B(  2-C ,  3-C ) :   1.3591
B(  2-C ,  7-C ) :   0.8928 B(  3-C ,  4-C ) :   0.8733 B(  3-C , 11-C ) :   1.4087
B(  4-C ,  5-O ) :   2.1573 B(  4-C ,  6-N ) :   1.0920 B(  6-N ,  7-C ) :   1.0447
B(  6-N ,  9-C ) :   0.9206 B(  7-C ,  8-O ) :   2.2272 B(  9-C , 10-C ) :   1.1239
B(  9-C , 64-H ) :   0.9428 B(  9-C , 65-H ) :   0.9416 B( 10-C , 66-H ) :   0.9700
B( 10-C , 67-H ) :   0.9702 B( 10-C , 68-H ) :   0.9693 B( 11-C , 12-C ) :   1.2762
B( 11-C , 69-H ) :   0.9976 B( 12-C , 13-C ) :   1.0247 B( 13-C , 14-S ) :   1.1260
B( 13-C , 15-C ) :   0.1076 B( 13-C , 17-C ) :   1.5379 B( 14-S , 15-C ) :   1.1077
B( 15-C , 16-C ) :   1.4741 B( 15-C , 23-C ) :   1.1549 B( 16-C , 17-C ) :   1.3027
B( 16-C , 22-C ) :   1.0434 B( 17-C , 18-C ) :   1.0469 B( 18-C , 19-C ) :   1.0729
B( 18-C , 70-H ) :   0.8953 B( 18-C , 71-H ) :   0.9051 B( 19-C , 20-C ) :   1.0265
B( 19-C , 72-H ) :   0.9276 B( 19-C , 73-H ) :   0.9352 B( 20-C , 21-N ) :   1.1029
B( 20-C , 22-C ) :   1.0567 B( 20-C , 74-H ) :   0.9199 B( 21-N , 75-H ) :   0.9734
B( 21-N , 76-H ) :   0.9715 B( 22-C , 77-H ) :   0.9084 B( 22-C , 78-H ) :   0.9086
B( 23-C , 24-C ) :   1.6140 B( 23-C , 79-H ) :   0.9802 B( 24-C , 25-C ) :   1.1653
B( 24-C , 80-H ) :   0.9562 B( 25-C , 26-C ) :   1.5537 B( 25-C , 81-H ) :   0.9872
B( 26-C , 27-C ) :   1.1520 B( 26-C , 30-S ) :   1.0360 B( 27-C , 28-C ) :   1.5780
B( 27-C , 82-H ) :   0.9974 B( 28-C , 29-C ) :   1.1998 B( 28-C , 83-H ) :   0.9954
B( 29-C , 30-S ) :   1.0537 B( 29-C , 31-C ) :   1.4873 B( 31-C , 32-C ) :   1.1970
B( 31-C , 35-S ) :   1.0414 B( 32-C , 33-C ) :   1.5851 B( 32-C , 84-H ) :   0.9931
B( 33-C , 34-C ) :   1.1527 B( 33-C , 85-H ) :   0.9962 B( 34-C , 35-S ) :   1.0472
B( 34-C , 36-C ) :   1.5429 B( 36-C , 37-C ) :   1.2046 B( 36-C , 86-H ) :   0.9640
B( 37-C , 38-S ) :   1.1113 B( 37-C , 41-C ) :   1.4074 B( 38-S , 39-C ) :   1.1226
B( 39-C , 40-C ) :   1.4360 B( 39-C , 47-C ) :   1.1609 B( 40-C , 41-C ) :   1.3783
B( 40-C , 46-C ) :   1.0449 B( 41-C , 42-C ) :   1.0527 B( 42-C , 43-C ) :   1.0728
B( 42-C , 87-H ) :   0.9050 B( 42-C , 88-H ) :   0.9138 B( 43-C , 44-C ) :   1.0307
B( 43-C , 89-H ) :   0.9292 B( 43-C , 90-H ) :   0.9358 B( 44-C , 45-N ) :   1.1042
B( 44-C , 46-C ) :   1.0532 B( 44-C , 91-H ) :   0.9173 B( 45-N , 92-H ) :   0.9730
B( 45-N , 93-H ) :   0.9737 B( 46-C , 94-H ) :   0.9015 B( 46-C , 95-H ) :   0.9142
B( 47-C , 48-C ) :   1.6950 B( 47-C , 96-H ) :   0.9301 B( 48-C , 49-C ) :   1.0676
B( 48-C , 97-H ) :   0.9772 B( 49-C , 50-C ) :   1.2778 B( 49-C , 61-C ) :   1.3577
B( 50-C , 51-C ) :   1.4123 B( 50-C , 98-H ) :   1.0136 B( 51-C , 52-C ) :   1.3467
B( 51-C , 56-C ) :   0.8784 B( 52-C , 53-C ) :   0.9100 B( 52-C , 60-C ) :   1.3823
B( 53-C , 54-O ) :   2.1168 B( 53-C , 55-N ) :   1.0791 B( 55-N , 56-C ) :   1.0534
B( 55-N , 58-C ) :   0.9223 B( 56-C , 57-O ) :   2.2257 B( 58-C , 59-C ) :   1.1224
B( 58-C , 99-H ) :   0.9427 B( 58-C ,100-H ) :   0.9430 B( 59-C ,101-H ) :   0.9693
B( 59-C ,102-H ) :   0.9703 B( 59-C ,103-H ) :   0.9699 B( 60-C , 61-C ) :   1.3628
B( 60-C ,104-H ) :   1.0043 B( 61-C ,105-H ) :   0.9741

-----------------------------------------------------------------------------
         ABSORPTION SPECTRUM VIA TRANSITION ELECTRIC DIPOLE MOMENTS
-----------------------------------------------------------------------------
State   Energy  Wavelength   fosc         T2         TX        TY        TZ
        (cm-1)    (nm)                  (au**2)     (au)      (au)      (au)
-----------------------------------------------------------------------------
   0   11428.8    875.0   0.436428490  12.57152  -1.43475  -1.89129   2.63364
   1   18407.1    543.3   0.037851731   0.67698  -0.28867   0.69459   0.33345
   2   20848.5    479.7   0.421647553   6.65810  -1.01514   2.34302  -0.37126
   3   21574.4    463.5   1.163586897  17.75558  -1.72439   2.57129   2.85841
   4   24932.3    401.1   0.519424994   6.85860   0.90518  -2.25077  -0.98656
   5   26269.5    380.7   0.246002297   3.08292   0.46618  -1.58238   0.60138
   6   27810.0    359.6   0.171201570   2.02667  -0.30665   0.43591  -1.32008
   7   28627.8    349.3   0.340880328   3.92003   0.02676  -0.37088   1.94467
   8   28950.6    345.4   0.005005259   0.05692  -0.18578   0.14835   0.01989
   9   29101.1    343.6   0.040629161   0.45963  -0.28853  -0.38894  -0.47445
  10   29667.8    337.1   0.056640434   0.62852  -0.04108   0.34198   0.71406
  11   30577.7    327.0   0.160484957   1.72785   0.01557   0.31590  -1.27586
  12   30962.0    323.0   0.017692409   0.18812   0.17739   0.38226   0.10263
  13   32048.2    312.0   0.023647524   0.24292  -0.17244   0.19047  -0.42060
  14   32854.2    304.4   0.020894839   0.20937   0.04027   0.06219   0.45154
  15   33176.6    301.4   0.026692744   0.26487   0.03902   0.08082   0.50677
  16   33501.2    298.5   0.009847515   0.09677   0.23311   0.15451  -0.13623
  17   33733.7    296.4   0.054088922   0.52786   0.40097  -0.59651   0.10609
  18   34233.5    292.1   0.036314419   0.34922   0.27738  -0.42313   0.30536
  19   34506.1    289.8   0.099810560   0.95226  -0.12027   0.33207   0.90968
  20   34880.9    286.7   0.031473482   0.29705   0.04710  -0.17012  -0.51565
  21   36323.1    275.3   0.075821758   0.68721  -0.40683   0.17747   0.70014
  22   36582.5    273.4   0.007387562   0.06648   0.20793   0.15213   0.01015
  23   36592.3    273.3   0.010194507   0.09172  -0.14348  -0.11164   0.24222
  24   37350.4    267.7   0.037378795   0.32946  -0.22850   0.30626  -0.42831
  25   37612.6    265.9   0.015197381   0.13302   0.13580  -0.33632   0.03826
  26   37836.9    264.3   0.019767064   0.17199  -0.01290   0.22628  -0.34730
  27   38663.5    258.6   0.063005580   0.53648  -0.21392  -0.10368   0.69280
  28   39160.3    255.4   0.018498286   0.15551   0.05188  -0.28294  -0.26975
  29   39365.7    254.0   0.053717872   0.44924  -0.45919  -0.23786   0.42639
  30   39537.1    252.9   0.004695451   0.03910   0.01738  -0.11109  -0.16265
  31   39787.0    251.3   0.050105122   0.41459  -0.42009   0.47591   0.10778
  32   39963.5    250.2   0.038864800   0.32016  -0.13580   0.20111  -0.51115
  33   40137.9    249.1   0.055299590   0.45357   0.21672  -0.63316   0.07555

FINAL SINGLE POINT ENERGY     -4040.964898462973

DIPOLE MOMENT
-------------
                                X             Y             Z
Electronic contribution:      8.94878      30.60948      10.06447
Nuclear contribution   :     -9.75778     -29.09664      -9.29396
                        -----------------------------------------
Total Dipole Moment    :     -0.80901       1.51285       0.77052
                        -----------------------------------------
Magnitude (a.u.)       :      1.88066
Magnitude (Debye)      :      4.78026

Rotational constants in cm-1:     0.001157     0.000833     0.000678
Rotational constants in MHz :    34.699235    24.964429    20.311968

                             ****ORCA TERMINATED NORMALLY****
TOTAL RUN TIME: 0 days 0 hours 20 minutes 22 seconds 96 msec
