                         Program Version 4.2.0 -  RELEASE  -
|  1> # ORCA input file
|  2> # SCF done       -187.188841645275          0.000642550837
|  3> ! CAM-B3LYP def2-SVP def2/J RIJCOSX Grid4 TightSCF
|  4> %maxcore 5000
|  5> %tddft
|  6>     Mode sTDDFT
|  7>     Ethresh 5.0
|  8>     maxcore 5000
|  9> end
| 10>
| 11> %pal
| 12>   nprocs 6
| 13>   end
| 14> * xyz 0 1
| 15>    C        1.94641         2.44126         3.00833
| 16>    C        1.52400         3.55113         3.67215
| 17>    S        2.23954         3.65075         5.23928
| 18>    C        3.13223         2.16686         4.99723
| 19>   Cl        4.15272         1.54504         6.19776
| 20>    C        2.86586         1.64660         3.76619
| 21>    C        3.28636         0.48012         2.98182
| 22>    O        4.10352        -0.35809         3.28431
| 23>    C        2.55090         0.61038         1.68562
| 24>    C        1.72518         1.80923         1.72361
| 25>    C        0.84510         2.25795         0.77547
| 26>    C        0.10046         3.44087         0.96990
| 27>    N       -0.51037         4.40137         1.11259
| 28>    C        0.55427         1.62154        -0.44810
| 29>    N        0.25882         1.14934        -1.45192
| 30>    C        2.74960        -0.17701         0.59269
| 31>    C        3.44729        -1.41483         0.52529
| 32>    C        4.06976        -1.89010        -0.60768
| 33>    C        4.66675        -3.15806        -0.32088
| 34>    C        4.31107        -3.46116         1.07369
| 35>    C        3.59074        -2.41993         1.56912
| 36>    C        4.62033        -4.63060         1.77755
| 37>    N        4.85552        -5.58744         2.36830
| 38>    C        5.41599        -3.93654        -1.16766
| 39>    C        6.01636        -5.20005        -0.89202
| 40>    C        6.68918        -5.64303        -2.00341
| 41>    C        6.52522        -4.63468        -3.04839
| 42>    C        5.76536        -3.61917        -2.56971
| 43>    C        5.40026        -2.48240        -3.29850
| 44>    N        5.12738        -1.56334        -3.93160
| 45>    C        7.42053        -6.87280        -2.16302
| 46>    C        8.32553        -7.03530        -3.22602
| 47>    C        9.00035        -8.22194        -3.36281
| 48>    C        8.78808        -9.28213        -2.45995
| 49>    C        7.90001        -9.12881        -1.40020
| 50>    C        7.23194        -7.93279        -1.25834
| 51>    C        9.60296       -10.40266        -2.86798
| 52>    C       10.32739       -10.03456        -4.01782
| 53>    C       10.00476        -8.62097        -4.40352
| 54>    C       11.17723       -10.92578        -4.62432
| 55>    C       11.31521       -12.22187        -4.10183
| 56>    C       10.59159       -12.57219        -2.95149
| 57>    C        9.74453       -11.67787        -2.33206
| 58>    C       12.19525       -13.13733        -4.78492
| 59>    C       12.35214       -14.45254        -4.54379
| 60>    C       13.25085       -15.24164        -5.32602
| 61>    O       13.34372       -16.58529        -5.07219
| 62>    C       14.24753       -17.04374        -5.96237
| 63>    C       14.68149       -15.92693        -6.74193
| 64>    N       14.01247       -14.82365        -6.29037
| 65>    C       15.61876       -16.05476        -7.75069
| 66>    C       16.09118       -17.34525        -7.93871
| 67>    C       15.63597       -18.44634        -7.15278
| 68>    C       14.70386       -18.33400        -6.13873
| 69>    O       16.27861       -19.54757        -7.59047
| 70>    C       17.09914       -19.10251        -8.58582
| 71>    N       17.01274       -17.82496        -8.82008
| 72>    C       17.87730       -20.05458        -9.30498
| 73>    C       18.83990       -19.79784       -10.21951
| 74>    C       19.25216       -20.88491       -11.17208
| 75>    O       19.02747       -22.06348       -11.05471
| 76>    C       19.91324       -20.16759       -12.26630
| 77>    C       20.44142       -20.47234       -13.48646
| 78>    S       21.06771       -19.03580       -14.25784
| 79>    C       20.61897       -18.04147       -12.91963
| 80>    C       20.01763       -18.77281       -11.94437
| 81>    C       19.48293       -18.55237       -10.61339
| 82>    C       19.74245       -17.45933        -9.83830
| 83>    C       20.41867       -16.33641       -10.36103
| 84>    N       20.95551       -15.41449       -10.78260
| 85>    C       19.49364       -17.37346        -8.45202
| 86>    N       19.43061       -17.28078        -7.31001
| 87>   Cl       20.52904       -21.98749       -14.23710
| 88>    H        0.84760         4.31912         3.35332
| 89>    H        2.36620         0.17183        -0.35952
| 90>    H        4.13826        -1.37775        -1.54783
| 91>    H        3.16238        -2.36116         2.55015
| 92>    H        5.95558        -5.69200         0.05771
| 93>    H        6.91743        -4.70150        -4.04596
| 94>    H        8.50637        -6.22749        -3.91838
| 95>    H        7.73287        -9.93430        -0.70160
| 96>    H        6.53084        -7.80983        -0.44805
| 97>    H        9.59224        -8.56010        -5.41321
| 98>    H       10.89092        -7.98240        -4.37384
| 99>    H       11.73404       -10.64594        -5.50682
|100>    H       10.70571       -13.56135        -2.53713
|101>    H        9.19764       -11.96474        -1.44666
|102>    H       12.77938       -12.72188        -5.59573
|103>    H       11.81335       -14.98575        -3.77590
|104>    H       15.96042       -15.22100        -8.33708
|105>    H       14.37029       -19.16801        -5.54629
|106>    H       17.59802       -21.09119        -9.15753
|107>    H       20.82277       -16.98964       -12.95201
|108> *
|109>
|110>                          ****END OF INPUT****

CARTESIAN COORDINATES (ANGSTROEM)
---------------------------------
  C      1.946410    2.441260    3.008330
  C      1.524000    3.551130    3.672150
  S      2.239540    3.650750    5.239280
  C      3.132230    2.166860    4.997230
  Cl     4.152720    1.545040    6.197760
  C      2.865860    1.646600    3.766190
  C      3.286360    0.480120    2.981820
  O      4.103520   -0.358090    3.284310
  C      2.550900    0.610380    1.685620
  C      1.725180    1.809230    1.723610
  C      0.845100    2.257950    0.775470
  C      0.100460    3.440870    0.969900
  N     -0.510370    4.401370    1.112590
  C      0.554270    1.621540   -0.448100
  N      0.258820    1.149340   -1.451920
  C      2.749600   -0.177010    0.592690
  C      3.447290   -1.414830    0.525290
  C      4.069760   -1.890100   -0.607680
  C      4.666750   -3.158060   -0.320880
  C      4.311070   -3.461160    1.073690
  C      3.590740   -2.419930    1.569120
  C      4.620330   -4.630600    1.777550
  N      4.855520   -5.587440    2.368300
  C      5.415990   -3.936540   -1.167660
  C      6.016360   -5.200050   -0.892020
  C      6.689180   -5.643030   -2.003410
  C      6.525220   -4.634680   -3.048390
  C      5.765360   -3.619170   -2.569710
  C      5.400260   -2.482400   -3.298500
  N      5.127380   -1.563340   -3.931600
  C      7.420530   -6.872800   -2.163020
  C      8.325530   -7.035300   -3.226020
  C      9.000350   -8.221940   -3.362810
  C      8.788080   -9.282130   -2.459950
  C      7.900010   -9.128810   -1.400200
  C      7.231940   -7.932790   -1.258340
  C      9.602960  -10.402660   -2.867980
  C     10.327390  -10.034560   -4.017820
  C     10.004760   -8.620970   -4.403520
  C     11.177230  -10.925780   -4.624320
  C     11.315210  -12.221870   -4.101830
  C     10.591590  -12.572190   -2.951490
  C      9.744530  -11.677870   -2.332060
  C     12.195250  -13.137330   -4.784920
  C     12.352140  -14.452540   -4.543790
  C     13.250850  -15.241640   -5.326020
  O     13.343720  -16.585290   -5.072190
  C     14.247530  -17.043740   -5.962370
  C     14.681490  -15.926930   -6.741930
  N     14.012470  -14.823650   -6.290370
  C     15.618760  -16.054760   -7.750690
  C     16.091180  -17.345250   -7.938710
  C     15.635970  -18.446340   -7.152780
  C     14.703860  -18.334000   -6.138730
  O     16.278610  -19.547570   -7.590470
  C     17.099140  -19.102510   -8.585820
  N     17.012740  -17.824960   -8.820080
  C     17.877300  -20.054580   -9.304980
  C     18.839900  -19.797840  -10.219510
  C     19.252160  -20.884910  -11.172080
  O     19.027470  -22.063480  -11.054710
  C     19.913240  -20.167590  -12.266300
  C     20.441420  -20.472340  -13.486460
  S     21.067710  -19.035800  -14.257840
  C     20.618970  -18.041470  -12.919630
  C     20.017630  -18.772810  -11.944370
  C     19.482930  -18.552370  -10.613390
  C     19.742450  -17.459330   -9.838300
  C     20.418670  -16.336410  -10.361030
  N     20.955510  -15.414490  -10.782600
  C     19.493640  -17.373460   -8.452020
  N     19.430610  -17.280780   -7.310010
  Cl    20.529040  -21.987490  -14.237100
  H      0.847600    4.319120    3.353320
  H      2.366200    0.171830   -0.359520
  H      4.138260   -1.377750   -1.547830
  H      3.162380   -2.361160    2.550150
  H      5.955580   -5.692000    0.057710
  H      6.917430   -4.701500   -4.045960
  H      8.506370   -6.227490   -3.918380
  H      7.732870   -9.934300   -0.701600
  H      6.530840   -7.809830   -0.448050
  H      9.592240   -8.560100   -5.413210
  H     10.890920   -7.982400   -4.373840
  H     11.734040  -10.645940   -5.506820
  H     10.705710  -13.561350   -2.537130
  H      9.197640  -11.964740   -1.446660
  H     12.779380  -12.721880   -5.595730
  H     11.813350  -14.985750   -3.775900
  H     15.960420  -15.221000   -8.337080
  H     14.370290  -19.168010   -5.546290
  H     17.598020  -21.091190   -9.157530
  H     20.822770  -16.989640  -12.952010

 Total Charge           Charge          ....    0
 Multiplicity           Mult            ....    1
 Number of Electrons    NEL             ....  516
 Basis Dimension        Dim             .... 1138

ORBITAL ENERGIES
----------------

  NO   OCC          E(Eh)            E(eV)
   0   2.0000    -101.621643     -2765.2655
   1   2.0000    -101.618758     -2765.1870
   2   2.0000     -88.998174     -2421.7634
   3   2.0000     -88.994067     -2421.6517
   4   2.0000     -19.309083      -525.4269
   5   2.0000     -19.301632      -525.2241
   6   2.0000     -19.229732      -523.2676
   7   2.0000     -19.224321      -523.1204
   8   2.0000     -14.425205      -392.5298
   9   2.0000     -14.424862      -392.5204
  10   2.0000     -14.424368      -392.5070
  11   2.0000     -14.421722      -392.4350
  12   2.0000     -14.415823      -392.2745
  13   2.0000     -14.413735      -392.2177
  14   2.0000     -14.408495      -392.0751
  15   2.0000     -14.406885      -392.0313
  16   2.0000     -10.386177      -282.6222
  17   2.0000     -10.382259      -282.5156
  18   2.0000     -10.381214      -282.4872
  19   2.0000     -10.380560      -282.4694
  20   2.0000     -10.377839      -282.3953
  21   2.0000     -10.373635      -282.2810
  22   2.0000     -10.354014      -281.7470
  23   2.0000     -10.353425      -281.7310
  24   2.0000     -10.350104      -281.6407
  25   2.0000     -10.349590      -281.6266
  26   2.0000     -10.347952      -281.5821
  27   2.0000     -10.346707      -281.5482
  28   2.0000     -10.334070      -281.2043
  29   2.0000     -10.333198      -281.1806
  30   2.0000     -10.330412      -281.1048
  31   2.0000     -10.328582      -281.0550
  32   2.0000     -10.327243      -281.0186
  33   2.0000     -10.326515      -280.9988
  34   2.0000     -10.326170      -280.9894
  35   2.0000     -10.326153      -280.9889
  36   2.0000     -10.324415      -280.9416
  37   2.0000     -10.322764      -280.8967
  38   2.0000     -10.317538      -280.7545
  39   2.0000     -10.317537      -280.7544
  40   2.0000     -10.317463      -280.7524
  41   2.0000     -10.317406      -280.7509
  42   2.0000     -10.316563      -280.7279
  43   2.0000     -10.315737      -280.7055
  44   2.0000     -10.314256      -280.6652
  45   2.0000     -10.313929      -280.6563
  46   2.0000     -10.313209      -280.6367
  47   2.0000     -10.311632      -280.5938
  48   2.0000     -10.311172      -280.5813
  49   2.0000     -10.311109      -280.5795
  50   2.0000     -10.310749      -280.5697
  51   2.0000     -10.310535      -280.5639
  52   2.0000     -10.305292      -280.4213
  53   2.0000     -10.305116      -280.4165
  54   2.0000     -10.302289      -280.3395
  55   2.0000     -10.299421      -280.2615
  56   2.0000     -10.297903      -280.2202
  57   2.0000     -10.294875      -280.1378
  58   2.0000     -10.292509      -280.0734
  59   2.0000     -10.291716      -280.0518
  60   2.0000     -10.291651      -280.0501
  61   2.0000     -10.290623      -280.0221
  62   2.0000     -10.290473      -280.0180
  63   2.0000     -10.289711      -279.9973
  64   2.0000     -10.288451      -279.9630
  65   2.0000     -10.288428      -279.9623
  66   2.0000     -10.288046      -279.9520
  67   2.0000     -10.287738      -279.9436
  68   2.0000     -10.286535      -279.9109
  69   2.0000     -10.286417      -279.9077
  70   2.0000     -10.285476      -279.8820
  71   2.0000     -10.285228      -279.8753
  72   2.0000     -10.285011      -279.8694
  73   2.0000      -9.576392      -260.5869
  74   2.0000      -9.573564      -260.5099
  75   2.0000      -8.093932      -220.2471
  76   2.0000      -8.089795      -220.1345
  77   2.0000      -7.347048      -199.9233
  78   2.0000      -7.344214      -199.8462
  79   2.0000      -7.336428      -199.6344
  80   2.0000      -7.335870      -199.6192
  81   2.0000      -7.333591      -199.5572
  82   2.0000      -7.333048      -199.5424
  83   2.0000      -6.063295      -164.9906
  84   2.0000      -6.059182      -164.8787
  85   2.0000      -6.058690      -164.8653
  86   2.0000      -6.056191      -164.7973
  87   2.0000      -6.054556      -164.7529
  88   2.0000      -6.052043      -164.6845
  89   2.0000      -1.239166       -33.7194
  90   2.0000      -1.230544       -33.4848
  91   2.0000      -1.147102       -31.2142
  92   2.0000      -1.141512       -31.0621
  93   2.0000      -1.043175       -28.3862
  94   2.0000      -1.040499       -28.3134
  95   2.0000      -1.035413       -28.1750
  96   2.0000      -1.023028       -27.8380
  97   2.0000      -1.022539       -27.8247
  98   2.0000      -1.021570       -27.7983
  99   2.0000      -1.014916       -27.6173
 100   2.0000      -1.006036       -27.3756
 101   2.0000      -1.002903       -27.2904
 102   2.0000      -1.000299       -27.2195
 103   2.0000      -0.995358       -27.0851
 104   2.0000      -0.993453       -27.0332
 105   2.0000      -0.990456       -26.9517
 106   2.0000      -0.989273       -26.9195
 107   2.0000      -0.985542       -26.8180
 108   2.0000      -0.965285       -26.2667
 109   2.0000      -0.960205       -26.1285
 110   2.0000      -0.958749       -26.0889
 111   2.0000      -0.953630       -25.9496
 112   2.0000      -0.927252       -25.2318
 113   2.0000      -0.915993       -24.9254
 114   2.0000      -0.912717       -24.8363
 115   2.0000      -0.903338       -24.5811
 116   2.0000      -0.901009       -24.5177
 117   2.0000      -0.890791       -24.2396
 118   2.0000      -0.881603       -23.9896
 119   2.0000      -0.866077       -23.5671
 120   2.0000      -0.859866       -23.3981
 121   2.0000      -0.854473       -23.2514
 122   2.0000      -0.850689       -23.1484
 123   2.0000      -0.848070       -23.0772
 124   2.0000      -0.839719       -22.8499
 125   2.0000      -0.837443       -22.7880
 126   2.0000      -0.833059       -22.6687
 127   2.0000      -0.821302       -22.3488
 128   2.0000      -0.802827       -21.8460
 129   2.0000      -0.792954       -21.5774
 130   2.0000      -0.791478       -21.5372
 131   2.0000      -0.771700       -20.9990
 132   2.0000      -0.764854       -20.8127
 133   2.0000      -0.760227       -20.6868
 134   2.0000      -0.753237       -20.4966
 135   2.0000      -0.739006       -20.1094
 136   2.0000      -0.731492       -19.9049
 137   2.0000      -0.725714       -19.7477
 138   2.0000      -0.713140       -19.4055
 139   2.0000      -0.710911       -19.3449
 140   2.0000      -0.709238       -19.2994
 141   2.0000      -0.702414       -19.1137
 142   2.0000      -0.692668       -18.8485
 143   2.0000      -0.689307       -18.7570
 144   2.0000      -0.682100       -18.5609
 145   2.0000      -0.681272       -18.5384
 146   2.0000      -0.677716       -18.4416
 147   2.0000      -0.676389       -18.4055
 148   2.0000      -0.675416       -18.3790
 149   2.0000      -0.659733       -17.9523
 150   2.0000      -0.656435       -17.8625
 151   2.0000      -0.650028       -17.6881
 152   2.0000      -0.648529       -17.6474
 153   2.0000      -0.640971       -17.4417
 154   2.0000      -0.633141       -17.2286
 155   2.0000      -0.621973       -16.9248
 156   2.0000      -0.619770       -16.8648
 157   2.0000      -0.617078       -16.7916
 158   2.0000      -0.615367       -16.7450
 159   2.0000      -0.608490       -16.5578
 160   2.0000      -0.603109       -16.4114
 161   2.0000      -0.591599       -16.0982
 162   2.0000      -0.588872       -16.0240
 163   2.0000      -0.581050       -15.8112
 164   2.0000      -0.578843       -15.7511
 165   2.0000      -0.575663       -15.6646
 166   2.0000      -0.571744       -15.5579
 167   2.0000      -0.567683       -15.4474
 168   2.0000      -0.558973       -15.2104
 169   2.0000      -0.557384       -15.1672
 170   2.0000      -0.555923       -15.1274
 171   2.0000      -0.551764       -15.0143
 172   2.0000      -0.549587       -14.9550
 173   2.0000      -0.548281       -14.9195
 174   2.0000      -0.547478       -14.8976
 175   2.0000      -0.543613       -14.7925
 176   2.0000      -0.539455       -14.6793
 177   2.0000      -0.538792       -14.6613
 178   2.0000      -0.536240       -14.5918
 179   2.0000      -0.535424       -14.5696
 180   2.0000      -0.534095       -14.5335
 181   2.0000      -0.530639       -14.4394
 182   2.0000      -0.528481       -14.3807
 183   2.0000      -0.525671       -14.3042
 184   2.0000      -0.524811       -14.2808
 185   2.0000      -0.519049       -14.1241
 186   2.0000      -0.517089       -14.0707
 187   2.0000      -0.514845       -14.0096
 188   2.0000      -0.510384       -13.8883
 189   2.0000      -0.509247       -13.8573
 190   2.0000      -0.505636       -13.7591
 191   2.0000      -0.505144       -13.7457
 192   2.0000      -0.504608       -13.7311
 193   2.0000      -0.503461       -13.6999
 194   2.0000      -0.499675       -13.5968
 195   2.0000      -0.495396       -13.4804
 196   2.0000      -0.491548       -13.3757
 197   2.0000      -0.491455       -13.3732
 198   2.0000      -0.490145       -13.3375
 199   2.0000      -0.488796       -13.3008
 200   2.0000      -0.485825       -13.2200
 201   2.0000      -0.481528       -13.1030
 202   2.0000      -0.477899       -13.0043
 203   2.0000      -0.471415       -12.8278
 204   2.0000      -0.467108       -12.7106
 205   2.0000      -0.464509       -12.6399
 206   2.0000      -0.459854       -12.5133
 207   2.0000      -0.459689       -12.5088
 208   2.0000      -0.456470       -12.4212
 209   2.0000      -0.454974       -12.3805
 210   2.0000      -0.452051       -12.3009
 211   2.0000      -0.451319       -12.2810
 212   2.0000      -0.451121       -12.2756
 213   2.0000      -0.449585       -12.2338
 214   2.0000      -0.448832       -12.2133
 215   2.0000      -0.448301       -12.1989
 216   2.0000      -0.447923       -12.1886
 217   2.0000      -0.444844       -12.1048
 218   2.0000      -0.444275       -12.0893
 219   2.0000      -0.441366       -12.0102
 220   2.0000      -0.440395       -11.9838
 221   2.0000      -0.438452       -11.9309
 222   2.0000      -0.437187       -11.8965
 223   2.0000      -0.436580       -11.8800
 224   2.0000      -0.434378       -11.8200
 225   2.0000      -0.432291       -11.7632
 226   2.0000      -0.430913       -11.7257
 227   2.0000      -0.426107       -11.5950
 228   2.0000      -0.425041       -11.5660
 229   2.0000      -0.421390       -11.4666
 230   2.0000      -0.420240       -11.4353
 231   2.0000      -0.418595       -11.3906
 232   2.0000      -0.414173       -11.2702
 233   2.0000      -0.412796       -11.2328
 234   2.0000      -0.407643       -11.0925
 235   2.0000      -0.405062       -11.0223
 236   2.0000      -0.401373       -10.9219
 237   2.0000      -0.398800       -10.8519
 238   2.0000      -0.396403       -10.7867
 239   2.0000      -0.378438       -10.2978
 240   2.0000      -0.375846       -10.2273
 241   2.0000      -0.368574       -10.0294
 242   2.0000      -0.367500       -10.0002
 243   2.0000      -0.358119        -9.7449
 244   2.0000      -0.351564        -9.5665
 245   2.0000      -0.347961        -9.4685
 246   2.0000      -0.341897        -9.3035
 247   2.0000      -0.340663        -9.2699
 248   2.0000      -0.334789        -9.1101
 249   2.0000      -0.329395        -8.9633
 250   2.0000      -0.328148        -8.9294
 251   2.0000      -0.321544        -8.7497
 252   2.0000      -0.318921        -8.6783
 253   2.0000      -0.312961        -8.5161
 254   2.0000      -0.302688        -8.2366
 255   2.0000      -0.297475        -8.0947
 256   2.0000      -0.286220        -7.7885
 257   2.0000      -0.262503        -7.1431
 258   0.0000      -0.133202        -3.6246
 259   0.0000      -0.101025        -2.7490
 260   0.0000      -0.085735        -2.3330
 261   0.0000      -0.057277        -1.5586
 262   0.0000      -0.055981        -1.5233

MULLIKEN ATOMIC CHARGES
-----------------------
   0 C :    0.032306
   1 C :   -0.130292
   2 S :    0.191867
   3 C :   -0.170481
   4 Cl:    0.003135
   5 C :    0.074771
   6 C :    0.143009
   7 O :   -0.129086
   8 C :   -0.096976
   9 C :    0.293152
  10 C :   -0.323462
  11 C :   -0.195313
  12 N :    0.158946
  13 C :   -0.192556
  14 N :    0.173459
  15 C :   -0.033991
  16 C :    0.083012
  17 C :   -0.070305
  18 C :    0.092976
  19 C :   -0.125487
  20 C :    0.070271
  21 C :   -0.174437
  22 N :    0.130888
  23 C :    0.131481
  24 C :   -0.133439
  25 C :    0.110412
  26 C :   -0.009970
  27 C :   -0.088796
  28 C :   -0.178913
  29 N :    0.140359
  30 C :    0.123844
  31 C :   -0.094616
  32 C :   -0.108755
  33 C :    0.101577
  34 C :   -0.035211
  35 C :   -0.024048
  36 C :    0.099142
  37 C :   -0.106604
  38 C :    0.309685
  39 C :   -0.082997
  40 C :    0.115202
  41 C :   -0.003946
  42 C :   -0.032014
  43 C :    0.020020
  44 C :   -0.011881
  45 C :    0.116862
  46 O :   -0.201879
  47 C :    0.212855
  48 C :    0.024134
  49 N :   -0.056711
  50 C :   -0.070755
  51 C :    0.033053
  52 C :    0.219734
  53 C :   -0.153200
  54 O :   -0.187802
  55 C :    0.122738
  56 N :   -0.069214
  57 C :    0.020861
  58 C :   -0.106448
  59 C :    0.131343
  60 O :   -0.120346
  61 C :    0.083601
  62 C :   -0.168898
  63 S :    0.186404
  64 C :   -0.129334
  65 C :    0.022096
  66 C :    0.269563
  67 C :   -0.270186
  68 C :   -0.197409
  69 N :    0.156187
  70 C :   -0.181236
  71 N :    0.165748
  72 Cl:    0.000780
  73 H :    0.055962
  74 H :    0.036332
  75 H :    0.015434
  76 H :    0.004843
  77 H :    0.004335
  78 H :    0.002527
  79 H :   -0.039770
  80 H :   -0.022799
  81 H :   -0.007699
  82 H :    0.032822
  83 H :    0.036131
  84 H :   -0.031979
  85 H :   -0.022591
  86 H :   -0.028018
  87 H :    0.011453
  88 H :   -0.001534
  89 H :   -0.021844
  90 H :   -0.011146
  91 H :    0.034697
  92 H :    0.054365
Sum of atomic charges:   -0.0000000

LOEWDIN ATOMIC CHARGES
----------------------
   0 C :   -0.059289
   1 C :   -0.148007
   2 S :    0.479596
   3 C :   -0.270799
   4 Cl:    0.194593
   5 C :   -0.118061
   6 C :    0.081610
   7 O :   -0.124238
   8 C :   -0.081228
   9 C :    0.071992
  10 C :   -0.130012
  11 C :   -0.014993
  12 N :   -0.047258
  13 C :   -0.026380
  14 N :   -0.037538
  15 C :    0.075983
  16 C :   -0.033659
  17 C :    0.027214
  18 C :    0.023645
  19 C :   -0.093940
  20 C :    0.074969
  21 C :   -0.026686
  22 N :   -0.068334
  23 C :    0.055007
  24 C :   -0.037695
  25 C :    0.011171
  26 C :    0.056480
  27 C :   -0.076874
  28 C :   -0.033127
  29 N :   -0.057022
  30 C :   -0.027778
  31 C :   -0.013329
  32 C :   -0.007764
  33 C :   -0.005779
  34 C :   -0.013081
  35 C :    0.004263
  36 C :   -0.014906
  37 C :   -0.008081
  38 C :   -0.010909
  39 C :   -0.009988
  40 C :   -0.028751
  41 C :   -0.004691
  42 C :   -0.013369
  43 C :    0.038198
  44 C :   -0.058030
  45 C :    0.070611
  46 O :   -0.011245
  47 C :    0.042633
  48 C :   -0.030118
  49 N :   -0.110874
  50 C :   -0.011852
  51 C :   -0.032070
  52 C :    0.041746
  53 C :   -0.061746
  54 O :    0.003542
  55 C :    0.048548
  56 N :   -0.068280
  57 C :    0.037844
  58 C :   -0.048182
  59 C :    0.081128
  60 O :   -0.125894
  61 C :   -0.120529
  62 C :   -0.271625
  63 S :    0.475969
  64 C :   -0.154535
  65 C :   -0.053554
  66 C :    0.062692
  67 C :   -0.105681
  68 C :   -0.013446
  69 N :   -0.046592
  70 C :   -0.018835
  71 N :   -0.045364
  72 Cl:    0.193307
  73 H :    0.038528
  74 H :    0.053111
  75 H :    0.040086
  76 H :    0.037724
  77 H :    0.033847
  78 H :    0.036557
  79 H :    0.026537
  80 H :    0.031862
  81 H :    0.035761
  82 H :    0.049254
  83 H :    0.050984
  84 H :    0.029797
  85 H :    0.028395
  86 H :    0.029891
  87 H :    0.039399
  88 H :    0.034130
  89 H :    0.044092
  90 H :    0.045176
  91 H :    0.056223
  92 H :    0.037923

  Mayer bond orders larger than 0.100000
B(  0-C ,  1-C ) :   1.5439 B(  0-C ,  5-C ) :   1.2207 B(  0-C ,  9-C ) :   0.9996
B(  1-C ,  2-S ) :   1.1636 B(  1-C , 73-H ) :   0.9544 B(  2-S ,  3-C ) :   1.1543
B(  3-C ,  4-Cl) :   1.1311 B(  3-C ,  5-C ) :   1.4734 B(  5-C ,  6-C ) :   0.9521
B(  6-C ,  7-O ) :   2.2323 B(  6-C ,  8-C ) :   0.9319 B(  8-C ,  9-C ) :   1.0538
B(  8-C , 15-C ) :   1.6311 B(  9-C , 10-C ) :   1.6646 B( 10-C , 11-C ) :   1.1478
B( 10-C , 13-C ) :   1.1351 B( 11-C , 12-N ) :   2.9905 B( 13-C , 14-N ) :   2.9841
B( 15-C , 16-C ) :   1.0982 B( 15-C , 74-H ) :   0.9486 B( 16-C , 17-C ) :   1.5144
B( 16-C , 20-C ) :   1.0637 B( 17-C , 18-C ) :   1.0983 B( 17-C , 75-H ) :   1.0059
B( 18-C , 19-C ) :   1.1212 B( 18-C , 23-C ) :   1.4210 B( 19-C , 20-C ) :   1.6640
B( 19-C , 21-C ) :   1.0939 B( 20-C , 76-H ) :   1.0072 B( 21-C , 22-N ) :   2.9713
B( 23-C , 24-C ) :   1.1182 B( 23-C , 27-C ) :   1.0905 B( 24-C , 25-C ) :   1.5788
B( 24-C , 77-H ) :   0.9988 B( 25-C , 26-C ) :   1.0389 B( 25-C , 30-C ) :   1.0229
B( 26-C , 27-C ) :   1.6909 B( 26-C , 78-H ) :   1.0139 B( 27-C , 28-C ) :   1.0849
B( 28-C , 29-N ) :   2.9668 B( 30-C , 31-C ) :   1.2933 B( 30-C , 35-C ) :   1.3358
B( 31-C , 32-C ) :   1.3962 B( 31-C , 79-H ) :   1.0011 B( 32-C , 33-C ) :   1.3710
B( 32-C , 38-C ) :   1.0078 B( 33-C , 34-C ) :   1.3203 B( 33-C , 36-C ) :   1.0060
B( 34-C , 35-C ) :   1.4064 B( 34-C , 80-H ) :   0.9939 B( 35-C , 81-H ) :   0.9925
B( 36-C , 37-C ) :   1.3742 B( 36-C , 42-C ) :   1.3224 B( 37-C , 38-C ) :   1.0070
B( 37-C , 39-C ) :   1.3736 B( 38-C , 82-H ) :   0.8787 B( 38-C , 83-H ) :   0.8746
B( 39-C , 40-C ) :   1.2990 B( 39-C , 84-H ) :   1.0135 B( 40-C , 41-C ) :   1.3368
B( 40-C , 43-C ) :   1.0583 B( 41-C , 42-C ) :   1.4108 B( 41-C , 85-H ) :   0.9847
B( 42-C , 86-H ) :   0.9932 B( 43-C , 44-C ) :   1.7029 B( 43-C , 87-H ) :   0.9826
B( 44-C , 45-C ) :   1.0943 B( 44-C , 88-H ) :   0.9532 B( 45-C , 46-O ) :   1.1226
B( 45-C , 49-N ) :   1.7466 B( 46-O , 47-C ) :   1.1154 B( 47-C , 48-C ) :   1.2346
B( 47-C , 53-C ) :   1.3305 B( 48-C , 49-N ) :   1.2904 B( 48-C , 50-C ) :   1.3075
B( 50-C , 51-C ) :   1.2656 B( 50-C , 53-C ) :   0.1477 B( 50-C , 89-H ) :   1.0480
B( 51-C , 52-C ) :   1.2440 B( 51-C , 56-N ) :   1.2836 B( 52-C , 53-C ) :   1.3037
B( 52-C , 54-O ) :   1.1208 B( 53-C , 90-H ) :   1.0449 B( 54-O , 55-C ) :   1.1309
B( 55-C , 56-N ) :   1.6753 B( 55-C , 57-C ) :   1.0645 B( 57-C , 58-C ) :   1.7044
B( 57-C , 91-H ) :   0.9478 B( 58-C , 59-C ) :   0.9265 B( 58-C , 66-C ) :   1.0204
B( 59-C , 60-O ) :   2.2908 B( 59-C , 61-C ) :   0.9276 B( 61-C , 62-C ) :   1.4772
B( 61-C , 65-C ) :   1.2223 B( 62-C , 63-S ) :   1.1582 B( 62-C , 72-Cl) :   1.1302
B( 63-S , 64-C ) :   1.1540 B( 64-C , 65-C ) :   1.5566 B( 64-C , 92-H ) :   0.9555
B( 65-C , 66-C ) :   1.0100 B( 66-C , 67-C ) :   1.7104 B( 67-C , 68-C ) :   1.1441
B( 67-C , 70-C ) :   1.1428 B( 68-C , 69-N ) :   2.9969 B( 70-C , 71-N ) :   2.9890

-----------------------------------------------------------------------------
         ABSORPTION SPECTRUM VIA TRANSITION ELECTRIC DIPOLE MOMENTS
-----------------------------------------------------------------------------
State   Energy  Wavelength   fosc         T2         TX        TY        TZ
        (cm-1)    (nm)                  (au**2)     (au)      (au)      (au)
-----------------------------------------------------------------------------
   0   14385.8    695.1   0.872870557  19.97523  -2.42140   3.21159   1.94879
   1   18621.6    537.0   0.016139568   0.28533   0.23426  -0.33209  -0.34666
   2   21161.0    472.6   0.855353460  13.30715   2.43839  -2.23276  -1.54149
   3   21916.2    456.3   0.209291140   3.14384  -1.33034  -0.04154   1.17146
   4   23864.9    419.0   0.352593747   4.86397  -1.26828   1.57827   0.87435
   5   25232.1    396.3   0.026489137   0.34561   0.56782  -0.08052  -0.12928
   6   25764.0    388.1   0.121374849   1.55093  -0.43694   0.87890   0.76651
   7   27069.8    369.4   0.229908054   2.79605  -0.83841   1.41697   0.29208
   8   27194.1    367.7   0.044394035   0.53743  -0.27095   0.31574   0.60360
   9   27378.3    365.3   0.059936427   0.72071  -0.14235   0.49778   0.67280
  10   27534.2    363.2   0.018469652   0.22083   0.22053   0.08371  -0.40644
  11   28794.6    347.3   0.073555453   0.84097   0.53775  -0.67878  -0.30174
  12   28866.9    346.4   0.002859228   0.03261   0.14822   0.04000  -0.09507
  13   29504.6    338.9   0.914661090  10.20576  -1.56198   2.50155   1.22810
  14   29886.5    334.6   0.409022654   4.50554  -1.20415   1.67191   0.51016
  15   30166.7    331.5   0.339316881   3.70299  -0.79369   1.53532   0.84607
  16   31012.0    322.5   0.274554837   2.91457  -0.93690   0.76891   1.20232
  17   31242.4    320.1   0.023852714   0.25134  -0.38110   0.24058  -0.21961
  18   32064.4    311.9   0.105125920   1.07935  -0.35045   0.61446   0.76090
  19   32319.6    309.4   0.005360410   0.05460  -0.14507  -0.06094  -0.17275
  20   32634.8    306.4   0.071530030   0.72158  -0.23341   0.04832  -0.81533
  21   33902.8    295.0   0.066162553   0.64247  -0.06273   0.18919   0.77636
  22   34330.2    291.3   0.101097597   0.96948  -0.20172  -0.55531  -0.78767
  23   34334.5    291.3   0.244528609   2.34463   0.14064  -0.69419  -1.35755
  24   34530.2    289.6   0.012321301   0.11747   0.14917  -0.19802  -0.23666
  25   34877.4    286.7   0.036766475   0.34704   0.20559   0.12576   0.53755
  26   35106.8    284.8   0.085297133   0.79987   0.28827   0.28161   0.79841
  27   35520.7    281.5   0.016773731   0.15546   0.02502  -0.38791   0.06606
  28   35898.0    278.6   0.028908910   0.26512   0.06126   0.36707   0.35584
  29   36540.7    273.7   0.000126802   0.00114  -0.02389  -0.01453  -0.01899
  30   36794.8    271.8   0.017405447   0.15573  -0.34779   0.03993  -0.18214
  31   37037.8    270.0   0.080102643   0.71199  -0.19955  -0.37868  -0.72717
  32   37155.6    269.1   0.014783496   0.13099  -0.04997  -0.06312  -0.35285
  33   37323.8    267.9   0.227701922   2.00843  -0.22533   1.31773   0.47036
  34   37633.7    265.7   0.036734950   0.32135  -0.34201   0.19435   0.40818
  35   37800.8    264.5   0.092367453   0.80444  -0.18218   0.67431   0.56263
  36   38382.9    260.5   0.117147199   1.00478   0.17477  -0.22967   0.95994
  37   38465.3    260.0   0.125121636   1.07088  -0.80594  -0.01505  -0.64893
  38   38994.5    256.4   0.282324838   2.38353   0.55601   0.28442   1.41191
  39   39242.9    254.8   0.250834113   2.10427  -0.23181  -0.06820  -1.43034
  40   39406.3    253.8   0.172175882   1.43841   0.59409  -0.81187  -0.65294
  41   39580.7    252.6   0.025000920   0.20794  -0.05987   0.17564   0.41655
  42   39628.9    252.3   0.014982167   0.12446   0.32463   0.12111   0.06640

FINAL SINGLE POINT ENERGY     -4635.418207963387

DIPOLE MOMENT
-------------
                                X             Y             Z
Electronic contribution:     21.01614      -4.06857      -8.23530
Nuclear contribution   :    -20.80622       2.98836       8.40395
                        -----------------------------------------
Total Dipole Moment    :      0.20992      -1.08021       0.16865
                        -----------------------------------------
Magnitude (a.u.)       :      1.11327
Magnitude (Debye)      :      2.82971

Rotational constants in cm-1:     0.003082     0.000110     0.000109
Rotational constants in MHz :    92.398042     3.291926     3.252825

                             ****ORCA TERMINATED NORMALLY****
TOTAL RUN TIME: 0 days 0 hours 9 minutes 5 seconds 12 msec
