                         Program Version 4.2.0 -  RELEASE  -
|  1> # ORCA input file
|  2> # SCF done       -185.495367600224          0.000353691809
|  3> ! CAM-B3LYP def2-SVP def2/J RIJCOSX Grid4 TightSCF
|  4> %maxcore 5000
|  5> %tddft
|  6>     Mode sTDDFT
|  7>     Ethresh 5.0
|  8>     maxcore 5000
|  9> end
| 10>
| 11> %pal
| 12>   nprocs 6
| 13>   end
| 14> * xyz 0 1
| 15>    C        2.27263        -1.11183        -5.41605
| 16>    C        1.87545        -0.72337        -6.65716
| 17>    S        2.88746        -1.40461        -7.87892
| 18>    C        3.86868        -2.23614        -6.69774
| 19>   Cl        5.18020        -3.20256        -7.15741
| 20>    C        3.41397        -1.97833        -5.43693
| 21>    C        3.77062        -2.35066        -4.07243
| 22>    O        4.66750        -3.09176        -3.71255
| 23>    C        2.81773        -1.62492        -3.20439
| 24>    C        1.86044        -0.91050        -4.03981
| 25>    C        0.74871        -0.21337        -3.65510
| 26>    C       -0.07485         0.42538        -4.60804
| 27>    N       -0.74778         0.95263        -5.37235
| 28>    C        0.27051        -0.07559        -2.33504
| 29>    N       -0.18598         0.05226        -1.29026
| 30>    C        2.88499        -1.55676        -1.84129
| 31>    C        3.77296        -2.20141        -0.95440
| 32>    S        4.95449        -3.41551        -1.34681
| 33>    C        5.41260        -3.58218         0.31661
| 34>    C        4.71299        -2.69755         1.14160
| 35>    C        3.78278        -1.92768         0.42198
| 36>    C        2.97144        -0.94496         1.02083
| 37>    N        2.32660        -0.13044         1.50364
| 38>    C        5.01961        -2.46933         2.49766
| 39>    N        5.32975        -2.20963         3.56945
| 40>    C        6.35342        -4.53480         0.79769
| 41>    N        7.47784        -4.97541         0.15255
| 42>    C        7.96165        -4.58961        -1.15211
| 43>    C        7.46583        -5.53527        -2.24191
| 44>    C        8.20953        -5.88273         0.95099
| 45>    O        9.25953        -6.37772         0.60045
| 46>    C        7.42456        -6.01508         2.15852
| 47>    C        6.29411        -5.17763         2.03126
| 48>    C        5.43629        -5.39243         3.18184
| 49>    O        4.32800        -4.99219         3.45203
| 50>    N        6.16308        -6.29641         3.97973
| 51>    C        5.68446        -6.66840         5.28983
| 52>    C        6.36494        -5.85044         6.38422
| 53>    C        7.34133        -6.68106         3.38885
| 54>    C        8.24889        -7.59379         3.96795
| 55>    C        9.38839        -8.00541         3.33968
| 56>    C       10.31268        -8.92380         3.88633
| 57>    C       11.42834        -9.42120         3.24071
| 58>    C       12.10508       -10.33144         4.09954
| 59>    C       11.33182       -10.35343         5.35879
| 60>    C       10.27010        -9.52187         5.21820
| 61>    C       11.62421       -11.08128         6.51889
| 62>    N       11.83088       -11.65082         7.49443
| 63>    C       13.22892       -11.07540         3.82523
| 64>    C       13.86763       -12.02958         4.67484
| 65>    C       14.88770       -12.63817         3.98218
| 66>    C       14.96220       -12.02286         2.66259
| 67>    C       13.99024       -11.07882         2.56601
| 68>    C       13.78693       -10.25772         1.45052
| 69>    N       13.66209        -9.59951         0.51804
| 70>    C       15.75929       -13.64802         4.47441
| 71>    C       16.43468       -14.58056         3.75350
| 72>    C       17.62184       -15.27449         4.35010
| 73>    O       17.95148       -15.26282         5.51007
| 74>    C       18.28909       -15.89720         3.19988
| 75>    C       19.43642       -16.59476         2.96474
| 76>    S       19.55607       -17.02532         1.27428
| 77>    C       18.04896       -16.26798         0.90752
| 78>    C       17.49650       -15.71223         2.01826
| 79>    C       16.28008       -15.00779         2.37497
| 80>    C       15.14016       -14.97292         1.61568
| 81>    C       15.12257       -15.47947         0.29937
| 82>    N       15.11024       -15.87472        -0.77738
| 83>    C       13.88140       -14.54358         2.08294
| 84>    N       12.82226       -14.27595         2.43520
| 85>   Cl       20.63765       -17.03599         4.07369
| 86>    H        1.06372        -0.08447        -6.94349
| 87>    H        2.17518        -0.90723        -1.33932
| 88>    H        9.05345        -4.63783        -1.10316
| 89>    H        7.65676        -3.56186        -1.36237
| 90>    H        7.80313        -6.54753        -2.03374
| 91>    H        7.86699        -5.22358        -3.20152
| 92>    H        6.38033        -5.52796        -2.30420
| 93>    H        5.83162        -7.74056         5.44552
| 94>    H        4.61167        -6.45709         5.28918
| 95>    H        7.44150        -6.00823         6.38039
| 96>    H        5.97166        -6.13594         7.35572
| 97>    H        6.17013        -4.79246         6.22708
| 98>    H        8.00550        -7.97976         4.94682
| 99>    H        9.61646        -7.62545         2.35211
|100>    H       11.73156        -9.17351         2.24225
|101>    H        9.52678        -9.32690         5.96844
|102>    H       13.55357       -12.27472         5.67032
|103>    H       15.70731       -12.24184         1.91960
|104>    H       15.95931       -13.63958         5.54125
|105>    H       17.68369       -16.27870        -0.10033
|106> *
|107>
|108>                          ****END OF INPUT****

CARTESIAN COORDINATES (ANGSTROEM)
---------------------------------
  C      2.272630   -1.111830   -5.416050
  C      1.875450   -0.723370   -6.657160
  S      2.887460   -1.404610   -7.878920
  C      3.868680   -2.236140   -6.697740
  Cl     5.180200   -3.202560   -7.157410
  C      3.413970   -1.978330   -5.436930
  C      3.770620   -2.350660   -4.072430
  O      4.667500   -3.091760   -3.712550
  C      2.817730   -1.624920   -3.204390
  C      1.860440   -0.910500   -4.039810
  C      0.748710   -0.213370   -3.655100
  C     -0.074850    0.425380   -4.608040
  N     -0.747780    0.952630   -5.372350
  C      0.270510   -0.075590   -2.335040
  N     -0.185980    0.052260   -1.290260
  C      2.884990   -1.556760   -1.841290
  C      3.772960   -2.201410   -0.954400
  S      4.954490   -3.415510   -1.346810
  C      5.412600   -3.582180    0.316610
  C      4.712990   -2.697550    1.141600
  C      3.782780   -1.927680    0.421980
  C      2.971440   -0.944960    1.020830
  N      2.326600   -0.130440    1.503640
  C      5.019610   -2.469330    2.497660
  N      5.329750   -2.209630    3.569450
  C      6.353420   -4.534800    0.797690
  N      7.477840   -4.975410    0.152550
  C      7.961650   -4.589610   -1.152110
  C      7.465830   -5.535270   -2.241910
  C      8.209530   -5.882730    0.950990
  O      9.259530   -6.377720    0.600450
  C      7.424560   -6.015080    2.158520
  C      6.294110   -5.177630    2.031260
  C      5.436290   -5.392430    3.181840
  O      4.328000   -4.992190    3.452030
  N      6.163080   -6.296410    3.979730
  C      5.684460   -6.668400    5.289830
  C      6.364940   -5.850440    6.384220
  C      7.341330   -6.681060    3.388850
  C      8.248890   -7.593790    3.967950
  C      9.388390   -8.005410    3.339680
  C     10.312680   -8.923800    3.886330
  C     11.428340   -9.421200    3.240710
  C     12.105080  -10.331440    4.099540
  C     11.331820  -10.353430    5.358790
  C     10.270100   -9.521870    5.218200
  C     11.624210  -11.081280    6.518890
  N     11.830880  -11.650820    7.494430
  C     13.228920  -11.075400    3.825230
  C     13.867630  -12.029580    4.674840
  C     14.887700  -12.638170    3.982180
  C     14.962200  -12.022860    2.662590
  C     13.990240  -11.078820    2.566010
  C     13.786930  -10.257720    1.450520
  N     13.662090   -9.599510    0.518040
  C     15.759290  -13.648020    4.474410
  C     16.434680  -14.580560    3.753500
  C     17.621840  -15.274490    4.350100
  O     17.951480  -15.262820    5.510070
  C     18.289090  -15.897200    3.199880
  C     19.436420  -16.594760    2.964740
  S     19.556070  -17.025320    1.274280
  C     18.048960  -16.267980    0.907520
  C     17.496500  -15.712230    2.018260
  C     16.280080  -15.007790    2.374970
  C     15.140160  -14.972920    1.615680
  C     15.122570  -15.479470    0.299370
  N     15.110240  -15.874720   -0.777380
  C     13.881400  -14.543580    2.082940
  N     12.822260  -14.275950    2.435200
  Cl    20.637650  -17.035990    4.073690
  H      1.063720   -0.084470   -6.943490
  H      2.175180   -0.907230   -1.339320
  H      9.053450   -4.637830   -1.103160
  H      7.656760   -3.561860   -1.362370
  H      7.803130   -6.547530   -2.033740
  H      7.866990   -5.223580   -3.201520
  H      6.380330   -5.527960   -2.304200
  H      5.831620   -7.740560    5.445520
  H      4.611670   -6.457090    5.289180
  H      7.441500   -6.008230    6.380390
  H      5.971660   -6.135940    7.355720
  H      6.170130   -4.792460    6.227080
  H      8.005500   -7.979760    4.946820
  H      9.616460   -7.625450    2.352110
  H     11.731560   -9.173510    2.242250
  H      9.526780   -9.326900    5.968440
  H     13.553570  -12.274720    5.670320
  H     15.707310  -12.241840    1.919600
  H     15.959310  -13.639580    5.541250
  H     17.683690  -16.278700   -0.100330

 Total Charge           Charge          ....    0
 Multiplicity           Mult            ....    1
 Number of Electrons    NEL             ....  516
 Basis Dimension        Dim             .... 1114

ORBITAL ENERGIES
----------------

  NO   OCC          E(Eh)            E(eV)
   0   2.0000    -101.631222     -2765.5261
   1   2.0000    -101.624243     -2765.3362
   2   2.0000     -89.006571     -2421.9919
   3   2.0000     -89.006523     -2421.9906
   4   2.0000     -89.001283     -2421.8480
   5   2.0000     -19.247579      -523.7533
   6   2.0000     -19.229285      -523.2554
   7   2.0000     -19.207005      -522.6492
   8   2.0000     -19.205204      -522.6002
   9   2.0000     -14.471034      -393.7769
  10   2.0000     -14.468683      -393.7129
  11   2.0000     -14.430814      -392.6824
  12   2.0000     -14.430698      -392.6792
  13   2.0000     -14.430064      -392.6620
  14   2.0000     -14.428545      -392.6207
  15   2.0000     -14.426929      -392.5767
  16   2.0000     -14.420892      -392.4124
  17   2.0000     -14.416020      -392.2798
  18   2.0000     -14.415460      -392.2646
  19   2.0000     -10.400371      -283.0085
  20   2.0000     -10.391196      -282.7588
  21   2.0000     -10.389473      -282.7119
  22   2.0000     -10.388454      -282.6842
  23   2.0000     -10.385780      -282.6115
  24   2.0000     -10.384294      -282.5710
  25   2.0000     -10.362363      -281.9742
  26   2.0000     -10.361842      -281.9601
  27   2.0000     -10.361588      -281.9531
  28   2.0000     -10.361373      -281.9473
  29   2.0000     -10.360992      -281.9369
  30   2.0000     -10.360247      -281.9167
  31   2.0000     -10.356668      -281.8193
  32   2.0000     -10.354327      -281.7556
  33   2.0000     -10.353060      -281.7211
  34   2.0000     -10.348271      -281.5908
  35   2.0000     -10.346403      -281.5399
  36   2.0000     -10.341665      -281.4110
  37   2.0000     -10.339357      -281.3482
  38   2.0000     -10.337741      -281.3042
  39   2.0000     -10.336806      -281.2788
  40   2.0000     -10.332878      -281.1719
  41   2.0000     -10.332102      -281.1508
  42   2.0000     -10.331986      -281.1476
  43   2.0000     -10.331143      -281.1247
  44   2.0000     -10.330266      -281.1008
  45   2.0000     -10.330192      -281.0988
  46   2.0000     -10.328672      -281.0574
  47   2.0000     -10.326240      -280.9913
  48   2.0000     -10.326038      -280.9858
  49   2.0000     -10.324079      -280.9325
  50   2.0000     -10.323399      -280.9140
  51   2.0000     -10.322352      -280.8855
  52   2.0000     -10.322289      -280.8838
  53   2.0000     -10.320741      -280.8416
  54   2.0000     -10.319178      -280.7991
  55   2.0000     -10.319073      -280.7963
  56   2.0000     -10.318872      -280.7908
  57   2.0000     -10.318576      -280.7827
  58   2.0000     -10.317349      -280.7493
  59   2.0000     -10.317001      -280.7399
  60   2.0000     -10.315238      -280.6919
  61   2.0000     -10.314983      -280.6850
  62   2.0000     -10.314099      -280.6609
  63   2.0000     -10.313062      -280.6327
  64   2.0000     -10.309005      -280.5223
  65   2.0000     -10.307652      -280.4855
  66   2.0000     -10.301045      -280.3057
  67   2.0000     -10.285185      -279.8741
  68   2.0000     -10.279933      -279.7312
  69   2.0000     -10.270717      -279.4804
  70   2.0000     -10.267876      -279.4031
  71   2.0000      -9.585987      -260.8480
  72   2.0000      -9.578984      -260.6574
  73   2.0000      -8.102211      -220.4724
  74   2.0000      -8.098770      -220.3787
  75   2.0000      -8.096999      -220.3306
  76   2.0000      -7.356642      -200.1844
  77   2.0000      -7.349651      -199.9942
  78   2.0000      -7.346017      -199.8953
  79   2.0000      -7.345462      -199.8802
  80   2.0000      -7.339011      -199.7046
  81   2.0000      -7.338461      -199.6897
  82   2.0000      -6.071617      -165.2171
  83   2.0000      -6.068260      -165.1258
  84   2.0000      -6.066923      -165.0894
  85   2.0000      -6.066380      -165.0746
  86   2.0000      -6.064483      -165.0230
  87   2.0000      -6.063410      -164.9938
  88   2.0000      -6.061759      -164.9488
  89   2.0000      -6.061224      -164.9343
  90   2.0000      -6.059250      -164.8806
  91   2.0000      -1.164182       -31.6790
  92   2.0000      -1.150148       -31.2971
  93   2.0000      -1.146273       -31.1917
  94   2.0000      -1.143094       -31.1052
  95   2.0000      -1.081919       -29.4405
  96   2.0000      -1.073957       -29.2239
  97   2.0000      -1.052686       -28.6450
  98   2.0000      -1.047158       -28.4946
  99   2.0000      -1.042166       -28.3588
 100   2.0000      -1.031406       -28.0660
 101   2.0000      -1.028348       -27.9828
 102   2.0000      -1.025914       -27.9166
 103   2.0000      -1.013118       -27.5683
 104   2.0000      -1.008559       -27.4443
 105   2.0000      -1.006968       -27.4010
 106   2.0000      -1.004721       -27.3399
 107   2.0000      -1.002991       -27.2928
 108   2.0000      -0.997988       -27.1566
 109   2.0000      -0.996987       -27.1294
 110   2.0000      -0.995606       -27.0918
 111   2.0000      -0.991886       -26.9906
 112   2.0000      -0.969344       -26.3772
 113   2.0000      -0.963153       -26.2087
 114   2.0000      -0.945567       -25.7302
 115   2.0000      -0.934958       -25.4415
 116   2.0000      -0.930108       -25.3095
 117   2.0000      -0.920696       -25.0534
 118   2.0000      -0.918448       -24.9922
 119   2.0000      -0.906748       -24.6739
 120   2.0000      -0.905099       -24.6290
 121   2.0000      -0.889450       -24.2032
 122   2.0000      -0.874784       -23.8041
 123   2.0000      -0.873165       -23.7600
 124   2.0000      -0.866357       -23.5748
 125   2.0000      -0.854889       -23.2627
 126   2.0000      -0.846507       -23.0346
 127   2.0000      -0.841412       -22.8960
 128   2.0000      -0.832268       -22.6472
 129   2.0000      -0.830439       -22.5974
 130   2.0000      -0.818034       -22.2598
 131   2.0000      -0.799722       -21.7615
 132   2.0000      -0.794465       -21.6185
 133   2.0000      -0.775705       -21.1080
 134   2.0000      -0.771472       -20.9928
 135   2.0000      -0.770931       -20.9781
 136   2.0000      -0.761364       -20.7178
 137   2.0000      -0.744894       -20.2696
 138   2.0000      -0.738212       -20.0878
 139   2.0000      -0.732168       -19.9233
 140   2.0000      -0.725797       -19.7499
 141   2.0000      -0.720118       -19.5954
 142   2.0000      -0.712956       -19.4005
 143   2.0000      -0.703663       -19.1476
 144   2.0000      -0.700914       -19.0728
 145   2.0000      -0.694904       -18.9093
 146   2.0000      -0.693406       -18.8685
 147   2.0000      -0.690606       -18.7923
 148   2.0000      -0.685980       -18.6665
 149   2.0000      -0.684985       -18.6394
 150   2.0000      -0.665355       -18.1052
 151   2.0000      -0.658123       -17.9084
 152   2.0000      -0.655948       -17.8492
 153   2.0000      -0.640667       -17.4334
 154   2.0000      -0.635047       -17.2805
 155   2.0000      -0.630366       -17.1531
 156   2.0000      -0.627512       -17.0755
 157   2.0000      -0.626349       -17.0438
 158   2.0000      -0.621288       -16.9061
 159   2.0000      -0.607435       -16.5291
 160   2.0000      -0.605589       -16.4789
 161   2.0000      -0.595871       -16.2145
 162   2.0000      -0.592731       -16.1290
 163   2.0000      -0.588289       -16.0082
 164   2.0000      -0.586097       -15.9485
 165   2.0000      -0.578468       -15.7409
 166   2.0000      -0.570350       -15.5200
 167   2.0000      -0.568721       -15.4757
 168   2.0000      -0.567793       -15.4504
 169   2.0000      -0.566513       -15.4156
 170   2.0000      -0.560011       -15.2387
 171   2.0000      -0.557890       -15.1810
 172   2.0000      -0.553345       -15.0573
 173   2.0000      -0.546709       -14.8767
 174   2.0000      -0.544947       -14.8288
 175   2.0000      -0.542851       -14.7717
 176   2.0000      -0.540785       -14.7155
 177   2.0000      -0.540055       -14.6956
 178   2.0000      -0.538938       -14.6652
 179   2.0000      -0.535115       -14.5612
 180   2.0000      -0.534149       -14.5349
 181   2.0000      -0.532360       -14.4862
 182   2.0000      -0.531947       -14.4750
 183   2.0000      -0.529730       -14.4147
 184   2.0000      -0.525917       -14.3109
 185   2.0000      -0.522002       -14.2044
 186   2.0000      -0.519126       -14.1261
 187   2.0000      -0.517762       -14.0890
 188   2.0000      -0.516682       -14.0596
 189   2.0000      -0.514089       -13.9891
 190   2.0000      -0.513267       -13.9667
 191   2.0000      -0.510644       -13.8953
 192   2.0000      -0.510120       -13.8811
 193   2.0000      -0.507241       -13.8027
 194   2.0000      -0.504803       -13.7364
 195   2.0000      -0.500561       -13.6210
 196   2.0000      -0.492900       -13.4125
 197   2.0000      -0.487637       -13.2693
 198   2.0000      -0.483793       -13.1647
 199   2.0000      -0.482805       -13.1378
 200   2.0000      -0.481315       -13.0972
 201   2.0000      -0.478093       -13.0096
 202   2.0000      -0.469877       -12.7860
 203   2.0000      -0.469098       -12.7648
 204   2.0000      -0.467775       -12.7288
 205   2.0000      -0.464481       -12.6392
 206   2.0000      -0.462580       -12.5874
 207   2.0000      -0.462127       -12.5751
 208   2.0000      -0.459994       -12.5171
 209   2.0000      -0.459747       -12.5104
 210   2.0000      -0.457971       -12.4620
 211   2.0000      -0.456984       -12.4352
 212   2.0000      -0.456087       -12.4108
 213   2.0000      -0.455690       -12.3999
 214   2.0000      -0.454962       -12.3801
 215   2.0000      -0.453763       -12.3475
 216   2.0000      -0.450662       -12.2631
 217   2.0000      -0.450196       -12.2504
 218   2.0000      -0.449550       -12.2329
 219   2.0000      -0.448975       -12.2172
 220   2.0000      -0.444543       -12.0966
 221   2.0000      -0.444465       -12.0945
 222   2.0000      -0.442365       -12.0374
 223   2.0000      -0.441403       -12.0112
 224   2.0000      -0.441136       -12.0039
 225   2.0000      -0.439081       -11.9480
 226   2.0000      -0.437782       -11.9127
 227   2.0000      -0.436546       -11.8790
 228   2.0000      -0.435434       -11.8488
 229   2.0000      -0.429842       -11.6966
 230   2.0000      -0.427743       -11.6395
 231   2.0000      -0.426413       -11.6033
 232   2.0000      -0.425127       -11.5683
 233   2.0000      -0.423307       -11.5188
 234   2.0000      -0.421417       -11.4673
 235   2.0000      -0.418491       -11.3877
 236   2.0000      -0.416089       -11.3224
 237   2.0000      -0.414420       -11.2769
 238   2.0000      -0.410207       -11.1623
 239   2.0000      -0.408101       -11.1050
 240   2.0000      -0.392727       -10.6866
 241   2.0000      -0.386342       -10.5129
 242   2.0000      -0.369351       -10.0505
 243   2.0000      -0.362102        -9.8533
 244   2.0000      -0.361613        -9.8400
 245   2.0000      -0.354420        -9.6443
 246   2.0000      -0.353113        -9.6087
 247   2.0000      -0.347272        -9.4497
 248   2.0000      -0.346168        -9.4197
 249   2.0000      -0.343317        -9.3421
 250   2.0000      -0.337256        -9.1772
 251   2.0000      -0.334066        -9.0904
 252   2.0000      -0.331769        -9.0279
 253   2.0000      -0.323366        -8.7992
 254   2.0000      -0.316755        -8.6193
 255   2.0000      -0.313864        -8.5407
 256   2.0000      -0.303066        -8.2468
 257   2.0000      -0.255061        -6.9406
 258   0.0000      -0.146061        -3.9745
 259   0.0000      -0.120178        -3.2702
 260   0.0000      -0.095960        -2.6112
 261   0.0000      -0.080662        -2.1949
 262   0.0000      -0.070406        -1.9159

MULLIKEN ATOMIC CHARGES
-----------------------
   0 C :    0.033810
   1 C :   -0.129268
   2 S :    0.196972
   3 C :   -0.166080
   4 Cl:    0.005525
   5 C :    0.078584
   6 C :    0.175991
   7 O :   -0.173022
   8 C :   -0.099884
   9 C :    0.292029
  10 C :   -0.316822
  11 C :   -0.193739
  12 N :    0.164748
  13 C :   -0.195725
  14 N :    0.185743
  15 C :   -0.061566
  16 C :   -0.045416
  17 S :    0.229438
  18 C :   -0.132082
  19 C :    0.049318
  20 C :   -0.029779
  21 C :   -0.244774
  22 N :    0.233403
  23 C :   -0.270879
  24 N :    0.231478
  25 C :    0.102280
  26 N :   -0.251346
  27 C :    0.089142
  28 C :    0.005632
  29 C :    0.167532
  30 O :   -0.198226
  31 C :   -0.076519
  32 C :   -0.040890
  33 C :    0.143105
  34 O :   -0.166363
  35 N :   -0.258986
  36 C :    0.093597
  37 C :   -0.002424
  38 C :    0.159892
  39 C :   -0.026094
  40 C :    0.022102
  41 C :    0.105377
  42 C :   -0.088960
  43 C :    0.120704
  44 C :   -0.088057
  45 C :   -0.005522
  46 C :   -0.176912
  47 N :    0.141939
  48 C :    0.118926
  49 C :   -0.046614
  50 C :    0.056042
  51 C :   -0.011444
  52 C :   -0.084314
  53 C :   -0.183298
  54 N :    0.154490
  55 C :    0.044570
  56 C :   -0.134841
  57 C :    0.140366
  58 O :   -0.119262
  59 C :    0.089131
  60 C :   -0.171877
  61 S :    0.192288
  62 C :   -0.128875
  63 C :    0.020109
  64 C :    0.258255
  65 C :   -0.333904
  66 C :   -0.186382
  67 N :    0.166792
  68 C :   -0.182108
  69 N :    0.180572
  70 Cl:    0.005149
  71 H :    0.058237
  72 H :    0.041201
  73 H :    0.046064
  74 H :    0.031360
  75 H :    0.034741
  76 H :    0.027715
  77 H :    0.022797
  78 H :    0.025522
  79 H :    0.051943
  80 H :    0.012692
  81 H :    0.028110
  82 H :    0.047359
  83 H :   -0.027376
  84 H :    0.021574
  85 H :    0.021671
  86 H :    0.004153
  87 H :    0.011447
  88 H :    0.014521
  89 H :    0.038584
  90 H :    0.054901
Sum of atomic charges:   -0.0000000

LOEWDIN ATOMIC CHARGES
----------------------
   0 C :   -0.056724
   1 C :   -0.145947
   2 S :    0.484934
   3 C :   -0.269076
   4 Cl:    0.197511
   5 C :   -0.119144
   6 C :    0.087047
   7 O :   -0.161737
   8 C :   -0.081931
   9 C :    0.068637
  10 C :   -0.122899
  11 C :   -0.014529
  12 N :   -0.042034
  13 C :   -0.031643
  14 N :   -0.020381
  15 C :    0.054134
  16 C :   -0.159576
  17 S :    0.572270
  18 C :   -0.149423
  19 C :   -0.063196
  20 C :   -0.047532
  21 C :   -0.037368
  22 N :   -0.004099
  23 C :   -0.027895
  24 N :   -0.027633
  25 C :    0.037508
  26 N :    0.004389
  27 C :    0.030393
  28 C :   -0.061888
  29 C :    0.079779
  30 O :   -0.190170
  31 C :   -0.118731
  32 C :   -0.097341
  33 C :    0.085083
  34 O :   -0.160928
  35 N :    0.002522
  36 C :    0.036587
  37 C :   -0.060552
  38 C :    0.090217
  39 C :   -0.037141
  40 C :    0.044925
  41 C :   -0.015577
  42 C :    0.000748
  43 C :    0.047280
  44 C :   -0.072952
  45 C :    0.056288
  46 C :   -0.031577
  47 N :   -0.053562
  48 C :    0.040127
  49 C :    0.022764
  50 C :   -0.032523
  51 C :    0.051544
  52 C :   -0.072579
  53 C :   -0.032071
  54 N :   -0.051327
  55 C :    0.074928
  56 C :   -0.073997
  57 C :    0.080728
  58 O :   -0.124214
  59 C :   -0.119120
  60 C :   -0.270113
  61 S :    0.479873
  62 C :   -0.150010
  63 C :   -0.058720
  64 C :    0.063334
  65 C :   -0.127851
  66 C :   -0.017323
  67 N :   -0.040414
  68 C :   -0.022159
  69 N :   -0.035998
  70 Cl:    0.196532
  71 H :    0.039646
  72 H :    0.058889
  73 H :    0.039298
  74 H :    0.018820
  75 H :    0.033028
  76 H :    0.033948
  77 H :    0.013999
  78 H :    0.022820
  79 H :    0.041325
  80 H :    0.020545
  81 H :    0.032648
  82 H :    0.039196
  83 H :    0.029351
  84 H :    0.045128
  85 H :    0.043032
  86 H :    0.036717
  87 H :    0.040498
  88 H :    0.037942
  89 H :    0.056031
  90 H :    0.038659

  Mayer bond orders larger than 0.100000
B(  0-C ,  1-C ) :   1.5491 B(  0-C ,  5-C ) :   1.2249 B(  0-C ,  9-C ) :   0.9957
B(  1-C ,  2-S ) :   1.1599 B(  1-C , 71-H ) :   0.9546 B(  2-S ,  3-C ) :   1.1588
B(  3-C ,  4-Cl) :   1.1343 B(  3-C ,  5-C ) :   1.4595 B(  5-C ,  6-C ) :   0.9811
B(  6-C ,  7-O ) :   2.1200 B(  6-C ,  8-C ) :   0.9667 B(  8-C ,  9-C ) :   1.0573
B(  8-C , 15-C ) :   1.5897 B(  9-C , 10-C ) :   1.6718 B( 10-C , 11-C ) :   1.1473
B( 10-C , 13-C ) :   1.1346 B( 11-C , 12-N ) :   2.9913 B( 13-C , 14-N ) :   2.9804
B( 15-C , 16-C ) :   1.2331 B( 15-C , 72-H ) :   0.9349 B( 16-C , 17-S ) :   1.1055
B( 16-C , 20-C ) :   1.3911 B( 17-S , 18-C ) :   1.1258 B( 18-C , 19-C ) :   1.4295
B( 18-C , 25-C ) :   1.0989 B( 19-C , 20-C ) :   1.3799 B( 19-C , 23-C ) :   1.1431
B( 20-C , 21-C ) :   1.1467 B( 21-C , 22-N ) :   2.9941 B( 23-C , 24-N ) :   3.0069
B( 25-C , 26-N ) :   1.2025 B( 25-C , 32-C ) :   1.3986 B( 26-N , 27-C ) :   0.9366
B( 26-N , 29-C ) :   1.0453 B( 27-C , 28-C ) :   1.1163 B( 27-C , 73-H ) :   0.9289
B( 27-C , 74-H ) :   0.9480 B( 28-C , 75-H ) :   0.9644 B( 28-C , 76-H ) :   0.9670
B( 28-C , 77-H ) :   0.9632 B( 29-C , 30-O ) :   2.0334 B( 29-C , 31-C ) :   0.9925
B( 30-O , 84-H ) :   0.1086 B( 31-C , 32-C ) :   1.2588 B( 31-C , 38-C ) :   1.3103
B( 32-C , 33-C ) :   0.9488 B( 33-C , 34-O ) :   2.1504 B( 33-C , 35-N ) :   1.0302
B( 35-N , 36-C ) :   0.9391 B( 35-N , 38-C ) :   1.1786 B( 36-C , 37-C ) :   1.1194
B( 36-C , 78-H ) :   0.9499 B( 36-C , 79-H ) :   0.9262 B( 37-C , 80-H ) :   0.9683
B( 37-C , 81-H ) :   0.9684 B( 37-C , 82-H ) :   0.9629 B( 38-C , 39-C ) :   1.1648
B( 39-C , 40-C ) :   1.5461 B( 39-C , 83-H ) :   0.9635 B( 40-C , 41-C ) :   1.1295
B( 40-C , 84-H ) :   0.9583 B( 41-C , 42-C ) :   1.5077 B( 41-C , 45-C ) :   1.0268
B( 42-C , 43-C ) :   1.1123 B( 42-C , 85-H ) :   1.0110 B( 43-C , 44-C ) :   1.0948
B( 43-C , 48-C ) :   1.4125 B( 44-C , 45-C ) :   1.7010 B( 44-C , 46-C ) :   1.0887
B( 45-C , 86-H ) :   1.0141 B( 46-C , 47-N ) :   2.9692 B( 48-C , 49-C ) :   1.1040
B( 48-C , 52-C ) :   1.1168 B( 49-C , 50-C ) :   1.5424 B( 49-C , 87-H ) :   1.0036
B( 50-C , 51-C ) :   1.0390 B( 50-C , 55-C ) :   1.0495 B( 51-C , 52-C ) :   1.6792
B( 51-C , 88-H ) :   1.0169 B( 52-C , 53-C ) :   1.0955 B( 53-C , 54-N ) :   2.9777
B( 55-C , 56-C ) :   1.6878 B( 55-C , 89-H ) :   0.9549 B( 56-C , 57-C ) :   0.9253
B( 56-C , 64-C ) :   1.0347 B( 57-C , 58-O ) :   2.2921 B( 57-C , 59-C ) :   0.9233
B( 59-C , 60-C ) :   1.4808 B( 59-C , 63-C ) :   1.2226 B( 60-C , 61-S ) :   1.1553
B( 60-C , 70-Cl) :   1.1340 B( 61-S , 62-C ) :   1.1612 B( 62-C , 63-C ) :   1.5480
B( 62-C , 90-H ) :   0.9580 B( 63-C , 64-C ) :   1.0135 B( 64-C , 65-C ) :   1.6647
B( 65-C , 66-C ) :   1.1393 B( 65-C , 68-C ) :   1.1539 B( 66-C , 67-N ) :   3.0014
B( 68-C , 69-N ) :   2.9900

-----------------------------------------------------------------------------
         ABSORPTION SPECTRUM VIA TRANSITION ELECTRIC DIPOLE MOMENTS
-----------------------------------------------------------------------------
State   Energy  Wavelength   fosc         T2         TX        TY        TZ
        (cm-1)    (nm)                  (au**2)     (au)      (au)      (au)
-----------------------------------------------------------------------------
   0   10055.4    994.5   0.763876523  25.00909   3.30700  -3.36074   1.66682
   1   15232.8    656.5   0.276923633   5.98487   0.64467  -0.92177   2.17247
   2   16918.5    591.1   0.114823757   2.23431  -0.97758   0.81410   0.78479
   3   18821.1    531.3   0.018683740   0.32681   0.45884   0.00997  -0.34085
   4   22036.5    453.8   0.087594272   1.30861  -0.23010   0.94496  -0.60225
   5   22918.1    436.3   0.089023918   1.27881   0.76322  -0.68326  -0.47901
   6   23596.2    423.8   0.309743310   4.32152   1.22267  -1.65681  -0.28563
   7   24203.6    413.2   0.003273140   0.04452   0.14945  -0.14324   0.04082
   8   24463.1    408.8   0.386676730   5.20370  -1.62890   0.83541  -1.36105
   9   25681.0    389.4   0.137325062   1.76041   1.05911  -0.64894  -0.46645
  10   25768.3    388.1   0.442662491   5.65538   1.93957  -1.27686  -0.51293
  11   26479.8    377.6   0.056795240   0.70611  -0.73466   0.40738  -0.02078
  12   26899.2    371.8   0.071261135   0.87215  -0.64709   0.60994  -0.28530
  13   26985.7    370.6   0.096450989   1.17665  -0.22444   0.83881   0.65014
  14   27772.9    360.1   0.009579778   0.11356  -0.15301   0.26090  -0.14856
  15   27977.2    357.4   0.084911277   0.99916   0.17994  -0.18209   0.96624
  16   28840.7    346.7   0.045120747   0.51505   0.67705  -0.22230   0.08504
  17   28954.1    345.4   0.152978989   1.73939  -0.46827   0.22251  -1.21269
  18   29127.1    343.3   0.057490453   0.64979  -0.30979   0.31377  -0.67481
  19   29545.0    338.5   0.032595521   0.36320   0.37715  -0.34432  -0.32000
  20   30387.6    329.1   0.006501481   0.07044  -0.06649   0.13964  -0.21567
  21   30520.4    327.6   0.019514873   0.21050  -0.27472   0.21871  -0.29528
  22   30653.5    326.2   0.008715341   0.09360   0.29614   0.01490  -0.07538
  23   31968.3    312.8   0.053147980   0.54732   0.11572   0.05877   0.72834
  24   32047.4    312.0   0.116127840   1.19294   0.98105  -0.40128  -0.26356
  25   32274.7    309.8   0.029460351   0.30051   0.49464   0.11820   0.20462
  26   32750.2    305.3   0.106697031   1.07254   0.91172  -0.48977  -0.03780
  27   33324.4    300.1   0.000339700   0.00336  -0.01347   0.05632   0.00155
  28   33563.3    297.9   0.037614293   0.36895  -0.51592   0.30621  -0.09490
  29   33730.0    296.5   0.117918799   1.15091   0.76824  -0.73635  -0.13602
  30   33798.0    295.9   0.036142102   0.35204   0.48876  -0.17287   0.28857
  31   34315.4    291.4   0.042690726   0.40956   0.38518  -0.13222   0.49368
  32   34578.7    289.2   0.154723910   1.47307  -1.04142   0.56386   0.26566
  33   34715.5    288.1   0.085663815   0.81236  -0.10202   0.15606   0.88182
  34   34875.2    286.7   0.160788747   1.51780   0.68920  -0.32324  -0.96867
  35   34952.0    286.1   0.100089102   0.94274  -0.13859   0.02671  -0.96063
  36   35099.7    284.9   0.023930301   0.22445   0.19695  -0.21573  -0.37299
  37   35337.2    283.0   0.015943303   0.14853  -0.27454   0.15327  -0.22286
  38   35567.5    281.2   0.105334082   0.97497   0.73868  -0.54711  -0.36055
  39   35742.9    279.8   0.001005102   0.00926   0.08387   0.04010   0.02480
  40   36058.4    277.3   0.007662769   0.06996  -0.24281  -0.01129  -0.10429
  41   36174.9    276.4   0.013866619   0.12619   0.11133  -0.26992  -0.20234
  42   36439.4    274.4   0.146435564   1.32297   0.68754  -0.48846  -0.78209
  43   36601.1    273.2   0.053520401   0.48139   0.43990  -0.42836  -0.32310
  44   37085.0    269.7   0.016770499   0.14888   0.31880  -0.01137  -0.21706
  45   37178.6    269.0   0.026617127   0.23569  -0.40168   0.27259  -0.00615
  46   37406.5    267.3   0.365526671   3.21697  -1.58357   0.81525  -0.21131
  47   37851.0    264.2   0.015056268   0.13095  -0.01867  -0.26154  -0.24940
  48   37999.2    263.2   0.115041882   0.99668  -0.96100   0.26429   0.05756
  49   38201.8    261.8   0.005714739   0.04925  -0.03213   0.20464   0.07960
  50   38306.2    261.1   0.181883344   1.56314   1.13808  -0.51704   0.02431
  51   38475.9    259.9   0.109153844   0.93395  -0.76575   0.47144  -0.35401
  52   38567.4    259.3   0.071475348   0.61011  -0.39931   0.26569   0.61650
  53   38778.8    257.9   0.050007955   0.42454  -0.40723  -0.07791  -0.50263
  54   38997.4    256.4   0.102689684   0.86690   0.81145  -0.45513   0.03611

FINAL SINGLE POINT ENERGY     -4952.505151610414

DIPOLE MOMENT
-------------
                                X             Y             Z
Electronic contribution:     20.38826     -13.09861     -34.62357
Nuclear contribution   :    -17.89291      11.63217      32.42098
                        -----------------------------------------
Total Dipole Moment    :      2.49535      -1.46645      -2.20259
                        -----------------------------------------
Magnitude (a.u.)       :      3.63712
Magnitude (Debye)      :      9.24484

Rotational constants in cm-1:     0.001768     0.000222     0.000200
Rotational constants in MHz :    53.017362     6.656642     6.002718

                             ****ORCA TERMINATED NORMALLY****
TOTAL RUN TIME: 0 days 0 hours 10 minutes 41 seconds 864 msec
