                         Program Version 4.2.0 -  RELEASE  -
|  1> # ORCA input file
|  2> # SCF done       -198.245685731338          0.000185727749
|  3> ! CAM-B3LYP def2-SVP def2/J RIJCOSX Grid4 TightSCF
|  4> %maxcore 5000
|  5> %tddft
|  6>     Mode sTDDFT
|  7>     Ethresh 5.0
|  8>     maxcore 5000
|  9> end
| 10>
| 11> %pal
| 12>   nprocs 6
| 13>   end
| 14> * xyz 0 1
| 15>    C        3.32514         3.26285        -1.70283
| 16>    C        2.76172         4.24691        -2.45614
| 17>    S        3.51511         4.35528        -4.00349
| 18>    C        4.62468         3.05705        -3.62843
| 19>   Cl        5.77398         2.52382        -4.74772
| 20>    C        4.39295         2.58176        -2.37355
| 21>    C        4.96077         1.55883        -1.49396
| 22>    O        6.00611         0.96757        -1.60913
| 23>    C        4.04552         1.54718        -0.29809
| 24>    C        3.13746         2.68189        -0.38950
| 25>    C        2.23592         3.12032         0.54256
| 26>    C        1.39790         4.22783         0.29146
| 27>    N        0.71157         5.12802         0.10647
| 28>    C        2.04829         2.56052         1.82168
| 29>    N        1.85673         2.14179         2.87331
| 30>    C        4.10268         0.62444         0.69309
| 31>    C        4.80390        -0.60999         0.56402
| 32>    S        5.53234        -1.40414         1.94352
| 33>    C        4.94853        -1.40349        -0.54868
| 34>    C        4.49311        -1.39798        -1.95549
| 35>    O        3.83023        -0.58250        -2.55057
| 36>    N        4.94536        -2.59542        -2.47476
| 37>    C        4.81604        -2.95547        -3.87026
| 38>    C        6.05219        -2.50793        -4.64241
| 39>    C        5.59531        -3.41311        -1.55025
| 40>    O        5.92187        -4.55208        -1.75140
| 41>    C        5.64555        -2.60323        -0.31676
| 42>    C        6.07724        -2.76247         0.98146
| 43>    C        6.95317        -3.78860         1.43612
| 44>    N        7.00132        -4.34018         2.68775
| 45>    C        6.09345        -4.08552         3.77913
| 46>    C        4.70103        -4.64481         3.50381
| 47>    C        7.98832        -5.35628         2.76928
| 48>    O        8.16953        -6.02214         3.76126
| 49>    C        8.61341        -5.33850         1.46358
| 50>    C        7.94171        -4.38162         0.66426
| 51>    C        8.61734        -4.31852        -0.61528
| 52>    O        8.47675        -3.60028        -1.57867
| 53>    N        9.61371        -5.31872        -0.53036
| 54>    C       10.54464        -5.47305        -1.62424
| 55>    C       11.94845        -4.99445        -1.26729
| 56>    C        9.63345        -5.91340         0.71015
| 57>    C       10.50667        -6.91644         1.21658
| 58>    C       11.25581        -7.79957         0.51288
| 59>    C       12.11777        -8.75938         1.10747
| 60>    S       12.85414        -9.97450         0.08672
| 61>    C       12.54928        -8.94019         2.40760
| 62>    C       12.37207        -8.29538         3.72067
| 63>    O       11.73832        -7.32272         4.03905
| 64>    N       13.14506        -9.05232         4.59826
| 65>    C       13.21046        -8.77468         6.01815
| 66>    C       12.01692        -9.37459         6.75237
| 67>    C       13.81171       -10.10184         3.99683
| 68>    O       14.52302       -10.89435         4.56910
| 69>    C       13.46262       -10.00442         2.56710
| 70>    C       13.76409       -10.68173         1.40445
| 71>    C       14.57827       -11.81731         1.15544
| 72>    C       15.67278       -12.26847         1.81759
| 73>    C       16.08898       -13.69629         1.58977
| 74>    O       15.68489       -14.42309         0.71604
| 75>    C       17.02697       -13.97723         2.67813
| 76>    C       17.70894       -15.05463         3.16183
| 77>    S       18.65687       -14.60068         4.55772
| 78>    C       18.13084       -12.95951         4.46444
| 79>    C       17.27257       -12.77839         3.42655
| 80>    C       16.53841       -11.68295         2.82452
| 81>    C       16.80216       -10.35951         3.05008
| 82>    C       17.72534        -9.94677         4.03373
| 83>    N       18.46505        -9.58758         4.83313
| 84>    C       16.23486        -9.29612         2.32732
| 85>    N       15.80680        -8.40082         1.74925
| 86>   Cl       17.70929       -16.64167         2.57204
| 87>    H        1.95748         4.91327        -2.21447
| 88>    H        3.57197         0.78217         1.62320
| 89>    H        3.91711        -2.46890        -4.25591
| 90>    H        4.70435        -4.04119        -3.92062
| 91>    H        6.15233        -1.42613        -4.59184
| 92>    H        5.97054        -2.80765        -5.68341
| 93>    H        6.94130        -2.96023        -4.20883
| 94>    H        6.04527        -3.00987         3.97349
| 95>    H        6.52997        -4.58456         4.64887
| 96>    H        4.26251        -4.18226         2.62219
| 97>    H        4.05415        -4.45285         4.35476
| 98>    H        4.75526        -5.71847         3.34136
| 99>    H       10.14116        -4.85204        -2.43019
|100>    H       10.55326        -6.50996        -1.96925
|101>    H       11.91987        -3.94660        -0.97892
|102>    H       12.59857        -5.09761        -2.13158
|103>    H       12.36797        -5.56823        -0.44474
|104>    H       10.51355        -6.96640         2.29898
|105>    H       11.20888        -7.84330        -0.56491
|106>    H       13.22241        -7.68900         6.14065
|107>    H       14.14634        -9.20074         6.38692
|108>    H       11.09159        -8.94703         6.37359
|109>    H       12.09356        -9.15712         7.81369
|110>    H       11.99258       -10.45367         6.61699
|111>    H       14.24869       -12.45634         0.34002
|112>    H       18.47949       -12.25107         5.18921
|113> *
|114>
|115>                          ****END OF INPUT****

CARTESIAN COORDINATES (ANGSTROEM)
---------------------------------
  C      3.325140    3.262850   -1.702830
  C      2.761720    4.246910   -2.456140
  S      3.515110    4.355280   -4.003490
  C      4.624680    3.057050   -3.628430
  Cl     5.773980    2.523820   -4.747720
  C      4.392950    2.581760   -2.373550
  C      4.960770    1.558830   -1.493960
  O      6.006110    0.967570   -1.609130
  C      4.045520    1.547180   -0.298090
  C      3.137460    2.681890   -0.389500
  C      2.235920    3.120320    0.542560
  C      1.397900    4.227830    0.291460
  N      0.711570    5.128020    0.106470
  C      2.048290    2.560520    1.821680
  N      1.856730    2.141790    2.873310
  C      4.102680    0.624440    0.693090
  C      4.803900   -0.609990    0.564020
  S      5.532340   -1.404140    1.943520
  C      4.948530   -1.403490   -0.548680
  C      4.493110   -1.397980   -1.955490
  O      3.830230   -0.582500   -2.550570
  N      4.945360   -2.595420   -2.474760
  C      4.816040   -2.955470   -3.870260
  C      6.052190   -2.507930   -4.642410
  C      5.595310   -3.413110   -1.550250
  O      5.921870   -4.552080   -1.751400
  C      5.645550   -2.603230   -0.316760
  C      6.077240   -2.762470    0.981460
  C      6.953170   -3.788600    1.436120
  N      7.001320   -4.340180    2.687750
  C      6.093450   -4.085520    3.779130
  C      4.701030   -4.644810    3.503810
  C      7.988320   -5.356280    2.769280
  O      8.169530   -6.022140    3.761260
  C      8.613410   -5.338500    1.463580
  C      7.941710   -4.381620    0.664260
  C      8.617340   -4.318520   -0.615280
  O      8.476750   -3.600280   -1.578670
  N      9.613710   -5.318720   -0.530360
  C     10.544640   -5.473050   -1.624240
  C     11.948450   -4.994450   -1.267290
  C      9.633450   -5.913400    0.710150
  C     10.506670   -6.916440    1.216580
  C     11.255810   -7.799570    0.512880
  C     12.117770   -8.759380    1.107470
  S     12.854140   -9.974500    0.086720
  C     12.549280   -8.940190    2.407600
  C     12.372070   -8.295380    3.720670
  O     11.738320   -7.322720    4.039050
  N     13.145060   -9.052320    4.598260
  C     13.210460   -8.774680    6.018150
  C     12.016920   -9.374590    6.752370
  C     13.811710  -10.101840    3.996830
  O     14.523020  -10.894350    4.569100
  C     13.462620  -10.004420    2.567100
  C     13.764090  -10.681730    1.404450
  C     14.578270  -11.817310    1.155440
  C     15.672780  -12.268470    1.817590
  C     16.088980  -13.696290    1.589770
  O     15.684890  -14.423090    0.716040
  C     17.026970  -13.977230    2.678130
  C     17.708940  -15.054630    3.161830
  S     18.656870  -14.600680    4.557720
  C     18.130840  -12.959510    4.464440
  C     17.272570  -12.778390    3.426550
  C     16.538410  -11.682950    2.824520
  C     16.802160  -10.359510    3.050080
  C     17.725340   -9.946770    4.033730
  N     18.465050   -9.587580    4.833130
  C     16.234860   -9.296120    2.327320
  N     15.806800   -8.400820    1.749250
  Cl    17.709290  -16.641670    2.572040
  H      1.957480    4.913270   -2.214470
  H      3.571970    0.782170    1.623200
  H      3.917110   -2.468900   -4.255910
  H      4.704350   -4.041190   -3.920620
  H      6.152330   -1.426130   -4.591840
  H      5.970540   -2.807650   -5.683410
  H      6.941300   -2.960230   -4.208830
  H      6.045270   -3.009870    3.973490
  H      6.529970   -4.584560    4.648870
  H      4.262510   -4.182260    2.622190
  H      4.054150   -4.452850    4.354760
  H      4.755260   -5.718470    3.341360
  H     10.141160   -4.852040   -2.430190
  H     10.553260   -6.509960   -1.969250
  H     11.919870   -3.946600   -0.978920
  H     12.598570   -5.097610   -2.131580
  H     12.367970   -5.568230   -0.444740
  H     10.513550   -6.966400    2.298980
  H     11.208880   -7.843300   -0.564910
  H     13.222410   -7.689000    6.140650
  H     14.146340   -9.200740    6.386920
  H     11.091590   -8.947030    6.373590
  H     12.093560   -9.157120    7.813690
  H     11.992580  -10.453670    6.616990
  H     14.248690  -12.456340    0.340020
  H     18.479490  -12.251070    5.189210

 Total Charge           Charge          ....    0
 Multiplicity           Mult            ....    1
 Number of Electrons    NEL             ....  544
 Basis Dimension        Dim             .... 1162

ORBITAL ENERGIES
----------------

  NO   OCC          E(Eh)            E(eV)
   0   2.0000    -101.618204     -2765.1719
   1   2.0000    -101.616930     -2765.1372
   2   2.0000     -88.993901     -2421.6472
   3   2.0000     -88.993741     -2421.6428
   4   2.0000     -88.993181     -2421.6276
   5   2.0000     -88.989117     -2421.5170
   6   2.0000     -19.224408      -523.1227
   7   2.0000     -19.224231      -523.1179
   8   2.0000     -19.221271      -523.0374
   9   2.0000     -19.218419      -522.9598
  10   2.0000     -19.217498      -522.9347
  11   2.0000     -19.213207      -522.8179
  12   2.0000     -19.198845      -522.4271
  13   2.0000     -19.196166      -522.3542
  14   2.0000     -14.463419      -393.5696
  15   2.0000     -14.461133      -393.5074
  16   2.0000     -14.459355      -393.4591
  17   2.0000     -14.457617      -393.4118
  18   2.0000     -14.426230      -392.5577
  19   2.0000     -14.425564      -392.5395
  20   2.0000     -14.423042      -392.4709
  21   2.0000     -14.420454      -392.4005
  22   2.0000     -10.405716      -283.1539
  23   2.0000     -10.403302      -283.0882
  24   2.0000     -10.400554      -283.0135
  25   2.0000     -10.396858      -282.9129
  26   2.0000     -10.381012      -282.4817
  27   2.0000     -10.380958      -282.4802
  28   2.0000     -10.379810      -282.4490
  29   2.0000     -10.379162      -282.4314
  30   2.0000     -10.377028      -282.3733
  31   2.0000     -10.374582      -282.3067
  32   2.0000     -10.355547      -281.7887
  33   2.0000     -10.353064      -281.7212
  34   2.0000     -10.352252      -281.6991
  35   2.0000     -10.349194      -281.6159
  36   2.0000     -10.348507      -281.5972
  37   2.0000     -10.348205      -281.5890
  38   2.0000     -10.347255      -281.5631
  39   2.0000     -10.346662      -281.5470
  40   2.0000     -10.344216      -281.4804
  41   2.0000     -10.342791      -281.4417
  42   2.0000     -10.331225      -281.1269
  43   2.0000     -10.330823      -281.1160
  44   2.0000     -10.330071      -281.0955
  45   2.0000     -10.328147      -281.0432
  46   2.0000     -10.328003      -281.0392
  47   2.0000     -10.326210      -280.9905
  48   2.0000     -10.324906      -280.9550
  49   2.0000     -10.322353      -280.8855
  50   2.0000     -10.315961      -280.7116
  51   2.0000     -10.314477      -280.6712
  52   2.0000     -10.313780      -280.6522
  53   2.0000     -10.313749      -280.6514
  54   2.0000     -10.313441      -280.6430
  55   2.0000     -10.312488      -280.6171
  56   2.0000     -10.312284      -280.6115
  57   2.0000     -10.310381      -280.5597
  58   2.0000     -10.309722      -280.5418
  59   2.0000     -10.307870      -280.4914
  60   2.0000     -10.306742      -280.4607
  61   2.0000     -10.305427      -280.4249
  62   2.0000     -10.304637      -280.4034
  63   2.0000     -10.303366      -280.3688
  64   2.0000     -10.301260      -280.3115
  65   2.0000     -10.298898      -280.2473
  66   2.0000     -10.274294      -279.5777
  67   2.0000     -10.271756      -279.5087
  68   2.0000     -10.267160      -279.3836
  69   2.0000     -10.264076      -279.2997
  70   2.0000     -10.261041      -279.2171
  71   2.0000     -10.254301      -279.0337
  72   2.0000      -9.573026      -260.4953
  73   2.0000      -9.571646      -260.4577
  74   2.0000      -8.089617      -220.1297
  75   2.0000      -8.088954      -220.1116
  76   2.0000      -8.088418      -220.0970
  77   2.0000      -8.084622      -219.9938
  78   2.0000      -7.343670      -199.8314
  79   2.0000      -7.342278      -199.7935
  80   2.0000      -7.333052      -199.5425
  81   2.0000      -7.332514      -199.5279
  82   2.0000      -7.331675      -199.5050
  83   2.0000      -7.331166      -199.4912
  84   2.0000      -6.058980      -164.8732
  85   2.0000      -6.058330      -164.8555
  86   2.0000      -6.057848      -164.8424
  87   2.0000      -6.054367      -164.7477
  88   2.0000      -6.053947      -164.7363
  89   2.0000      -6.053733      -164.7304
  90   2.0000      -6.053451      -164.7228
  91   2.0000      -6.051907      -164.6808
  92   2.0000      -6.051184      -164.6611
  93   2.0000      -6.050543      -164.6436
  94   2.0000      -6.049695      -164.6206
  95   2.0000      -6.046696      -164.5390
  96   2.0000      -1.169545       -31.8249
  97   2.0000      -1.162993       -31.6467
  98   2.0000      -1.146199       -31.1897
  99   2.0000      -1.143130       -31.1061
 100   2.0000      -1.141398       -31.0590
 101   2.0000      -1.139695       -31.0127
 102   2.0000      -1.135022       -30.8855
 103   2.0000      -1.132906       -30.8279
 104   2.0000      -1.072776       -29.1917
 105   2.0000      -1.062440       -28.9105
 106   2.0000      -1.060757       -28.8647
 107   2.0000      -1.054866       -28.7044
 108   2.0000      -1.038885       -28.2695
 109   2.0000      -1.038830       -28.2680
 110   2.0000      -1.022087       -27.8124
 111   2.0000      -1.021251       -27.7896
 112   2.0000      -1.014059       -27.5939
 113   2.0000      -1.013460       -27.5776
 114   2.0000      -1.003052       -27.2944
 115   2.0000      -1.001012       -27.2389
 116   2.0000      -0.989631       -26.9292
 117   2.0000      -0.989290       -26.9200
 118   2.0000      -0.956438       -26.0260
 119   2.0000      -0.955946       -26.0126
 120   2.0000      -0.936668       -25.4880
 121   2.0000      -0.930872       -25.3303
 122   2.0000      -0.921237       -25.0681
 123   2.0000      -0.915414       -24.9097
 124   2.0000      -0.906545       -24.6683
 125   2.0000      -0.905880       -24.6503
 126   2.0000      -0.904108       -24.6020
 127   2.0000      -0.892241       -24.2791
 128   2.0000      -0.879725       -23.9385
 129   2.0000      -0.860916       -23.4267
 130   2.0000      -0.849103       -23.1053
 131   2.0000      -0.837204       -22.7815
 132   2.0000      -0.833502       -22.6807
 133   2.0000      -0.833182       -22.6720
 134   2.0000      -0.833139       -22.6709
 135   2.0000      -0.825492       -22.4628
 136   2.0000      -0.814446       -22.1622
 137   2.0000      -0.800801       -21.7909
 138   2.0000      -0.786802       -21.4100
 139   2.0000      -0.780316       -21.2335
 140   2.0000      -0.765473       -20.8296
 141   2.0000      -0.760548       -20.6956
 142   2.0000      -0.756177       -20.5766
 143   2.0000      -0.752224       -20.4690
 144   2.0000      -0.748085       -20.3564
 145   2.0000      -0.748020       -20.3546
 146   2.0000      -0.742109       -20.1938
 147   2.0000      -0.720555       -19.6073
 148   2.0000      -0.713101       -19.4045
 149   2.0000      -0.705840       -19.2069
 150   2.0000      -0.705308       -19.1924
 151   2.0000      -0.696204       -18.9447
 152   2.0000      -0.689816       -18.7709
 153   2.0000      -0.682945       -18.5839
 154   2.0000      -0.678357       -18.4590
 155   2.0000      -0.677059       -18.4237
 156   2.0000      -0.676670       -18.4131
 157   2.0000      -0.674456       -18.3529
 158   2.0000      -0.663782       -18.0624
 159   2.0000      -0.653793       -17.7906
 160   2.0000      -0.646904       -17.6032
 161   2.0000      -0.638350       -17.3704
 162   2.0000      -0.625121       -17.0104
 163   2.0000      -0.620579       -16.8868
 164   2.0000      -0.618054       -16.8181
 165   2.0000      -0.609970       -16.5981
 166   2.0000      -0.606732       -16.5100
 167   2.0000      -0.603014       -16.4088
 168   2.0000      -0.595128       -16.1943
 169   2.0000      -0.588288       -16.0081
 170   2.0000      -0.585104       -15.9215
 171   2.0000      -0.582452       -15.8493
 172   2.0000      -0.580081       -15.7848
 173   2.0000      -0.577759       -15.7216
 174   2.0000      -0.573198       -15.5975
 175   2.0000      -0.568944       -15.4818
 176   2.0000      -0.566370       -15.4117
 177   2.0000      -0.565397       -15.3852
 178   2.0000      -0.563795       -15.3416
 179   2.0000      -0.555842       -15.1252
 180   2.0000      -0.552906       -15.0453
 181   2.0000      -0.550604       -14.9827
 182   2.0000      -0.545069       -14.8321
 183   2.0000      -0.540577       -14.7099
 184   2.0000      -0.538154       -14.6439
 185   2.0000      -0.537364       -14.6224
 186   2.0000      -0.534934       -14.5563
 187   2.0000      -0.533758       -14.5243
 188   2.0000      -0.532581       -14.4923
 189   2.0000      -0.531905       -14.4739
 190   2.0000      -0.528000       -14.3676
 191   2.0000      -0.525990       -14.3129
 192   2.0000      -0.523985       -14.2584
 193   2.0000      -0.521040       -14.1782
 194   2.0000      -0.519794       -14.1443
 195   2.0000      -0.517099       -14.0710
 196   2.0000      -0.515781       -14.0351
 197   2.0000      -0.513651       -13.9772
 198   2.0000      -0.512449       -13.9445
 199   2.0000      -0.510278       -13.8854
 200   2.0000      -0.509754       -13.8711
 201   2.0000      -0.508647       -13.8410
 202   2.0000      -0.505538       -13.7564
 203   2.0000      -0.503819       -13.7096
 204   2.0000      -0.502305       -13.6684
 205   2.0000      -0.497115       -13.5272
 206   2.0000      -0.493547       -13.4301
 207   2.0000      -0.492449       -13.4002
 208   2.0000      -0.490656       -13.3514
 209   2.0000      -0.489548       -13.3213
 210   2.0000      -0.488720       -13.2987
 211   2.0000      -0.481020       -13.0892
 212   2.0000      -0.479099       -13.0369
 213   2.0000      -0.476623       -12.9696
 214   2.0000      -0.475569       -12.9409
 215   2.0000      -0.472063       -12.8455
 216   2.0000      -0.469138       -12.7659
 217   2.0000      -0.466859       -12.7039
 218   2.0000      -0.463661       -12.6169
 219   2.0000      -0.458660       -12.4808
 220   2.0000      -0.457897       -12.4600
 221   2.0000      -0.457683       -12.4542
 222   2.0000      -0.457414       -12.4469
 223   2.0000      -0.457165       -12.4401
 224   2.0000      -0.456330       -12.4174
 225   2.0000      -0.455043       -12.3824
 226   2.0000      -0.453038       -12.3278
 227   2.0000      -0.451834       -12.2950
 228   2.0000      -0.450232       -12.2514
 229   2.0000      -0.449342       -12.2272
 230   2.0000      -0.447837       -12.1863
 231   2.0000      -0.446469       -12.1490
 232   2.0000      -0.443613       -12.0713
 233   2.0000      -0.442857       -12.0507
 234   2.0000      -0.437205       -11.8970
 235   2.0000      -0.435613       -11.8536
 236   2.0000      -0.435112       -11.8400
 237   2.0000      -0.433693       -11.8014
 238   2.0000      -0.433410       -11.7937
 239   2.0000      -0.429542       -11.6884
 240   2.0000      -0.425582       -11.5807
 241   2.0000      -0.423461       -11.5229
 242   2.0000      -0.421349       -11.4655
 243   2.0000      -0.419997       -11.4287
 244   2.0000      -0.419185       -11.4066
 245   2.0000      -0.414967       -11.2918
 246   2.0000      -0.410525       -11.1709
 247   2.0000      -0.404389       -11.0040
 248   2.0000      -0.402835       -10.9617
 249   2.0000      -0.392541       -10.6816
 250   2.0000      -0.376182       -10.2364
 251   2.0000      -0.372446       -10.1348
 252   2.0000      -0.369450       -10.0532
 253   2.0000      -0.366909        -9.9841
 254   2.0000      -0.359312        -9.7774
 255   2.0000      -0.357882        -9.7385
 256   2.0000      -0.354811        -9.6549
 257   2.0000      -0.352964        -9.6046
 258   2.0000      -0.350155        -9.5282
 259   2.0000      -0.346746        -9.4354
 260   2.0000      -0.344818        -9.3830
 261   2.0000      -0.340763        -9.2726
 262   2.0000      -0.339905        -9.2493
 263   2.0000      -0.335880        -9.1398
 264   2.0000      -0.334709        -9.1079
 265   2.0000      -0.332493        -9.0476
 266   2.0000      -0.322912        -8.7869
 267   2.0000      -0.318367        -8.6632
 268   2.0000      -0.312747        -8.5103
 269   2.0000      -0.305547        -8.3143
 270   2.0000      -0.300267        -8.1707
 271   2.0000      -0.249424        -6.7872
 272   0.0000      -0.115429        -3.1410
 273   0.0000      -0.102129        -2.7791
 274   0.0000      -0.084761        -2.3065
 275   0.0000      -0.054393        -1.4801
 276   0.0000      -0.052753        -1.4355

MULLIKEN ATOMIC CHARGES
-----------------------
   0 C :    0.034200
   1 C :   -0.130505
   2 S :    0.188229
   3 C :   -0.168668
   4 Cl:   -0.000149
   5 C :    0.100495
   6 C :    0.148724
   7 O :   -0.130493
   8 C :   -0.067363
   9 C :    0.284831
  10 C :   -0.326803
  11 C :   -0.194436
  12 N :    0.158546
  13 C :   -0.179534
  14 N :    0.157075
  15 C :   -0.004382
  16 C :   -0.143245
  17 S :    0.190506
  18 C :    0.060453
  19 C :    0.203027
  20 O :   -0.181423
  21 N :   -0.303332
  22 C :    0.128975
  23 C :   -0.010615
  24 C :    0.200422
  25 O :   -0.147111
  26 C :    0.040954
  27 C :   -0.216459
  28 C :    0.127695
  29 N :   -0.263015
  30 C :    0.088379
  31 C :   -0.001329
  32 C :    0.155791
  33 O :   -0.170916
  34 C :   -0.049647
  35 C :   -0.021128
  36 C :    0.158394
  37 O :   -0.183997
  38 N :   -0.270865
  39 C :    0.094261
  40 C :   -0.007054
  41 C :    0.111954
  42 C :   -0.028138
  43 C :    0.068285
  44 C :   -0.140459
  45 S :    0.184943
  46 C :    0.019287
  47 C :    0.203115
  48 O :   -0.153768
  49 N :   -0.297141
  50 C :    0.132660
  51 C :   -0.013659
  52 C :    0.192349
  53 O :   -0.169373
  54 C :    0.029149
  55 C :   -0.171038
  56 C :    0.056288
  57 C :   -0.135440
  58 C :    0.124856
  59 O :   -0.127022
  60 C :    0.099537
  61 C :   -0.171420
  62 S :    0.185341
  63 C :   -0.123041
  64 C :    0.008490
  65 C :    0.334977
  66 C :   -0.319328
  67 C :   -0.185347
  68 N :    0.159697
  69 C :   -0.214060
  70 N :    0.174865
  71 Cl:   -0.000592
  72 H :    0.054598
  73 H :    0.029102
  74 H :    0.031776
  75 H :    0.032652
  76 H :    0.025835
  77 H :    0.018707
  78 H :    0.039615
  79 H :    0.027156
  80 H :    0.049934
  81 H :    0.022861
  82 H :    0.028191
  83 H :    0.031783
  84 H :    0.048185
  85 H :    0.025995
  86 H :    0.028004
  87 H :    0.025869
  88 H :    0.033854
  89 H :    0.040551
  90 H :   -0.026234
  91 H :    0.036854
  92 H :    0.035929
  93 H :    0.038612
  94 H :    0.026478
  95 H :    0.023411
  96 H :    0.031253
  97 H :    0.054579
Sum of atomic charges:    0.0000000

LOEWDIN ATOMIC CHARGES
----------------------
   0 C :   -0.056886
   1 C :   -0.149060
   2 S :    0.479821
   3 C :   -0.271191
   4 Cl:    0.194416
   5 C :   -0.106371
   6 C :    0.085395
   7 O :   -0.128436
   8 C :   -0.054137
   9 C :    0.075986
  10 C :   -0.131523
  11 C :   -0.015752
  12 N :   -0.047148
  13 C :   -0.020244
  14 N :   -0.045117
  15 C :    0.035770
  16 C :   -0.144564
  17 S :    0.481820
  18 C :   -0.057113
  19 C :    0.095729
  20 O :   -0.162998
  21 N :   -0.019810
  22 C :    0.043779
  23 C :   -0.059731
  24 C :    0.096833
  25 O :   -0.140479
  26 C :   -0.062533
  27 C :   -0.148062
  28 C :    0.053381
  29 N :   -0.006650
  30 C :    0.029958
  31 C :   -0.061976
  32 C :    0.083153
  33 O :   -0.175686
  34 C :   -0.105583
  35 C :   -0.097604
  36 C :    0.091046
  37 O :   -0.176246
  38 N :   -0.004207
  39 C :    0.034965
  40 C :   -0.062665
  41 C :    0.077386
  42 C :    0.006259
  43 C :   -0.035662
  44 C :   -0.117013
  45 S :    0.477471
  46 C :   -0.085606
  47 C :    0.097101
  48 O :   -0.141521
  49 N :   -0.022658
  50 C :    0.044977
  51 C :   -0.059718
  52 C :    0.086851
  53 O :   -0.159346
  54 C :   -0.065081
  55 C :   -0.151845
  56 C :    0.033972
  57 C :   -0.061690
  58 C :    0.083022
  59 O :   -0.129575
  60 C :   -0.118695
  61 C :   -0.271596
  62 S :    0.476014
  63 C :   -0.148600
  64 C :   -0.050392
  65 C :    0.077024
  66 C :   -0.127064
  67 C :   -0.013894
  68 N :   -0.049044
  69 C :   -0.018705
  70 N :   -0.045558
  71 Cl:    0.192454
  72 H :    0.037840
  73 H :    0.046554
  74 H :    0.031270
  75 H :    0.032237
  76 H :    0.028007
  77 H :    0.027995
  78 H :    0.033235
  79 H :    0.012611
  80 H :    0.040340
  81 H :    0.020464
  82 H :    0.033128
  83 H :    0.032815
  84 H :    0.038708
  85 H :    0.018707
  86 H :    0.032475
  87 H :    0.032482
  88 H :    0.024761
  89 H :    0.050108
  90 H :    0.029207
  91 H :    0.035062
  92 H :    0.033601
  93 H :    0.031819
  94 H :    0.032032
  95 H :    0.027184
  96 H :    0.049114
  97 H :    0.038703

  Mayer bond orders larger than 0.100000
B(  0-C ,  1-C ) :   1.5319 B(  0-C ,  5-C ) :   1.2312 B(  0-C ,  9-C ) :   1.0082
B(  1-C ,  2-S ) :   1.1690 B(  1-C , 72-H ) :   0.9547 B(  2-S ,  3-C ) :   1.1479
B(  3-C ,  4-Cl) :   1.1270 B(  3-C ,  5-C ) :   1.4809 B(  5-C ,  6-C ) :   0.9381
B(  6-C ,  7-O ) :   2.2532 B(  6-C ,  8-C ) :   0.9027 B(  8-C ,  9-C ) :   1.0769
B(  8-C , 15-C ) :   1.7144 B(  9-C , 10-C ) :   1.6577 B( 10-C , 11-C ) :   1.1432
B( 10-C , 13-C ) :   1.1366 B( 11-C , 12-N ) :   2.9930 B( 13-C , 14-N ) :   2.9688
B( 15-C , 16-C ) :   1.0816 B( 15-C , 73-H ) :   0.9286 B( 16-C , 17-S ) :   1.1136
B( 16-C , 18-C ) :   1.5189 B( 17-S , 27-C ) :   1.1338 B( 18-C , 19-C ) :   0.8797
B( 18-C , 26-C ) :   1.2971 B( 19-C , 20-O ) :   2.1344 B( 19-C , 21-N ) :   1.1063
B( 21-N , 22-C ) :   0.9164 B( 21-N , 24-C ) :   1.0509 B( 22-C , 23-C ) :   1.1290
B( 22-C , 74-H ) :   0.9408 B( 22-C , 75-H ) :   0.9390 B( 23-C , 76-H ) :   0.9662
B( 23-C , 77-H ) :   0.9699 B( 23-C , 78-H ) :   0.9657 B( 24-C , 25-O ) :   2.1999
B( 24-C , 26-C ) :   0.8809 B( 26-C , 27-C ) :   1.5227 B( 27-C , 28-C ) :   1.0772
B( 28-C , 29-N ) :   1.2005 B( 28-C , 35-C ) :   1.4261 B( 29-N , 30-C ) :   0.9433
B( 29-N , 32-C ) :   1.0139 B( 30-C , 31-C ) :   1.1145 B( 30-C , 79-H ) :   0.9480
B( 30-C , 80-H ) :   0.9255 B( 31-C , 81-H ) :   0.9676 B( 31-C , 82-H ) :   0.9672
B( 31-C , 83-H ) :   0.9644 B( 32-C , 33-O ) :   2.1516 B( 32-C , 34-C ) :   0.9712
B( 34-C , 35-C ) :   1.2288 B( 34-C , 41-C ) :   1.3639 B( 35-C , 36-C ) :   0.9655
B( 36-C , 37-O ) :   2.1080 B( 36-C , 38-N ) :   1.0345 B( 38-N , 39-C ) :   0.9423
B( 38-N , 41-C ) :   1.1745 B( 39-C , 40-C ) :   1.1160 B( 39-C , 84-H ) :   0.9225
B( 39-C , 85-H ) :   0.9503 B( 40-C , 86-H ) :   0.9623 B( 40-C , 87-H ) :   0.9668
B( 40-C , 88-H ) :   0.9668 B( 41-C , 42-C ) :   1.1700 B( 42-C , 43-C ) :   1.6105
B( 42-C , 89-H ) :   0.9279 B( 43-C , 44-C ) :   1.1338 B( 43-C , 90-H ) :   0.9571
B( 44-C , 45-S ) :   1.1421 B( 44-C , 46-C ) :   1.4822 B( 45-S , 55-C ) :   1.1236
B( 46-C , 47-C ) :   0.8957 B( 46-C , 54-C ) :   1.2863 B( 47-C , 48-O ) :   2.1243
B( 47-C , 49-N ) :   1.0688 B( 49-N , 50-C ) :   0.9156 B( 49-N , 52-C ) :   1.1050
B( 50-C , 51-C ) :   1.1253 B( 50-C , 91-H ) :   0.9418 B( 50-C , 92-H ) :   0.9404
B( 51-C , 93-H ) :   0.9695 B( 51-C , 94-H ) :   0.9704 B( 51-C , 95-H ) :   0.9680
B( 52-C , 53-O ) :   2.1351 B( 52-C , 54-C ) :   0.8813 B( 54-C , 55-C ) :   1.5064
B( 55-C , 56-C ) :   1.0899 B( 56-C , 57-C ) :   1.7340 B( 56-C , 96-H ) :   0.9246
B( 57-C , 58-C ) :   0.9294 B( 57-C , 65-C ) :   1.0270 B( 58-C , 59-O ) :   2.2753
B( 58-C , 60-C ) :   0.9298 B( 60-C , 61-C ) :   1.4740 B( 60-C , 64-C ) :   1.2230
B( 61-C , 62-S ) :   1.1546 B( 61-C , 71-Cl) :   1.1296 B( 62-S , 63-C ) :   1.1554
B( 63-C , 64-C ) :   1.5572 B( 63-C , 97-H ) :   0.9546 B( 64-C , 65-C ) :   1.0136
B( 65-C , 66-C ) :   1.6597 B( 66-C , 67-C ) :   1.1364 B( 66-C , 69-C ) :   1.1688
B( 67-C , 68-N ) :   3.0033 B( 69-C , 70-N ) :   3.0010

-----------------------------------------------------------------------------
         ABSORPTION SPECTRUM VIA TRANSITION ELECTRIC DIPOLE MOMENTS
-----------------------------------------------------------------------------
State   Energy  Wavelength   fosc         T2         TX        TY        TZ
        (cm-1)    (nm)                  (au**2)     (au)      (au)      (au)
-----------------------------------------------------------------------------
   0   14297.5    699.4   1.052491998  24.23444   3.50578  -3.45600   0.00667
   1   18641.5    536.4   0.077136364   1.36224   1.14217  -0.23861  -0.02732
   2   21006.2    476.0   0.015938108   0.24978   0.10240  -0.33002   0.36109
   3   23944.8    417.6   0.120768804   1.66042  -0.58354   1.14783  -0.04883
   4   25232.6    396.3   0.184091276   2.40185   1.36211  -0.65678   0.33933
   5   25616.7    390.4   0.175109759   2.25042  -1.25971   0.70278  -0.41190
   6   26349.7    379.5   0.060914705   0.76107  -0.41409   0.73483   0.22276
   7   26688.9    374.7   0.077471015   0.95562  -0.42755   0.83390  -0.27827
   8   27179.5    367.9   0.205286107   2.48653   0.88481  -1.17240   0.57370
   9   27481.4    363.9   0.009797239   0.11737   0.01375  -0.27867   0.19879
  10   28171.3    355.0   0.258769295   3.02400  -0.80041   1.52360  -0.24900
  11   28750.7    347.8   0.006355985   0.07278   0.18097  -0.01064   0.19979
  12   28969.1    345.2   0.002656016   0.03018   0.03372   0.15897   0.06144
  13   29061.0    344.1   0.036317490   0.41142   0.17474   0.53906  -0.30049
  14   30404.7    328.9   0.018727083   0.20277  -0.14788   0.19933  -0.37573
  15   30636.1    326.4   0.010541057   0.11327  -0.27485   0.18873   0.04591
  16   30727.9    325.4   0.086691189   0.92879   0.11507  -0.88402   0.36614
  17   30900.2    323.6   0.015946384   0.16989   0.14717  -0.32975  -0.19874
  18   31042.0    322.1   0.043524852   0.46160   0.17396  -0.39866  -0.52193
  19   31370.5    318.8   0.102185518   1.07237   0.14682  -0.47132   0.91031
  20   32048.2    312.0   0.072633207   0.74612   0.07237   0.71068  -0.48561
  21   32127.1    311.3   0.026213789   0.26862  -0.05555   0.46452   0.22305
  22   32815.3    304.7   0.045290043   0.45436   0.42377  -0.51626  -0.09090
  23   33438.9    299.1   0.037458261   0.36878   0.10659   0.40138  -0.44308
  24   33553.7    298.0   0.022814664   0.22385  -0.02683  -0.35490   0.31173
  25   33793.6    295.9   0.127857759   1.24557  -0.45448   0.59936  -0.82449
  26   33985.1    294.2   0.062956080   0.60985  -0.14841  -0.19227   0.74220
  27   34271.2    291.8   0.001021402   0.00981  -0.09368  -0.00721   0.03137
  28   34493.2    289.9   0.061835772   0.59018  -0.10572   0.47393  -0.59531
  29   34654.7    288.6   0.024926778   0.23680   0.02351  -0.01855   0.48570
  30   35079.9    285.1   0.053997635   0.50675   0.12489  -0.19857   0.67210
  31   35491.0    281.8   0.025623089   0.23768  -0.07904   0.17365  -0.44864
  32   35714.0    280.0   0.168002680   1.54865   0.11581  -1.23901  -0.00983
  33   36049.5    277.4   0.036989933   0.33780  -0.09016   0.53938  -0.19683
  34   36223.5    276.1   0.122585292   1.11410  -0.10726   0.12723  -1.04231
  35   36435.3    274.5   0.012924198   0.11678   0.15890   0.29289   0.07581
  36   36504.0    273.9   0.128999785   1.16339  -0.91587   0.48214   0.30349
  37   36707.7    272.4   0.426702687   3.82687  -0.49552  -0.58140   1.80092
  38   36812.0    271.7   0.054868440   0.49069   0.13699  -0.68686  -0.01250
  39   36965.7    270.5   0.132664985   1.18150   0.34687  -0.92086   0.46173
  40   37238.6    268.5   0.291349495   2.57570  -0.64297   1.44798  -0.25621
  41   37272.9    268.3   0.183932727   1.62458   0.19828  -1.25117  -0.14084
  42   37593.1    266.0   0.009227793   0.08081   0.12384  -0.14618   0.21001
  43   37998.9    263.2   0.007382177   0.06396  -0.06957   0.11076   0.21644
  44   38038.7    262.9   0.088738192   0.76800  -0.21333   0.44678  -0.72310
  45   38484.0    259.8   0.035222003   0.30131  -0.24672   0.28764   0.39712
  46   38739.1    258.1   0.016455921   0.13985   0.18434  -0.26224   0.19259
  47   38939.7    256.8   0.021857204   0.18479  -0.40012   0.11274  -0.10947
  48   39168.5    255.3   0.060062220   0.50482  -0.26132   0.20575   0.62785
  49   39222.6    255.0   0.031765347   0.26662  -0.26706   0.23910  -0.37166
  50   39861.2    250.9   0.033021029   0.27272  -0.01208   0.11835   0.50850
  51   40067.0    249.6   0.005362053   0.04406  -0.19540   0.05979  -0.04798
  52   40196.0    248.8   0.072101272   0.59052   0.73632   0.04179  -0.21590

FINAL SINGLE POINT ENERGY     -5469.491492898926

DIPOLE MOMENT
-------------
                                X             Y             Z
Electronic contribution:     21.24294      -3.25398     -11.62840
Nuclear contribution   :    -20.79368       1.82913      10.66507
                        -----------------------------------------
Total Dipole Moment    :      0.44926      -1.42485      -0.96333
                        -----------------------------------------
Magnitude (a.u.)       :      1.77765
Magnitude (Debye)      :      4.51843

Rotational constants in cm-1:     0.002596     0.000236     0.000227
Rotational constants in MHz :    77.811971     7.069527     6.799434

                             ****ORCA TERMINATED NORMALLY****
TOTAL RUN TIME: 0 days 0 hours 10 minutes 11 seconds 924 msec
