                         Program Version 4.2.0 -  RELEASE  -
|  1> # ORCA input file
|  2> # SCF done       -190.622293406465          0.000756041566
|  3> ! CAM-B3LYP def2-SVP def2/J RIJCOSX Grid4 TightSCF
|  4> %maxcore 5000
|  5> %tddft
|  6>     Mode sTDDFT
|  7>     Ethresh 5.0
|  8>     maxcore 5000
|  9> end
| 10>
| 11> %pal
| 12>   nprocs 6
| 13>   end
| 14> * xyz 0 1
| 15>    C       -3.36572         5.12798         0.37733
| 16>    C       -3.57871         4.42935        -0.77839
| 17>    C       -4.85927         4.17628        -1.31773
| 18>    N       -5.87394         3.93595        -1.79510
| 19>    C       -2.54611         3.93868        -1.60103
| 20>    N       -1.73588         3.54525        -2.31361
| 21>    C       -4.37168         5.83210         1.15393
| 22>    C       -3.72180         6.77855         2.00265
| 23>    C       -4.43023         7.60613         2.82715
| 24>    C       -5.83993         7.52001         2.84443
| 25>    C       -6.49366         6.56387         2.01175
| 26>    C       -5.73744         5.72122         1.16736
| 27>    C       -7.90110         6.48314         2.04592
| 28>    C       -8.62966         7.30785         2.85911
| 29>    C       -7.98572         8.24975         3.67616
| 30>    C       -6.62099         8.35389         3.66887
| 31>    C       -2.26616         6.67263         1.83740
| 32>    O       -1.39325         7.33464         2.33840
| 33>    C       -2.07069         5.47721         0.94437
| 34>    C       -0.87887         4.85847         0.91814
| 35>    C       -0.56719         3.54367         0.39649
| 36>    C        0.54430         3.32211        -0.42075
| 37>    C        1.49354         4.31773        -0.96679
| 38>    O        1.56229         5.49876        -0.76120
| 39>    N        2.34715         3.60057        -1.81883
| 40>    C        2.04812         2.23602        -1.84529
| 41>    O        2.63465         1.39031        -2.46281
| 42>    C        0.86889         2.07261        -0.94963
| 43>    C        0.13705         0.93172        -0.66726
| 44>    C       -0.95202         1.13251         0.16760
| 45>    C       -1.30668         2.38439         0.67281
| 46>    C       -2.52297         2.19027         1.49800
| 47>    O       -3.17508         2.98459         2.10493
| 48>    O       -2.83799         0.85672         1.45606
| 49>    C       -1.94463         0.15229         0.67694
| 50>    O       -2.02353        -1.01919         0.49925
| 51>    C        3.32329         4.26667        -2.54905
| 52>    C        4.10985         3.71098        -3.48124
| 53>    C        5.06779         4.44955        -4.24479
| 54>    S        5.86631         3.67670        -5.58011
| 55>    C        6.73528         5.12476        -5.99356
| 56>    C        6.41324         6.14697        -5.09572
| 57>    C        5.47649         5.75799        -4.12240
| 58>    C        6.93845         7.45050        -5.11429
| 59>    N        7.33216         8.52736        -5.07447
| 60>    C        7.57836         5.11603        -7.13103
| 61>    C        8.28171         6.17792        -7.60585
| 62>    C        9.06758         6.15702        -8.78471
| 63>    C        9.75901         7.23198        -9.30508
| 64>    C       10.38708         6.84786       -10.52119
| 65>    C       10.04491         5.42478       -10.72168
| 66>    C        9.26495         5.02695        -9.68426
| 67>    C       10.44327         4.60414       -11.78227
| 68>    N       10.75116         3.90173       -12.63799
| 69>    C       11.14024         7.62810       -11.36942
| 70>    C       11.71603         7.25090       -12.61501
| 71>    C       12.36518         8.33529       -13.16479
| 72>    C       12.21815         9.45233       -12.24168
| 73>    C       11.49046         9.04792       -11.16931
| 74>    C       11.15659         9.85597       -10.07705
| 75>    N       10.90713        10.55404        -9.19954
| 76>    C       13.06554         8.44042       -14.39740
| 77>    C       13.16798         7.43649       -15.30313
| 78>    C       13.84475         7.49360       -16.55172
| 79>    S       13.50350         6.22919       -17.71768
| 80>    C       14.54638         6.92918       -18.89716
| 81>    C       15.12924         8.04851       -18.41760
| 82>    C       14.75790         8.38892       -17.09169
| 83>    C       15.44740         9.55146       -16.57904
| 84>    C       16.27806        10.14178       -17.43606
| 85>    S       16.29282         9.27552       -19.01228
| 86>    O       17.57929         8.69133       -19.26116
| 87>    O       15.70298        10.07267       -20.04939
| 88>    H       -3.92070         8.31856         3.45875
| 89>    H       -6.25451         4.99557         0.55931
| 90>    H       -8.39223         5.75864         1.41339
| 91>    H       -9.70687         7.23944         2.87740
| 92>    H       -8.57657         8.89170         4.31198
| 93>    H       -6.12053         9.07676         4.29614
| 94>    H       -0.04781         5.40215         1.35785
| 95>    H        0.38516        -0.03490        -1.07387
| 96>    H        3.36199         5.31867        -2.30109
| 97>    H        4.02159         2.65997        -3.71155
| 98>    H        5.12406         6.42772        -3.35893
| 99>    H        7.62426         4.16976        -7.65334
|100>    H        8.24382         7.12308        -7.08274
|101>    H        9.80639         8.21152        -8.87111
|102>    H        8.85937         4.04168        -9.54955
|103>    H       11.63791         6.27145       -13.04190
|104>    H       12.62550        10.43414       -12.40107
|105>    H       13.50569         9.40409       -14.60834
|106>    H       12.66270         6.50172       -15.10126
|107>    H       14.66050         6.46990       -19.85817
|108>    H       15.30506         9.88623       -15.56391
|109>    H       16.89330        11.00224       -17.26669
|110> *
|111>
|112>                          ****END OF INPUT****

CARTESIAN COORDINATES (ANGSTROEM)
---------------------------------
  C     -3.365720    5.127980    0.377330
  C     -3.578710    4.429350   -0.778390
  C     -4.859270    4.176280   -1.317730
  N     -5.873940    3.935950   -1.795100
  C     -2.546110    3.938680   -1.601030
  N     -1.735880    3.545250   -2.313610
  C     -4.371680    5.832100    1.153930
  C     -3.721800    6.778550    2.002650
  C     -4.430230    7.606130    2.827150
  C     -5.839930    7.520010    2.844430
  C     -6.493660    6.563870    2.011750
  C     -5.737440    5.721220    1.167360
  C     -7.901100    6.483140    2.045920
  C     -8.629660    7.307850    2.859110
  C     -7.985720    8.249750    3.676160
  C     -6.620990    8.353890    3.668870
  C     -2.266160    6.672630    1.837400
  O     -1.393250    7.334640    2.338400
  C     -2.070690    5.477210    0.944370
  C     -0.878870    4.858470    0.918140
  C     -0.567190    3.543670    0.396490
  C      0.544300    3.322110   -0.420750
  C      1.493540    4.317730   -0.966790
  O      1.562290    5.498760   -0.761200
  N      2.347150    3.600570   -1.818830
  C      2.048120    2.236020   -1.845290
  O      2.634650    1.390310   -2.462810
  C      0.868890    2.072610   -0.949630
  C      0.137050    0.931720   -0.667260
  C     -0.952020    1.132510    0.167600
  C     -1.306680    2.384390    0.672810
  C     -2.522970    2.190270    1.498000
  O     -3.175080    2.984590    2.104930
  O     -2.837990    0.856720    1.456060
  C     -1.944630    0.152290    0.676940
  O     -2.023530   -1.019190    0.499250
  C      3.323290    4.266670   -2.549050
  C      4.109850    3.710980   -3.481240
  C      5.067790    4.449550   -4.244790
  S      5.866310    3.676700   -5.580110
  C      6.735280    5.124760   -5.993560
  C      6.413240    6.146970   -5.095720
  C      5.476490    5.757990   -4.122400
  C      6.938450    7.450500   -5.114290
  N      7.332160    8.527360   -5.074470
  C      7.578360    5.116030   -7.131030
  C      8.281710    6.177920   -7.605850
  C      9.067580    6.157020   -8.784710
  C      9.759010    7.231980   -9.305080
  C     10.387080    6.847860  -10.521190
  C     10.044910    5.424780  -10.721680
  C      9.264950    5.026950   -9.684260
  C     10.443270    4.604140  -11.782270
  N     10.751160    3.901730  -12.637990
  C     11.140240    7.628100  -11.369420
  C     11.716030    7.250900  -12.615010
  C     12.365180    8.335290  -13.164790
  C     12.218150    9.452330  -12.241680
  C     11.490460    9.047920  -11.169310
  C     11.156590    9.855970  -10.077050
  N     10.907130   10.554040   -9.199540
  C     13.065540    8.440420  -14.397400
  C     13.167980    7.436490  -15.303130
  C     13.844750    7.493600  -16.551720
  S     13.503500    6.229190  -17.717680
  C     14.546380    6.929180  -18.897160
  C     15.129240    8.048510  -18.417600
  C     14.757900    8.388920  -17.091690
  C     15.447400    9.551460  -16.579040
  C     16.278060   10.141780  -17.436060
  S     16.292820    9.275520  -19.012280
  O     17.579290    8.691330  -19.261160
  O     15.702980   10.072670  -20.049390
  H     -3.920700    8.318560    3.458750
  H     -6.254510    4.995570    0.559310
  H     -8.392230    5.758640    1.413390
  H     -9.706870    7.239440    2.877400
  H     -8.576570    8.891700    4.311980
  H     -6.120530    9.076760    4.296140
  H     -0.047810    5.402150    1.357850
  H      0.385160   -0.034900   -1.073870
  H      3.361990    5.318670   -2.301090
  H      4.021590    2.659970   -3.711550
  H      5.124060    6.427720   -3.358930
  H      7.624260    4.169760   -7.653340
  H      8.243820    7.123080   -7.082740
  H      9.806390    8.211520   -8.871110
  H      8.859370    4.041680   -9.549550
  H     11.637910    6.271450  -13.041900
  H     12.625500   10.434140  -12.401070
  H     13.505690    9.404090  -14.608340
  H     12.662700    6.501720  -15.101260
  H     14.660500    6.469900  -19.858170
  H     15.305060    9.886230  -15.563910
  H     16.893300   11.002240  -17.266690

 Total Charge           Charge          ....    0
 Multiplicity           Mult            ....    1
 Number of Electrons    NEL             ....  512
 Basis Dimension        Dim             .... 1144

ORBITAL ENERGIES
----------------

  NO   OCC          E(Eh)            E(eV)
   0   2.0000     -89.146222     -2425.7920
   1   2.0000     -88.982249     -2421.3301
   2   2.0000     -88.980563     -2421.2842
   3   2.0000     -19.308370      -525.4075
   4   2.0000     -19.257233      -524.0159
   5   2.0000     -19.254951      -523.9539
   6   2.0000     -19.253173      -523.9055
   7   2.0000     -19.251034      -523.8473
   8   2.0000     -19.230794      -523.2965
   9   2.0000     -19.194259      -522.3023
  10   2.0000     -19.193821      -522.2904
  11   2.0000     -14.502439      -394.6314
  12   2.0000     -14.436613      -392.8402
  13   2.0000     -14.430213      -392.6661
  14   2.0000     -14.413766      -392.2185
  15   2.0000     -14.413648      -392.2153
  16   2.0000     -14.407829      -392.0569
  17   2.0000     -10.451766      -284.4070
  18   2.0000     -10.447501      -284.2909
  19   2.0000     -10.430948      -283.8405
  20   2.0000     -10.430801      -283.8365
  21   2.0000     -10.381219      -282.4873
  22   2.0000     -10.361317      -281.9458
  23   2.0000     -10.359116      -281.8859
  24   2.0000     -10.358413      -281.8667
  25   2.0000     -10.346553      -281.5440
  26   2.0000     -10.345077      -281.5039
  27   2.0000     -10.342852      -281.4433
  28   2.0000     -10.342316      -281.4287
  29   2.0000     -10.341582      -281.4087
  30   2.0000     -10.340257      -281.3727
  31   2.0000     -10.339427      -281.3501
  32   2.0000     -10.335411      -281.2408
  33   2.0000     -10.334446      -281.2146
  34   2.0000     -10.331948      -281.1466
  35   2.0000     -10.331371      -281.1309
  36   2.0000     -10.327968      -281.0383
  37   2.0000     -10.327542      -281.0267
  38   2.0000     -10.324860      -280.9537
  39   2.0000     -10.324447      -280.9425
  40   2.0000     -10.323610      -280.9197
  41   2.0000     -10.323017      -280.9036
  42   2.0000     -10.320314      -280.8300
  43   2.0000     -10.319145      -280.7982
  44   2.0000     -10.316552      -280.7277
  45   2.0000     -10.316007      -280.7128
  46   2.0000     -10.315230      -280.6917
  47   2.0000     -10.314067      -280.6600
  48   2.0000     -10.313416      -280.6423
  49   2.0000     -10.310622      -280.5663
  50   2.0000     -10.310180      -280.5543
  51   2.0000     -10.309777      -280.5433
  52   2.0000     -10.309624      -280.5391
  53   2.0000     -10.309572      -280.5377
  54   2.0000     -10.309375      -280.5324
  55   2.0000     -10.308387      -280.5055
  56   2.0000     -10.308163      -280.4994
  57   2.0000     -10.307933      -280.4931
  58   2.0000     -10.307738      -280.4878
  59   2.0000     -10.305186      -280.4184
  60   2.0000     -10.305017      -280.4138
  61   2.0000     -10.304940      -280.4117
  62   2.0000     -10.302661      -280.3497
  63   2.0000     -10.301613      -280.3211
  64   2.0000     -10.301546      -280.3193
  65   2.0000     -10.301479      -280.3175
  66   2.0000     -10.299271      -280.2574
  67   2.0000     -10.295395      -280.1519
  68   2.0000     -10.294821      -280.1363
  69   2.0000     -10.294571      -280.1295
  70   2.0000     -10.294095      -280.1166
  71   2.0000     -10.285088      -279.8715
  72   2.0000     -10.284585      -279.8578
  73   2.0000      -8.211027      -223.4334
  74   2.0000      -8.078131      -219.8171
  75   2.0000      -8.076287      -219.7670
  76   2.0000      -6.180272      -168.1737
  77   2.0000      -6.179518      -168.1532
  78   2.0000      -6.179334      -168.1482
  79   2.0000      -6.047237      -164.5537
  80   2.0000      -6.045664      -164.5109
  81   2.0000      -6.043219      -164.4444
  82   2.0000      -6.041247      -164.3907
  83   2.0000      -6.040399      -164.3676
  84   2.0000      -6.038417      -164.3137
  85   2.0000      -1.257386       -34.2152
  86   2.0000      -1.200927       -32.6789
  87   2.0000      -1.198920       -32.6243
  88   2.0000      -1.184054       -32.2197
  89   2.0000      -1.175520       -31.9875
  90   2.0000      -1.147173       -31.2162
  91   2.0000      -1.146152       -31.1884
  92   2.0000      -1.091892       -29.7119
  93   2.0000      -1.078701       -29.3529
  94   2.0000      -1.038853       -28.2686
  95   2.0000      -1.026090       -27.9213
  96   2.0000      -1.019450       -27.7407
  97   2.0000      -1.018154       -27.7054
  98   2.0000      -1.016964       -27.6730
  99   2.0000      -1.014332       -27.6014
 100   2.0000      -1.009350       -27.4658
 101   2.0000      -1.002525       -27.2801
 102   2.0000      -0.992935       -27.0191
 103   2.0000      -0.988260       -26.8919
 104   2.0000      -0.983966       -26.7751
 105   2.0000      -0.982827       -26.7441
 106   2.0000      -0.953914       -25.9573
 107   2.0000      -0.946908       -25.7667
 108   2.0000      -0.944421       -25.6990
 109   2.0000      -0.932927       -25.3862
 110   2.0000      -0.926530       -25.2122
 111   2.0000      -0.919439       -25.0192
 112   2.0000      -0.905470       -24.6391
 113   2.0000      -0.899412       -24.4742
 114   2.0000      -0.892108       -24.2755
 115   2.0000      -0.874981       -23.8095
 116   2.0000      -0.873916       -23.7805
 117   2.0000      -0.868792       -23.6410
 118   2.0000      -0.861822       -23.4514
 119   2.0000      -0.853341       -23.2206
 120   2.0000      -0.839308       -22.8387
 121   2.0000      -0.838821       -22.8255
 122   2.0000      -0.834832       -22.7169
 123   2.0000      -0.823162       -22.3994
 124   2.0000      -0.814630       -22.1672
 125   2.0000      -0.810296       -22.0493
 126   2.0000      -0.800848       -21.7922
 127   2.0000      -0.786392       -21.3988
 128   2.0000      -0.783625       -21.3235
 129   2.0000      -0.773982       -21.0611
 130   2.0000      -0.769492       -20.9389
 131   2.0000      -0.755750       -20.5650
 132   2.0000      -0.748025       -20.3548
 133   2.0000      -0.739534       -20.1237
 134   2.0000      -0.731463       -19.9041
 135   2.0000      -0.730969       -19.8907
 136   2.0000      -0.719606       -19.5815
 137   2.0000      -0.718023       -19.5384
 138   2.0000      -0.710851       -19.3432
 139   2.0000      -0.700587       -19.0639
 140   2.0000      -0.694108       -18.8876
 141   2.0000      -0.691894       -18.8274
 142   2.0000      -0.682484       -18.5713
 143   2.0000      -0.678118       -18.4525
 144   2.0000      -0.674735       -18.3605
 145   2.0000      -0.670970       -18.2580
 146   2.0000      -0.661447       -17.9989
 147   2.0000      -0.653880       -17.7930
 148   2.0000      -0.650242       -17.6940
 149   2.0000      -0.647439       -17.6177
 150   2.0000      -0.641733       -17.4625
 151   2.0000      -0.634026       -17.2527
 152   2.0000      -0.631721       -17.1900
 153   2.0000      -0.624078       -16.9820
 154   2.0000      -0.621936       -16.9237
 155   2.0000      -0.619811       -16.8659
 156   2.0000      -0.617378       -16.7997
 157   2.0000      -0.615350       -16.7445
 158   2.0000      -0.610190       -16.6041
 159   2.0000      -0.603278       -16.4160
 160   2.0000      -0.597342       -16.2545
 161   2.0000      -0.591514       -16.0959
 162   2.0000      -0.584527       -15.9058
 163   2.0000      -0.577842       -15.7239
 164   2.0000      -0.574899       -15.6438
 165   2.0000      -0.570733       -15.5304
 166   2.0000      -0.567771       -15.4498
 167   2.0000      -0.564255       -15.3541
 168   2.0000      -0.561278       -15.2731
 169   2.0000      -0.558977       -15.2106
 170   2.0000      -0.556775       -15.1506
 171   2.0000      -0.556060       -15.1312
 172   2.0000      -0.552668       -15.0389
 173   2.0000      -0.549554       -14.9541
 174   2.0000      -0.545244       -14.8368
 175   2.0000      -0.544625       -14.8200
 176   2.0000      -0.542963       -14.7748
 177   2.0000      -0.539329       -14.6759
 178   2.0000      -0.536513       -14.5993
 179   2.0000      -0.532335       -14.4856
 180   2.0000      -0.531650       -14.4669
 181   2.0000      -0.531303       -14.4575
 182   2.0000      -0.527271       -14.3478
 183   2.0000      -0.525327       -14.2949
 184   2.0000      -0.524638       -14.2761
 185   2.0000      -0.523902       -14.2561
 186   2.0000      -0.521909       -14.2019
 187   2.0000      -0.519518       -14.1368
 188   2.0000      -0.518142       -14.0994
 189   2.0000      -0.516935       -14.0665
 190   2.0000      -0.512894       -13.9565
 191   2.0000      -0.511389       -13.9156
 192   2.0000      -0.507460       -13.8087
 193   2.0000      -0.506077       -13.7711
 194   2.0000      -0.505684       -13.7604
 195   2.0000      -0.501642       -13.6504
 196   2.0000      -0.500858       -13.6290
 197   2.0000      -0.499092       -13.5810
 198   2.0000      -0.497009       -13.5243
 199   2.0000      -0.495203       -13.4752
 200   2.0000      -0.492797       -13.4097
 201   2.0000      -0.490662       -13.3516
 202   2.0000      -0.484894       -13.1946
 203   2.0000      -0.478710       -13.0264
 204   2.0000      -0.478144       -13.0110
 205   2.0000      -0.476890       -12.9768
 206   2.0000      -0.470362       -12.7992
 207   2.0000      -0.465173       -12.6580
 208   2.0000      -0.459874       -12.5138
 209   2.0000      -0.458668       -12.4810
 210   2.0000      -0.457461       -12.4481
 211   2.0000      -0.451846       -12.2954
 212   2.0000      -0.448443       -12.2028
 213   2.0000      -0.448052       -12.1921
 214   2.0000      -0.446830       -12.1589
 215   2.0000      -0.446207       -12.1419
 216   2.0000      -0.445436       -12.1209
 217   2.0000      -0.443527       -12.0690
 218   2.0000      -0.441747       -12.0205
 219   2.0000      -0.441104       -12.0030
 220   2.0000      -0.439748       -11.9661
 221   2.0000      -0.438005       -11.9187
 222   2.0000      -0.436794       -11.8858
 223   2.0000      -0.435627       -11.8540
 224   2.0000      -0.429473       -11.6865
 225   2.0000      -0.427406       -11.6303
 226   2.0000      -0.426891       -11.6163
 227   2.0000      -0.420915       -11.4537
 228   2.0000      -0.418772       -11.3954
 229   2.0000      -0.417884       -11.3712
 230   2.0000      -0.411288       -11.1917
 231   2.0000      -0.409244       -11.1361
 232   2.0000      -0.405715       -11.0401
 233   2.0000      -0.400847       -10.9076
 234   2.0000      -0.399630       -10.8745
 235   2.0000      -0.398415       -10.8414
 236   2.0000      -0.392421       -10.6783
 237   2.0000      -0.390891       -10.6367
 238   2.0000      -0.390084       -10.6147
 239   2.0000      -0.387540       -10.5455
 240   2.0000      -0.378984       -10.3127
 241   2.0000      -0.378135       -10.2896
 242   2.0000      -0.371141       -10.0993
 243   2.0000      -0.362175        -9.8553
 244   2.0000      -0.360288        -9.8039
 245   2.0000      -0.352234        -9.5848
 246   2.0000      -0.342775        -9.3274
 247   2.0000      -0.342017        -9.3068
 248   2.0000      -0.338788        -9.2189
 249   2.0000      -0.327444        -8.9102
 250   2.0000      -0.326222        -8.8770
 251   2.0000      -0.318778        -8.6744
 252   2.0000      -0.313190        -8.5223
 253   2.0000      -0.304743        -8.2925
 254   2.0000      -0.280853        -7.6424
 255   2.0000      -0.257313        -7.0018
 256   0.0000      -0.129280        -3.5179
 257   0.0000      -0.111386        -3.0310
 258   0.0000      -0.105436        -2.8691
 259   0.0000      -0.071002        -1.9321
 260   0.0000      -0.061390        -1.6705

MULLIKEN ATOMIC CHARGES
-----------------------
   0 C :    0.304736
   1 C :   -0.353975
   2 C :   -0.181395
   3 N :    0.170243
   4 C :   -0.178136
   5 N :    0.155971
   6 C :    0.044878
   7 C :    0.015403
   8 C :   -0.075487
   9 C :    0.093928
  10 C :    0.092631
  11 C :   -0.071228
  12 C :   -0.013639
  13 C :    0.035813
  14 C :    0.037893
  15 C :   -0.013889
  16 C :    0.136791
  17 O :   -0.120808
  18 C :   -0.092275
  19 C :    0.007803
  20 C :   -0.032117
  21 C :    0.020883
  22 C :    0.195077
  23 O :   -0.131989
  24 N :   -0.235359
  25 C :    0.217950
  26 O :   -0.131334
  27 C :    0.017061
  28 C :   -0.058744
  29 C :   -0.008991
  30 C :   -0.072389
  31 C :    0.250225
  32 O :   -0.108589
  33 O :   -0.227426
  34 C :    0.233171
  35 O :   -0.084561
  36 C :    0.077762
  37 C :    0.063475
  38 C :   -0.075780
  39 S :    0.160996
  40 C :   -0.058871
  41 C :   -0.076886
  42 C :    0.015376
  43 C :   -0.173580
  44 N :    0.124935
  45 C :    0.048284
  46 C :   -0.009682
  47 C :    0.109660
  48 C :   -0.108063
  49 C :    0.119965
  50 C :   -0.102735
  51 C :   -0.004297
  52 C :   -0.165668
  53 N :    0.127224
  54 C :    0.111737
  55 C :   -0.121067
  56 C :    0.108345
  57 C :   -0.007743
  58 C :   -0.090612
  59 C :   -0.179935
  60 N :    0.139718
  61 C :   -0.009768
  62 C :    0.075033
  63 C :   -0.140226
  64 S :    0.155171
  65 C :   -0.134811
  66 C :    0.017891
  67 C :    0.068912
  68 C :    0.065218
  69 C :   -0.021101
  70 S :    0.768629
  71 O :   -0.448148
  72 O :   -0.447662
  73 H :   -0.006881
  74 H :   -0.001453
  75 H :   -0.006880
  76 H :    0.001018
  77 H :   -0.000883
  78 H :   -0.013674
  79 H :    0.048198
  80 H :    0.025101
  81 H :    0.036257
  82 H :    0.021527
  83 H :   -0.001073
  84 H :   -0.018102
  85 H :    0.011041
  86 H :    0.012084
  87 H :   -0.001011
  88 H :   -0.000004
  89 H :   -0.004627
  90 H :   -0.027263
  91 H :    0.004133
  92 H :    0.045595
  93 H :    0.007676
  94 H :    0.049406
Sum of atomic charges:   -0.0000000

LOEWDIN ATOMIC CHARGES
----------------------
   0 C :    0.079974
   1 C :   -0.135832
   2 C :   -0.019568
   3 N :   -0.038234
   4 C :   -0.014300
   5 N :   -0.058451
   6 C :   -0.018974
   7 C :   -0.055678
   8 C :    0.038101
   9 C :   -0.005549
  10 C :   -0.003019
  11 C :    0.027361
  12 C :   -0.003272
  13 C :   -0.009311
  14 C :   -0.007992
  15 C :   -0.007586
  16 C :    0.088970
  17 O :   -0.122233
  18 C :   -0.044631
  19 C :    0.055033
  20 C :    0.020348
  21 C :   -0.019883
  22 C :    0.104189
  23 O :   -0.122368
  24 N :   -0.009455
  25 C :    0.105066
  26 O :   -0.121577
  27 C :   -0.014960
  28 C :    0.052775
  29 C :   -0.036337
  30 C :   -0.047131
  31 C :    0.106838
  32 O :   -0.100256
  33 O :   -0.053382
  34 C :    0.106598
  35 O :   -0.083952
  36 C :    0.041016
  37 C :   -0.060121
  38 C :   -0.159966
  39 S :    0.470690
  40 C :   -0.146431
  41 C :   -0.096994
  42 C :   -0.027594
  43 C :   -0.029993
  44 N :   -0.048862
  45 C :   -0.034465
  46 C :    0.000384
  47 C :   -0.013658
  48 C :   -0.020999
  49 C :    0.036589
  50 C :   -0.077372
  51 C :    0.052452
  52 C :   -0.028744
  53 N :   -0.066249
  54 C :    0.035657
  55 C :   -0.029733
  56 C :   -0.016416
  57 C :    0.048302
  58 C :   -0.079065
  59 C :   -0.033338
  60 N :   -0.057792
  61 C :   -0.021284
  62 C :   -0.010360
  63 C :   -0.159181
  64 S :    0.468861
  65 C :   -0.152826
  66 C :   -0.203797
  67 C :   -0.074845
  68 C :   -0.004988
  69 C :   -0.146749
  70 S :    1.164819
  71 O :   -0.492748
  72 O :   -0.493542
  73 H :    0.041378
  74 H :    0.040663
  75 H :    0.035829
  76 H :    0.035215
  77 H :    0.034538
  78 H :    0.033327
  79 H :    0.057176
  80 H :    0.055863
  81 H :    0.035887
  82 H :    0.036077
  83 H :    0.039748
  84 H :    0.028564
  85 H :    0.044700
  86 H :    0.038712
  87 H :    0.034698
  88 H :    0.030926
  89 H :    0.035630
  90 H :    0.027861
  91 H :    0.037658
  92 H :    0.038112
  93 H :    0.036751
  94 H :    0.038709

  Mayer bond orders larger than 0.100000
B(  0-C ,  1-C ) :   1.6658 B(  0-C ,  6-C ) :   1.0194 B(  0-C , 18-C ) :   0.9829
B(  1-C ,  2-C ) :   1.1284 B(  1-C ,  4-C ) :   1.1757 B(  2-C ,  3-N ) :   2.9948
B(  4-C ,  5-N ) :   2.9902 B(  6-C ,  7-C ) :   1.2104 B(  6-C , 11-C ) :   1.4497
B(  7-C ,  8-C ) :   1.4650 B(  7-C , 16-C ) :   0.9254 B(  8-C ,  9-C ) :   1.1942
B(  8-C , 73-H ) :   1.0155 B(  9-C , 10-C ) :   1.2503 B(  9-C , 15-C ) :   1.2433
B( 10-C , 11-C ) :   1.2143 B( 10-C , 12-C ) :   1.2384 B( 11-C , 74-H ) :   0.9922
B( 12-C , 13-C ) :   1.4931 B( 12-C , 75-H ) :   0.9973 B( 13-C , 14-C ) :   1.2583
B( 13-C , 76-H ) :   0.9879 B( 14-C , 15-C ) :   1.4933 B( 14-C , 77-H ) :   0.9884
B( 15-C , 78-H ) :   0.9976 B( 16-C , 17-O ) :   2.2940 B( 16-C , 18-C ) :   0.9102
B( 18-C , 19-C ) :   1.8216 B( 19-C , 20-C ) :   0.9952 B( 19-C , 79-H ) :   0.9257
B( 20-C , 21-C ) :   1.4270 B( 20-C , 30-C ) :   1.3528 B( 21-C , 22-C ) :   0.8901
B( 21-C , 27-C ) :   1.3844 B( 22-C , 23-O ) :   2.1879 B( 22-C , 24-N ) :   1.0378
B( 24-N , 25-C ) :   1.0274 B( 24-N , 36-C ) :   1.0189 B( 25-C , 26-O ) :   2.2139
B( 25-C , 27-C ) :   0.8756 B( 27-C , 28-C ) :   1.3447 B( 28-C , 29-C ) :   1.3229
B( 28-C , 80-H ) :   1.0241 B( 29-C , 30-C ) :   1.3639 B( 29-C , 34-C ) :   0.8843
B( 30-C , 31-C ) :   0.9123 B( 31-C , 32-O ) :   2.2279 B( 31-C , 33-O ) :   1.0747
B( 33-O , 34-C ) :   1.0309 B( 34-C , 35-O ) :   2.3160 B( 36-C , 37-C ) :   1.7461
B( 36-C , 81-H ) :   0.9694 B( 37-C , 38-C ) :   1.0814 B( 37-C , 82-H ) :   0.9490
B( 38-C , 39-S ) :   1.1341 B( 38-C , 42-C ) :   1.4967 B( 39-S , 40-C ) :   1.1333
B( 40-C , 41-C ) :   1.4468 B( 40-C , 45-C ) :   1.1528 B( 41-C , 42-C ) :   1.3031
B( 41-C , 43-C ) :   1.1160 B( 42-C , 83-H ) :   0.9977 B( 43-C , 44-N ) :   2.9701
B( 45-C , 46-C ) :   1.6285 B( 45-C , 84-H ) :   0.9458 B( 46-C , 47-C ) :   1.1387
B( 46-C , 85-H ) :   0.9653 B( 47-C , 48-C ) :   1.5065 B( 47-C , 51-C ) :   1.0391
B( 48-C , 49-C ) :   1.1223 B( 48-C , 86-H ) :   1.0096 B( 49-C , 50-C ) :   1.1012
B( 49-C , 54-C ) :   1.3966 B( 50-C , 51-C ) :   1.6876 B( 50-C , 52-C ) :   1.0882
B( 51-C , 87-H ) :   1.0131 B( 52-C , 53-N ) :   2.9649 B( 54-C , 55-C ) :   1.1398
B( 54-C , 58-C ) :   1.1062 B( 55-C , 56-C ) :   1.5381 B( 55-C , 88-H ) :   0.9930
B( 56-C , 57-C ) :   1.0340 B( 56-C , 61-C ) :   1.1218 B( 57-C , 58-C ) :   1.6700
B( 57-C , 89-H ) :   1.0227 B( 58-C , 59-C ) :   1.0862 B( 59-C , 60-N ) :   2.9708
B( 61-C , 62-C ) :   1.6659 B( 61-C , 90-H ) :   0.9709 B( 62-C , 63-C ) :   1.1275
B( 62-C , 91-H ) :   0.9545 B( 63-C , 64-S ) :   1.1396 B( 63-C , 67-C ) :   1.4675
B( 64-S , 65-C ) :   1.1689 B( 65-C , 66-C ) :   1.6231 B( 65-C , 92-H ) :   0.9775
B( 66-C , 67-C ) :   1.2414 B( 66-C , 70-S ) :   0.7696 B( 67-C , 68-C ) :   1.0798
B( 68-C , 69-C ) :   1.7660 B( 68-C , 93-H ) :   0.9882 B( 69-C , 70-S ) :   0.8742
B( 69-C , 94-H ) :   0.9644 B( 70-S , 71-O ) :   1.7334 B( 70-S , 72-O ) :   1.7355

-----------------------------------------------------------------------------
         ABSORPTION SPECTRUM VIA TRANSITION ELECTRIC DIPOLE MOMENTS
-----------------------------------------------------------------------------
State   Energy  Wavelength   fosc         T2         TX        TY        TZ
        (cm-1)    (nm)                  (au**2)     (au)      (au)      (au)
-----------------------------------------------------------------------------
   0   12809.9    780.6   0.939411946  24.14266  -2.94008  -1.56697   3.61154
   1   16442.5    608.2   0.004238049   0.08485  -0.26724  -0.08077   0.08313
   2   20369.3    490.9   0.002758536   0.04458  -0.00662   0.20746   0.03872
   3   21841.9    457.8   0.450961785   6.79711  -1.89851  -0.32662   1.75673
   4   22714.1    440.3   0.388113173   5.62520  -1.32789  -0.40994   1.92194
   5   24522.9    407.8   0.194604887   2.61251  -0.81243  -0.36419   1.34901
   6   24844.1    402.5   0.058460342   0.77466  -0.52304   0.27134   0.65381
   7   27361.1    365.5   0.034368159   0.41352  -0.08776   0.09616   0.62974
   8   27747.0    360.4   0.018580619   0.22045   0.35014   0.29456   0.10533
   9   28250.4    354.0   0.774056608   9.02035  -1.91081  -0.35787   2.28935
  10   28612.7    349.5   0.066196960   0.76165  -0.81206  -0.18330   0.26195
  11   28858.8    346.5   0.023402206   0.26697   0.28259  -0.24408  -0.35712
  12   29712.9    336.6   0.008861181   0.09818  -0.15486   0.22890  -0.14766
  13   30205.8    331.1   0.372981397   4.06512  -1.06329  -0.35908   1.67499
  14   30292.3    330.1   0.064065097   0.69625   0.66447  -0.21542  -0.45642
  15   30789.2    324.8   0.064143293   0.68585  -0.33323   0.74758  -0.12621
  16   31374.0    318.7   0.094366967   0.99021   0.26520  -0.78795  -0.54681
  17   31711.5    315.3   0.067571809   0.70149  -0.08042  -0.77655  -0.30330
  18   32152.6    311.0   0.182345146   1.86704  -1.22683   0.56763  -0.19933
  19   32651.1    306.3   0.013728803   0.13842   0.08819   0.36133  -0.00930
  20   32740.3    305.4   0.028095233   0.28250  -0.24663   0.25796   0.39387
  21   33008.3    303.0   0.103741805   1.03468  -0.38884   0.56483   0.75130
  22   33500.1    298.5   0.299823369   2.94642   0.93155  -1.09158  -0.94186
  23   33872.5    295.2   0.477162918   4.63762   1.62153  -0.94000  -1.06050
  24   34169.0    292.7   0.087988158   0.84775   0.82598  -0.08420  -0.39801
  25   34387.2    290.8   0.014123159   0.13521  -0.21253  -0.29499   0.05495
  26   34501.1    289.8   0.038702857   0.36931   0.26606  -0.50105  -0.21787
  27   34689.0    288.3   0.057742540   0.54800  -0.65535   0.13820   0.31530
  28   35307.7    283.2   0.017612758   0.16422  -0.04510  -0.34199   0.21268
  29   35710.9    280.0   0.023994862   0.22120  -0.25450  -0.38196   0.10266
  30   35829.5    279.1   0.048784148   0.44824  -0.43397  -0.28727   0.42118
  31   36257.4    275.8   0.011212725   0.10181   0.09883  -0.18104  -0.24345
  32   36571.9    273.4   0.062073412   0.55877   0.38085  -0.33807  -0.54721
  33   36677.0    272.7   0.000354570   0.00318   0.00128  -0.05035  -0.02541
  34   36888.5    271.1   0.000722820   0.00645  -0.06965  -0.03756   0.01373
  35   37164.3    269.1   0.036561950   0.32388   0.00687  -0.52666  -0.21554
  36   37220.3    268.7   0.004356717   0.03853   0.16673  -0.00879  -0.10324
  37   37455.6    267.0   0.001569991   0.01380  -0.07764  -0.06392  -0.06070
  38   37545.6    266.3   0.008710128   0.07637  -0.08353   0.25381   0.07053
  39   38482.0    259.9   0.000163226   0.00140   0.01535   0.02770  -0.01984
  40   38786.8    257.8   0.010157788   0.08622   0.14285  -0.22167  -0.12912
  41   38900.9    257.1   0.015084771   0.12766  -0.19281   0.17527   0.24447
  42   39045.4    256.1   0.069732269   0.58795   0.27955   0.07248  -0.71031
  43   39185.9    255.2   0.035163104   0.29542   0.26458  -0.38112  -0.28312
  44   39268.2    254.7   0.006525716   0.05471   0.18819   0.12065  -0.06885
  45   39408.5    253.8   0.070894356   0.59224   0.66684  -0.13530  -0.35952
  46   39645.2    252.2   0.047062206   0.39080   0.59245  -0.17683  -0.09237
  47   39801.1    251.2   0.027422381   0.22682   0.02262  -0.24770  -0.40614
  48   39950.4    250.3   0.006281402   0.05176  -0.12797   0.08879  -0.16584
  49   40029.6    249.8   0.119841541   0.98560   0.34647  -0.82713  -0.42594
  50   40097.4    249.4   0.126595236   1.03939  -0.47613  -0.43671  -0.78865
  51   40284.5    248.2   0.138108140   1.12864  -1.04081  -0.01770  -0.21223

FINAL SINGLE POINT ENERGY     -4267.675027844576

DIPOLE MOMENT
-------------
                                X             Y             Z
Electronic contribution:     -2.38472     -20.23478       4.12965
Nuclear contribution   :     -0.40115      19.62836      -0.75850
                        -----------------------------------------
Total Dipole Moment    :     -2.78587      -0.60642       3.37115
                        -----------------------------------------
Magnitude (a.u.)       :      4.41514
Magnitude (Debye)      :     11.22239

Rotational constants in cm-1:     0.002345     0.000148     0.000144
Rotational constants in MHz :    70.315144     4.424822     4.319065

                             ****ORCA TERMINATED NORMALLY****
TOTAL RUN TIME: 0 days 0 hours 8 minutes 52 seconds 820 msec
