                         Program Version 4.2.0 -  RELEASE  -
|  1> # ORCA input file
|  2> # SCF done       -174.245952822542          0.000336407506
|  3> ! CAM-B3LYP def2-SVP def2/J RIJCOSX Grid4 TightSCF
|  4> %maxcore 5000
|  5> %tddft
|  6>     Mode sTDDFT
|  7>     Ethresh 5.0
|  8>     maxcore 5000
|  9> end
| 10>
| 11> %pal
| 12>   nprocs 6
| 13>   end
| 14> * xyz 0 1
| 15>    C        1.76547        -3.30517         0.54392
| 16>    S        0.71551        -3.58996        -0.77226
| 17>    C        1.70908        -4.31197         1.48250
| 18>    C        2.42953        -4.41089         2.69419
| 19>    C        2.25651        -5.48259         3.52579
| 20>    O        2.92395        -5.62557         4.71294
| 21>    C        3.82307        -4.61950         5.10566
| 22>    C        1.33353        -6.52622         3.16435
| 23>    O        1.05800        -7.64588         3.88555
| 24>    C        1.69549        -7.94530         5.10593
| 25>    C        0.62874        -6.43521         1.98681
| 26>    C        0.78774        -5.34407         1.12054
| 27>    C        0.15176        -5.09577        -0.10389
| 28>    C       -0.81095        -5.89101        -0.75661
| 29>    C       -1.40548        -5.58011        -1.93936
| 30>    C       -2.37734        -6.38244        -2.57359
| 31>    O       -2.79179        -7.56462        -2.04732
| 32>    C       -3.73947        -8.09362        -2.86924
| 33>    C       -3.93238        -7.22878        -3.94902
| 34>    C       -3.06595        -6.14252        -3.76368
| 35>    O       -2.91526        -5.06515        -4.56707
| 36>    O       -4.77585        -7.35284        -5.01125
| 37>    C       -4.36172        -9.32345        -2.57830
| 38>    C       -4.05663       -10.11006        -1.50354
| 39>    C       -4.69739       -11.33028        -1.23282
| 40>    C       -4.36921       -12.11420        -0.15889
| 41>    C       -4.91593       -13.34162         0.24282
| 42>    S       -4.44484       -13.93069         1.81225
| 43>    C       -5.51335       -15.30433         1.75607
| 44>    C       -6.15128       -15.35807         0.48911
| 45>    C       -5.81794       -14.25457        -0.35624
| 46>    C       -6.33075       -14.20923        -1.66311
| 47>    C       -7.14558       -15.21394        -2.10826
| 48>    F       -7.61165       -15.17815        -3.36856
| 49>    C       -7.45250       -16.30773        -1.28363
| 50>    F       -8.21397       -17.30676        -1.76838
| 51>    C       -6.95910       -16.39246        -0.01024
| 52>    C       -5.61193       -16.10912         2.89295
| 53>    C       -6.62817       -17.00029         3.16010
| 54>    C       -6.70684       -17.83752         4.26587
| 55>    C       -7.79055       -18.68515         4.44677
| 56>    C       -8.05746       -19.60542         5.47713
| 57>    C       -9.23753       -20.29129         5.32838
| 58>    C       -9.94978       -19.93666         4.17191
| 59>    S       -9.08860       -18.71542         3.27331
| 60>    C      -11.16674       -20.36706         3.65352
| 61>    C      -12.11553       -21.29982         4.10411
| 62>    C      -13.20452       -21.41047         3.28231
| 63>    C      -13.16811       -20.56521         2.14572
| 64>    S      -11.69076       -19.63404         2.15991
| 65>    C      -14.11769       -20.47045         1.15405
| 66>    C      -14.09493       -19.61129         0.03892
| 67>    S      -15.35858       -19.74919        -1.18149
| 68>    C      -14.73911       -18.48257        -2.16804
| 69>    C      -13.60385       -17.95394        -1.60194
| 70>    C      -13.24923       -18.58885        -0.36953
| 71>    O      -12.14502       -18.01150         0.14953
| 72>    C      -11.78710       -17.03564        -0.72178
| 73>    N      -10.65097       -16.26666        -0.39331
| 74>    O      -10.37832       -15.33855        -1.13527
| 75>    O      -10.02546       -16.56255         0.60552
| 76>    C      -12.62358       -16.94286        -1.80344
| 77>    H        2.36668        -2.41819         0.56211
| 78>    H        3.11427        -3.61571         2.93881
| 79>    H        4.64716        -4.51488         4.39275
| 80>    H        4.21788        -4.94265         6.06786
| 81>    H        3.32004        -3.65472         5.22581
| 82>    H        1.27523        -8.90375         5.41156
| 83>    H        1.48323        -7.19577         5.87114
| 84>    H        2.77644        -8.04456         4.98701
| 85>    H       -0.05464        -7.23433         1.75073
| 86>    H       -1.09012        -6.81110        -0.26320
| 87>    H       -1.15590        -4.66685        -2.45983
| 88>    H       -3.51918        -5.16558        -5.31407
| 89>    H       -5.27252        -8.17422        -4.93404
| 90>    H       -5.12939        -9.64888        -3.26956
| 91>    H       -3.27714        -9.77775        -0.83268
| 92>    H       -5.49341       -11.61811        -1.90117
| 93>    H       -3.60409       -11.72836         0.50564
| 94>    H       -6.07212       -13.41928        -2.34489
| 95>    H       -7.18645       -17.26976         0.56866
| 96>    H       -4.84617       -15.96437         3.64592
| 97>    H       -7.47016       -17.02932         2.48413
| 98>    H       -5.91117       -17.85049         4.99842
| 99>    H       -7.38047       -19.74319         6.30243
|100>    H       -9.59978       -21.03168         6.01978
|101>    H      -11.98261       -21.86127         5.01218
|102>    H      -14.03505       -22.07041         3.46236
|103>    H      -14.97307       -21.12863         1.22274
|104>    H      -15.23840       -18.21383        -3.07463
|105>    H      -12.53408       -16.24943        -2.61340
|106> *
|107>
|108>                          ****END OF INPUT****

CARTESIAN COORDINATES (ANGSTROEM)
---------------------------------
  C      1.765470   -3.305170    0.543920
  S      0.715510   -3.589960   -0.772260
  C      1.709080   -4.311970    1.482500
  C      2.429530   -4.410890    2.694190
  C      2.256510   -5.482590    3.525790
  O      2.923950   -5.625570    4.712940
  C      3.823070   -4.619500    5.105660
  C      1.333530   -6.526220    3.164350
  O      1.058000   -7.645880    3.885550
  C      1.695490   -7.945300    5.105930
  C      0.628740   -6.435210    1.986810
  C      0.787740   -5.344070    1.120540
  C      0.151760   -5.095770   -0.103890
  C     -0.810950   -5.891010   -0.756610
  C     -1.405480   -5.580110   -1.939360
  C     -2.377340   -6.382440   -2.573590
  O     -2.791790   -7.564620   -2.047320
  C     -3.739470   -8.093620   -2.869240
  C     -3.932380   -7.228780   -3.949020
  C     -3.065950   -6.142520   -3.763680
  O     -2.915260   -5.065150   -4.567070
  O     -4.775850   -7.352840   -5.011250
  C     -4.361720   -9.323450   -2.578300
  C     -4.056630  -10.110060   -1.503540
  C     -4.697390  -11.330280   -1.232820
  C     -4.369210  -12.114200   -0.158890
  C     -4.915930  -13.341620    0.242820
  S     -4.444840  -13.930690    1.812250
  C     -5.513350  -15.304330    1.756070
  C     -6.151280  -15.358070    0.489110
  C     -5.817940  -14.254570   -0.356240
  C     -6.330750  -14.209230   -1.663110
  C     -7.145580  -15.213940   -2.108260
  F     -7.611650  -15.178150   -3.368560
  C     -7.452500  -16.307730   -1.283630
  F     -8.213970  -17.306760   -1.768380
  C     -6.959100  -16.392460   -0.010240
  C     -5.611930  -16.109120    2.892950
  C     -6.628170  -17.000290    3.160100
  C     -6.706840  -17.837520    4.265870
  C     -7.790550  -18.685150    4.446770
  C     -8.057460  -19.605420    5.477130
  C     -9.237530  -20.291290    5.328380
  C     -9.949780  -19.936660    4.171910
  S     -9.088600  -18.715420    3.273310
  C    -11.166740  -20.367060    3.653520
  C    -12.115530  -21.299820    4.104110
  C    -13.204520  -21.410470    3.282310
  C    -13.168110  -20.565210    2.145720
  S    -11.690760  -19.634040    2.159910
  C    -14.117690  -20.470450    1.154050
  C    -14.094930  -19.611290    0.038920
  S    -15.358580  -19.749190   -1.181490
  C    -14.739110  -18.482570   -2.168040
  C    -13.603850  -17.953940   -1.601940
  C    -13.249230  -18.588850   -0.369530
  O    -12.145020  -18.011500    0.149530
  C    -11.787100  -17.035640   -0.721780
  N    -10.650970  -16.266660   -0.393310
  O    -10.378320  -15.338550   -1.135270
  O    -10.025460  -16.562550    0.605520
  C    -12.623580  -16.942860   -1.803440
  H      2.366680   -2.418190    0.562110
  H      3.114270   -3.615710    2.938810
  H      4.647160   -4.514880    4.392750
  H      4.217880   -4.942650    6.067860
  H      3.320040   -3.654720    5.225810
  H      1.275230   -8.903750    5.411560
  H      1.483230   -7.195770    5.871140
  H      2.776440   -8.044560    4.987010
  H     -0.054640   -7.234330    1.750730
  H     -1.090120   -6.811100   -0.263200
  H     -1.155900   -4.666850   -2.459830
  H     -3.519180   -5.165580   -5.314070
  H     -5.272520   -8.174220   -4.934040
  H     -5.129390   -9.648880   -3.269560
  H     -3.277140   -9.777750   -0.832680
  H     -5.493410  -11.618110   -1.901170
  H     -3.604090  -11.728360    0.505640
  H     -6.072120  -13.419280   -2.344890
  H     -7.186450  -17.269760    0.568660
  H     -4.846170  -15.964370    3.645920
  H     -7.470160  -17.029320    2.484130
  H     -5.911170  -17.850490    4.998420
  H     -7.380470  -19.743190    6.302430
  H     -9.599780  -21.031680    6.019780
  H    -11.982610  -21.861270    5.012180
  H    -14.035050  -22.070410    3.462360
  H    -14.973070  -21.128630    1.222740
  H    -15.238400  -18.213830   -3.074630
  H    -12.534080  -16.249430   -2.613400

 Total Charge           Charge          ....    0
 Multiplicity           Mult            ....    1
 Number of Electrons    NEL             ....  474
 Basis Dimension        Dim             .... 1033

ORBITAL ENERGIES
----------------

  NO   OCC          E(Eh)            E(eV)
   0   2.0000     -88.966461     -2420.9005
   1   2.0000     -88.952388     -2420.5175
   2   2.0000     -88.944734     -2420.3093
   3   2.0000     -88.929802     -2419.9029
   4   2.0000     -88.926860     -2419.8229
   5   2.0000     -24.773359      -674.1174
   6   2.0000     -24.772482      -674.0935
   7   2.0000     -19.299335      -525.1616
   8   2.0000     -19.272928      -524.4430
   9   2.0000     -19.258780      -524.0580
  10   2.0000     -19.245028      -523.6838
  11   2.0000     -19.244318      -523.6645
  12   2.0000     -19.241382      -523.5846
  13   2.0000     -19.239049      -523.5211
  14   2.0000     -19.228737      -523.2405
  15   2.0000     -14.651273      -398.6814
  16   2.0000     -10.381423      -282.4929
  17   2.0000     -10.351561      -281.6803
  18   2.0000     -10.349668      -281.6288
  19   2.0000     -10.338959      -281.3374
  20   2.0000     -10.330902      -281.1181
  21   2.0000     -10.327078      -281.0141
  22   2.0000     -10.324706      -280.9495
  23   2.0000     -10.323350      -280.9126
  24   2.0000     -10.320456      -280.8339
  25   2.0000     -10.317502      -280.7535
  26   2.0000     -10.315450      -280.6977
  27   2.0000     -10.312379      -280.6141
  28   2.0000     -10.306156      -280.4447
  29   2.0000     -10.303383      -280.3693
  30   2.0000     -10.302928      -280.3569
  31   2.0000     -10.299885      -280.2741
  32   2.0000     -10.299164      -280.2545
  33   2.0000     -10.298143      -280.2267
  34   2.0000     -10.295701      -280.1603
  35   2.0000     -10.292668      -280.0777
  36   2.0000     -10.292616      -280.0763
  37   2.0000     -10.291733      -280.0523
  38   2.0000     -10.280458      -279.7455
  39   2.0000     -10.280410      -279.7442
  40   2.0000     -10.280218      -279.7390
  41   2.0000     -10.278620      -279.6955
  42   2.0000     -10.278388      -279.6892
  43   2.0000     -10.277496      -279.6649
  44   2.0000     -10.277279      -279.6590
  45   2.0000     -10.276809      -279.6462
  46   2.0000     -10.276230      -279.6304
  47   2.0000     -10.275929      -279.6223
  48   2.0000     -10.273376      -279.5528
  49   2.0000     -10.273283      -279.5503
  50   2.0000     -10.271934      -279.5135
  51   2.0000     -10.271622      -279.5050
  52   2.0000     -10.271555      -279.5032
  53   2.0000     -10.267575      -279.3949
  54   2.0000     -10.265270      -279.3322
  55   2.0000     -10.264458      -279.3101
  56   2.0000     -10.264414      -279.3089
  57   2.0000     -10.263720      -279.2900
  58   2.0000     -10.262661      -279.2612
  59   2.0000     -10.262329      -279.2522
  60   2.0000     -10.261745      -279.2363
  61   2.0000     -10.251839      -278.9667
  62   2.0000      -8.061414      -219.3622
  63   2.0000      -8.047834      -218.9927
  64   2.0000      -8.040008      -218.7797
  65   2.0000      -8.026190      -218.4037
  66   2.0000      -8.023534      -218.3315
  67   2.0000      -6.030782      -164.1059
  68   2.0000      -6.026482      -163.9889
  69   2.0000      -6.023666      -163.9123
  70   2.0000      -6.016766      -163.7245
  71   2.0000      -6.012891      -163.6191
  72   2.0000      -6.010494      -163.5539
  73   2.0000      -6.008971      -163.5124
  74   2.0000      -6.004867      -163.4007
  75   2.0000      -6.002906      -163.3474
  76   2.0000      -5.995849      -163.1553
  77   2.0000      -5.993252      -163.0847
  78   2.0000      -5.991726      -163.0431
  79   2.0000      -5.989039      -162.9700
  80   2.0000      -5.987255      -162.9215
  81   2.0000      -5.984315      -162.8415
  82   2.0000      -1.321840       -35.9691
  83   2.0000      -1.293189       -35.1895
  84   2.0000      -1.278817       -34.7984
  85   2.0000      -1.223111       -33.2826
  86   2.0000      -1.192280       -32.4436
  87   2.0000      -1.152061       -31.3492
  88   2.0000      -1.149868       -31.2895
  89   2.0000      -1.136837       -30.9349
  90   2.0000      -1.131363       -30.7859
  91   2.0000      -1.126570       -30.6555
  92   2.0000      -0.988807       -26.9068
  93   2.0000      -0.987584       -26.8735
  94   2.0000      -0.983507       -26.7626
  95   2.0000      -0.975109       -26.5341
  96   2.0000      -0.962118       -26.1806
  97   2.0000      -0.929614       -25.2961
  98   2.0000      -0.928676       -25.2706
  99   2.0000      -0.914883       -24.8952
 100   2.0000      -0.911189       -24.7947
 101   2.0000      -0.901186       -24.5225
 102   2.0000      -0.891825       -24.2678
 103   2.0000      -0.886136       -24.1130
 104   2.0000      -0.877553       -23.8794
 105   2.0000      -0.873188       -23.7607
 106   2.0000      -0.865726       -23.5576
 107   2.0000      -0.852289       -23.1920
 108   2.0000      -0.843504       -22.9529
 109   2.0000      -0.838506       -22.8169
 110   2.0000      -0.831484       -22.6258
 111   2.0000      -0.828084       -22.5333
 112   2.0000      -0.821452       -22.3528
 113   2.0000      -0.816052       -22.2059
 114   2.0000      -0.811822       -22.0908
 115   2.0000      -0.804471       -21.8908
 116   2.0000      -0.796244       -21.6669
 117   2.0000      -0.786916       -21.4131
 118   2.0000      -0.777733       -21.1632
 119   2.0000      -0.764053       -20.7909
 120   2.0000      -0.755149       -20.5486
 121   2.0000      -0.743632       -20.2353
 122   2.0000      -0.731254       -19.8984
 123   2.0000      -0.720418       -19.6036
 124   2.0000      -0.717987       -19.5374
 125   2.0000      -0.701855       -19.0984
 126   2.0000      -0.697516       -18.9804
 127   2.0000      -0.694514       -18.8987
 128   2.0000      -0.689620       -18.7655
 129   2.0000      -0.688435       -18.7333
 130   2.0000      -0.680036       -18.5047
 131   2.0000      -0.669580       -18.2202
 132   2.0000      -0.660153       -17.9637
 133   2.0000      -0.655023       -17.8241
 134   2.0000      -0.652332       -17.7508
 135   2.0000      -0.648367       -17.6430
 136   2.0000      -0.644559       -17.5393
 137   2.0000      -0.636814       -17.3286
 138   2.0000      -0.631190       -17.1756
 139   2.0000      -0.625293       -17.0151
 140   2.0000      -0.623792       -16.9743
 141   2.0000      -0.619847       -16.8669
 142   2.0000      -0.616528       -16.7766
 143   2.0000      -0.610006       -16.5991
 144   2.0000      -0.606771       -16.5111
 145   2.0000      -0.603670       -16.4267
 146   2.0000      -0.601266       -16.3613
 147   2.0000      -0.593755       -16.1569
 148   2.0000      -0.592376       -16.1194
 149   2.0000      -0.589326       -16.0364
 150   2.0000      -0.584252       -15.8983
 151   2.0000      -0.582864       -15.8605
 152   2.0000      -0.579716       -15.7749
 153   2.0000      -0.567505       -15.4426
 154   2.0000      -0.566348       -15.4111
 155   2.0000      -0.562298       -15.3009
 156   2.0000      -0.557952       -15.1826
 157   2.0000      -0.556878       -15.1534
 158   2.0000      -0.554390       -15.0857
 159   2.0000      -0.553401       -15.0588
 160   2.0000      -0.548318       -14.9205
 161   2.0000      -0.546540       -14.8721
 162   2.0000      -0.540164       -14.6986
 163   2.0000      -0.532145       -14.4804
 164   2.0000      -0.529746       -14.4151
 165   2.0000      -0.528696       -14.3865
 166   2.0000      -0.523193       -14.2368
 167   2.0000      -0.520874       -14.1737
 168   2.0000      -0.520236       -14.1563
 169   2.0000      -0.519340       -14.1320
 170   2.0000      -0.514828       -14.0092
 171   2.0000      -0.512562       -13.9475
 172   2.0000      -0.508132       -13.8270
 173   2.0000      -0.507363       -13.8061
 174   2.0000      -0.502127       -13.6636
 175   2.0000      -0.492750       -13.4084
 176   2.0000      -0.489998       -13.3335
 177   2.0000      -0.487019       -13.2525
 178   2.0000      -0.486490       -13.2381
 179   2.0000      -0.484531       -13.1848
 180   2.0000      -0.482971       -13.1423
 181   2.0000      -0.480158       -13.0658
 182   2.0000      -0.478485       -13.0202
 183   2.0000      -0.476451       -12.9649
 184   2.0000      -0.475490       -12.9387
 185   2.0000      -0.471838       -12.8394
 186   2.0000      -0.470769       -12.8103
 187   2.0000      -0.466119       -12.6837
 188   2.0000      -0.464885       -12.6502
 189   2.0000      -0.462719       -12.5912
 190   2.0000      -0.460944       -12.5429
 191   2.0000      -0.456697       -12.4274
 192   2.0000      -0.456120       -12.4117
 193   2.0000      -0.451518       -12.2864
 194   2.0000      -0.450564       -12.2605
 195   2.0000      -0.441652       -12.0180
 196   2.0000      -0.440097       -11.9757
 197   2.0000      -0.438992       -11.9456
 198   2.0000      -0.438694       -11.9375
 199   2.0000      -0.428319       -11.6551
 200   2.0000      -0.427030       -11.6201
 201   2.0000      -0.422411       -11.4944
 202   2.0000      -0.419796       -11.4232
 203   2.0000      -0.419374       -11.4118
 204   2.0000      -0.418439       -11.3863
 205   2.0000      -0.416626       -11.3370
 206   2.0000      -0.411789       -11.2054
 207   2.0000      -0.410511       -11.1706
 208   2.0000      -0.407482       -11.0881
 209   2.0000      -0.406008       -11.0480
 210   2.0000      -0.405787       -11.0420
 211   2.0000      -0.398479       -10.8432
 212   2.0000      -0.398066       -10.8319
 213   2.0000      -0.393899       -10.7186
 214   2.0000      -0.386658       -10.5215
 215   2.0000      -0.382139       -10.3985
 216   2.0000      -0.377704       -10.2778
 217   2.0000      -0.376391       -10.2421
 218   2.0000      -0.371593       -10.1116
 219   2.0000      -0.370943       -10.0939
 220   2.0000      -0.366878        -9.9833
 221   2.0000      -0.351548        -9.5661
 222   2.0000      -0.348940        -9.4951
 223   2.0000      -0.333625        -9.0784
 224   2.0000      -0.327250        -8.9049
 225   2.0000      -0.318214        -8.6590
 226   2.0000      -0.317437        -8.6379
 227   2.0000      -0.311266        -8.4700
 228   2.0000      -0.307223        -8.3600
 229   2.0000      -0.298727        -8.1288
 230   2.0000      -0.291279        -7.9261
 231   2.0000      -0.279069        -7.5939
 232   2.0000      -0.267401        -7.2764
 233   2.0000      -0.260513        -7.0889
 234   2.0000      -0.231946        -6.3116
 235   2.0000      -0.204821        -5.5735
 236   2.0000      -0.179747        -4.8912
 237   0.0000      -0.086766        -2.3610
 238   0.0000      -0.059753        -1.6260
 239   0.0000      -0.046126        -1.2552
 240   0.0000      -0.027673        -0.7530
 241   0.0000      -0.001076        -0.0293

MULLIKEN ATOMIC CHARGES
-----------------------
   0 C :   -0.131158
   1 S :    0.127590
   2 C :    0.105192
   3 C :   -0.148841
   4 C :    0.186254
   5 O :   -0.333557
   6 C :    0.185403
   7 C :    0.172481
   8 O :   -0.309489
   9 C :    0.209755
  10 C :   -0.117889
  11 C :    0.177469
  12 C :   -0.126789
  13 C :    0.001573
  14 C :   -0.049491
  15 C :    0.083233
  16 O :   -0.229286
  17 C :    0.115921
  18 C :    0.077894
  19 C :    0.082602
  20 O :   -0.177945
  21 O :   -0.201503
  22 C :   -0.071720
  23 C :    0.013899
  24 C :   -0.003830
  25 C :    0.042597
  26 C :   -0.114434
  27 S :    0.145862
  28 C :   -0.121217
  29 C :    0.126112
  30 C :    0.132190
  31 C :   -0.132300
  32 C :    0.241091
  33 F :   -0.182912
  34 C :    0.211900
  35 F :   -0.192543
  36 C :   -0.092714
  37 C :    0.041435
  38 C :   -0.042986
  39 C :    0.010024
  40 C :   -0.029560
  41 C :    0.034730
  42 C :    0.016476
  43 C :   -0.029250
  44 S :    0.058734
  45 C :   -0.034038
  46 C :    0.036123
  47 C :    0.021193
  48 C :   -0.026546
  49 S :    0.071129
  50 C :    0.046403
  51 C :   -0.226049
  52 S :    0.138916
  53 C :   -0.142915
  54 C :    0.126619
  55 C :    0.190992
  56 O :   -0.194102
  57 C :    0.254648
  58 N :    0.283296
  59 O :   -0.251795
  60 O :   -0.230095
  61 C :   -0.081624
  62 H :    0.006249
  63 H :   -0.047705
  64 H :    0.023993
  65 H :    0.033313
  66 H :    0.023626
  67 H :    0.021477
  68 H :    0.015874
  69 H :    0.015386
  70 H :   -0.033401
  71 H :   -0.007047
  72 H :    0.000340
  73 H :    0.190982
  74 H :    0.191424
  75 H :   -0.037231
  76 H :   -0.003137
  77 H :   -0.017173
  78 H :   -0.020135
  79 H :   -0.026837
  80 H :   -0.013837
  81 H :   -0.019444
  82 H :    0.036955
  83 H :   -0.018985
  84 H :   -0.016272
  85 H :   -0.018102
  86 H :   -0.018321
  87 H :   -0.018584
  88 H :   -0.026825
  89 H :    0.027908
  90 H :    0.012356
Sum of atomic charges:   -0.0000000

LOEWDIN ATOMIC CHARGES
----------------------
   0 C :   -0.205495
   1 S :    0.462542
   2 C :   -0.054505
   3 C :   -0.075621
   4 C :    0.032099
   5 O :   -0.103183
   6 C :    0.077177
   7 C :    0.044638
   8 O :   -0.105104
   9 C :    0.074934
  10 C :   -0.048664
  11 C :   -0.045549
  12 C :   -0.189156
  13 C :   -0.033004
  14 C :   -0.056061
  15 C :    0.010880
  16 O :   -0.002372
  17 C :   -0.016251
  18 C :   -0.016545
  19 C :   -0.014202
  20 O :   -0.051975
  21 O :   -0.062717
  22 C :   -0.054584
  23 C :   -0.027295
  24 C :   -0.028775
  25 C :   -0.057344
  26 C :   -0.167748
  27 S :    0.466905
  28 C :   -0.176065
  29 C :   -0.038297
  30 C :   -0.043124
  31 C :   -0.043848
  32 C :    0.066465
  33 F :   -0.060442
  34 C :    0.058349
  35 F :   -0.064576
  36 C :   -0.028196
  37 C :   -0.041001
  38 C :   -0.046267
  39 C :   -0.046505
  40 C :   -0.154280
  41 C :   -0.034720
  42 C :   -0.042401
  43 C :   -0.172652
  44 S :    0.393703
  45 C :   -0.192542
  46 C :   -0.030917
  47 C :   -0.046502
  48 C :   -0.142079
  49 S :    0.405347
  50 C :   -0.099905
  51 C :   -0.194185
  52 S :    0.465548
  53 C :   -0.196466
  54 C :   -0.080189
  55 C :    0.004445
  56 O :   -0.001535
  57 C :    0.027129
  58 N :    0.277944
  59 O :   -0.208922
  60 O :   -0.191180
  61 C :   -0.007712
  62 H :    0.019028
  63 H :    0.027768
  64 H :    0.015750
  65 H :    0.027448
  66 H :    0.015847
  67 H :    0.020039
  68 H :    0.011699
  69 H :    0.011750
  70 H :    0.031169
  71 H :    0.033768
  72 H :    0.032000
  73 H :    0.101835
  74 H :    0.098071
  75 H :    0.023108
  76 H :    0.031026
  77 H :    0.022893
  78 H :    0.027701
  79 H :    0.034994
  80 H :    0.038845
  81 H :    0.027564
  82 H :    0.023035
  83 H :    0.030731
  84 H :    0.031455
  85 H :    0.030209
  86 H :    0.030639
  87 H :    0.029700
  88 H :    0.031095
  89 H :    0.026685
  90 H :    0.046703

  Mayer bond orders larger than 0.100000
B(  0-C ,  1-S ) :   1.1794 B(  0-C ,  2-C ) :   1.4369 B(  0-C , 12-C ) :   0.1046
B(  0-C , 62-H ) :   0.9686 B(  1-S , 12-C ) :   1.1415 B(  2-C ,  3-C ) :   1.1158
B(  2-C , 11-C ) :   1.2014 B(  3-C ,  4-C ) :   1.4706 B(  3-C , 63-H ) :   1.0055
B(  4-C ,  5-O ) :   1.1169 B(  4-C ,  7-C ) :   1.1512 B(  5-O ,  6-C ) :   0.9668
B(  6-C , 64-H ) :   0.9678 B(  6-C , 65-H ) :   0.9779 B(  6-C , 66-H ) :   0.9677
B(  7-C ,  8-O ) :   1.1757 B(  7-C , 10-C ) :   1.5364 B(  8-O ,  9-C ) :   0.9461
B(  9-C , 67-H ) :   0.9772 B(  9-C , 68-H ) :   0.9742 B(  9-C , 69-H ) :   0.9741
B( 10-C , 11-C ) :   1.1656 B( 10-C , 70-H ) :   1.0023 B( 11-C , 12-C ) :   1.3308
B( 12-C , 13-C ) :   1.1776 B( 13-C , 14-C ) :   1.5830 B( 13-C , 71-H ) :   0.9778
B( 14-C , 15-C ) :   1.2065 B( 14-C , 72-H ) :   0.9633 B( 15-C , 16-O ) :   1.1221
B( 15-C , 17-C ) :   0.1101 B( 15-C , 19-C ) :   1.3644 B( 16-O , 17-C ) :   1.1112
B( 17-C , 18-C ) :   1.2812 B( 17-C , 22-C ) :   1.1670 B( 18-C , 19-C ) :   1.2563
B( 18-C , 21-O ) :   1.2278 B( 19-C , 20-O ) :   1.2659 B( 20-O , 73-H ) :   0.9553
B( 21-O , 74-H ) :   0.9588 B( 22-C , 23-C ) :   1.5700 B( 22-C , 75-H ) :   0.9628
B( 23-C , 24-C ) :   1.1780 B( 23-C , 76-H ) :   1.0002 B( 24-C , 25-C ) :   1.5684
B( 24-C , 77-H ) :   0.9807 B( 25-C , 26-C ) :   1.1942 B( 25-C , 78-H ) :   0.9499
B( 26-C , 27-S ) :   1.1497 B( 26-C , 30-C ) :   1.2892 B( 27-S , 28-C ) :   1.1271
B( 28-C , 29-C ) :   1.2756 B( 28-C , 37-C ) :   1.2277 B( 29-C , 30-C ) :   1.2377
B( 29-C , 36-C ) :   1.1897 B( 30-C , 31-C ) :   1.1783 B( 31-C , 32-C ) :   1.4830
B( 31-C , 36-C ) :   0.1081 B( 31-C , 79-H ) :   0.9969 B( 32-C , 33-F ) :   1.1323
B( 32-C , 34-C ) :   1.1812 B( 34-C , 35-F ) :   1.1034 B( 34-C , 36-C ) :   1.4866
B( 36-C , 80-H ) :   0.9888 B( 37-C , 38-C ) :   1.5371 B( 37-C , 81-H ) :   0.9571
B( 38-C , 39-C ) :   1.2310 B( 38-C , 82-H ) :   0.9610 B( 39-C , 40-C ) :   1.4814
B( 39-C , 83-H ) :   0.9881 B( 40-C , 41-C ) :   1.1888 B( 40-C , 44-S ) :   1.0416
B( 41-C , 42-C ) :   1.5341 B( 41-C , 84-H ) :   0.9985 B( 42-C , 43-C ) :   1.2272
B( 42-C , 85-H ) :   0.9973 B( 43-C , 44-S ) :   1.0664 B( 43-C , 45-C ) :   1.4408
B( 45-C , 46-C ) :   1.2173 B( 45-C , 49-S ) :   1.0425 B( 46-C , 47-C ) :   1.5620
B( 46-C , 86-H ) :   0.9947 B( 47-C , 48-C ) :   1.1614 B( 47-C , 87-H ) :   0.9983
B( 48-C , 49-S ) :   1.0581 B( 48-C , 50-C ) :   1.5684 B( 50-C , 51-C ) :   1.1653
B( 50-C , 88-H ) :   0.9454 B( 51-C , 52-S ) :   1.1301 B( 51-C , 53-C ) :   0.1062
B( 51-C , 55-C ) :   1.4139 B( 52-S , 53-C ) :   1.1728 B( 53-C , 54-C ) :   1.4303
B( 53-C , 89-H ) :   0.9763 B( 54-C , 55-C ) :   1.2355 B( 54-C , 61-C ) :   1.0684
B( 55-C , 56-O ) :   1.0818 B( 56-O , 57-C ) :   1.1205 B( 57-C , 58-N ) :   0.9182
B( 57-C , 61-C ) :   1.5713 B( 58-N , 59-O ) :   1.5147 B( 58-N , 60-O ) :   1.4952
B( 59-O , 60-O ) :   0.2731 B( 61-C , 90-H ) :   1.0264

-----------------------------------------------------------------------------
         ABSORPTION SPECTRUM VIA TRANSITION ELECTRIC DIPOLE MOMENTS
-----------------------------------------------------------------------------
State   Energy  Wavelength   fosc         T2         TX        TY        TZ
        (cm-1)    (nm)                  (au**2)     (au)      (au)      (au)
-----------------------------------------------------------------------------
   0    7894.6   1266.7   0.885087906  36.90896  -4.40726  -4.15283   0.48887
   1   11084.9    902.1   0.460226063  13.66831   2.06465   2.87876  -1.05750
   2   14443.5    692.4   0.089398954   2.03768   0.19912  -1.22938   0.69761
   3   16103.2    621.0   0.281499696   5.75496   0.23815   2.32068  -0.55917
   4   19148.5    522.2   0.107030298   1.84013  -0.67398   0.16763  -1.16524
   5   19613.9    509.8   0.163091615   2.73743  -0.59084  -1.48360   0.43275
   6   21447.0    466.3   1.156256635  17.74860  -2.10709   0.55439  -3.60575
   7   23391.2    427.5   0.129712354   1.82559  -0.54958   0.24665  -1.20943
   8   23947.9    417.6   0.028246801   0.38831  -0.07062   0.34040  -0.51716
   9   25305.8    395.2   0.050553577   0.65767  -0.34335   0.13864  -0.72150
  10   26077.5    383.5   0.121689528   1.53625   0.04735  -0.84013   0.91005
  11   26712.2    374.4   0.022434136   0.27649   0.39637   0.09314  -0.33272
  12   27405.9    364.9   0.035313498   0.42420  -0.21838   0.03704  -0.61249
  13   28481.8    351.1   0.200525230   2.31780  -0.42020  -1.20606   0.82864
  14   29067.0    344.0   0.014926992   0.16906  -0.07023   0.39036  -0.10838
  15   29975.3    333.6   0.016588583   0.18219   0.30487   0.27102   0.12566
  16   30319.3    329.8   0.015372979   0.16692  -0.01972   0.19656  -0.35763
  17   30754.1    325.2   0.074179095   0.79406   0.13650  -0.34893   0.80850
  18   30843.9    324.2   0.081804261   0.87314  -0.60466  -0.42132  -0.57446
  19   31692.7    315.5   0.044824101   0.46562  -0.53708  -0.39854  -0.13536
  20   31862.6    313.8   0.001116784   0.01154   0.01309  -0.10099   0.03419
  21   32030.4    312.2   0.055497510   0.57041   0.55458   0.51118   0.03935
  22   32208.1    310.5   0.187849412   1.92009   0.61765   1.02083  -0.70464
  23   32693.7    305.9   0.000327546   0.00330  -0.00947   0.05476  -0.01450
  24   32963.2    303.4   0.038058744   0.38010   0.11161  -0.44594   0.41083
  25   33159.1    301.6   0.027514181   0.27317  -0.10820   0.03305  -0.51026
  26   33845.0    295.5   0.007606168   0.07399   0.11604  -0.19946   0.14400
  27   33976.0    294.3   0.062224221   0.60292  -0.43947  -0.62293   0.14749
  28   34515.1    289.7   0.065025518   0.62023   0.66670   0.35827   0.21765
  29   34733.7    287.9   0.122280419   1.15899  -0.54623  -0.77622   0.50804
  30   34965.8    286.0   0.004762530   0.04484   0.18885  -0.06407   0.07122
  31   35245.1    283.7   0.104628721   0.97730  -0.58030   0.13105  -0.78954
  32   35487.8    281.8   0.040891573   0.37934  -0.49757  -0.11179  -0.34535
  33   35707.8    280.1   0.032035866   0.29536  -0.32155  -0.43522   0.05042
  34   35815.7    279.2   0.007145273   0.06568  -0.16721  -0.19370  -0.01406
  35   35998.8    277.8   0.023067124   0.21095  -0.34109  -0.13486  -0.27644
  36   36470.0    274.2   0.018623730   0.16811   0.18109   0.32822  -0.16612
  37   36648.2    272.9   0.136085644   1.22246   0.46394   0.94930  -0.32566
  38   37006.3    270.2   0.020072449   0.17857  -0.17341   0.10321  -0.37127
  39   37225.0    268.6   0.322872581   2.85544   1.34257   0.47889   0.90753
  40   37353.7    267.7   0.135848751   1.19728  -0.90288  -0.32238  -0.52740
  41   37997.6    263.2   0.060569974   0.52478  -0.55039  -0.37548  -0.28436
  42   38538.1    259.5   0.008095483   0.06916  -0.06934  -0.10828   0.22940
  43   38671.5    258.6   0.060582608   0.51574   0.23475   0.56465  -0.37656
  44   38897.0    257.1   0.003211580   0.02718  -0.05870   0.06550  -0.13945
  45   39058.1    256.0   0.019645274   0.16559   0.22199  -0.18102   0.28903
  46   39486.5    253.3   0.019598141   0.16340  -0.01811   0.31790  -0.24901
  47   39884.5    250.7   0.068096342   0.56208  -0.23227   0.18038  -0.68963
  48   40261.0    248.4   0.102481813   0.83799   0.18596  -0.55462   0.70413

FINAL SINGLE POINT ENERGY     -4613.439378409547

DIPOLE MOMENT
-------------
                                X             Y             Z
Electronic contribution:    -55.41934     -45.17254     -31.36013
Nuclear contribution   :     55.42066      45.26247      32.18676
                        -----------------------------------------
Total Dipole Moment    :      0.00133       0.08993       0.82664
                        -----------------------------------------
Magnitude (a.u.)       :      0.83151
Magnitude (Debye)      :      2.11354

Rotational constants in cm-1:     0.001835     0.000298     0.000262
Rotational constants in MHz :    55.010238     8.936605     7.865023

                             ****ORCA TERMINATED NORMALLY****
TOTAL RUN TIME: 0 days 0 hours 7 minutes 54 seconds 741 msec
