                         Program Version 4.2.0 -  RELEASE  -
|  1> # ORCA input file
|  2> # SCF done       -199.691677887920          0.000664248799
|  3> ! CAM-B3LYP def2-SVP def2/J RIJCOSX Grid4 TightSCF
|  4> %maxcore 5000
|  5> %tddft
|  6>     Mode sTDDFT
|  7>     Ethresh 5.0
|  8>     maxcore 5000
|  9> end
| 10>
| 11> %pal
| 12>   nprocs 6
| 13>   end
| 14> * xyz 0 1
| 15>    C        9.48306       -11.83942        -6.03554
| 16>    C        9.11769       -13.03924        -6.57976
| 17>    F        8.22535       -13.81391        -5.93630
| 18>    C        9.63909       -13.50357        -7.79491
| 19>    C       10.54794       -12.73084        -8.46288
| 20>    C       10.96086       -11.48556        -7.94698
| 21>    C       10.41595       -11.02934        -6.71143
| 22>    C       10.80513        -9.77747        -6.17942
| 23>    C       11.71149        -9.01170        -6.86122
| 24>    C       12.26954        -9.48371        -8.08385
| 25>    C       11.90610       -10.68271        -8.62434
| 26>    C       13.24575        -8.49700        -8.58514
| 27>    O       13.87511        -8.53283        -9.61636
| 28>    C       13.33385        -7.45574        -7.52250
| 29>    C       12.26551        -7.68846        -6.57914
| 30>    C       11.70369        -6.76993        -5.72633
| 31>    C       12.08782        -5.41884        -5.64504
| 32>    N       12.32779        -4.29868        -5.56071
| 33>    C       10.60058        -7.04448        -4.89285
| 34>    N        9.71685        -7.21574        -4.18031
| 35>    C       14.34112        -6.53472        -7.58100
| 36>    C       14.84416        -5.68440        -6.57802
| 37>    S       15.62562        -4.21715        -7.05266
| 38>    C       15.90831        -3.71137        -5.43461
| 39>    C       15.44795        -4.68097        -4.52457
| 40>    C       14.86943        -5.81317        -5.17661
| 41>    C       14.49837        -6.94105        -4.42310
| 42>    C       14.63523        -6.90690        -3.06399
| 43>    F       14.30320        -7.98180        -2.33325
| 44>    C       15.15892        -5.77062        -2.41440
| 45>    F       15.29469        -5.78580        -1.07619
| 46>    C       15.58222        -4.68303        -3.12429
| 47>    C       16.62392        -2.50280        -5.21604
| 48>    C       16.59293        -1.72640        -4.11047
| 49>    C       17.51891        -0.65703        -3.90732
| 50>    C       17.50612         0.18226        -2.85716
| 51>    C       16.41954         0.19289        -1.82383
| 52>    C       18.65568         1.12112        -2.60783
| 53>    N       19.29879         0.78259        -1.35027
| 54>    C       19.34503        -0.46302        -0.86744
| 55>    C       19.76706        -0.79614         0.38923
| 56>    C       19.71738        -2.07916         0.95413
| 57>    C       19.33973        -3.28939         0.41522
| 58>    C       19.22522        -4.48692         1.15916
| 59>    C       18.84360        -5.57820         0.43626
| 60>    C       18.66629        -5.31486        -0.93659
| 61>    S       18.94139        -3.62653        -1.26961
| 62>    C       18.36073        -6.22388        -1.93829
| 63>    C       18.02755        -7.58354        -1.81694
| 64>    C       17.83604        -8.20735        -3.01757
| 65>    C       18.04795        -7.38846        -4.14801
| 66>    S       18.43705        -5.77286        -3.62872
| 67>    C       17.88407        -7.81171        -5.46431
| 68>    C       18.07710        -7.14437        -6.66090
| 69>    C       18.68743        -5.92899        -6.95578
| 70>    C       18.25499        -5.19357        -8.15853
| 71>    O       17.56318        -5.60360        -9.06876
| 72>    C       18.77735        -3.81464        -7.98039
| 73>    C       18.50400        -2.68509        -8.69256
| 74>    C       19.02283        -1.44692        -8.24063
| 75>    C       19.83507        -1.41581        -7.07102
| 76>    C       20.31480        -0.17682        -6.60404
| 77>    C       19.99925         0.97885        -7.26238
| 78>    C       19.20428         0.94704        -8.42215
| 79>    C       18.72890        -0.24128        -8.90458
| 80>    F       18.91048         2.09691        -9.04972
| 81>    F       20.44131         2.15893        -6.79208
| 82>    C       20.12979        -2.61196        -6.37348
| 83>    C       19.59928        -3.78913        -6.81932
| 84>    C       19.66231        -5.14474        -6.27600
| 85>    C       20.61474        -5.59650        -5.38164
| 86>    C       20.79931        -6.96108        -5.09568
| 87>    N       20.97842        -8.06962        -4.85421
| 88>    C       21.53535        -4.75982        -4.73052
| 89>    N       22.27783        -4.10728        -4.14327
| 90>    H        9.05808       -11.51188        -5.09961
| 91>    H        9.31328       -14.45861        -8.17541
| 92>    H       10.96457       -13.06730        -9.40031
| 93>    H       10.38235        -9.46129        -5.23902
| 94>    H       12.33448       -11.01540        -9.55785
| 95>    H       14.85005        -6.47670        -8.54031
| 96>    H       14.14831        -7.84206        -4.89874
| 97>    H       16.05243        -3.86564        -2.60534
| 98>    H       17.24873        -2.18900        -6.04312
| 99>    H       15.87558        -1.92290        -3.33014
|100>    H       18.31554        -0.57861        -4.63600
|101>    H       16.39171        -0.74498        -1.26917
|102>    H       15.44865         0.32653        -2.29735
|103>    H       16.56914         1.00007        -1.11180
|104>    H       18.29822         2.15289        -2.53701
|105>    H       19.37921         1.06808        -3.43023
|106>    H       19.65754         1.53456        -0.78081
|107>    H       18.98096        -1.22311        -1.54183
|108>    H       20.11830        -0.00227         1.03536
|109>    H       19.99252        -2.13269         2.00084
|110>    H       19.42661        -4.50663         2.21593
|111>    H       18.71196        -6.56243         0.84612
|112>    H       17.92620        -8.06634        -0.86224
|113>    H       17.57540        -9.24514        -3.12302
|114>    H       17.47692        -8.81239        -5.54704
|115>    H       17.60191        -7.59822        -7.52608
|116>    H       17.88278        -2.72482        -9.57405
|117>    H       20.93982        -0.13925        -5.72480
|118>    H       18.12009        -0.24885        -9.79496
|119>    H       20.74341        -2.56267        -5.48832
|120> *
|121>
|122>                          ****END OF INPUT****

CARTESIAN COORDINATES (ANGSTROEM)
---------------------------------
  C      9.483060  -11.839420   -6.035540
  C      9.117690  -13.039240   -6.579760
  F      8.225350  -13.813910   -5.936300
  C      9.639090  -13.503570   -7.794910
  C     10.547940  -12.730840   -8.462880
  C     10.960860  -11.485560   -7.946980
  C     10.415950  -11.029340   -6.711430
  C     10.805130   -9.777470   -6.179420
  C     11.711490   -9.011700   -6.861220
  C     12.269540   -9.483710   -8.083850
  C     11.906100  -10.682710   -8.624340
  C     13.245750   -8.497000   -8.585140
  O     13.875110   -8.532830   -9.616360
  C     13.333850   -7.455740   -7.522500
  C     12.265510   -7.688460   -6.579140
  C     11.703690   -6.769930   -5.726330
  C     12.087820   -5.418840   -5.645040
  N     12.327790   -4.298680   -5.560710
  C     10.600580   -7.044480   -4.892850
  N      9.716850   -7.215740   -4.180310
  C     14.341120   -6.534720   -7.581000
  C     14.844160   -5.684400   -6.578020
  S     15.625620   -4.217150   -7.052660
  C     15.908310   -3.711370   -5.434610
  C     15.447950   -4.680970   -4.524570
  C     14.869430   -5.813170   -5.176610
  C     14.498370   -6.941050   -4.423100
  C     14.635230   -6.906900   -3.063990
  F     14.303200   -7.981800   -2.333250
  C     15.158920   -5.770620   -2.414400
  F     15.294690   -5.785800   -1.076190
  C     15.582220   -4.683030   -3.124290
  C     16.623920   -2.502800   -5.216040
  C     16.592930   -1.726400   -4.110470
  C     17.518910   -0.657030   -3.907320
  C     17.506120    0.182260   -2.857160
  C     16.419540    0.192890   -1.823830
  C     18.655680    1.121120   -2.607830
  N     19.298790    0.782590   -1.350270
  C     19.345030   -0.463020   -0.867440
  C     19.767060   -0.796140    0.389230
  C     19.717380   -2.079160    0.954130
  C     19.339730   -3.289390    0.415220
  C     19.225220   -4.486920    1.159160
  C     18.843600   -5.578200    0.436260
  C     18.666290   -5.314860   -0.936590
  S     18.941390   -3.626530   -1.269610
  C     18.360730   -6.223880   -1.938290
  C     18.027550   -7.583540   -1.816940
  C     17.836040   -8.207350   -3.017570
  C     18.047950   -7.388460   -4.148010
  S     18.437050   -5.772860   -3.628720
  C     17.884070   -7.811710   -5.464310
  C     18.077100   -7.144370   -6.660900
  C     18.687430   -5.928990   -6.955780
  C     18.254990   -5.193570   -8.158530
  O     17.563180   -5.603600   -9.068760
  C     18.777350   -3.814640   -7.980390
  C     18.504000   -2.685090   -8.692560
  C     19.022830   -1.446920   -8.240630
  C     19.835070   -1.415810   -7.071020
  C     20.314800   -0.176820   -6.604040
  C     19.999250    0.978850   -7.262380
  C     19.204280    0.947040   -8.422150
  C     18.728900   -0.241280   -8.904580
  F     18.910480    2.096910   -9.049720
  F     20.441310    2.158930   -6.792080
  C     20.129790   -2.611960   -6.373480
  C     19.599280   -3.789130   -6.819320
  C     19.662310   -5.144740   -6.276000
  C     20.614740   -5.596500   -5.381640
  C     20.799310   -6.961080   -5.095680
  N     20.978420   -8.069620   -4.854210
  C     21.535350   -4.759820   -4.730520
  N     22.277830   -4.107280   -4.143270
  H      9.058080  -11.511880   -5.099610
  H      9.313280  -14.458610   -8.175410
  H     10.964570  -13.067300   -9.400310
  H     10.382350   -9.461290   -5.239020
  H     12.334480  -11.015400   -9.557850
  H     14.850050   -6.476700   -8.540310
  H     14.148310   -7.842060   -4.898740
  H     16.052430   -3.865640   -2.605340
  H     17.248730   -2.189000   -6.043120
  H     15.875580   -1.922900   -3.330140
  H     18.315540   -0.578610   -4.636000
  H     16.391710   -0.744980   -1.269170
  H     15.448650    0.326530   -2.297350
  H     16.569140    1.000070   -1.111800
  H     18.298220    2.152890   -2.537010
  H     19.379210    1.068080   -3.430230
  H     19.657540    1.534560   -0.780810
  H     18.980960   -1.223110   -1.541830
  H     20.118300   -0.002270    1.035360
  H     19.992520   -2.132690    2.000840
  H     19.426610   -4.506630    2.215930
  H     18.711960   -6.562430    0.846120
  H     17.926200   -8.066340   -0.862240
  H     17.575400   -9.245140   -3.123020
  H     17.476920   -8.812390   -5.547040
  H     17.601910   -7.598220   -7.526080
  H     17.882780   -2.724820   -9.574050
  H     20.939820   -0.139250   -5.724800
  H     18.120090   -0.248850   -9.794960
  H     20.743410   -2.562670   -5.488320

 Total Charge           Charge          ....    0
 Multiplicity           Mult            ....    1
 Number of Electrons    NEL             ....  534
 Basis Dimension        Dim             .... 1212

ORBITAL ENERGIES
----------------

  NO   OCC          E(Eh)            E(eV)
   0   2.0000     -88.977997     -2421.2144
   1   2.0000     -88.972869     -2421.0748
   2   2.0000     -88.965186     -2420.8658
   3   2.0000     -24.797137      -674.7644
   4   2.0000     -24.793913      -674.6767
   5   2.0000     -24.793554      -674.6669
   6   2.0000     -24.791884      -674.6214
   7   2.0000     -24.780193      -674.3033
   8   2.0000     -19.203899      -522.5647
   9   2.0000     -19.196455      -522.3621
  10   2.0000     -14.480158      -394.0251
  11   2.0000     -14.407353      -392.0440
  12   2.0000     -14.406636      -392.0245
  13   2.0000     -14.394727      -391.7004
  14   2.0000     -14.388544      -391.5322
  15   2.0000     -10.377495      -282.3860
  16   2.0000     -10.376258      -282.3523
  17   2.0000     -10.375346      -282.3275
  18   2.0000     -10.370771      -282.2030
  19   2.0000     -10.363207      -281.9972
  20   2.0000     -10.355228      -281.7801
  21   2.0000     -10.355203      -281.7794
  22   2.0000     -10.348345      -281.5928
  23   2.0000     -10.340391      -281.3763
  24   2.0000     -10.340256      -281.3727
  25   2.0000     -10.333795      -281.1969
  26   2.0000     -10.331964      -281.1470
  27   2.0000     -10.324767      -280.9512
  28   2.0000     -10.320309      -280.8299
  29   2.0000     -10.319881      -280.8182
  30   2.0000     -10.316730      -280.7325
  31   2.0000     -10.314796      -280.6799
  32   2.0000     -10.312784      -280.6251
  33   2.0000     -10.311124      -280.5800
  34   2.0000     -10.310984      -280.5761
  35   2.0000     -10.310746      -280.5697
  36   2.0000     -10.309449      -280.5344
  37   2.0000     -10.308971      -280.5214
  38   2.0000     -10.308428      -280.5066
  39   2.0000     -10.303717      -280.3784
  40   2.0000     -10.303600      -280.3752
  41   2.0000     -10.302771      -280.3526
  42   2.0000     -10.302126      -280.3351
  43   2.0000     -10.300126      -280.2807
  44   2.0000     -10.299178      -280.2549
  45   2.0000     -10.299053      -280.2515
  46   2.0000     -10.298479      -280.2359
  47   2.0000     -10.298474      -280.2357
  48   2.0000     -10.297662      -280.2136
  49   2.0000     -10.296774      -280.1895
  50   2.0000     -10.296299      -280.1765
  51   2.0000     -10.294140      -280.1178
  52   2.0000     -10.294042      -280.1151
  53   2.0000     -10.294033      -280.1149
  54   2.0000     -10.292956      -280.0856
  55   2.0000     -10.292878      -280.0835
  56   2.0000     -10.292184      -280.0646
  57   2.0000     -10.291915      -280.0572
  58   2.0000     -10.291631      -280.0495
  59   2.0000     -10.291367      -280.0423
  60   2.0000     -10.291361      -280.0422
  61   2.0000     -10.290547      -280.0200
  62   2.0000     -10.289196      -279.9833
  63   2.0000     -10.288180      -279.9556
  64   2.0000     -10.288052      -279.9521
  65   2.0000     -10.287904      -279.9481
  66   2.0000     -10.287838      -279.9463
  67   2.0000     -10.286253      -279.9032
  68   2.0000     -10.285218      -279.8750
  69   2.0000     -10.282794      -279.8091
  70   2.0000     -10.281840      -279.7831
  71   2.0000     -10.281550      -279.7752
  72   2.0000     -10.279055      -279.7073
  73   2.0000     -10.273915      -279.5674
  74   2.0000     -10.268641      -279.4239
  75   2.0000      -8.072097      -219.6529
  76   2.0000      -8.067846      -219.5372
  77   2.0000      -8.058308      -219.2777
  78   2.0000      -6.041059      -164.3856
  79   2.0000      -6.037448      -164.2873
  80   2.0000      -6.036773      -164.2689
  81   2.0000      -6.035185      -164.2257
  82   2.0000      -6.033397      -164.1771
  83   2.0000      -6.029302      -164.0657
  84   2.0000      -6.027637      -164.0203
  85   2.0000      -6.023555      -163.9093
  86   2.0000      -6.020535      -163.8271
  87   2.0000      -1.316802       -35.8320
  88   2.0000      -1.314045       -35.7570
  89   2.0000      -1.302047       -35.4305
  90   2.0000      -1.298858       -35.3437
  91   2.0000      -1.295051       -35.2401
  92   2.0000      -1.119811       -30.4716
  93   2.0000      -1.110852       -30.2278
  94   2.0000      -1.077134       -29.3103
  95   2.0000      -1.016760       -27.6674
  96   2.0000      -1.010396       -27.4943
  97   2.0000      -1.007175       -27.4066
  98   2.0000      -1.002245       -27.2725
  99   2.0000      -0.992874       -27.0175
 100   2.0000      -0.990522       -26.9535
 101   2.0000      -0.985381       -26.8136
 102   2.0000      -0.983308       -26.7572
 103   2.0000      -0.970811       -26.4171
 104   2.0000      -0.968651       -26.3583
 105   2.0000      -0.966127       -26.2897
 106   2.0000      -0.951550       -25.8930
 107   2.0000      -0.941891       -25.6301
 108   2.0000      -0.925363       -25.1804
 109   2.0000      -0.921321       -25.0704
 110   2.0000      -0.918086       -24.9824
 111   2.0000      -0.908606       -24.7244
 112   2.0000      -0.894460       -24.3395
 113   2.0000      -0.889456       -24.2033
 114   2.0000      -0.886989       -24.1362
 115   2.0000      -0.879662       -23.9368
 116   2.0000      -0.876676       -23.8556
 117   2.0000      -0.873541       -23.7703
 118   2.0000      -0.865587       -23.5538
 119   2.0000      -0.857706       -23.3394
 120   2.0000      -0.851923       -23.1820
 121   2.0000      -0.843274       -22.9466
 122   2.0000      -0.837527       -22.7903
 123   2.0000      -0.834279       -22.7019
 124   2.0000      -0.830881       -22.6094
 125   2.0000      -0.828386       -22.5415
 126   2.0000      -0.821662       -22.3586
 127   2.0000      -0.814028       -22.1508
 128   2.0000      -0.799058       -21.7435
 129   2.0000      -0.792752       -21.5719
 130   2.0000      -0.774136       -21.0653
 131   2.0000      -0.762830       -20.7577
 132   2.0000      -0.752483       -20.4761
 133   2.0000      -0.749825       -20.4038
 134   2.0000      -0.746593       -20.3158
 135   2.0000      -0.742063       -20.1926
 136   2.0000      -0.730060       -19.8659
 137   2.0000      -0.722968       -19.6730
 138   2.0000      -0.712833       -19.3972
 139   2.0000      -0.711511       -19.3612
 140   2.0000      -0.704014       -19.1572
 141   2.0000      -0.701981       -19.1019
 142   2.0000      -0.701414       -19.0865
 143   2.0000      -0.691940       -18.8286
 144   2.0000      -0.677528       -18.4365
 145   2.0000      -0.673734       -18.3332
 146   2.0000      -0.669087       -18.2068
 147   2.0000      -0.665647       -18.1132
 148   2.0000      -0.663092       -18.0436
 149   2.0000      -0.659322       -17.9411
 150   2.0000      -0.648187       -17.6381
 151   2.0000      -0.643958       -17.5230
 152   2.0000      -0.642586       -17.4857
 153   2.0000      -0.640453       -17.4276
 154   2.0000      -0.633746       -17.2451
 155   2.0000      -0.630018       -17.1437
 156   2.0000      -0.626487       -17.0476
 157   2.0000      -0.623656       -16.9705
 158   2.0000      -0.622965       -16.9517
 159   2.0000      -0.621890       -16.9225
 160   2.0000      -0.614404       -16.7188
 161   2.0000      -0.607854       -16.5406
 162   2.0000      -0.606501       -16.5037
 163   2.0000      -0.599320       -16.3083
 164   2.0000      -0.597340       -16.2544
 165   2.0000      -0.593834       -16.1591
 166   2.0000      -0.587119       -15.9763
 167   2.0000      -0.585409       -15.9298
 168   2.0000      -0.582144       -15.8410
 169   2.0000      -0.581550       -15.8248
 170   2.0000      -0.574276       -15.6268
 171   2.0000      -0.572458       -15.5774
 172   2.0000      -0.567983       -15.4556
 173   2.0000      -0.563398       -15.3308
 174   2.0000      -0.560935       -15.2638
 175   2.0000      -0.557155       -15.1609
 176   2.0000      -0.552975       -15.0472
 177   2.0000      -0.551680       -15.0120
 178   2.0000      -0.548779       -14.9330
 179   2.0000      -0.548521       -14.9260
 180   2.0000      -0.544347       -14.8124
 181   2.0000      -0.544057       -14.8045
 182   2.0000      -0.543100       -14.7785
 183   2.0000      -0.541569       -14.7368
 184   2.0000      -0.541066       -14.7231
 185   2.0000      -0.536916       -14.6102
 186   2.0000      -0.533375       -14.5139
 187   2.0000      -0.529895       -14.4192
 188   2.0000      -0.527029       -14.3412
 189   2.0000      -0.523810       -14.2536
 190   2.0000      -0.522593       -14.2205
 191   2.0000      -0.521707       -14.1964
 192   2.0000      -0.517159       -14.0726
 193   2.0000      -0.516938       -14.0666
 194   2.0000      -0.515531       -14.0283
 195   2.0000      -0.512860       -13.9556
 196   2.0000      -0.509538       -13.8652
 197   2.0000      -0.507989       -13.8231
 198   2.0000      -0.506883       -13.7930
 199   2.0000      -0.505169       -13.7464
 200   2.0000      -0.502083       -13.6624
 201   2.0000      -0.501212       -13.6387
 202   2.0000      -0.495223       -13.4757
 203   2.0000      -0.494101       -13.4452
 204   2.0000      -0.491159       -13.3651
 205   2.0000      -0.490646       -13.3511
 206   2.0000      -0.488266       -13.2864
 207   2.0000      -0.485324       -13.2063
 208   2.0000      -0.484843       -13.1932
 209   2.0000      -0.481149       -13.0927
 210   2.0000      -0.478093       -13.0096
 211   2.0000      -0.475125       -12.9288
 212   2.0000      -0.473754       -12.8915
 213   2.0000      -0.471756       -12.8371
 214   2.0000      -0.470430       -12.8011
 215   2.0000      -0.467871       -12.7314
 216   2.0000      -0.465130       -12.6568
 217   2.0000      -0.462400       -12.5825
 218   2.0000      -0.459822       -12.5124
 219   2.0000      -0.457250       -12.4424
 220   2.0000      -0.454705       -12.3731
 221   2.0000      -0.450215       -12.2510
 222   2.0000      -0.447270       -12.1708
 223   2.0000      -0.445324       -12.1179
 224   2.0000      -0.443396       -12.0654
 225   2.0000      -0.440772       -11.9940
 226   2.0000      -0.438549       -11.9335
 227   2.0000      -0.437097       -11.8940
 228   2.0000      -0.435963       -11.8632
 229   2.0000      -0.432805       -11.7772
 230   2.0000      -0.432103       -11.7581
 231   2.0000      -0.429584       -11.6896
 232   2.0000      -0.428539       -11.6611
 233   2.0000      -0.427043       -11.6204
 234   2.0000      -0.423080       -11.5126
 235   2.0000      -0.421882       -11.4800
 236   2.0000      -0.420234       -11.4351
 237   2.0000      -0.418133       -11.3780
 238   2.0000      -0.415778       -11.3139
 239   2.0000      -0.414659       -11.2835
 240   2.0000      -0.411069       -11.1858
 241   2.0000      -0.409023       -11.1301
 242   2.0000      -0.405445       -11.0327
 243   2.0000      -0.399271       -10.8647
 244   2.0000      -0.398210       -10.8358
 245   2.0000      -0.390158       -10.6167
 246   2.0000      -0.389911       -10.6100
 247   2.0000      -0.384903       -10.4737
 248   2.0000      -0.378151       -10.2900
 249   2.0000      -0.373942       -10.1755
 250   2.0000      -0.369274       -10.0485
 251   2.0000      -0.354256        -9.6398
 252   2.0000      -0.350807        -9.5459
 253   2.0000      -0.341449        -9.2913
 254   2.0000      -0.329004        -8.9527
 255   2.0000      -0.326732        -8.8908
 256   2.0000      -0.322896        -8.7865
 257   2.0000      -0.319723        -8.7001
 258   2.0000      -0.317967        -8.6523
 259   2.0000      -0.314983        -8.5711
 260   2.0000      -0.306088        -8.3291
 261   2.0000      -0.302637        -8.2352
 262   2.0000      -0.290812        -7.9134
 263   2.0000      -0.287145        -7.8136
 264   2.0000      -0.275593        -7.4993
 265   2.0000      -0.252115        -6.8604
 266   2.0000      -0.225760        -6.1433
 267   0.0000      -0.099307        -2.7023
 268   0.0000      -0.096265        -2.6195
 269   0.0000      -0.056233        -1.5302
 270   0.0000      -0.048528        -1.3205
 271   0.0000      -0.043869        -1.1937

MULLIKEN ATOMIC CHARGES
-----------------------
   0 C :   -0.096440
   1 C :    0.299803
   2 F :   -0.192620
   3 C :   -0.028872
   4 C :   -0.008148
   5 C :    0.098068
   6 C :    0.101407
   7 C :   -0.088765
   8 C :    0.036839
   9 C :    0.017076
  10 C :   -0.083637
  11 C :    0.132537
  12 O :   -0.138902
  13 C :   -0.147180
  14 C :    0.254225
  15 C :   -0.335005
  16 C :   -0.188796
  17 N :    0.158571
  18 C :   -0.187831
  19 N :    0.150354
  20 C :    0.065739
  21 C :   -0.166194
  22 S :    0.214380
  23 C :   -0.106597
  24 C :    0.163604
  25 C :    0.125721
  26 C :   -0.097956
  27 C :    0.240499
  28 F :   -0.174117
  29 C :    0.244689
  30 F :   -0.185534
  31 C :   -0.121891
  32 C :    0.047282
  33 C :   -0.014879
  34 C :    0.046117
  35 C :   -0.305581
  36 C :    0.111918
  37 C :    0.254236
  38 N :   -0.154669
  39 C :    0.083369
  40 C :   -0.035126
  41 C :    0.038159
  42 C :   -0.063448
  43 C :    0.063927
  44 C :    0.013513
  45 C :    0.016353
  46 S :    0.067585
  47 C :   -0.084539
  48 C :    0.049068
  49 C :    0.043800
  50 C :   -0.039888
  51 S :    0.118399
  52 C :    0.006654
  53 C :    0.033262
  54 C :   -0.172886
  55 C :    0.144346
  56 O :   -0.167070
  57 C :    0.005071
  58 C :   -0.097597
  59 C :    0.110506
  60 C :    0.097627
  61 C :   -0.111351
  62 C :    0.232985
  63 C :    0.237224
  64 C :   -0.105439
  65 F :   -0.177774
  66 F :   -0.182068
  67 C :   -0.116917
  68 C :    0.049825
  69 C :    0.284393
  70 C :   -0.380210
  71 C :   -0.212681
  72 N :    0.160300
  73 C :   -0.177135
  74 N :    0.130114
  75 H :   -0.004325
  76 H :    0.001226
  77 H :   -0.010445
  78 H :   -0.007320
  79 H :   -0.013586
  80 H :    0.039641
  81 H :   -0.004640
  82 H :   -0.032133
  83 H :    0.000693
  84 H :    0.008345
  85 H :   -0.027762
  86 H :    0.031909
  87 H :    0.048907
  88 H :    0.008609
  89 H :    0.027743
  90 H :    0.023697
  91 H :    0.131198
  92 H :    0.053380
  93 H :   -0.021335
  94 H :    0.004863
  95 H :   -0.002544
  96 H :   -0.007479
  97 H :   -0.010759
  98 H :   -0.011228
  99 H :   -0.010569
 100 H :    0.018031
 101 H :   -0.014005
 102 H :   -0.002546
 103 H :   -0.001876
 104 H :   -0.017493
Sum of atomic charges:   -0.0000000

LOEWDIN ATOMIC CHARGES
----------------------
   0 C :   -0.042733
   1 C :    0.091685
   2 F :   -0.066399
   3 C :   -0.038875
   4 C :    0.004240
   5 C :   -0.019901
   6 C :    0.002591
   7 C :    0.007571
   8 C :   -0.017920
   9 C :   -0.059368
  10 C :    0.032845
  11 C :    0.079875
  12 O :   -0.141642
  13 C :   -0.106806
  14 C :    0.056732
  15 C :   -0.142143
  16 C :   -0.013950
  17 N :   -0.057383
  18 C :   -0.018920
  19 N :   -0.058792
  20 C :    0.044928
  21 C :   -0.190737
  22 S :    0.569534
  23 C :   -0.148438
  24 C :   -0.044162
  25 C :   -0.023484
  26 C :   -0.039812
  27 C :    0.076317
  28 F :   -0.050331
  29 C :    0.056265
  30 F :   -0.057688
  31 C :   -0.036424
  32 C :   -0.032376
  33 C :   -0.016734
  34 C :   -0.037143
  35 C :   -0.046649
  36 C :   -0.053773
  37 C :    0.051180
  38 N :    0.032616
  39 C :    0.087015
  40 C :   -0.135823
  41 C :    0.019113
  42 C :   -0.195028
  43 C :    0.009336
  44 C :   -0.062120
  45 C :   -0.119461
  46 S :    0.401599
  47 C :   -0.220893
  48 C :   -0.015856
  49 C :   -0.046977
  50 C :   -0.115466
  51 S :    0.504661
  52 C :   -0.076630
  53 C :    0.026811
  54 C :   -0.128332
  55 C :    0.064844
  56 O :   -0.171021
  57 C :   -0.056774
  58 C :    0.013544
  59 C :   -0.020311
  60 C :   -0.014605
  61 C :   -0.044564
  62 C :    0.061279
  63 C :    0.059181
  64 C :   -0.030961
  65 F :   -0.055693
  66 F :   -0.059773
  67 C :   -0.010261
  68 C :   -0.006800
  69 C :    0.026538
  70 C :   -0.182898
  71 C :   -0.029615
  72 N :   -0.066217
  73 C :   -0.021779
  74 N :   -0.084978
  75 H :    0.042478
  76 H :    0.040941
  77 H :    0.035249
  78 H :    0.038392
  79 H :    0.039167
  80 H :    0.050800
  81 H :    0.042344
  82 H :    0.029431
  83 H :    0.036292
  84 H :    0.029195
  85 H :    0.030235
  86 H :    0.036745
  87 H :    0.044478
  88 H :    0.029499
  89 H :    0.035513
  90 H :    0.028379
  91 H :    0.087814
  92 H :    0.021759
  93 H :    0.027328
  94 H :    0.045020
  95 H :    0.038248
  96 H :    0.035458
  97 H :    0.034552
  98 H :    0.035479
  99 H :    0.038177
 100 H :    0.043460
 101 H :    0.037753
 102 H :    0.041078
 103 H :    0.044479
 104 H :    0.035374

  Mayer bond orders larger than 0.100000
B(  0-C ,  1-C ) :   1.4396 B(  0-C ,  6-C ) :   1.2030 B(  0-C , 75-H ) :   1.0068
B(  1-C ,  2-F ) :   1.0857 B(  1-C ,  3-C ) :   1.2567 B(  3-C ,  4-C ) :   1.4588
B(  3-C , 76-H ) :   0.9928 B(  4-C ,  5-C ) :   1.2359 B(  4-C , 77-H ) :   0.9970
B(  5-C ,  6-C ) :   1.2603 B(  5-C , 10-C ) :   1.1850 B(  6-C ,  7-C ) :   1.1993
B(  7-C ,  8-C ) :   1.4629 B(  7-C , 78-H ) :   0.9952 B(  8-C ,  9-C ) :   1.2228
B(  8-C , 14-C ) :   0.9906 B(  9-C , 10-C ) :   1.4719 B(  9-C , 11-C ) :   0.9144
B( 10-C , 79-H ) :   1.0165 B( 11-C , 12-O ) :   2.2745 B( 11-C , 13-C ) :   0.9442
B( 13-C , 14-C ) :   1.0690 B( 13-C , 20-C ) :   1.5895 B( 14-C , 15-C ) :   1.6259
B( 15-C , 16-C ) :   1.1670 B( 15-C , 18-C ) :   1.1393 B( 16-C , 17-N ) :   3.0030
B( 18-C , 19-N ) :   2.9839 B( 20-C , 21-C ) :   1.1797 B( 20-C , 80-H ) :   0.9267
B( 21-C , 22-S ) :   1.1481 B( 21-C , 23-C ) :   0.1006 B( 21-C , 25-C ) :   1.2927
B( 22-S , 23-C ) :   1.2123 B( 23-C , 24-C ) :   1.3227 B( 23-C , 32-C ) :   1.1027
B( 24-C , 25-C ) :   1.2508 B( 24-C , 31-C ) :   1.1528 B( 25-C , 26-C ) :   1.1924
B( 26-C , 27-C ) :   1.4686 B( 26-C , 31-C ) :   0.1103 B( 26-C , 81-H ) :   0.9920
B( 27-C , 28-F ) :   1.1353 B( 27-C , 29-C ) :   1.1847 B( 29-C , 30-F ) :   1.1040
B( 29-C , 31-C ) :   1.4762 B( 31-C , 82-H ) :   1.0001 B( 32-C , 33-C ) :   1.6946
B( 32-C , 83-H ) :   0.9564 B( 33-C , 34-C ) :   1.1200 B( 33-C , 84-H ) :   0.9683
B( 34-C , 35-C ) :   1.7421 B( 34-C , 85-H ) :   0.9791 B( 35-C , 36-C ) :   1.0668
B( 35-C , 37-C ) :   1.0549 B( 36-C , 86-H ) :   0.9368 B( 36-C , 87-H ) :   0.9479
B( 36-C , 88-H ) :   0.9507 B( 37-C , 38-N ) :   0.9602 B( 37-C , 89-H ) :   0.9260
B( 37-C , 90-H ) :   0.9412 B( 38-N , 39-C ) :   1.3367 B( 38-N , 91-H ) :   0.9371
B( 39-C , 40-C ) :   1.4730 B( 39-C , 92-H ) :   0.9402 B( 40-C , 41-C ) :   1.3000
B( 40-C , 93-H ) :   0.9626 B( 41-C , 42-C ) :   1.5016 B( 41-C , 94-H ) :   0.9601
B( 42-C , 43-C ) :   1.2008 B( 42-C , 46-S ) :   1.0121 B( 43-C , 44-C ) :   1.5195
B( 43-C , 95-H ) :   0.9974 B( 44-C , 45-C ) :   1.2447 B( 44-C , 96-H ) :   0.9950
B( 45-C , 46-S ) :   1.1056 B( 45-C , 47-C ) :   1.3927 B( 47-C , 48-C ) :   1.2349
B( 47-C , 51-S ) :   1.0546 B( 48-C , 49-C ) :   1.5052 B( 48-C , 97-H ) :   0.9945
B( 49-C , 50-C ) :   1.2191 B( 49-C , 98-H ) :   1.0014 B( 50-C , 51-S ) :   1.1473
B( 50-C , 52-C ) :   1.3423 B( 52-C , 53-C ) :   1.4361 B( 52-C , 99-H ) :   0.9538
B( 53-C , 54-C ) :   1.3641 B( 53-C ,100-H ) :   0.9336 B( 54-C , 55-C ) :   0.9935
B( 54-C , 69-C ) :   1.1766 B( 55-C , 56-O ) :   2.2123 B( 55-C , 57-C ) :   0.8983
B( 57-C , 58-C ) :   1.4821 B( 57-C , 68-C ) :   1.2192 B( 58-C , 59-C ) :   1.1665
B( 58-C ,101-H ) :   1.0188 B( 59-C , 60-C ) :   1.2693 B( 59-C , 64-C ) :   1.2001
B( 60-C , 61-C ) :   1.1977 B( 60-C , 67-C ) :   1.1832 B( 61-C , 62-C ) :   1.4269
B( 61-C , 64-C ) :   0.1080 B( 61-C ,102-H ) :   0.9998 B( 62-C , 63-C ) :   1.2073
B( 62-C , 66-F ) :   1.1257 B( 63-C , 64-C ) :   1.4321 B( 63-C , 65-F ) :   1.1267
B( 64-C ,103-H ) :   1.0076 B( 67-C , 68-C ) :   1.4823 B( 67-C ,104-H ) :   0.9951
B( 68-C , 69-C ) :   0.9790 B( 69-C , 70-C ) :   1.5147 B( 70-C , 71-C ) :   1.1690
B( 70-C , 73-C ) :   1.1571 B( 71-C , 72-N ) :   3.0142 B( 73-C , 74-N ) :   2.9670

-----------------------------------------------------------------------------
         ABSORPTION SPECTRUM VIA TRANSITION ELECTRIC DIPOLE MOMENTS
-----------------------------------------------------------------------------
State   Energy  Wavelength   fosc         T2         TX        TY        TZ
        (cm-1)    (nm)                  (au**2)     (au)      (au)      (au)
-----------------------------------------------------------------------------
   0   11842.6    844.4   0.122946836   3.41781  -0.10364   0.95431   1.57999
   1   12728.3    785.7   0.311403018   8.05430   0.32211  -1.18560  -2.55830
   2   17132.1    583.7   0.585391412  11.24894  -2.26479  -2.07580  -1.34564
   3   17507.5    571.2   0.245911140   4.62413  -0.99871  -1.62991  -0.98494
   4   21275.6    470.0   0.043936113   0.67985   0.70367   0.22095   0.36863
   5   22668.2    441.1   0.060498996   0.87863   0.70337   0.61422   0.08148
   6   23020.2    434.4   0.002520985   0.03605   0.18127  -0.05564  -0.00993
   7   23536.7    424.9   0.018471018   0.25836  -0.39536  -0.25071  -0.19797
   8   24471.7    408.6   0.108384299   1.45807   0.64692   1.01756  -0.06430
   9   24593.1    406.6   0.265315429   3.55160   0.52018   1.65218  -0.74252
  10   25423.2    393.3   0.275618556   3.56906  -0.68568  -1.75391  -0.15070
  11   25687.8    389.3   0.065339982   0.83739  -0.20135  -0.85519  -0.25594
  12   26719.6    374.3   0.175164500   2.15820   0.22348   1.22037   0.78674
  13   27596.8    362.4   0.036071954   0.43032  -0.18164   0.14575   0.61325
  14   27697.3    361.0   0.014190483   0.16867  -0.20960  -0.35129   0.03649
  15   27988.8    357.3   0.087904636   1.03396   0.00974  -0.75499  -0.68107
  16   28539.7    350.4   0.009724773   0.11218   0.23294  -0.20976   0.11797
  17   28916.8    345.8   0.004027186   0.04585   0.03920   0.20757   0.03503
  18   28969.1    345.2   0.014716758   0.16725  -0.13022  -0.38547  -0.04127
  19   29101.5    343.6   0.124327636   1.40646  -0.62184  -0.76902   0.65452
  20   29199.4    342.5   0.011751879   0.13250   0.20758  -0.28003   0.10483
  21   29336.8    340.9   0.067448852   0.75690  -0.38802  -0.77637  -0.05994
  22   29363.4    340.6   0.026875706   0.30132  -0.23189  -0.48888  -0.09243
  23   29739.2    336.3   0.046781913   0.51787  -0.06018   0.61779   0.36413
  24   30454.9    328.4   0.137912797   1.49081   0.18598   1.17641  -0.26886
  25   30520.0    327.7   0.022021068   0.23754  -0.26646  -0.33606  -0.23152
  26   30651.0    326.3   0.031201883   0.33513   0.27656   0.48934   0.13852
  27   30982.0    322.8   0.000108355   0.00115   0.02767   0.00395   0.01924
  28   31339.2    319.1   0.009772278   0.10266   0.23328   0.10981  -0.19020
  29   31408.4    318.4   0.006262443   0.06564   0.17150  -0.18180  -0.05634
  30   31754.1    314.9   0.133346956   1.38248   0.41034  -0.78796   0.77021
  31   32379.1    308.8   0.103425512   1.05157   0.12761  -0.81977  -0.60271
  32   32633.3    306.4   0.174272354   1.75810   0.42116  -0.80033   0.96964
  33   32915.3    303.8   0.124795562   1.24818   0.41451  -0.20752   1.01651
  34   33231.2    300.9   0.518452520   5.13616   0.30939   2.24507  -0.01013
  35   33576.7    297.8   0.073141534   0.71714   0.33571  -0.74358   0.22698
  36   33856.7    295.4   0.041402120   0.40258   0.43421   0.40926   0.21575
  37   34031.8    293.8   0.071601783   0.69265  -0.22928   0.51412  -0.61299
  38   34180.2    292.6   0.001946230   0.01875  -0.09814   0.01570   0.09417
  39   34294.7    291.6   0.331921837   3.18628  -0.54240  -1.68854   0.20227
  40   34456.5    290.2   0.076780717   0.73360   0.05220   0.79407  -0.31674
  41   34494.2    289.9   0.047379128   0.45218   0.45999   0.48772   0.05214
  42   34713.7    288.1   0.057090051   0.54142  -0.44867  -0.02626  -0.58261
  43   35035.7    285.4   0.150849394   1.41745   0.23952   1.16270  -0.09067
  44   35252.4    283.7   0.004436881   0.04143   0.09128  -0.07790  -0.16442
  45   35673.0    280.3   0.049116901   0.45328   0.14695   0.65091  -0.08945
  46   35838.5    279.0   0.035956033   0.33029  -0.11870   0.34185  -0.44647
  47   36188.6    276.3   0.484565415   4.40815   0.36496   1.97349   0.61669
  48   36382.5    274.9   0.076108921   0.68868  -0.60855   0.50232  -0.25695
  49   36663.8    272.7   0.072717274   0.65294  -0.06296   0.40102  -0.69869
  50   37160.6    269.1   0.009356492   0.08289   0.03597   0.17506   0.22572
  51   37661.4    265.5   0.042569023   0.37211  -0.27645   0.52600  -0.13789
  52   37740.7    265.0   0.068317624   0.59593  -0.47388  -0.04193  -0.60796
  53   37993.4    263.2   0.002570275   0.02227   0.06181  -0.12409   0.05526
  54   38227.4    261.6   0.078469452   0.67577   0.34770  -0.08452   0.74009
  55   38599.5    259.1   0.081657950   0.69645  -0.51658  -0.48447  -0.44147
  56   38716.1    258.3   0.074699922   0.63519   0.14703  -0.75423  -0.21146
  57   38875.0    257.2   0.020732131   0.17557   0.12225   0.31292   0.25041
  58   39030.5    256.2   0.284133641   2.39659  -0.64606  -0.51424   1.30949
  59   39634.9    252.3   0.091359952   0.75885  -0.29286  -0.20304  -0.79489
  60   39947.0    250.3   0.083559728   0.68863  -0.12919   0.00517  -0.81971
  61   40139.1    249.1   0.043081592   0.35335  -0.19869   0.40368   0.38847

FINAL SINGLE POINT ENERGY     -4417.915894095912

DIPOLE MOMENT
-------------
                                X             Y             Z
Electronic contribution:    -12.28824     -18.65573     -24.46162
Nuclear contribution   :     12.76624      21.40713      27.62156
                        -----------------------------------------
Total Dipole Moment    :      0.47800       2.75140       3.15995
                        -----------------------------------------
Magnitude (a.u.)       :      4.21710
Magnitude (Debye)      :     10.71902

Rotational constants in cm-1:     0.001489     0.000583     0.000519
Rotational constants in MHz :    44.648349    17.476540    15.562273

                             ****ORCA TERMINATED NORMALLY****
TOTAL RUN TIME: 0 days 0 hours 14 minutes 6 seconds 823 msec
