                         Program Version 4.2.0 -  RELEASE  -
|  1> # ORCA input file
|  2> # SCF done       -162.140869903406          0.000744408363
|  3> ! CAM-B3LYP def2-SVP def2/J RIJCOSX Grid4 TightSCF
|  4> %maxcore 5000
|  5> %tddft
|  6>     Mode sTDDFT
|  7>     Ethresh 5.0
|  8>     maxcore 5000
|  9> end
| 10>
| 11> %pal
| 12>   nprocs 6
| 13>   end
| 14> * xyz 0 1
| 15>    C       -3.56630         2.19700         2.52279
| 16>    C       -2.71057         1.53784         3.36068
| 17>    C       -2.66059         1.74308         4.75702
| 18>    N       -2.57973         1.86575         5.89511
| 19>    C       -1.73098         0.60047         2.96239
| 20>    N       -0.89189        -0.14904         2.73655
| 21>    C       -4.49693         3.24531         2.91147
| 22>    C       -5.06170         3.80879         1.74216
| 23>    C       -5.97057         4.83905         1.78023
| 24>    C       -6.34008         5.33815         3.03263
| 25>    C       -5.77633         4.76322         4.19810
| 26>    C       -4.85925         3.72181         4.15988
| 27>    S       -6.37498         5.52624         5.64001
| 28>    C       -7.35622         6.59452         4.67198
| 29>    C       -7.24539         6.39090         3.33763
| 30>   Br       -8.43428         7.87672         5.51394
| 31>    C       -4.53225         3.12545         0.54246
| 32>    O       -4.82799         3.38124        -0.59803
| 33>    C       -3.63814         2.04627         1.06996
| 34>    C       -3.13021         1.00760         0.37400
| 35>    C       -3.13445         0.82775        -1.06919
| 36>    N       -3.12251        -0.44509        -1.47836
| 37>    C       -3.10685        -0.64647        -2.78534
| 38>    C       -3.10263         0.39370        -3.69684
| 39>    C       -3.10356         1.69806        -3.17391
| 40>    N       -3.10110         1.88911        -1.85312
| 41>    C       -3.11319         2.85285        -4.03711
| 42>    C       -3.30185         4.09767        -3.55475
| 43>    C       -3.35857         5.30725        -4.32220
| 44>    C       -3.24314         5.37873        -5.66231
| 45>    C       -3.30999         6.57455        -6.46100
| 46>    C       -3.47878         7.87085        -6.02407
| 47>    S       -3.52984         9.01271        -7.29455
| 48>    C       -3.31241         7.75763        -8.46848
| 49>    C       -3.21270         6.53140        -7.87352
| 50>    C       -3.28903         8.01911        -9.88486
| 51>    N       -3.56919         9.25018       -10.32032
| 52>    C       -3.58793         9.42872       -11.62651
| 53>    C       -3.34881         8.40064       -12.52881
| 54>    C       -3.04375         7.15048       -11.97978
| 55>    N       -3.00386         6.98068       -10.65998
| 56>    C       -2.77182         5.97608       -12.78758
| 57>    C       -2.35801         4.83632       -12.19967
| 58>    C       -2.08885         3.61234       -12.86777
| 59>    C       -1.84733         2.42409       -12.25538
| 60>    C       -1.92057         2.06071       -10.85246
| 61>    C       -2.80051         2.55991        -9.92869
| 62>    C       -2.80535         2.19882        -8.56726
| 63>    N       -2.82983         1.98018        -7.43979
| 64>    C       -3.88228         3.41263       -10.24936
| 65>    N       -4.82431         4.03381       -10.45498
| 66>    C       -1.03428         0.92029       -10.65902
| 67>    C       -0.62911         0.43769       -11.93078
| 68>    C       -1.18810         1.30608       -12.98733
| 69>    O       -1.09072         1.17937       -14.18441
| 70>    C        0.17716        -0.66523       -12.07579
| 71>    C        0.61112        -1.31505       -10.91541
| 72>    C        0.20893        -0.81929        -9.65090
| 73>    C       -0.61302         0.29069        -9.50296
| 74>    S        0.86721        -1.76813        -8.35367
| 75>    C        1.66151        -2.80541        -9.50879
| 76>    C        1.44577        -2.45968       -10.80084
| 77>   Br        2.70033        -4.24260        -8.90035
| 78>    H       -6.38180         5.24690         0.87011
| 79>    H       -4.46368         3.31357         5.07477
| 80>    H       -7.77923         6.95852         2.59752
| 81>    H       -2.69553         0.16857         0.90218
| 82>    H       -3.09708        -1.68311        -3.09912
| 83>    H       -3.09713         0.22271        -4.76104
| 84>    H       -2.99435         2.65285        -5.09131
| 85>    H       -3.44378         4.18931        -2.48643
| 86>    H       -3.51403         6.21663        -3.75777
| 87>    H       -3.09726         4.47098        -6.23121
| 88>    H       -3.57838         8.21423        -5.01365
| 89>    H       -3.09572         5.62665        -8.44058
| 90>    H       -3.81378        10.43377       -11.95977
| 91>    H       -3.38777         8.55791       -13.59408
| 92>    H       -2.94916         6.04262       -13.85147
| 93>    H       -2.20590         4.88046       -11.12992
| 94>    H       -1.99286         3.62719       -13.94767
| 95>    H        0.46507        -1.01663       -13.05407
| 96>    H       -0.88850         0.63829        -8.52083
| 97>    H        1.85894        -2.98904       -11.63976
| 98> *
| 99>
|100>                          ****END OF INPUT****

CARTESIAN COORDINATES (ANGSTROEM)
---------------------------------
  C     -3.566300    2.197000    2.522790
  C     -2.710570    1.537840    3.360680
  C     -2.660590    1.743080    4.757020
  N     -2.579730    1.865750    5.895110
  C     -1.730980    0.600470    2.962390
  N     -0.891890   -0.149040    2.736550
  C     -4.496930    3.245310    2.911470
  C     -5.061700    3.808790    1.742160
  C     -5.970570    4.839050    1.780230
  C     -6.340080    5.338150    3.032630
  C     -5.776330    4.763220    4.198100
  C     -4.859250    3.721810    4.159880
  S     -6.374980    5.526240    5.640010
  C     -7.356220    6.594520    4.671980
  C     -7.245390    6.390900    3.337630
  Br    -8.434280    7.876720    5.513940
  C     -4.532250    3.125450    0.542460
  O     -4.827990    3.381240   -0.598030
  C     -3.638140    2.046270    1.069960
  C     -3.130210    1.007600    0.374000
  C     -3.134450    0.827750   -1.069190
  N     -3.122510   -0.445090   -1.478360
  C     -3.106850   -0.646470   -2.785340
  C     -3.102630    0.393700   -3.696840
  C     -3.103560    1.698060   -3.173910
  N     -3.101100    1.889110   -1.853120
  C     -3.113190    2.852850   -4.037110
  C     -3.301850    4.097670   -3.554750
  C     -3.358570    5.307250   -4.322200
  C     -3.243140    5.378730   -5.662310
  C     -3.309990    6.574550   -6.461000
  C     -3.478780    7.870850   -6.024070
  S     -3.529840    9.012710   -7.294550
  C     -3.312410    7.757630   -8.468480
  C     -3.212700    6.531400   -7.873520
  C     -3.289030    8.019110   -9.884860
  N     -3.569190    9.250180  -10.320320
  C     -3.587930    9.428720  -11.626510
  C     -3.348810    8.400640  -12.528810
  C     -3.043750    7.150480  -11.979780
  N     -3.003860    6.980680  -10.659980
  C     -2.771820    5.976080  -12.787580
  C     -2.358010    4.836320  -12.199670
  C     -2.088850    3.612340  -12.867770
  C     -1.847330    2.424090  -12.255380
  C     -1.920570    2.060710  -10.852460
  C     -2.800510    2.559910   -9.928690
  C     -2.805350    2.198820   -8.567260
  N     -2.829830    1.980180   -7.439790
  C     -3.882280    3.412630  -10.249360
  N     -4.824310    4.033810  -10.454980
  C     -1.034280    0.920290  -10.659020
  C     -0.629110    0.437690  -11.930780
  C     -1.188100    1.306080  -12.987330
  O     -1.090720    1.179370  -14.184410
  C      0.177160   -0.665230  -12.075790
  C      0.611120   -1.315050  -10.915410
  C      0.208930   -0.819290   -9.650900
  C     -0.613020    0.290690   -9.502960
  S      0.867210   -1.768130   -8.353670
  C      1.661510   -2.805410   -9.508790
  C      1.445770   -2.459680  -10.800840
  Br     2.700330   -4.242600   -8.900350
  H     -6.381800    5.246900    0.870110
  H     -4.463680    3.313570    5.074770
  H     -7.779230    6.958520    2.597520
  H     -2.695530    0.168570    0.902180
  H     -3.097080   -1.683110   -3.099120
  H     -3.097130    0.222710   -4.761040
  H     -2.994350    2.652850   -5.091310
  H     -3.443780    4.189310   -2.486430
  H     -3.514030    6.216630   -3.757770
  H     -3.097260    4.470980   -6.231210
  H     -3.578380    8.214230   -5.013650
  H     -3.095720    5.626650   -8.440580
  H     -3.813780   10.433770  -11.959770
  H     -3.387770    8.557910  -13.594080
  H     -2.949160    6.042620  -13.851470
  H     -2.205900    4.880460  -11.129920
  H     -1.992860    3.627190  -13.947670
  H      0.465070   -1.016630  -13.054070
  H     -0.888500    0.638290   -8.520830
  H      1.858940   -2.989040  -11.639760

 Total Charge           Charge          ....    0
 Multiplicity           Mult            ....    1
 Number of Electrons    NEL             ....  498
 Basis Dimension        Dim             .... 1030

ORBITAL ENERGIES
----------------

  NO   OCC          E(Eh)            E(eV)
   0   2.0000    -482.892450    -13140.1716
   1   2.0000    -482.884907    -13139.9663
   2   2.0000     -88.984841     -2421.4006
   3   2.0000     -88.974494     -2421.1191
   4   2.0000     -88.954962     -2420.5876
   5   2.0000     -62.570174     -1702.6210
   6   2.0000     -62.562616     -1702.4153
   7   2.0000     -56.404141     -1534.8347
   8   2.0000     -56.401394     -1534.7600
   9   2.0000     -56.401367     -1534.7592
  10   2.0000     -56.396564     -1534.6285
  11   2.0000     -56.393850     -1534.5547
  12   2.0000     -56.393820     -1534.5539
  13   2.0000     -19.226591      -523.1822
  14   2.0000     -19.210422      -522.7422
  15   2.0000     -14.437828      -392.8733
  16   2.0000     -14.422164      -392.4470
  17   2.0000     -14.415179      -392.2570
  18   2.0000     -14.414610      -392.2415
  19   2.0000     -14.414565      -392.2403
  20   2.0000     -14.411657      -392.1611
  21   2.0000     -14.400151      -391.8480
  22   2.0000     -14.395762      -391.7286
  23   2.0000     -10.377540      -282.3872
  24   2.0000     -10.367616      -282.1172
  25   2.0000     -10.364072      -282.0207
  26   2.0000     -10.358459      -281.8680
  27   2.0000     -10.358329      -281.8645
  28   2.0000     -10.355651      -281.7916
  29   2.0000     -10.353091      -281.7219
  30   2.0000     -10.342511      -281.4340
  31   2.0000     -10.340953      -281.3916
  32   2.0000     -10.339185      -281.3435
  33   2.0000     -10.338020      -281.3118
  34   2.0000     -10.336348      -281.2663
  35   2.0000     -10.335869      -281.2533
  36   2.0000     -10.328619      -281.0560
  37   2.0000     -10.325307      -280.9659
  38   2.0000     -10.324621      -280.9472
  39   2.0000     -10.323981      -280.9298
  40   2.0000     -10.320695      -280.8404
  41   2.0000     -10.317789      -280.7613
  42   2.0000     -10.317729      -280.7597
  43   2.0000     -10.317011      -280.7401
  44   2.0000     -10.313834      -280.6537
  45   2.0000     -10.313780      -280.6522
  46   2.0000     -10.311776      -280.5977
  47   2.0000     -10.310532      -280.5638
  48   2.0000     -10.309530      -280.5366
  49   2.0000     -10.306948      -280.4663
  50   2.0000     -10.306788      -280.4619
  51   2.0000     -10.306694      -280.4594
  52   2.0000     -10.304918      -280.4111
  53   2.0000     -10.304746      -280.4064
  54   2.0000     -10.304357      -280.3958
  55   2.0000     -10.304314      -280.3946
  56   2.0000     -10.299543      -280.2648
  57   2.0000     -10.299496      -280.2635
  58   2.0000     -10.298828      -280.2454
  59   2.0000     -10.295659      -280.1591
  60   2.0000     -10.293181      -280.0917
  61   2.0000     -10.291277      -280.0399
  62   2.0000     -10.289998      -280.0051
  63   2.0000     -10.289550      -279.9929
  64   2.0000     -10.274754      -279.5903
  65   2.0000     -10.273591      -279.5586
  66   2.0000     -10.269660      -279.4516
  67   2.0000     -10.269256      -279.4407
  68   2.0000     -10.262048      -279.2445
  69   2.0000     -10.261897      -279.2404
  70   2.0000     -10.251228      -278.9501
  71   2.0000      -8.799616      -239.4497
  72   2.0000      -8.792041      -239.2436
  73   2.0000      -8.080849      -219.8911
  74   2.0000      -8.070420      -219.6073
  75   2.0000      -8.050155      -219.0559
  76   2.0000      -6.635999      -180.5747
  77   2.0000      -6.628339      -180.3663
  78   2.0000      -6.621316      -180.1752
  79   2.0000      -6.621087      -180.1689
  80   2.0000      -6.613790      -179.9704
  81   2.0000      -6.613567      -179.9643
  82   2.0000      -6.050547      -164.6437
  83   2.0000      -6.046239      -164.5265
  84   2.0000      -6.042076      -164.4132
  85   2.0000      -6.040097      -164.3594
  86   2.0000      -6.035860      -164.2441
  87   2.0000      -6.031657      -164.1297
  88   2.0000      -6.019278      -163.7929
  89   2.0000      -6.014977      -163.6758
  90   2.0000      -6.012866      -163.6184
  91   2.0000      -2.751816       -74.8807
  92   2.0000      -2.747743       -74.7699
  93   2.0000      -2.747599       -74.7660
  94   2.0000      -2.744219       -74.6740
  95   2.0000      -2.740131       -74.5628
  96   2.0000      -2.739964       -74.5582
  97   2.0000      -2.735908       -74.4478
  98   2.0000      -2.735897       -74.4476
  99   2.0000      -2.728399       -74.2435
 100   2.0000      -2.728386       -74.2432
 101   2.0000      -1.141928       -31.0734
 102   2.0000      -1.127990       -30.6942
 103   2.0000      -1.091192       -29.6929
 104   2.0000      -1.073226       -29.2040
 105   2.0000      -1.035709       -28.1831
 106   2.0000      -1.026206       -27.9245
 107   2.0000      -1.021230       -27.7891
 108   2.0000      -1.011519       -27.5248
 109   2.0000      -1.008664       -27.4471
 110   2.0000      -0.999845       -27.2072
 111   2.0000      -0.991491       -26.9798
 112   2.0000      -0.991462       -26.9790
 113   2.0000      -0.987024       -26.8583
 114   2.0000      -0.979462       -26.6525
 115   2.0000      -0.970219       -26.4010
 116   2.0000      -0.954743       -25.9799
 117   2.0000      -0.941461       -25.6185
 118   2.0000      -0.929503       -25.2931
 119   2.0000      -0.919367       -25.0172
 120   2.0000      -0.910220       -24.7684
 121   2.0000      -0.907143       -24.6846
 122   2.0000      -0.906902       -24.6781
 123   2.0000      -0.896643       -24.3989
 124   2.0000      -0.893549       -24.3147
 125   2.0000      -0.884644       -24.0724
 126   2.0000      -0.883843       -24.0506
 127   2.0000      -0.876716       -23.8567
 128   2.0000      -0.850528       -23.1440
 129   2.0000      -0.845154       -22.9978
 130   2.0000      -0.838789       -22.8246
 131   2.0000      -0.836541       -22.7634
 132   2.0000      -0.827407       -22.5149
 133   2.0000      -0.821503       -22.3542
 134   2.0000      -0.798015       -21.7151
 135   2.0000      -0.789853       -21.4930
 136   2.0000      -0.777986       -21.1701
 137   2.0000      -0.773011       -21.0347
 138   2.0000      -0.757256       -20.6060
 139   2.0000      -0.754570       -20.5329
 140   2.0000      -0.744018       -20.2458
 141   2.0000      -0.734346       -19.9826
 142   2.0000      -0.725262       -19.7354
 143   2.0000      -0.716372       -19.4935
 144   2.0000      -0.706403       -19.2222
 145   2.0000      -0.698957       -19.0196
 146   2.0000      -0.692199       -18.8357
 147   2.0000      -0.690210       -18.7816
 148   2.0000      -0.682794       -18.5798
 149   2.0000      -0.675268       -18.3750
 150   2.0000      -0.665566       -18.1110
 151   2.0000      -0.658017       -17.9055
 152   2.0000      -0.654602       -17.8126
 153   2.0000      -0.653063       -17.7708
 154   2.0000      -0.638458       -17.3733
 155   2.0000      -0.635948       -17.3050
 156   2.0000      -0.625899       -17.0316
 157   2.0000      -0.622634       -16.9427
 158   2.0000      -0.615672       -16.7533
 159   2.0000      -0.612677       -16.6718
 160   2.0000      -0.608823       -16.5669
 161   2.0000      -0.604558       -16.4509
 162   2.0000      -0.598531       -16.2868
 163   2.0000      -0.594467       -16.1763
 164   2.0000      -0.584443       -15.9035
 165   2.0000      -0.581124       -15.8132
 166   2.0000      -0.576272       -15.6812
 167   2.0000      -0.566869       -15.4253
 168   2.0000      -0.560851       -15.2615
 169   2.0000      -0.553698       -15.0669
 170   2.0000      -0.552052       -15.0221
 171   2.0000      -0.548745       -14.9321
 172   2.0000      -0.546393       -14.8681
 173   2.0000      -0.543825       -14.7982
 174   2.0000      -0.541272       -14.7287
 175   2.0000      -0.538000       -14.6397
 176   2.0000      -0.535682       -14.5767
 177   2.0000      -0.533346       -14.5131
 178   2.0000      -0.530579       -14.4378
 179   2.0000      -0.522773       -14.2254
 180   2.0000      -0.521899       -14.2016
 181   2.0000      -0.519706       -14.1419
 182   2.0000      -0.518193       -14.1007
 183   2.0000      -0.515679       -14.0323
 184   2.0000      -0.508837       -13.8462
 185   2.0000      -0.508185       -13.8284
 186   2.0000      -0.507381       -13.8065
 187   2.0000      -0.506163       -13.7734
 188   2.0000      -0.504545       -13.7294
 189   2.0000      -0.501898       -13.6573
 190   2.0000      -0.498707       -13.5705
 191   2.0000      -0.493102       -13.4180
 192   2.0000      -0.490043       -13.3347
 193   2.0000      -0.486711       -13.2441
 194   2.0000      -0.484600       -13.1866
 195   2.0000      -0.481970       -13.1151
 196   2.0000      -0.476706       -12.9718
 197   2.0000      -0.472980       -12.8705
 198   2.0000      -0.470292       -12.7973
 199   2.0000      -0.468833       -12.7576
 200   2.0000      -0.463990       -12.6258
 201   2.0000      -0.459245       -12.4967
 202   2.0000      -0.458385       -12.4733
 203   2.0000      -0.456395       -12.4191
 204   2.0000      -0.455149       -12.3852
 205   2.0000      -0.454642       -12.3714
 206   2.0000      -0.452893       -12.3238
 207   2.0000      -0.447281       -12.1711
 208   2.0000      -0.446459       -12.1488
 209   2.0000      -0.445436       -12.1209
 210   2.0000      -0.440844       -11.9960
 211   2.0000      -0.439198       -11.9512
 212   2.0000      -0.437972       -11.9178
 213   2.0000      -0.437184       -11.8964
 214   2.0000      -0.431694       -11.7470
 215   2.0000      -0.425057       -11.5664
 216   2.0000      -0.422024       -11.4838
 217   2.0000      -0.421064       -11.4577
 218   2.0000      -0.420224       -11.4349
 219   2.0000      -0.417068       -11.3490
 220   2.0000      -0.413717       -11.2578
 221   2.0000      -0.411523       -11.1981
 222   2.0000      -0.410397       -11.1675
 223   2.0000      -0.405658       -11.0385
 224   2.0000      -0.398278       -10.8377
 225   2.0000      -0.393095       -10.6967
 226   2.0000      -0.389753       -10.6057
 227   2.0000      -0.387350       -10.5403
 228   2.0000      -0.384436       -10.4610
 229   2.0000      -0.381703       -10.3867
 230   2.0000      -0.379480       -10.3262
 231   2.0000      -0.374430       -10.1888
 232   2.0000      -0.373797       -10.1715
 233   2.0000      -0.371956       -10.1214
 234   2.0000      -0.362607        -9.8671
 235   2.0000      -0.356494        -9.7007
 236   2.0000      -0.346412        -9.4264
 237   2.0000      -0.337358        -9.1800
 238   2.0000      -0.331613        -9.0237
 239   2.0000      -0.325950        -8.8695
 240   2.0000      -0.325387        -8.8542
 241   2.0000      -0.313787        -8.5386
 242   2.0000      -0.311030        -8.4635
 243   2.0000      -0.310329        -8.4445
 244   2.0000      -0.303644        -8.2626
 245   2.0000      -0.300904        -8.1880
 246   2.0000      -0.294787        -8.0216
 247   2.0000      -0.291471        -7.9313
 248   2.0000      -0.251669        -6.8482
 249   0.0000      -0.105412        -2.8684
 250   0.0000      -0.085712        -2.3323
 251   0.0000      -0.071924        -1.9572
 252   0.0000      -0.053378        -1.4525
 253   0.0000      -0.039496        -1.0747

MULLIKEN ATOMIC CHARGES
-----------------------
   0 C :    0.290873
   1 C :   -0.333649
   2 C :   -0.185668
   3 N :    0.152709
   4 C :   -0.199035
   5 N :    0.167116
   6 C :    0.021241
   7 C :   -0.026626
   8 C :   -0.067029
   9 C :    0.119121
  10 C :   -0.090911
  11 C :   -0.017238
  12 S :    0.186261
  13 C :   -0.123026
  14 C :    0.038882
  15 Br:    0.024479
  16 C :    0.153444
  17 O :   -0.109809
  18 C :   -0.043168
  19 C :    0.023221
  20 C :   -0.091793
  21 N :   -0.077630
  22 C :    0.079047
  23 C :   -0.035432
  24 C :    0.039195
  25 N :   -0.017561
  26 C :   -0.010228
  27 C :    0.057420
  28 C :    0.012553
  29 C :    0.034843
  30 C :    0.130841
  31 C :   -0.129803
  32 S :    0.179614
  33 C :   -0.067959
  34 C :   -0.004740
  35 C :   -0.048970
  36 N :   -0.070734
  37 C :    0.087900
  38 C :   -0.045247
  39 C :    0.061969
  40 N :   -0.063150
  41 C :    0.009332
  42 C :    0.044062
  43 C :    0.052638
  44 C :   -0.104052
  45 C :    0.268429
  46 C :   -0.329734
  47 C :   -0.145060
  48 N :    0.149242
  49 C :   -0.223591
  50 N :    0.188803
  51 C :    0.016507
  52 C :   -0.011120
  53 C :    0.144124
  54 O :   -0.133764
  55 C :   -0.065235
  56 C :    0.112941
  57 C :   -0.085016
  58 C :   -0.023459
  59 S :    0.189219
  60 C :   -0.125317
  61 C :    0.043195
  62 Br:    0.032956
  63 H :   -0.011070
  64 H :   -0.005552
  65 H :   -0.003204
  66 H :    0.035383
  67 H :    0.002653
  68 H :   -0.000569
  69 H :   -0.026960
  70 H :    0.009385
  71 H :   -0.028297
  72 H :   -0.021659
  73 H :    0.022682
  74 H :   -0.025994
  75 H :    0.010437
  76 H :   -0.003406
  77 H :   -0.002784
  78 H :    0.035582
  79 H :    0.019124
  80 H :   -0.005747
  81 H :   -0.005530
  82 H :   -0.000895
Sum of atomic charges:    0.0000000

LOEWDIN ATOMIC CHARGES
----------------------
   0 C :    0.075149
   1 C :   -0.129666
   2 C :   -0.016574
   3 N :   -0.049859
   4 C :   -0.025001
   5 N :   -0.040484
   6 C :   -0.022644
   7 C :   -0.050107
   8 C :    0.021915
   9 C :   -0.031166
  10 C :   -0.143369
  11 C :   -0.009322
  12 S :    0.431949
  13 C :   -0.270771
  14 C :   -0.070379
  15 Br:    0.137597
  16 C :    0.083186
  17 O :   -0.111263
  18 C :   -0.066364
  19 C :    0.073010
  20 C :    0.006753
  21 N :   -0.091485
  22 C :    0.041481
  23 C :   -0.050105
  24 C :    0.041712
  25 N :   -0.056724
  26 C :   -0.048131
  27 C :    0.021727
  28 C :   -0.034405
  29 C :    0.004603
  30 C :   -0.070791
  31 C :   -0.170943
  32 S :    0.481469
  33 C :   -0.203779
  34 C :   -0.018012
  35 C :    0.025904
  36 N :   -0.095324
  37 C :    0.057669
  38 C :   -0.065977
  39 C :    0.033190
  40 N :   -0.076493
  41 C :    0.014870
  42 C :   -0.000824
  43 C :    0.070323
  44 C :   -0.077417
  45 C :    0.075356
  46 C :   -0.136991
  47 C :    0.000902
  48 N :   -0.055331
  49 C :   -0.029834
  50 N :   -0.032225
  51 C :   -0.019895
  52 C :   -0.052331
  53 C :    0.083531
  54 O :   -0.133889
  55 C :    0.025611
  56 C :   -0.030755
  57 C :   -0.142365
  58 C :   -0.012415
  59 S :    0.435394
  60 C :   -0.269110
  61 C :   -0.069178
  62 Br:    0.143920
  63 H :    0.040531
  64 H :    0.040904
  65 H :    0.038945
  66 H :    0.050067
  67 H :    0.025057
  68 H :    0.035956
  69 H :    0.022468
  70 H :    0.034034
  71 H :    0.023915
  72 H :    0.029274
  73 H :    0.021413
  74 H :    0.028839
  75 H :    0.028587
  76 H :    0.034223
  77 H :    0.034301
  78 H :    0.036578
  79 H :    0.046474
  80 H :    0.042919
  81 H :    0.039915
  82 H :    0.040080

  Mayer bond orders larger than 0.100000
B(  0-C ,  1-C ) :   1.6628 B(  0-C ,  6-C ) :   1.0140 B(  0-C , 18-C ) :   1.0364
B(  1-C ,  2-C ) :   1.1366 B(  1-C ,  4-C ) :   1.1334 B(  2-C ,  3-N ) :   2.9756
B(  4-C ,  5-N ) :   2.9991 B(  6-C ,  7-C ) :   1.2743 B(  6-C , 11-C ) :   1.3972
B(  7-C ,  8-C ) :   1.4234 B(  7-C , 16-C ) :   0.9396 B(  8-C ,  9-C ) :   1.2516
B(  8-C , 63-H ) :   1.0160 B(  9-C , 10-C ) :   1.2983 B(  9-C , 14-C ) :   1.1633
B( 10-C , 11-C ) :   1.3412 B( 10-C , 12-S ) :   1.0846 B( 11-C , 64-H ) :   0.9803
B( 12-S , 13-C ) :   1.0853 B( 13-C , 14-C ) :   1.6188 B( 13-C , 15-Br) :   1.0188
B( 14-C , 65-H ) :   1.0003 B( 16-C , 17-O ) :   2.2425 B( 16-C , 18-C ) :   0.9066
B( 18-C , 19-C ) :   1.7018 B( 19-C , 20-C ) :   1.0100 B( 19-C , 66-H ) :   0.9438
B( 20-C , 21-N ) :   1.5178 B( 20-C , 25-N ) :   1.5587 B( 21-N , 22-C ) :   1.5354
B( 22-C , 23-C ) :   1.3799 B( 22-C , 67-H ) :   0.9805 B( 23-C , 24-C ) :   1.3157
B( 23-C , 68-H ) :   0.9724 B( 24-C , 25-N ) :   1.4966 B( 24-C , 26-C ) :   1.0974
B( 26-C , 27-C ) :   1.7240 B( 26-C , 69-H ) :   0.9571 B( 27-C , 28-C ) :   1.0976
B( 27-C , 70-H ) :   0.9633 B( 28-C , 29-C ) :   1.7260 B( 28-C , 71-H ) :   0.9797
B( 29-C , 30-C ) :   1.0797 B( 29-C , 72-H ) :   0.9684 B( 30-C , 31-C ) :   1.4980
B( 30-C , 34-C ) :   1.2067 B( 31-C , 32-S ) :   1.1908 B( 31-C , 73-H ) :   0.9620
B( 32-S , 33-C ) :   1.1334 B( 33-C , 34-C ) :   1.5397 B( 33-C , 35-C ) :   1.0200
B( 34-C , 74-H ) :   1.0063 B( 35-C , 36-N ) :   1.5760 B( 35-C , 40-N ) :   1.5990
B( 36-N , 37-C ) :   1.5567 B( 37-C , 38-C ) :   1.3633 B( 37-C , 75-H ) :   0.9790
B( 38-C , 39-C ) :   1.3386 B( 38-C , 76-H ) :   0.9776 B( 39-C , 40-N ) :   1.5059
B( 39-C , 41-C ) :   1.0390 B( 41-C , 42-C ) :   1.7308 B( 41-C , 77-H ) :   0.9873
B( 42-C , 43-C ) :   1.0815 B( 42-C , 78-H ) :   0.9379 B( 43-C , 44-C ) :   1.6639
B( 43-C , 79-H ) :   0.9630 B( 44-C , 45-C ) :   1.0284 B( 44-C , 53-C ) :   0.9280
B( 45-C , 46-C ) :   1.6375 B( 45-C , 51-C ) :   1.0298 B( 46-C , 47-C ) :   1.1352
B( 46-C , 49-C ) :   1.1534 B( 47-C , 48-N ) :   2.9238 B( 49-C , 50-N ) :   3.0088
B( 51-C , 52-C ) :   1.2683 B( 51-C , 58-C ) :   1.4068 B( 52-C , 53-C ) :   0.9208
B( 52-C , 55-C ) :   1.4273 B( 53-C , 54-O ) :   2.2805 B( 55-C , 56-C ) :   1.2535
B( 55-C , 80-H ) :   1.0167 B( 56-C , 57-C ) :   1.3010 B( 56-C , 61-C ) :   1.1660
B( 57-C , 58-C ) :   1.3331 B( 57-C , 59-S ) :   1.0861 B( 58-C , 81-H ) :   0.9839
B( 59-S , 60-C ) :   1.0879 B( 60-C , 61-C ) :   1.6158 B( 60-C , 62-Br) :   1.0241
B( 61-C , 82-H ) :   1.0008

-----------------------------------------------------------------------------
         ABSORPTION SPECTRUM VIA TRANSITION ELECTRIC DIPOLE MOMENTS
-----------------------------------------------------------------------------
State   Energy  Wavelength   fosc         T2         TX        TY        TZ
        (cm-1)    (nm)                  (au**2)     (au)      (au)      (au)
-----------------------------------------------------------------------------
   0   17603.6    568.1   0.003253415   0.06084  -0.07691   0.23320   0.02334
   1   22087.7    452.7   0.020781089   0.30974  -0.06151   0.33558   0.43971
   2   23276.9    429.6   0.010094710   0.14277   0.13932  -0.03457   0.34952
   3   24765.6    403.8   0.142765911   1.89781   0.31351  -1.29505   0.34980
   4   26259.1    380.8   0.067819010   0.85025   0.24791  -0.87220   0.16751
   5   26517.8    377.1   0.176270242   2.18836  -1.13602   0.94271   0.09552
   6   26734.9    374.0   0.162142080   1.99661  -0.37055   1.36108  -0.08221
   7   27906.6    358.3   0.004219470   0.04978   0.05413  -0.18278   0.11592
   8   28177.9    354.9   0.290990665   3.39975  -1.23459   1.34735  -0.24532
   9   28228.0    354.3   0.009110698   0.10625   0.11189   0.30191   0.05087
  10   28796.4    347.3   0.368857918   4.21694  -0.66705  -0.39369   1.90184
  11   28862.6    346.5   0.003866230   0.04410  -0.19271  -0.00193  -0.08341
  12   28938.6    345.6   0.612103169   6.96341  -0.02184   1.38161  -2.24813
  13   29899.0    334.5   0.019199597   0.21140  -0.27590   0.36773   0.00776
  14   30200.4    331.1   0.183466004   1.99995   0.41144   1.09020  -0.80133
  15   30268.5    330.4   0.383890620   4.17534   0.09700  -1.70986   1.11459
  16   31795.1    314.5   0.000183387   0.00190  -0.00714   0.02219   0.03682
  17   32278.9    309.8   0.246981986   2.51897  -0.46897   1.14413   0.99499
  18   32401.3    308.6   0.213445716   2.16871   0.84420  -1.06479  -0.56768
  19   32583.0    306.9   0.009188425   0.09284   0.05109   0.15524   0.25716
  20   32939.4    303.6   0.157447786   1.57361   0.22412  -0.77664  -0.95927
  21   33065.0    302.4   0.100920093   1.00481  -0.05354   0.70463   0.71095
  22   33078.1    302.3   0.424492042   4.22478   1.40728  -1.46281   0.32329
  23   33552.6    298.0   0.399257457   3.91744  -0.41684   1.88559  -0.43387
  24   33675.5    297.0   0.010576347   0.10339  -0.03375   0.31116   0.07374
  25   34074.1    293.5   0.953899717   9.21625   1.88312  -2.37788   0.12584
  26   34526.6    289.6   0.230120425   2.19420  -0.69184   1.30774   0.07337
  27   35669.5    280.4   0.008407589   0.07760  -0.04595   0.27364   0.02469
  28   35722.4    279.9   0.024722405   0.22784  -0.21291   0.40333  -0.14084
  29   36261.9    275.8   0.012262238   0.11133  -0.08640   0.30504  -0.10397
  30   37052.6    269.9   0.267037784   2.37263   0.52134  -0.97875  -1.06906
  31   37959.0    263.4   0.053647723   0.46528  -0.12938   0.20540  -0.63746
  32   38215.8    261.7   0.000153388   0.00132  -0.00540   0.01188  -0.03393
  33   38284.2    261.2   0.147383305   1.26737   0.45663  -0.75502  -0.69914
  34   38920.9    256.9   0.002246591   0.01900  -0.02363   0.11709  -0.06881
  35   39054.6    256.1   0.000591764   0.00499  -0.00552  -0.05961   0.03747
  36   39345.5    254.2   0.259262341   2.16930  -0.07196   0.23468   1.45226
  37   39368.8    254.0   0.010440072   0.08730   0.13326  -0.06233  -0.25624
  38   39808.9    251.2   0.002252582   0.01863  -0.00249   0.04476  -0.12892
  39   39941.4    250.4   0.067826228   0.55905  -0.11808   0.61852  -0.40316
  40   40055.9    249.7   0.435679887   3.58077   0.03089   0.56507  -1.80569
  41   40294.3    248.2   0.118718708   0.96995   0.15070  -0.68053  -0.69579

FINAL SINGLE POINT ENERGY     -8768.562871795468

DIPOLE MOMENT
-------------
                                X             Y             Z
Electronic contribution:      2.70844     -35.62420      83.42860
Nuclear contribution   :     -2.62074      36.62885     -87.14511
                        -----------------------------------------
Total Dipole Moment    :      0.08770       1.00465      -3.71651
                        -----------------------------------------
Magnitude (a.u.)       :      3.85091
Magnitude (Debye)      :      9.78822

Rotational constants in cm-1:     0.001013     0.000343     0.000262
Rotational constants in MHz :    30.366786    10.268114     7.855424

                             ****ORCA TERMINATED NORMALLY****
TOTAL RUN TIME: 0 days 0 hours 11 minutes 29 seconds 835 msec
