                         Program Version 4.2.0 -  RELEASE  -
|  1> # ORCA input file
|  2> # SCF done       -166.728323563181          0.000940295804
|  3> ! CAM-B3LYP def2-SVP def2/J RIJCOSX Grid4 TightSCF
|  4> %maxcore 5000
|  5> %tddft
|  6>     Mode sTDDFT
|  7>     Ethresh 5.0
|  8>     maxcore 5000
|  9> end
| 10>
| 11> %pal
| 12>   nprocs 6
| 13>   end
| 14> * xyz 0 1
| 15>    C      -14.42814         4.23775        -0.58627
| 16>    C      -14.99553         3.20418         0.11651
| 17>    C      -16.37371         3.09144         0.38529
| 18>    N      -17.48573         2.94925         0.63373
| 19>    C      -14.27030         2.13051         0.67019
| 20>    N      -13.72384         1.23888         1.14417
| 21>    C      -15.14498         5.37795        -1.15204
| 22>    C      -14.21019         6.24816        -1.77008
| 23>    C      -14.58243         7.41241        -2.39674
| 24>    C      -15.94317         7.73632        -2.41671
| 25>    C      -16.86847         6.86344        -1.79782
| 26>    C      -16.49160         5.68537        -1.16293
| 27>    S      -18.49641         7.45205        -1.94140
| 28>    C      -17.92003         8.84429        -2.81892
| 29>    C      -16.57779         8.86889        -2.99621
| 30>   Br      -19.14357        10.13242        -3.42084
| 31>    C      -12.86441         5.68157        -1.61536
| 32>    O      -11.80775         6.15429        -2.02568
| 33>    C      -13.02900         4.42385        -0.88794
| 34>    C      -11.96261         3.59908        -0.61105
| 35>    N      -10.71995         3.94908        -0.95064
| 36>    C       -9.59055         3.21673        -0.75836
| 37>    S       -9.64911         1.68561         0.05054
| 38>    C       -7.93280         1.55957        -0.09213
| 39>    N       -7.31622         0.37544         0.31681
| 40>    O       -6.10351         0.30308         0.21986
| 41>    O       -8.03924        -0.51499         0.73183
| 42>    C       -7.35707         2.63779        -0.70890
| 43>    C       -8.29582         3.60014        -1.12475
| 44>    C       -7.88518         4.75797        -1.87991
| 45>    C       -8.60859         5.46667        -2.76665
| 46>    C       -8.02718         6.51387        -3.55364
| 47>    C       -8.65235         7.21629        -4.51523
| 48>    C      -10.09476         7.05942        -4.87477
| 49>    C       -7.82226         8.06367        -5.44804
| 50>    N       -7.34603         7.18785        -6.50895
| 51>    C       -8.09208         6.91441        -7.60719
| 52>    C       -8.11693         5.69190        -8.20071
| 53>    C       -8.77014         5.38096        -9.40623
| 54>    C       -8.95320         4.09263        -9.84123
| 55>    C       -9.52591         3.64578       -11.05529
| 56>    C       -9.59700         2.28989       -11.17643
| 57>    C       -9.11598         1.58885       -10.04797
| 58>    S       -8.51348         2.70352        -8.84923
| 59>    C       -9.12044         0.22639        -9.80902
| 60>    C       -9.48228        -0.82292       -10.67846
| 61>    C       -9.38668        -2.05963       -10.11531
| 62>    C       -8.97406        -2.05383        -8.75717
| 63>    S       -8.66950        -0.40916        -8.23931
| 64>    C       -8.81981        -3.17027        -7.97360
| 65>    C       -8.52981        -3.22121        -6.59620
| 66>    S       -8.12603        -4.76482        -5.85003
| 67>    C       -7.97585        -4.11784        -4.26448
| 68>    C       -8.22377        -2.76660        -4.28138
| 69>    C       -8.52785        -2.26931        -5.59094
| 70>    O       -8.80983        -0.94870        -5.54084
| 71>    C       -8.68275        -0.59848        -4.23360
| 72>    N       -8.93385         0.73417        -3.88659
| 73>    O       -8.83525         1.01678        -2.69690
| 74>    O       -9.23525         1.53096        -4.75306
| 75>    C       -8.33080        -1.64596        -3.41772
| 76>    H      -13.84862         8.05524        -2.85722
| 77>    H      -17.23543         5.05331        -0.70784
| 78>    H      -16.05572         9.65237        -3.51432
| 79>    H      -12.08888         2.64259        -0.12081
| 80>    H      -10.63738         4.87137        -1.40336
| 81>    H       -6.29948         2.70114        -0.89146
| 82>    H       -6.83771         5.00721        -1.75919
| 83>    H       -9.62990         5.20917        -2.99332
| 84>    H       -6.97660         6.71051        -3.37144
| 85>    H      -10.69693         6.83196        -4.00027
| 86>    H      -10.21883         6.25123        -5.59837
| 87>    H      -10.47429         7.97283        -5.32795
| 88>    H       -6.95259         8.48514        -4.93680
| 89>    H       -8.40141         8.87186        -5.89694
| 90>    H       -6.83613         6.38827        -6.14984
| 91>    H       -8.65203         7.74790        -8.00978
| 92>    H       -7.61293         4.87357        -7.70061
| 93>    H       -9.15862         6.18595       -10.01548
| 94>    H       -9.86282         4.34110       -11.80440
| 95>    H      -10.00246         1.77779       -12.03071
| 96>    H       -9.79162        -0.64167       -11.69246
| 97>    H       -9.61572        -2.97991       -10.62300
| 98>    H       -8.93421        -4.12852        -8.46203
| 99>    H       -7.73008        -4.75429        -3.44119
|100>    H       -8.18605        -1.60708        -2.35774
|101> *
|102>
|103>                          ****END OF INPUT****

CARTESIAN COORDINATES (ANGSTROEM)
---------------------------------
  C    -14.428140    4.237750   -0.586270
  C    -14.995530    3.204180    0.116510
  C    -16.373710    3.091440    0.385290
  N    -17.485730    2.949250    0.633730
  C    -14.270300    2.130510    0.670190
  N    -13.723840    1.238880    1.144170
  C    -15.144980    5.377950   -1.152040
  C    -14.210190    6.248160   -1.770080
  C    -14.582430    7.412410   -2.396740
  C    -15.943170    7.736320   -2.416710
  C    -16.868470    6.863440   -1.797820
  C    -16.491600    5.685370   -1.162930
  S    -18.496410    7.452050   -1.941400
  C    -17.920030    8.844290   -2.818920
  C    -16.577790    8.868890   -2.996210
  Br   -19.143570   10.132420   -3.420840
  C    -12.864410    5.681570   -1.615360
  O    -11.807750    6.154290   -2.025680
  C    -13.029000    4.423850   -0.887940
  C    -11.962610    3.599080   -0.611050
  N    -10.719950    3.949080   -0.950640
  C     -9.590550    3.216730   -0.758360
  S     -9.649110    1.685610    0.050540
  C     -7.932800    1.559570   -0.092130
  N     -7.316220    0.375440    0.316810
  O     -6.103510    0.303080    0.219860
  O     -8.039240   -0.514990    0.731830
  C     -7.357070    2.637790   -0.708900
  C     -8.295820    3.600140   -1.124750
  C     -7.885180    4.757970   -1.879910
  C     -8.608590    5.466670   -2.766650
  C     -8.027180    6.513870   -3.553640
  C     -8.652350    7.216290   -4.515230
  C    -10.094760    7.059420   -4.874770
  C     -7.822260    8.063670   -5.448040
  N     -7.346030    7.187850   -6.508950
  C     -8.092080    6.914410   -7.607190
  C     -8.116930    5.691900   -8.200710
  C     -8.770140    5.380960   -9.406230
  C     -8.953200    4.092630   -9.841230
  C     -9.525910    3.645780  -11.055290
  C     -9.597000    2.289890  -11.176430
  C     -9.115980    1.588850  -10.047970
  S     -8.513480    2.703520   -8.849230
  C     -9.120440    0.226390   -9.809020
  C     -9.482280   -0.822920  -10.678460
  C     -9.386680   -2.059630  -10.115310
  C     -8.974060   -2.053830   -8.757170
  S     -8.669500   -0.409160   -8.239310
  C     -8.819810   -3.170270   -7.973600
  C     -8.529810   -3.221210   -6.596200
  S     -8.126030   -4.764820   -5.850030
  C     -7.975850   -4.117840   -4.264480
  C     -8.223770   -2.766600   -4.281380
  C     -8.527850   -2.269310   -5.590940
  O     -8.809830   -0.948700   -5.540840
  C     -8.682750   -0.598480   -4.233600
  N     -8.933850    0.734170   -3.886590
  O     -8.835250    1.016780   -2.696900
  O     -9.235250    1.530960   -4.753060
  C     -8.330800   -1.645960   -3.417720
  H    -13.848620    8.055240   -2.857220
  H    -17.235430    5.053310   -0.707840
  H    -16.055720    9.652370   -3.514320
  H    -12.088880    2.642590   -0.120810
  H    -10.637380    4.871370   -1.403360
  H     -6.299480    2.701140   -0.891460
  H     -6.837710    5.007210   -1.759190
  H     -9.629900    5.209170   -2.993320
  H     -6.976600    6.710510   -3.371440
  H    -10.696930    6.831960   -4.000270
  H    -10.218830    6.251230   -5.598370
  H    -10.474290    7.972830   -5.327950
  H     -6.952590    8.485140   -4.936800
  H     -8.401410    8.871860   -5.896940
  H     -6.836130    6.388270   -6.149840
  H     -8.652030    7.747900   -8.009780
  H     -7.612930    4.873570   -7.700610
  H     -9.158620    6.185950  -10.015480
  H     -9.862820    4.341100  -11.804400
  H    -10.002460    1.777790  -12.030710
  H     -9.791620   -0.641670  -11.692460
  H     -9.615720   -2.979910  -10.623000
  H     -8.934210   -4.128520   -8.462030
  H     -7.730080   -4.754290   -3.441190
  H     -8.186050   -1.607080   -2.357740

 Total Charge           Charge          ....    0
 Multiplicity           Mult            ....    1
 Number of Electrons    NEL             ....  488
 Basis Dimension        Dim             .... 1017

ORBITAL ENERGIES
----------------

  NO   OCC          E(Eh)            E(eV)
   0   2.0000    -482.889128    -13140.0812
   1   2.0000     -88.979821     -2421.2640
   2   2.0000     -88.979296     -2421.2497
   3   2.0000     -88.963131     -2420.8099
   4   2.0000     -88.928443     -2419.8660
   5   2.0000     -88.925583     -2419.7881
   6   2.0000     -62.566848     -1702.5305
   7   2.0000     -56.400805     -1534.7439
   8   2.0000     -56.398078     -1534.6697
   9   2.0000     -56.398043     -1534.6688
  10   2.0000     -19.297803      -525.1199
  11   2.0000     -19.244687      -523.6745
  12   2.0000     -19.241657      -523.5921
  13   2.0000     -19.233864      -523.3800
  14   2.0000     -19.232745      -523.3496
  15   2.0000     -19.231485      -523.3153
  16   2.0000     -14.654132      -398.7592
  17   2.0000     -14.643878      -398.4802
  18   2.0000     -14.495543      -394.4438
  19   2.0000     -14.434504      -392.7828
  20   2.0000     -14.418724      -392.3534
  21   2.0000     -14.415045      -392.2533
  22   2.0000     -10.380841      -282.4770
  23   2.0000     -10.380417      -282.4655
  24   2.0000     -10.368789      -282.1491
  25   2.0000     -10.362845      -281.9874
  26   2.0000     -10.362497      -281.9779
  27   2.0000     -10.346629      -281.5461
  28   2.0000     -10.342056      -281.4217
  29   2.0000     -10.336451      -281.2691
  30   2.0000     -10.334556      -281.2176
  31   2.0000     -10.329934      -281.0918
  32   2.0000     -10.321044      -280.8499
  33   2.0000     -10.318350      -280.7766
  34   2.0000     -10.315777      -280.7066
  35   2.0000     -10.314011      -280.6585
  36   2.0000     -10.313040      -280.6321
  37   2.0000     -10.312123      -280.6071
  38   2.0000     -10.309906      -280.5468
  39   2.0000     -10.308090      -280.4974
  40   2.0000     -10.307546      -280.4826
  41   2.0000     -10.306629      -280.4576
  42   2.0000     -10.301199      -280.3099
  43   2.0000     -10.300965      -280.3035
  44   2.0000     -10.299568      -280.2655
  45   2.0000     -10.299351      -280.2596
  46   2.0000     -10.298887      -280.2470
  47   2.0000     -10.298397      -280.2336
  48   2.0000     -10.297622      -280.2125
  49   2.0000     -10.296700      -280.1875
  50   2.0000     -10.288397      -279.9615
  51   2.0000     -10.287154      -279.9277
  52   2.0000     -10.286773      -279.9173
  53   2.0000     -10.285089      -279.8715
  54   2.0000     -10.283904      -279.8392
  55   2.0000     -10.280441      -279.7450
  56   2.0000     -10.276660      -279.6421
  57   2.0000     -10.275471      -279.6098
  58   2.0000     -10.274020      -279.5703
  59   2.0000     -10.271911      -279.5129
  60   2.0000     -10.270729      -279.4807
  61   2.0000     -10.270298      -279.4690
  62   2.0000     -10.266738      -279.3721
  63   2.0000     -10.262935      -279.2686
  64   2.0000     -10.257561      -279.1224
  65   2.0000      -8.796282      -239.3590
  66   2.0000      -8.075852      -219.7551
  67   2.0000      -8.074375      -219.7149
  68   2.0000      -8.058144      -219.2733
  69   2.0000      -8.024947      -218.3699
  70   2.0000      -8.021782      -218.2838
  71   2.0000      -6.632628      -180.4830
  72   2.0000      -6.617986      -180.0846
  73   2.0000      -6.617802      -180.0796
  74   2.0000      -6.045534      -164.5073
  75   2.0000      -6.044026      -164.4663
  76   2.0000      -6.041241      -164.3905
  77   2.0000      -6.039655      -164.3474
  78   2.0000      -6.037078      -164.2773
  79   2.0000      -6.035870      -164.2444
  80   2.0000      -6.027476      -164.0160
  81   2.0000      -6.023191      -163.8993
  82   2.0000      -6.020447      -163.8247
  83   2.0000      -5.994663      -163.1231
  84   2.0000      -5.991531      -163.0378
  85   2.0000      -5.990668      -163.0144
  86   2.0000      -5.987430      -162.9262
  87   2.0000      -5.985798      -162.8818
  88   2.0000      -5.982602      -162.7949
  89   2.0000      -2.748447       -74.7890
  90   2.0000      -2.744415       -74.6793
  91   2.0000      -2.744233       -74.6744
  92   2.0000      -2.732627       -74.3586
  93   2.0000      -2.732594       -74.3577
  94   2.0000      -1.323823       -36.0231
  95   2.0000      -1.312966       -35.7276
  96   2.0000      -1.219543       -33.1854
  97   2.0000      -1.147423       -31.2230
  98   2.0000      -1.138003       -30.9666
  99   2.0000      -1.130963       -30.7751
 100   2.0000      -1.101212       -29.9655
 101   2.0000      -1.038648       -28.2630
 102   2.0000      -1.027163       -27.9505
 103   2.0000      -1.016069       -27.6486
 104   2.0000      -1.002849       -27.2889
 105   2.0000      -0.996264       -27.1097
 106   2.0000      -0.992708       -27.0130
 107   2.0000      -0.984902       -26.8005
 108   2.0000      -0.978666       -26.6308
 109   2.0000      -0.957591       -26.0574
 110   2.0000      -0.945778       -25.7359
 111   2.0000      -0.931392       -25.3445
 112   2.0000      -0.925957       -25.1966
 113   2.0000      -0.912703       -24.8359
 114   2.0000      -0.909635       -24.7524
 115   2.0000      -0.896237       -24.3878
 116   2.0000      -0.891691       -24.2642
 117   2.0000      -0.890473       -24.2310
 118   2.0000      -0.885195       -24.0874
 119   2.0000      -0.875757       -23.8306
 120   2.0000      -0.864719       -23.5302
 121   2.0000      -0.851618       -23.1737
 122   2.0000      -0.845862       -23.0171
 123   2.0000      -0.837430       -22.7876
 124   2.0000      -0.834124       -22.6977
 125   2.0000      -0.823580       -22.4108
 126   2.0000      -0.810389       -22.0518
 127   2.0000      -0.803422       -21.8622
 128   2.0000      -0.794648       -21.6235
 129   2.0000      -0.786805       -21.4101
 130   2.0000      -0.779062       -21.1994
 131   2.0000      -0.772999       -21.0344
 132   2.0000      -0.766093       -20.8464
 133   2.0000      -0.749384       -20.3918
 134   2.0000      -0.743880       -20.2420
 135   2.0000      -0.728314       -19.8184
 136   2.0000      -0.716655       -19.5012
 137   2.0000      -0.711600       -19.3636
 138   2.0000      -0.699053       -19.0222
 139   2.0000      -0.697753       -18.9868
 140   2.0000      -0.691804       -18.8249
 141   2.0000      -0.688285       -18.7292
 142   2.0000      -0.674359       -18.3502
 143   2.0000      -0.666619       -18.1396
 144   2.0000      -0.660525       -17.9738
 145   2.0000      -0.656657       -17.8685
 146   2.0000      -0.645886       -17.5755
 147   2.0000      -0.642556       -17.4848
 148   2.0000      -0.638531       -17.3753
 149   2.0000      -0.633208       -17.2305
 150   2.0000      -0.626733       -17.0543
 151   2.0000      -0.625046       -17.0084
 152   2.0000      -0.622616       -16.9422
 153   2.0000      -0.621142       -16.9021
 154   2.0000      -0.617553       -16.8045
 155   2.0000      -0.615545       -16.7498
 156   2.0000      -0.610975       -16.6255
 157   2.0000      -0.605737       -16.4829
 158   2.0000      -0.605525       -16.4772
 159   2.0000      -0.598875       -16.2962
 160   2.0000      -0.593726       -16.1561
 161   2.0000      -0.589963       -16.0537
 162   2.0000      -0.581254       -15.8167
 163   2.0000      -0.574520       -15.6335
 164   2.0000      -0.572820       -15.5872
 165   2.0000      -0.566544       -15.4164
 166   2.0000      -0.563462       -15.3326
 167   2.0000      -0.559753       -15.2316
 168   2.0000      -0.556798       -15.1512
 169   2.0000      -0.556267       -15.1368
 170   2.0000      -0.551510       -15.0074
 171   2.0000      -0.550145       -14.9702
 172   2.0000      -0.542767       -14.7694
 173   2.0000      -0.541456       -14.7338
 174   2.0000      -0.539748       -14.6873
 175   2.0000      -0.530438       -14.4339
 176   2.0000      -0.527519       -14.3545
 177   2.0000      -0.524112       -14.2618
 178   2.0000      -0.520067       -14.1517
 179   2.0000      -0.516033       -14.0420
 180   2.0000      -0.511432       -13.9168
 181   2.0000      -0.510020       -13.8783
 182   2.0000      -0.508086       -13.8257
 183   2.0000      -0.503153       -13.6915
 184   2.0000      -0.502303       -13.6684
 185   2.0000      -0.499957       -13.6045
 186   2.0000      -0.495145       -13.4736
 187   2.0000      -0.490972       -13.3600
 188   2.0000      -0.484147       -13.1743
 189   2.0000      -0.482424       -13.1274
 190   2.0000      -0.481659       -13.1066
 191   2.0000      -0.475572       -12.9410
 192   2.0000      -0.472383       -12.8542
 193   2.0000      -0.465433       -12.6651
 194   2.0000      -0.464755       -12.6466
 195   2.0000      -0.463731       -12.6188
 196   2.0000      -0.459631       -12.5072
 197   2.0000      -0.458875       -12.4866
 198   2.0000      -0.457193       -12.4408
 199   2.0000      -0.452856       -12.3228
 200   2.0000      -0.452450       -12.3118
 201   2.0000      -0.450996       -12.2722
 202   2.0000      -0.449292       -12.2258
 203   2.0000      -0.447276       -12.1710
 204   2.0000      -0.445162       -12.1135
 205   2.0000      -0.443646       -12.0722
 206   2.0000      -0.443120       -12.0579
 207   2.0000      -0.436483       -11.8773
 208   2.0000      -0.429782       -11.6950
 209   2.0000      -0.428796       -11.6681
 210   2.0000      -0.428220       -11.6524
 211   2.0000      -0.424012       -11.5380
 212   2.0000      -0.417506       -11.3609
 213   2.0000      -0.414764       -11.2863
 214   2.0000      -0.412964       -11.2373
 215   2.0000      -0.411540       -11.1986
 216   2.0000      -0.408917       -11.1272
 217   2.0000      -0.405940       -11.0462
 218   2.0000      -0.396734       -10.7957
 219   2.0000      -0.393167       -10.6986
 220   2.0000      -0.392736       -10.6869
 221   2.0000      -0.384835       -10.4719
 222   2.0000      -0.380991       -10.3673
 223   2.0000      -0.379141       -10.3170
 224   2.0000      -0.378684       -10.3045
 225   2.0000      -0.374783       -10.1984
 226   2.0000      -0.372725       -10.1424
 227   2.0000      -0.371315       -10.1040
 228   2.0000      -0.369969       -10.0674
 229   2.0000      -0.361085        -9.8256
 230   2.0000      -0.357001        -9.7145
 231   2.0000      -0.347073        -9.4443
 232   2.0000      -0.340615        -9.2686
 233   2.0000      -0.334859        -9.1120
 234   2.0000      -0.323722        -8.8089
 235   2.0000      -0.322037        -8.7631
 236   2.0000      -0.312350        -8.4995
 237   2.0000      -0.307226        -8.3600
 238   2.0000      -0.300968        -8.1898
 239   2.0000      -0.297200        -8.0872
 240   2.0000      -0.292664        -7.9638
 241   2.0000      -0.263287        -7.1644
 242   2.0000      -0.250730        -6.8227
 243   2.0000      -0.190931        -5.1955
 244   0.0000      -0.087580        -2.3832
 245   0.0000      -0.070218        -1.9107
 246   0.0000      -0.068833        -1.8730
 247   0.0000      -0.054636        -1.4867
 248   0.0000      -0.036927        -1.0048

MULLIKEN ATOMIC CHARGES
-----------------------
   0 C :    0.331743
   1 C :   -0.345973
   2 C :   -0.184898
   3 N :    0.148442
   4 C :   -0.198599
   5 N :    0.147640
   6 C :    0.003146
   7 C :   -0.003679
   8 C :   -0.070297
   9 C :    0.115089
  10 C :   -0.091942
  11 C :   -0.015714
  12 S :    0.191465
  13 C :   -0.123787
  14 C :    0.038006
  15 Br:    0.025131
  16 C :    0.173135
  17 O :   -0.216296
  18 C :   -0.125618
  19 C :    0.029242
  20 N :    0.003013
  21 C :   -0.117451
  22 S :    0.172096
  23 C :    0.025391
  24 N :    0.273132
  25 O :   -0.255291
  26 O :   -0.268623
  27 C :    0.008187
  28 C :    0.154456
  29 C :   -0.044521
  30 C :    0.024706
  31 C :   -0.007626
  32 C :   -0.206942
  33 C :    0.080931
  34 C :    0.191605
  35 N :   -0.139303
  36 C :    0.044693
  37 C :   -0.026575
  38 C :    0.002381
  39 C :   -0.045298
  40 C :    0.044746
  41 C :    0.013292
  42 C :   -0.040596
  43 S :    0.067319
  44 C :   -0.061641
  45 C :    0.037806
  46 C :    0.019930
  47 C :   -0.026516
  48 S :    0.089949
  49 C :    0.018009
  50 C :   -0.217951
  51 S :    0.140009
  52 C :   -0.139669
  53 C :    0.121414
  54 C :    0.186999
  55 O :   -0.191528
  56 C :    0.233417
  57 N :    0.289749
  58 O :   -0.275859
  59 O :   -0.229826
  60 C :   -0.070315
  61 H :   -0.013279
  62 H :   -0.006222
  63 H :   -0.003826
  64 H :    0.049776
  65 H :    0.172724
  66 H :    0.006976
  67 H :   -0.013465
  68 H :   -0.000114
  69 H :   -0.029994
  70 H :    0.041980
  71 H :    0.046865
  72 H :   -0.002430
  73 H :    0.016998
  74 H :    0.009900
  75 H :    0.116606
  76 H :   -0.002809
  77 H :   -0.005272
  78 H :   -0.021637
  79 H :   -0.019428
  80 H :   -0.021298
  81 H :   -0.019330
  82 H :   -0.021979
  83 H :   -0.027493
  84 H :    0.030761
  85 H :    0.012059
Sum of atomic charges:   -0.0000000

LOEWDIN ATOMIC CHARGES
----------------------
   0 C :    0.079299
   1 C :   -0.149381
   2 C :   -0.019403
   3 N :   -0.055575
   4 C :   -0.022092
   5 N :   -0.051906
   6 C :   -0.017499
   7 C :   -0.051247
   8 C :    0.022181
   9 C :   -0.034522
  10 C :   -0.143706
  11 C :   -0.006996
  12 S :    0.437266
  13 C :   -0.271556
  14 C :   -0.070712
  15 Br:    0.137870
  16 C :    0.098045
  17 O :   -0.178552
  18 C :   -0.148466
  19 C :    0.114965
  20 N :    0.090414
  21 C :   -0.107064
  22 S :    0.484648
  23 C :   -0.201901
  24 N :    0.276263
  25 O :   -0.220557
  26 O :   -0.234535
  27 C :    0.005561
  28 C :   -0.077642
  29 C :   -0.031054
  30 C :   -0.017621
  31 C :   -0.054691
  32 C :   -0.029452
  33 C :   -0.059178
  34 C :    0.046855
  35 N :   -0.002326
  36 C :    0.042755
  37 C :   -0.121382
  38 C :   -0.032696
  39 C :   -0.173106
  40 C :   -0.026455
  41 C :   -0.051465
  42 C :   -0.165038
  43 S :    0.369730
  44 C :   -0.202867
  45 C :   -0.027765
  46 C :   -0.051986
  47 C :   -0.137100
  48 S :    0.388117
  49 C :   -0.112387
  50 C :   -0.193123
  51 S :    0.467494
  52 C :   -0.195580
  53 C :   -0.082013
  54 C :    0.002506
  55 O :   -0.002719
  56 C :    0.017577
  57 N :    0.279208
  58 O :   -0.232026
  59 O :   -0.192164
  60 C :    0.001423
  61 H :    0.040158
  62 H :    0.041948
  63 H :    0.038463
  64 H :    0.036332
  65 H :    0.089286
  66 H :    0.044014
  67 H :    0.030499
  68 H :    0.024261
  69 H :    0.021504
  70 H :    0.033664
  71 H :    0.044030
  72 H :    0.026256
  73 H :    0.026896
  74 H :    0.025824
  75 H :    0.076735
  76 H :    0.024362
  77 H :    0.019002
  78 H :    0.029816
  79 H :    0.030766
  80 H :    0.028458
  81 H :    0.029542
  82 H :    0.028818
  83 H :    0.029936
  84 H :    0.028165
  85 H :    0.046593

  Mayer bond orders larger than 0.100000
B(  0-C ,  1-C ) :   1.6235 B(  0-C ,  6-C ) :   0.9986 B(  0-C , 18-C ) :   1.1086
B(  1-C ,  2-C ) :   1.1446 B(  1-C ,  4-C ) :   1.1487 B(  2-C ,  3-N ) :   2.9671
B(  4-C ,  5-N ) :   2.9573 B(  6-C ,  7-C ) :   1.2734 B(  6-C , 11-C ) :   1.4271
B(  7-C ,  8-C ) :   1.4203 B(  7-C , 16-C ) :   0.9768 B(  8-C ,  9-C ) :   1.2440
B(  8-C , 61-H ) :   1.0184 B(  9-C , 10-C ) :   1.3115 B(  9-C , 14-C ) :   1.1627
B( 10-C , 11-C ) :   1.3178 B( 10-C , 12-S ) :   1.0901 B( 11-C , 62-H ) :   0.9803
B( 12-S , 13-C ) :   1.0891 B( 13-C , 14-C ) :   1.6176 B( 13-C , 15-Br) :   1.0187
B( 14-C , 63-H ) :   0.9999 B( 16-C , 17-O ) :   1.9955 B( 16-C , 18-C ) :   1.0143
B( 17-O , 65-H ) :   0.1218 B( 18-C , 19-C ) :   1.4300 B( 19-C , 20-N ) :   1.3581
B( 19-C , 64-H ) :   0.9298 B( 20-N , 21-C ) :   1.1766 B( 20-N , 65-H ) :   0.8377
B( 21-C , 22-S ) :   1.1467 B( 21-C , 28-C ) :   1.3889 B( 22-S , 23-C ) :   1.0896
B( 23-C , 24-N ) :   0.9758 B( 23-C , 27-C ) :   1.4838 B( 24-N , 25-O ) :   1.5315
B( 24-N , 26-O ) :   1.5003 B( 25-O , 26-O ) :   0.2543 B( 27-C , 28-C ) :   1.2251
B( 27-C , 66-H ) :   1.0044 B( 28-C , 29-C ) :   1.0465 B( 29-C , 30-C ) :   1.7260
B( 29-C , 67-H ) :   0.9694 B( 30-C , 31-C ) :   1.1249 B( 30-C , 68-H ) :   0.9485
B( 31-C , 32-C ) :   1.7590 B( 31-C , 69-H ) :   0.9770 B( 32-C , 33-C ) :   1.0833
B( 32-C , 34-C ) :   1.0333 B( 33-C , 70-H ) :   0.9357 B( 33-C , 71-H ) :   0.9356
B( 33-C , 72-H ) :   0.9466 B( 34-C , 35-N ) :   1.0192 B( 34-C , 73-H ) :   0.9448
B( 34-C , 74-H ) :   0.9352 B( 35-N , 36-C ) :   1.2227 B( 35-N , 75-H ) :   0.9381
B( 36-C , 37-C ) :   1.5996 B( 36-C , 76-H ) :   0.9713 B( 37-C , 38-C ) :   1.1682
B( 37-C , 77-H ) :   0.9575 B( 38-C , 39-C ) :   1.5836 B( 38-C , 78-H ) :   0.9806
B( 39-C , 40-C ) :   1.1501 B( 39-C , 43-S ) :   1.0136 B( 40-C , 41-C ) :   1.5839
B( 40-C , 79-H ) :   0.9969 B( 41-C , 42-C ) :   1.1941 B( 41-C , 80-H ) :   0.9930
B( 42-C , 43-S ) :   1.0650 B( 42-C , 44-C ) :   1.4917 B( 44-C , 45-C ) :   1.1994
B( 44-C , 48-S ) :   1.0303 B( 45-C , 46-C ) :   1.5818 B( 45-C , 81-H ) :   0.9922
B( 46-C , 47-C ) :   1.1458 B( 46-C , 82-H ) :   0.9994 B( 47-C , 48-S ) :   1.0598
B( 47-C , 49-C ) :   1.5896 B( 49-C , 50-C ) :   1.1478 B( 49-C , 83-H ) :   0.9460
B( 50-C , 51-S ) :   1.1327 B( 50-C , 52-C ) :   0.1063 B( 50-C , 54-C ) :   1.4333
B( 51-S , 52-C ) :   1.1746 B( 52-C , 53-C ) :   1.4286 B( 52-C , 84-H ) :   0.9764
B( 53-C , 54-C ) :   1.2238 B( 53-C , 60-C ) :   1.0780 B( 54-C , 55-O ) :   1.0861
B( 55-O , 56-C ) :   1.1249 B( 56-C , 57-N ) :   0.9381 B( 56-C , 60-C ) :   1.5486
B( 57-N , 58-O ) :   1.4798 B( 57-N , 59-O ) :   1.5179 B( 58-O , 59-O ) :   0.2634
B( 60-C , 85-H ) :   1.0225

-----------------------------------------------------------------------------
         ABSORPTION SPECTRUM VIA TRANSITION ELECTRIC DIPOLE MOMENTS
-----------------------------------------------------------------------------
State   Energy  Wavelength   fosc         T2         TX        TY        TZ
        (cm-1)    (nm)                  (au**2)     (au)      (au)      (au)
-----------------------------------------------------------------------------
   0   10614.9    942.1   0.092523331   2.86953  -0.12554   1.53661  -0.70186
   1   12002.8    833.1   0.013357301   0.36636  -0.31794   0.24290   0.45417
   2   15492.1    645.5   0.719802327  15.29601   0.15306   3.88692  -0.40554
   3   15755.8    634.7   0.083441624   1.74349  -0.13537  -1.29001   0.24706
   4   20824.1    480.2   0.593852374   9.38832   2.92612  -0.38838  -0.82178
   5   21894.1    456.7   0.053038873   0.79752  -0.60365   0.42318  -0.50404
   6   23462.2    426.2   0.030944578   0.43420  -0.32963   0.30771  -0.48048
   7   23673.8    422.4   0.069069374   0.96049   0.55546  -0.74030   0.32234
   8   24621.4    406.2   0.016765691   0.22417   0.11577  -0.02036  -0.45865
   9   25189.3    397.0   0.151647961   1.98196   0.99367  -0.68323   0.72648
  10   25646.7    389.9   0.047999990   0.61615  -0.43649  -0.03209   0.65161
  11   26213.7    381.5   0.043940870   0.55184  -0.00723   0.06511   0.73997
  12   28762.7    347.7   0.440746508   5.04469  -0.09491  -0.73271  -2.12104
  13   28815.7    347.0   0.286692403   3.27538   0.50442   0.42795   1.68458
  14   29020.4    344.6   0.119176485   1.35196   0.82753   0.26923   0.77114
  15   29904.8    334.4   0.751205400   8.26977  -1.56740   2.07572  -1.22655
  16   30663.6    326.1   0.008650212   0.09287  -0.29037  -0.04280  -0.08201
  17   31086.0    321.7   0.198021539   2.09712  -0.22659   1.42076  -0.16503
  18   31586.9    316.6   0.036354370   0.37890   0.16216   0.35169   0.47845
  19   31822.8    314.2   0.068197430   0.70551  -0.09136  -0.72354  -0.41671
  20   32216.2    310.4   0.021359182   0.21827   0.03351  -0.40984   0.22176
  21   32439.2    308.3   0.331459565   3.36385   0.75989  -1.56301   0.58602
  22   32664.4    306.1   0.003994772   0.04026   0.04057  -0.19625  -0.01014
  23   32972.2    303.3   0.091796565   0.91655  -0.18649  -0.56185  -0.75239
  24   33315.5    300.2   0.005757564   0.05689   0.13368  -0.19747  -0.00555
  25   33401.8    299.4   0.044665084   0.44022   0.20434  -0.12385   0.61897
  26   33440.8    299.0   0.024705066   0.24321  -0.13389   0.00112  -0.47464
  27   34082.1    293.4   0.005480948   0.05294   0.05191   0.17960  -0.13414
  28   34238.3    292.1   0.284877230   2.73919   0.16606   1.39872  -0.86902
  29   34580.1    289.2   0.275421651   2.62209  -0.26803   1.55130   0.37912
  30   35071.4    285.1   0.143385054   1.34594  -0.16196   1.14878  -0.00198
  31   35282.4    283.4   0.103064491   0.96167  -0.39875   0.89524   0.03474
  32   35577.9    281.1   0.001275018   0.01180  -0.03581  -0.06488   0.07941
  33   36097.6    277.0   0.409309081   3.73292   0.03698   1.48422  -1.23639
  34   36277.3    275.7   0.010375149   0.09415   0.00192   0.07715   0.29698
  35   36331.3    275.2   0.129069051   1.16955  -0.02919  -0.82447   0.69924
  36   36678.0    272.6   0.170483284   1.53021  -0.19399   1.21712  -0.10581
  37   37104.8    269.5   0.039823842   0.35334   0.03647  -0.42486   0.41413
  38   37463.9    266.9   0.027300200   0.23990  -0.39793   0.28315  -0.03713
  39   37805.1    264.5   0.001965974   0.01712  -0.11510   0.05945   0.01839
  40   37923.1    263.7   0.000336519   0.00292  -0.05025  -0.01906   0.00573
  41   38198.9    261.8   0.039749994   0.34258   0.23122   0.44144  -0.30699
  42   38474.0    259.9   0.013604294   0.11641   0.05940   0.27990  -0.18583
  43   39098.7    255.8   0.278827267   2.34773  -1.50343  -0.21349   0.20455
  44   39114.9    255.7   0.078422698   0.66005  -0.55960   0.56458  -0.16777
  45   39191.9    255.2   0.053017194   0.44534   0.02655   0.63652  -0.19869
  46   39516.1    253.1   0.018089264   0.15070  -0.11562   0.37002   0.02055
  47   39539.6    252.9   0.000499991   0.00416   0.03392  -0.04628   0.02951
  48   39664.9    252.1   0.017697793   0.14689  -0.00415  -0.10806   0.36769
  49   39844.1    251.0   0.009793282   0.08092  -0.06571   0.21307  -0.17664
  50   40219.1    248.6   0.004772762   0.03907  -0.06213  -0.10677   0.15430

FINAL SINGLE POINT ENERGY     -6994.439794198332

DIPOLE MOMENT
-------------
                                X             Y             Z
Electronic contribution:   -110.13826      44.92063      36.55136
Nuclear contribution   :    110.34457     -41.68509     -38.92796
                        -----------------------------------------
Total Dipole Moment    :      0.20631       3.23554      -2.37660
                        -----------------------------------------
Magnitude (a.u.)       :      4.01989
Magnitude (Debye)      :     10.21775

Rotational constants in cm-1:     0.001134     0.000523     0.000452
Rotational constants in MHz :    34.005097    15.672215    13.542682

                             ****ORCA TERMINATED NORMALLY****
TOTAL RUN TIME: 0 days 0 hours 7 minutes 27 seconds 452 msec
