                         Program Version 4.2.0 -  RELEASE  -
|  1> # ORCA input file
|  2> # SCF done       -188.114883817074          0.000561411311
|  3> ! CAM-B3LYP def2-SVP def2/J RIJCOSX Grid4 TightSCF
|  4> %maxcore 5000
|  5> %tddft
|  6>     Mode sTDDFT
|  7>     Ethresh 5.0
|  8>     maxcore 5000
|  9> end
| 10>
| 11> %pal
| 12>   nprocs 6
| 13>   end
| 14> * xyz 0 1
| 15>    C       -3.74249        -1.51326         3.00503
| 16>    C       -4.43526        -2.24972         3.93458
| 17>    C       -3.88598        -3.32608         4.65720
| 18>    N       -3.47952        -4.20280         5.27751
| 19>    C       -5.79756        -2.04520         4.23219
| 20>    N       -6.91542        -1.94708         4.47735
| 21>    C       -2.38462        -1.76677         2.53927
| 22>    C       -2.10638        -0.89145         1.46013
| 23>    C       -0.90323        -0.89303         0.79895
| 24>    C        0.07271        -1.80231         1.22316
| 25>    C       -0.21299        -2.66855         2.30444
| 26>    C       -1.43159        -2.66746         2.97334
| 27>    S        1.13494        -3.70259         2.66858
| 28>    C        2.05048        -2.96929         1.37859
| 29>    C        1.38349        -1.99951         0.70899
| 30>   Br        3.80079        -3.55192         1.03917
| 31>    C       -3.28015        -0.02821         1.21092
| 32>    O       -3.36421         0.86119         0.38637
| 33>    C       -4.27170        -0.41359         2.23733
| 34>    C       -5.37151         0.34948         2.55625
| 35>    C       -5.91002         1.36008         1.74516
| 36>    S       -6.53350         2.79735         2.52697
| 37>    C       -6.64881         3.65496         1.01279
| 38>    C       -6.32959         2.80658        -0.05500
| 39>    C       -5.97150         1.49896         0.35186
| 40>    O       -5.89569         0.52612        -0.57553
| 41>    C       -6.03006        -0.82321        -0.20697
| 42>    O       -6.41823         3.25361        -1.32148
| 43>    C       -5.63837         2.63072        -2.32919
| 44>    C       -7.04926         4.99806         1.06015
| 45>    C       -7.14155         5.95235         0.07325
| 46>    C       -7.57289         7.28233         0.32310
| 47>    C       -7.59271         8.08677        -0.77487
| 48>    C       -7.16710         7.43324        -1.95161
| 49>    S       -6.74647         5.77084        -1.61950
| 50>    C       -7.07555         7.95257        -3.23195
| 51>    C       -7.37385         9.25693        -3.67771
| 52>    C       -7.18627         9.43471        -5.01621
| 53>    C       -6.72271         8.28147        -5.69574
| 54>    S       -6.54134         6.95657        -4.57006
| 55>    C       -6.44991         8.19662        -7.04139
| 56>    C       -5.95399         7.08794        -7.73574
| 57>    S       -5.51447         5.58537        -6.99623
| 58>    C       -5.01924         4.89722        -8.52366
| 59>    C       -5.13774         5.85068        -9.55795
| 60>    C       -5.70015         7.05619        -9.11785
| 61>    O       -6.02520         8.11834        -9.92739
| 62>    C       -7.39514         8.13299       -10.31208
| 63>    O       -4.64342         5.54370       -10.76857
| 64>    C       -4.64974         6.51966       -11.79371
| 65>    C       -4.55261         3.58294        -8.53077
| 66>    C       -4.30555         2.69841        -9.55464
| 67>    C       -4.68412         2.64018       -10.93577
| 68>    C       -5.77861         3.23411       -11.52282
| 69>    C       -6.09004         3.14468       -12.89184
| 70>    N       -6.38142         3.14472       -14.00339
| 71>    C       -6.75084         3.96311       -10.81877
| 72>    N       -7.57159         4.57025       -10.29009
| 73>    C       -3.83344         1.64260       -11.58569
| 74>    C       -3.09214         0.96205       -10.58872
| 75>    C       -3.40924         1.55034        -9.27070
| 76>    O       -3.00264         1.19425        -8.18581
| 77>    C       -2.22827        -0.06374       -10.88130
| 78>    C       -2.07844        -0.42774       -12.22462
| 79>    C       -2.81276         0.26638       -13.21324
| 80>    C       -3.69627         1.29853       -12.91530
| 81>    S       -2.47010        -0.33843       -14.80604
| 82>    C       -1.36267        -1.50343       -14.12960
| 83>    C       -1.25251        -1.44292       -12.78193
| 84>   Br       -0.45666        -2.68842       -15.26774
| 85>    H       -0.71898        -0.21659        -0.02090
| 86>    H       -1.60284        -3.34148         3.79616
| 87>    H        1.79718        -1.44429        -0.11293
| 88>    H       -5.78282         0.27487         3.55566
| 89>    H       -6.39243        -1.33531        -1.09862
| 90>    H       -6.74379        -0.94959         0.61219
| 91>    H       -5.07114        -1.26082         0.08926
| 92>    H       -5.54054         3.37498        -3.11927
| 93>    H       -6.14112         1.74388        -2.71838
| 94>    H       -4.65397         2.35235        -1.95058
| 95>    H       -7.31074         5.34480         2.05340
| 96>    H       -7.86115         7.59647         1.31084
| 97>    H       -7.90334         9.11595        -0.76675
| 98>    H       -7.71835        10.02406        -3.00796
| 99>    H       -7.36270        10.35820        -5.53868
|100>    H       -6.60741         9.08937        -7.63281
|101>    H       -7.49367         8.94046       -11.03470
|102>    H       -8.04571         8.32084        -9.45321
|103>    H       -7.68635         7.18185       -10.76801
|104>    H       -4.04747         6.09630       -12.59671
|105>    H       -5.66285         6.70172       -12.15996
|106>    H       -4.21219         7.45887       -11.45214
|107>    H       -4.28050         3.19471        -7.55215
|108>    H       -1.68377        -0.57125       -10.10056
|109>    H       -4.23299         1.79880       -13.70429
|110>    H       -0.61597        -2.08611       -12.20214
|111> *
|112>
|113>                          ****END OF INPUT****

CARTESIAN COORDINATES (ANGSTROEM)
---------------------------------
  C     -3.742490   -1.513260    3.005030
  C     -4.435260   -2.249720    3.934580
  C     -3.885980   -3.326080    4.657200
  N     -3.479520   -4.202800    5.277510
  C     -5.797560   -2.045200    4.232190
  N     -6.915420   -1.947080    4.477350
  C     -2.384620   -1.766770    2.539270
  C     -2.106380   -0.891450    1.460130
  C     -0.903230   -0.893030    0.798950
  C      0.072710   -1.802310    1.223160
  C     -0.212990   -2.668550    2.304440
  C     -1.431590   -2.667460    2.973340
  S      1.134940   -3.702590    2.668580
  C      2.050480   -2.969290    1.378590
  C      1.383490   -1.999510    0.708990
  Br     3.800790   -3.551920    1.039170
  C     -3.280150   -0.028210    1.210920
  O     -3.364210    0.861190    0.386370
  C     -4.271700   -0.413590    2.237330
  C     -5.371510    0.349480    2.556250
  C     -5.910020    1.360080    1.745160
  S     -6.533500    2.797350    2.526970
  C     -6.648810    3.654960    1.012790
  C     -6.329590    2.806580   -0.055000
  C     -5.971500    1.498960    0.351860
  O     -5.895690    0.526120   -0.575530
  C     -6.030060   -0.823210   -0.206970
  O     -6.418230    3.253610   -1.321480
  C     -5.638370    2.630720   -2.329190
  C     -7.049260    4.998060    1.060150
  C     -7.141550    5.952350    0.073250
  C     -7.572890    7.282330    0.323100
  C     -7.592710    8.086770   -0.774870
  C     -7.167100    7.433240   -1.951610
  S     -6.746470    5.770840   -1.619500
  C     -7.075550    7.952570   -3.231950
  C     -7.373850    9.256930   -3.677710
  C     -7.186270    9.434710   -5.016210
  C     -6.722710    8.281470   -5.695740
  S     -6.541340    6.956570   -4.570060
  C     -6.449910    8.196620   -7.041390
  C     -5.953990    7.087940   -7.735740
  S     -5.514470    5.585370   -6.996230
  C     -5.019240    4.897220   -8.523660
  C     -5.137740    5.850680   -9.557950
  C     -5.700150    7.056190   -9.117850
  O     -6.025200    8.118340   -9.927390
  C     -7.395140    8.132990  -10.312080
  O     -4.643420    5.543700  -10.768570
  C     -4.649740    6.519660  -11.793710
  C     -4.552610    3.582940   -8.530770
  C     -4.305550    2.698410   -9.554640
  C     -4.684120    2.640180  -10.935770
  C     -5.778610    3.234110  -11.522820
  C     -6.090040    3.144680  -12.891840
  N     -6.381420    3.144720  -14.003390
  C     -6.750840    3.963110  -10.818770
  N     -7.571590    4.570250  -10.290090
  C     -3.833440    1.642600  -11.585690
  C     -3.092140    0.962050  -10.588720
  C     -3.409240    1.550340   -9.270700
  O     -3.002640    1.194250   -8.185810
  C     -2.228270   -0.063740  -10.881300
  C     -2.078440   -0.427740  -12.224620
  C     -2.812760    0.266380  -13.213240
  C     -3.696270    1.298530  -12.915300
  S     -2.470100   -0.338430  -14.806040
  C     -1.362670   -1.503430  -14.129600
  C     -1.252510   -1.442920  -12.781930
  Br    -0.456660   -2.688420  -15.267740
  H     -0.718980   -0.216590   -0.020900
  H     -1.602840   -3.341480    3.796160
  H      1.797180   -1.444290   -0.112930
  H     -5.782820    0.274870    3.555660
  H     -6.392430   -1.335310   -1.098620
  H     -6.743790   -0.949590    0.612190
  H     -5.071140   -1.260820    0.089260
  H     -5.540540    3.374980   -3.119270
  H     -6.141120    1.743880   -2.718380
  H     -4.653970    2.352350   -1.950580
  H     -7.310740    5.344800    2.053400
  H     -7.861150    7.596470    1.310840
  H     -7.903340    9.115950   -0.766750
  H     -7.718350   10.024060   -3.007960
  H     -7.362700   10.358200   -5.538680
  H     -6.607410    9.089370   -7.632810
  H     -7.493670    8.940460  -11.034700
  H     -8.045710    8.320840   -9.453210
  H     -7.686350    7.181850  -10.768010
  H     -4.047470    6.096300  -12.596710
  H     -5.662850    6.701720  -12.159960
  H     -4.212190    7.458870  -11.452140
  H     -4.280500    3.194710   -7.552150
  H     -1.683770   -0.571250  -10.100560
  H     -4.232990    1.798800  -13.704290
  H     -0.615970   -2.086110  -12.202140

 Total Charge           Charge          ....    0
 Multiplicity           Mult            ....    1
 Number of Electrons    NEL             ....  580
 Basis Dimension        Dim             .... 1170

ORBITAL ENERGIES
----------------

  NO   OCC          E(Eh)            E(eV)
   0   2.0000    -482.884803    -13139.9635
   1   2.0000    -482.878040    -13139.7795
   2   2.0000     -88.974304     -2421.1139
   3   2.0000     -88.965999     -2420.8879
   4   2.0000     -88.964902     -2420.8580
   5   2.0000     -88.962909     -2420.8038
   6   2.0000     -88.957810     -2420.6651
   7   2.0000     -88.954314     -2420.5699
   8   2.0000     -62.562500     -1702.4122
   9   2.0000     -62.555741     -1702.2283
  10   2.0000     -56.396450     -1534.6254
  11   2.0000     -56.393736     -1534.5516
  12   2.0000     -56.393703     -1534.5507
  13   2.0000     -56.389678     -1534.4412
  14   2.0000     -56.386991     -1534.3680
  15   2.0000     -56.386948     -1534.3669
  16   2.0000     -19.272045      -524.4190
  17   2.0000     -19.268147      -524.3129
  18   2.0000     -19.259798      -524.0857
  19   2.0000     -19.244091      -523.6584
  20   2.0000     -19.215370      -522.8768
  21   2.0000     -19.200465      -522.4712
  22   2.0000     -14.412080      -392.1726
  23   2.0000     -14.411746      -392.1636
  24   2.0000     -14.403402      -391.9365
  25   2.0000     -14.403246      -391.9322
  26   2.0000     -10.365661      -282.0640
  27   2.0000     -10.364745      -282.0391
  28   2.0000     -10.357743      -281.8485
  29   2.0000     -10.356179      -281.8060
  30   2.0000     -10.350519      -281.6519
  31   2.0000     -10.349929      -281.6359
  32   2.0000     -10.348946      -281.6091
  33   2.0000     -10.337970      -281.3105
  34   2.0000     -10.337421      -281.2955
  35   2.0000     -10.334175      -281.2072
  36   2.0000     -10.332337      -281.1572
  37   2.0000     -10.325361      -280.9673
  38   2.0000     -10.324024      -280.9310
  39   2.0000     -10.323490      -280.9164
  40   2.0000     -10.323300      -280.9113
  41   2.0000     -10.322749      -280.8963
  42   2.0000     -10.322503      -280.8896
  43   2.0000     -10.321937      -280.8742
  44   2.0000     -10.321763      -280.8695
  45   2.0000     -10.319493      -280.8077
  46   2.0000     -10.319281      -280.8019
  47   2.0000     -10.318927      -280.7923
  48   2.0000     -10.318763      -280.7878
  49   2.0000     -10.317123      -280.7432
  50   2.0000     -10.316271      -280.7200
  51   2.0000     -10.315207      -280.6910
  52   2.0000     -10.315123      -280.6888
  53   2.0000     -10.314594      -280.6744
  54   2.0000     -10.307350      -280.4773
  55   2.0000     -10.307275      -280.4752
  56   2.0000     -10.306576      -280.4562
  57   2.0000     -10.306193      -280.4458
  58   2.0000     -10.306132      -280.4441
  59   2.0000     -10.305288      -280.4211
  60   2.0000     -10.304357      -280.3958
  61   2.0000     -10.303021      -280.3595
  62   2.0000     -10.299859      -280.2734
  63   2.0000     -10.298326      -280.2317
  64   2.0000     -10.297977      -280.2222
  65   2.0000     -10.297395      -280.2064
  66   2.0000     -10.295661      -280.1592
  67   2.0000     -10.295487      -280.1544
  68   2.0000     -10.295125      -280.1446
  69   2.0000     -10.293790      -280.1083
  70   2.0000     -10.293274      -280.0942
  71   2.0000     -10.292753      -280.0800
  72   2.0000     -10.291669      -280.0505
  73   2.0000     -10.291594      -280.0485
  74   2.0000     -10.289900      -280.0024
  75   2.0000     -10.287758      -279.9441
  76   2.0000     -10.278959      -279.7047
  77   2.0000     -10.277822      -279.6737
  78   2.0000      -8.791919      -239.2403
  79   2.0000      -8.785158      -239.0563
  80   2.0000      -8.070388      -219.6064
  81   2.0000      -8.061985      -219.3778
  82   2.0000      -8.060715      -219.3432
  83   2.0000      -8.058211      -219.2751
  84   2.0000      -8.053862      -219.1567
  85   2.0000      -8.049472      -219.0373
  86   2.0000      -6.628201      -180.3625
  87   2.0000      -6.621383      -180.1770
  88   2.0000      -6.613658      -179.9668
  89   2.0000      -6.613465      -179.9615
  90   2.0000      -6.606906      -179.7830
  91   2.0000      -6.606764      -179.7792
  92   2.0000      -6.040080      -164.3589
  93   2.0000      -6.035796      -164.2424
  94   2.0000      -6.031670      -164.1301
  95   2.0000      -6.031584      -164.1277
  96   2.0000      -6.030280      -164.0923
  97   2.0000      -6.027606      -164.0195
  98   2.0000      -6.027415      -164.0143
  99   2.0000      -6.026568      -163.9912
 100   2.0000      -6.023754      -163.9147
 101   2.0000      -6.023590      -163.9102
 102   2.0000      -6.023221      -163.9002
 103   2.0000      -6.021733      -163.8597
 104   2.0000      -6.019766      -163.8062
 105   2.0000      -6.019413      -163.7966
 106   2.0000      -6.019306      -163.7937
 107   2.0000      -6.015020      -163.6770
 108   2.0000      -6.014916      -163.6742
 109   2.0000      -6.010402      -163.5514
 110   2.0000      -2.744090       -74.6705
 111   2.0000      -2.739986       -74.5588
 112   2.0000      -2.739847       -74.5550
 113   2.0000      -2.737288       -74.4854
 114   2.0000      -2.733185       -74.3737
 115   2.0000      -2.733079       -74.3709
 116   2.0000      -2.728276       -74.2402
 117   2.0000      -2.728270       -74.2400
 118   2.0000      -2.721570       -74.0577
 119   2.0000      -2.721552       -74.0572
 120   2.0000      -1.181815       -32.1588
 121   2.0000      -1.174263       -31.9533
 122   2.0000      -1.158712       -31.5302
 123   2.0000      -1.141754       -31.0687
 124   2.0000      -1.128628       -30.7115
 125   2.0000      -1.114992       -30.3405
 126   2.0000      -1.021175       -27.7876
 127   2.0000      -1.010807       -27.5055
 128   2.0000      -1.010794       -27.5051
 129   2.0000      -1.007501       -27.4155
 130   2.0000      -1.001902       -27.2631
 131   2.0000      -0.996902       -27.1271
 132   2.0000      -0.991517       -26.9805
 133   2.0000      -0.990708       -26.9585
 134   2.0000      -0.986985       -26.8572
 135   2.0000      -0.983190       -26.7540
 136   2.0000      -0.980214       -26.6730
 137   2.0000      -0.975676       -26.5495
 138   2.0000      -0.941906       -25.6306
 139   2.0000      -0.930654       -25.3244
 140   2.0000      -0.915433       -24.9102
 141   2.0000      -0.906651       -24.6712
 142   2.0000      -0.905912       -24.6511
 143   2.0000      -0.896589       -24.3974
 144   2.0000      -0.892429       -24.2842
 145   2.0000      -0.884430       -24.0666
 146   2.0000      -0.880256       -23.9530
 147   2.0000      -0.874286       -23.7905
 148   2.0000      -0.867896       -23.6167
 149   2.0000      -0.864032       -23.5115
 150   2.0000      -0.856384       -23.3034
 151   2.0000      -0.851702       -23.1760
 152   2.0000      -0.845000       -22.9936
 153   2.0000      -0.833688       -22.6858
 154   2.0000      -0.832877       -22.6637
 155   2.0000      -0.827595       -22.5200
 156   2.0000      -0.822033       -22.3687
 157   2.0000      -0.817443       -22.2438
 158   2.0000      -0.810549       -22.0562
 159   2.0000      -0.794790       -21.6273
 160   2.0000      -0.781095       -21.2547
 161   2.0000      -0.773993       -21.0614
 162   2.0000      -0.767626       -20.8882
 163   2.0000      -0.763912       -20.7871
 164   2.0000      -0.756476       -20.5847
 165   2.0000      -0.748306       -20.3624
 166   2.0000      -0.741427       -20.1753
 167   2.0000      -0.725197       -19.7336
 168   2.0000      -0.708903       -19.2902
 169   2.0000      -0.700532       -19.0625
 170   2.0000      -0.693988       -18.8844
 171   2.0000      -0.688954       -18.7474
 172   2.0000      -0.685481       -18.6529
 173   2.0000      -0.680465       -18.5164
 174   2.0000      -0.673923       -18.3384
 175   2.0000      -0.670422       -18.2431
 176   2.0000      -0.662906       -18.0386
 177   2.0000      -0.658139       -17.9089
 178   2.0000      -0.654833       -17.8189
 179   2.0000      -0.648455       -17.6453
 180   2.0000      -0.643142       -17.5008
 181   2.0000      -0.632561       -17.2129
 182   2.0000      -0.629427       -17.1276
 183   2.0000      -0.625925       -17.0323
 184   2.0000      -0.621923       -16.9234
 185   2.0000      -0.621115       -16.9014
 186   2.0000      -0.616922       -16.7873
 187   2.0000      -0.610797       -16.6206
 188   2.0000      -0.604212       -16.4415
 189   2.0000      -0.603138       -16.4122
 190   2.0000      -0.593991       -16.1633
 191   2.0000      -0.591687       -16.1006
 192   2.0000      -0.584809       -15.9135
 193   2.0000      -0.584008       -15.8917
 194   2.0000      -0.578484       -15.7413
 195   2.0000      -0.573687       -15.6108
 196   2.0000      -0.572445       -15.5770
 197   2.0000      -0.570149       -15.5145
 198   2.0000      -0.560147       -15.2424
 199   2.0000      -0.555941       -15.1279
 200   2.0000      -0.552670       -15.0389
 201   2.0000      -0.546716       -14.8769
 202   2.0000      -0.543172       -14.7805
 203   2.0000      -0.542113       -14.7516
 204   2.0000      -0.539782       -14.6882
 205   2.0000      -0.538435       -14.6516
 206   2.0000      -0.536907       -14.6100
 207   2.0000      -0.533532       -14.5182
 208   2.0000      -0.529289       -14.4027
 209   2.0000      -0.526452       -14.3255
 210   2.0000      -0.524254       -14.2657
 211   2.0000      -0.523164       -14.2360
 212   2.0000      -0.522612       -14.2210
 213   2.0000      -0.517744       -14.0885
 214   2.0000      -0.514431       -13.9984
 215   2.0000      -0.510847       -13.9008
 216   2.0000      -0.508977       -13.8500
 217   2.0000      -0.508690       -13.8422
 218   2.0000      -0.507265       -13.8034
 219   2.0000      -0.504514       -13.7285
 220   2.0000      -0.501281       -13.6406
 221   2.0000      -0.496099       -13.4995
 222   2.0000      -0.495176       -13.4744
 223   2.0000      -0.493900       -13.4397
 224   2.0000      -0.492089       -13.3904
 225   2.0000      -0.491146       -13.3648
 226   2.0000      -0.489043       -13.3075
 227   2.0000      -0.485412       -13.2087
 228   2.0000      -0.482609       -13.1325
 229   2.0000      -0.481746       -13.1090
 230   2.0000      -0.479327       -13.0431
 231   2.0000      -0.476110       -12.9556
 232   2.0000      -0.472644       -12.8613
 233   2.0000      -0.470522       -12.8035
 234   2.0000      -0.468669       -12.7531
 235   2.0000      -0.461143       -12.5484
 236   2.0000      -0.457525       -12.4499
 237   2.0000      -0.455802       -12.4030
 238   2.0000      -0.449272       -12.2253
 239   2.0000      -0.447540       -12.1782
 240   2.0000      -0.446263       -12.1434
 241   2.0000      -0.445967       -12.1354
 242   2.0000      -0.444190       -12.0870
 243   2.0000      -0.442396       -12.0382
 244   2.0000      -0.441058       -12.0018
 245   2.0000      -0.438866       -11.9421
 246   2.0000      -0.437794       -11.9130
 247   2.0000      -0.436797       -11.8859
 248   2.0000      -0.436093       -11.8667
 249   2.0000      -0.433727       -11.8023
 250   2.0000      -0.432568       -11.7708
 251   2.0000      -0.431282       -11.7358
 252   2.0000      -0.428903       -11.6710
 253   2.0000      -0.427085       -11.6216
 254   2.0000      -0.424779       -11.5588
 255   2.0000      -0.424339       -11.5468
 256   2.0000      -0.420344       -11.4381
 257   2.0000      -0.416883       -11.3440
 258   2.0000      -0.414754       -11.2860
 259   2.0000      -0.409550       -11.1444
 260   2.0000      -0.409187       -11.1346
 261   2.0000      -0.405982       -11.0473
 262   2.0000      -0.402381       -10.9493
 263   2.0000      -0.399437       -10.8692
 264   2.0000      -0.397933       -10.8283
 265   2.0000      -0.394693       -10.7402
 266   2.0000      -0.387103       -10.5336
 267   2.0000      -0.381637       -10.3849
 268   2.0000      -0.380700       -10.3594
 269   2.0000      -0.375900       -10.2287
 270   2.0000      -0.374161       -10.1814
 271   2.0000      -0.368964       -10.0400
 272   2.0000      -0.367657       -10.0045
 273   2.0000      -0.358277        -9.7492
 274   2.0000      -0.355326        -9.6689
 275   2.0000      -0.346754        -9.4356
 276   2.0000      -0.342060        -9.3079
 277   2.0000      -0.339354        -9.2343
 278   2.0000      -0.335410        -9.1270
 279   2.0000      -0.327232        -8.9044
 280   2.0000      -0.319180        -8.6853
 281   2.0000      -0.314739        -8.5645
 282   2.0000      -0.306205        -8.3323
 283   2.0000      -0.301626        -8.2077
 284   2.0000      -0.294304        -8.0084
 285   2.0000      -0.292240        -7.9523
 286   2.0000      -0.288100        -7.8396
 287   2.0000      -0.280669        -7.6374
 288   2.0000      -0.263911        -7.1814
 289   2.0000      -0.215974        -5.8770
 290   0.0000      -0.108738        -2.9589
 291   0.0000      -0.080346        -2.1863
 292   0.0000      -0.063388        -1.7249
 293   0.0000      -0.053145        -1.4461
 294   0.0000      -0.040842        -1.1114

MULLIKEN ATOMIC CHARGES
-----------------------
   0 C :    0.297983
   1 C :   -0.337826
   2 C :   -0.183796
   3 N :    0.145336
   4 C :   -0.213482
   5 N :    0.157832
   6 C :    0.020050
   7 C :   -0.013705
   8 C :   -0.075871
   9 C :    0.116934
  10 C :   -0.085720
  11 C :   -0.029736
  12 S :    0.185209
  13 C :   -0.123610
  14 C :    0.036796
  15 Br:    0.022628
  16 C :    0.137761
  17 O :   -0.154518
  18 C :   -0.165341
  19 C :    0.048796
  20 C :   -0.220142
  21 S :    0.139849
  22 C :   -0.144900
  23 C :    0.181531
  24 C :    0.220611
  25 O :   -0.293203
  26 C :    0.178201
  27 O :   -0.325948
  28 C :    0.192635
  29 C :    0.013028
  30 C :   -0.009116
  31 C :    0.030757
  32 C :    0.034189
  33 C :   -0.031391
  34 S :    0.118441
  35 C :   -0.045520
  36 C :    0.036465
  37 C :    0.030396
  38 C :   -0.016167
  39 S :    0.076412
  40 C :   -0.034060
  41 C :   -0.070333
  42 S :    0.121931
  43 C :   -0.138709
  44 C :    0.214049
  45 C :    0.067222
  46 O :   -0.352746
  47 C :    0.191641
  48 O :   -0.291133
  49 C :    0.185841
  50 C :    0.063774
  51 C :   -0.143322
  52 C :    0.311498
  53 C :   -0.353734
  54 C :   -0.191089
  55 N :    0.137023
  56 C :   -0.185448
  57 N :    0.139959
  58 C :    0.008370
  59 C :    0.000697
  60 C :    0.126763
  61 O :   -0.157707
  62 C :   -0.073859
  63 C :    0.112151
  64 C :   -0.090790
  65 C :   -0.030627
  66 S :    0.176364
  67 C :   -0.126428
  68 C :    0.038983
  69 Br:    0.013779
  70 H :   -0.011890
  71 H :   -0.005582
  72 H :   -0.003123
  73 H :    0.028545
  74 H :    0.041212
  75 H :    0.044191
  76 H :    0.042214
  77 H :    0.030514
  78 H :    0.035254
  79 H :    0.042918
  80 H :   -0.011954
  81 H :   -0.006618
  82 H :   -0.010319
  83 H :   -0.010152
  84 H :   -0.008887
  85 H :   -0.000202
  86 H :    0.031757
  87 H :    0.018905
  88 H :    0.036590
  89 H :    0.040788
  90 H :    0.027819
  91 H :    0.045660
  92 H :    0.011653
  93 H :   -0.014946
  94 H :   -0.010161
  95 H :   -0.006096
Sum of atomic charges:   -0.0000000

LOEWDIN ATOMIC CHARGES
----------------------
   0 C :    0.072857
   1 C :   -0.148527
   2 C :   -0.020054
   3 N :   -0.057344
   4 C :   -0.026773
   5 N :   -0.058024
   6 C :   -0.021630
   7 C :   -0.050061
   8 C :    0.019435
   9 C :   -0.033733
  10 C :   -0.145512
  11 C :   -0.010447
  12 S :    0.432078
  13 C :   -0.272469
  14 C :   -0.070347
  15 Br:    0.135760
  16 C :    0.072488
  17 O :   -0.150415
  18 C :   -0.117944
  19 C :    0.038511
  20 C :   -0.216080
  21 S :    0.433560
  22 C :   -0.171838
  23 C :    0.002649
  24 C :    0.038211
  25 O :   -0.061288
  26 C :    0.085587
  27 O :   -0.100789
  28 C :    0.083594
  29 C :   -0.070333
  30 C :   -0.137876
  31 C :   -0.023253
  32 C :   -0.031251
  33 C :   -0.171538
  34 S :    0.424936
  35 C :   -0.183317
  36 C :   -0.025697
  37 C :   -0.036382
  38 C :   -0.136193
  39 S :    0.381724
  40 C :   -0.083600
  41 C :   -0.158066
  42 S :    0.442701
  43 C :   -0.207663
  44 C :    0.039261
  45 C :   -0.028558
  46 O :   -0.134804
  47 C :    0.080316
  48 O :   -0.058634
  49 C :    0.084880
  50 C :    0.039627
  51 C :   -0.110402
  52 C :    0.068067
  53 C :   -0.153525
  54 C :   -0.022302
  55 N :   -0.071893
  56 C :   -0.009250
  57 N :   -0.076099
  58 C :   -0.013312
  59 C :   -0.053721
  60 C :    0.081877
  61 O :   -0.157324
  62 C :    0.019464
  63 C :   -0.039180
  64 C :   -0.144771
  65 C :   -0.019905
  66 S :    0.425354
  67 C :   -0.276472
  68 C :   -0.070548
  69 Br:    0.128860
  70 H :    0.040434
  71 H :    0.041073
  72 H :    0.038837
  73 H :    0.044749
  74 H :    0.029864
  75 H :    0.025621
  76 H :    0.020547
  77 H :    0.019693
  78 H :    0.020399
  79 H :    0.025722
  80 H :    0.036691
  81 H :    0.035040
  82 H :    0.032619
  83 H :    0.033828
  84 H :    0.035043
  85 H :    0.041826
  86 H :    0.023492
  87 H :    0.013770
  88 H :    0.017035
  89 H :    0.028737
  90 H :    0.020686
  91 H :    0.024642
  92 H :    0.041959
  93 H :    0.038956
  94 H :    0.038677
  95 H :    0.037410

  Mayer bond orders larger than 0.100000
B(  0-C ,  1-C ) :   1.6318 B(  0-C ,  6-C ) :   1.0046 B(  0-C , 18-C ) :   1.0850
B(  1-C ,  2-C ) :   1.1368 B(  1-C ,  4-C ) :   1.1466 B(  2-C ,  3-N ) :   2.9724
B(  4-C ,  5-N ) :   2.9997 B(  6-C ,  7-C ) :   1.2722 B(  6-C , 11-C ) :   1.4141
B(  7-C ,  8-C ) :   1.4295 B(  7-C , 16-C ) :   0.9414 B(  8-C ,  9-C ) :   1.2377
B(  8-C , 70-H ) :   1.0191 B(  9-C , 10-C ) :   1.3114 B(  9-C , 14-C ) :   1.1615
B( 10-C , 11-C ) :   1.3197 B( 10-C , 12-S ) :   1.0849 B( 11-C , 71-H ) :   0.9833
B( 12-S , 13-C ) :   1.0873 B( 13-C , 14-C ) :   1.6179 B( 13-C , 15-Br) :   1.0186
B( 14-C , 72-H ) :   1.0013 B( 16-C , 17-O ) :   2.1855 B( 16-C , 18-C ) :   0.9690
B( 18-C , 19-C ) :   1.5185 B( 19-C , 20-C ) :   1.2487 B( 19-C , 73-H ) :   0.9383
B( 20-C , 21-S ) :   1.0476 B( 20-C , 24-C ) :   1.3399 B( 21-S , 22-C ) :   1.1094
B( 22-C , 23-C ) :   1.4251 B( 22-C , 29-C ) :   1.1841 B( 23-C , 24-C ) :   1.2438
B( 23-C , 27-O ) :   1.1727 B( 24-C , 25-O ) :   1.2062 B( 25-O , 26-C ) :   0.9406
B( 26-C , 74-H ) :   0.9758 B( 26-C , 75-H ) :   0.9645 B( 26-C , 76-H ) :   0.9584
B( 27-O , 28-C ) :   0.9085 B( 28-C , 77-H ) :   0.9725 B( 28-C , 78-H ) :   0.9784
B( 28-C , 79-H ) :   0.9719 B( 29-C , 30-C ) :   1.5841 B( 29-C , 80-H ) :   0.9383
B( 30-C , 31-C ) :   1.1462 B( 30-C , 34-S ) :   1.0576 B( 31-C , 32-C ) :   1.5806
B( 31-C , 81-H ) :   1.0009 B( 32-C , 33-C ) :   1.1892 B( 32-C , 82-H ) :   0.9937
B( 33-C , 34-S ) :   1.0388 B( 33-C , 35-C ) :   1.4872 B( 35-C , 36-C ) :   1.2021
B( 35-C , 39-S ) :   1.0390 B( 36-C , 37-C ) :   1.5695 B( 36-C , 83-H ) :   0.9920
B( 37-C , 38-C ) :   1.1615 B( 37-C , 84-H ) :   1.0004 B( 38-C , 39-S ) :   1.0581
B( 38-C , 40-C ) :   1.5017 B( 40-C , 41-C ) :   1.2141 B( 40-C , 85-H ) :   0.9705
B( 41-C , 42-S ) :   1.1098 B( 41-C , 43-C ) :   0.1004 B( 41-C , 45-C ) :   1.3887
B( 42-S , 43-C ) :   1.0775 B( 43-C , 44-C ) :   1.3215 B( 43-C , 50-C ) :   1.2651
B( 44-C , 45-C ) :   1.2816 B( 44-C , 48-O ) :   1.2221 B( 45-C , 46-O ) :   1.1465
B( 46-O , 47-C ) :   0.9248 B( 47-C , 86-H ) :   0.9806 B( 47-C , 87-H ) :   0.9701
B( 47-C , 88-H ) :   0.9584 B( 48-O , 49-C ) :   0.9146 B( 49-C , 89-H ) :   0.9770
B( 49-C , 90-H ) :   0.9733 B( 49-C , 91-H ) :   0.9728 B( 50-C , 51-C ) :   1.5357
B( 50-C , 92-H ) :   0.9178 B( 51-C , 52-C ) :   1.1081 B( 51-C , 60-C ) :   0.9629
B( 52-C , 53-C ) :   1.5796 B( 52-C , 58-C ) :   1.0028 B( 53-C , 54-C ) :   1.1462
B( 53-C , 56-C ) :   1.1914 B( 54-C , 55-N ) :   2.9726 B( 56-C , 57-N ) :   2.9356
B( 58-C , 59-C ) :   1.2769 B( 58-C , 65-C ) :   1.4265 B( 59-C , 60-C ) :   0.9199
B( 59-C , 62-C ) :   1.4324 B( 60-C , 61-O ) :   2.2460 B( 62-C , 63-C ) :   1.2451
B( 62-C , 93-H ) :   1.0160 B( 63-C , 64-C ) :   1.3202 B( 63-C , 68-C ) :   1.1600
B( 64-C , 65-C ) :   1.3153 B( 64-C , 66-S ) :   1.0828 B( 65-C , 94-H ) :   0.9822
B( 66-S , 67-C ) :   1.0839 B( 67-C , 68-C ) :   1.6232 B( 67-C , 69-Br) :   1.0128
B( 68-C , 95-H ) :   0.9997

-----------------------------------------------------------------------------
         ABSORPTION SPECTRUM VIA TRANSITION ELECTRIC DIPOLE MOMENTS
-----------------------------------------------------------------------------
State   Energy  Wavelength   fosc         T2         TX        TY        TZ
        (cm-1)    (nm)                  (au**2)     (au)      (au)      (au)
-----------------------------------------------------------------------------
   0   10030.7    996.9   1.111574836  36.48228  -0.25379   1.98859  -5.69766
   1   16806.7    595.0   0.565925355  11.08542   1.26533  -2.80735  -1.26615
   2   20059.9    498.5   0.820337124  13.46292  -1.33629   3.32525   0.78738
   3   20645.8    484.4   0.146308652   2.33300   0.24673  -1.48061  -0.28272
   4   22324.0    447.9   0.220619772   3.25348  -1.17693   1.19978   0.65486
   5   23149.2    432.0   0.121344869   1.72569  -0.46044   0.38010  -1.17013
   6   24296.7    411.6   0.058369819   0.79089  -0.16792   0.87072  -0.06743
   7   25551.2    391.4   0.241389023   3.11015   0.44865  -1.67887   0.30045
   8   26007.0    384.5   0.015940695   0.20179   0.29911   0.33502  -0.00915
   9   26928.2    371.4   0.138250790   1.69019  -1.28394  -0.11817   0.16651
  10   27426.8    364.6   0.173751256   2.08559  -1.09640   0.43134   0.83514
  11   28482.7    351.1   0.003403147   0.03933  -0.15581  -0.11564  -0.04107
  12   28831.7    346.8   0.031545748   0.36020  -0.54561  -0.19658  -0.15450
  13   29109.2    343.5   0.090832576   1.02728   0.34801  -0.48693  -0.81797
  14   29835.4    335.2   0.049531224   0.54654  -0.47771   0.54090  -0.16048
  15   29949.6    333.9   0.025143164   0.27638   0.36974  -0.25097  -0.27692
  16   30077.3    332.5   0.034582624   0.37852  -0.26934   0.44867  -0.32353
  17   30346.7    329.5   0.116910368   1.26828   0.96172  -0.42485  -0.40357
  18   30641.3    326.4   0.020396305   0.21914  -0.24201   0.39962  -0.02954
  19   30821.8    324.4   0.004573624   0.04885   0.17125   0.03117   0.13621
  20   31326.5    319.2   0.197604350   2.07663  -1.20308   0.73499   0.29835
  21   31958.2    312.9   0.112023169   1.15399  -0.44855   0.91575   0.33791
  22   32500.3    307.7   0.142900808   1.44751   0.97838   0.26994  -0.64609
  23   32576.6    307.0   0.033098616   0.33449   0.06340   0.13967  -0.55764
  24   32641.6    306.4   0.125980034   1.27059   0.35554   0.98937  -0.40659
  25   32746.4    305.4   0.364876247   3.66824   1.69493  -0.54290  -0.70761
  26   33394.0    299.5   0.032463179   0.32004   0.25136   0.00877  -0.50673
  27   33749.9    296.3   0.174148669   1.69873   0.86693  -0.95047  -0.20918
  28   33895.9    295.0   0.032817189   0.31874  -0.30758  -0.19296   0.43231
  29   34028.5    293.9   0.032331927   0.31280   0.46580  -0.29140   0.10447
  30   34130.1    293.0   0.006006414   0.05794  -0.14764  -0.15990   0.10282
  31   34401.3    290.7   0.149629634   1.43192   1.14256  -0.24162  -0.26096
  32   34742.3    287.8   0.010238077   0.09701   0.24230  -0.03528   0.19251
  33   35459.9    282.0   0.028928831   0.26858  -0.44031  -0.16462   0.21819
  34   35832.7    279.1   0.014957840   0.13742   0.33432  -0.03799  -0.15560
  35   36213.3    276.1   0.155853687   1.41685  -0.75038   0.87084  -0.30890
  36   36597.7    273.2   0.079164888   0.71212  -0.74728   0.36054   0.15396
  37   37280.3    268.2   0.007994010   0.07059   0.17795   0.19658  -0.01680
  38   37541.3    266.4   0.018600673   0.16312   0.08721   0.02035  -0.39382
  39   37714.7    265.1   0.188758430   1.64767  -0.16893   0.74481  -1.03169
  40   37763.7    264.8   0.072463427   0.63171   0.68159   0.08332  -0.40026
  41   38092.5    262.5   0.019341389   0.16716   0.35144   0.16896  -0.12287
  42   38329.2    260.9   0.052246204   0.44875   0.28517  -0.55819   0.23632
  43   38775.0    257.9   0.006586440   0.05592  -0.14476   0.12534  -0.13876
  44   38906.9    257.0   0.067868010   0.57427  -0.23026  -0.25360   0.67597
  45   39186.6    255.2   0.022262310   0.18703   0.12717   0.35571   0.21053
  46   39723.1    251.7   0.016393303   0.13586  -0.02030   0.00847  -0.36794
  47   40296.8    248.2   0.056907208   0.46491  -0.52521   0.06428   0.43004

FINAL SINGLE POINT ENERGY    -10200.363269068914

DIPOLE MOMENT
-------------
                                X             Y             Z
Electronic contribution:    135.63147    -136.47448     -40.89439
Nuclear contribution   :   -134.62450     139.62479      40.94087
                        -----------------------------------------
Total Dipole Moment    :      1.00697       3.15030       0.04648
                        -----------------------------------------
Magnitude (a.u.)       :      3.30765
Magnitude (Debye)      :      8.40738

Rotational constants in cm-1:     0.000583     0.000319     0.000221
Rotational constants in MHz :    17.470206     9.560518     6.628147

                             ****ORCA TERMINATED NORMALLY****
TOTAL RUN TIME: 0 days 0 hours 10 minutes 48 seconds 585 msec
