                         Program Version 4.2.0 -  RELEASE  -
|  1> # ORCA input file
|  2> # SCF done       -186.023287144996          0.000782572906
|  3> ! CAM-B3LYP def2-SVP def2/J RIJCOSX Grid4 TightSCF
|  4> %maxcore 5000
|  5> %tddft
|  6>     Mode sTDDFT
|  7>     Ethresh 5.0
|  8>     maxcore 5000
|  9> end
| 10>
| 11> %pal
| 12>   nprocs 6
| 13>   end
| 14> * xyz 0 1
| 15>    C       -5.40996         7.92641         4.49292
| 16>    C       -4.06040         7.75585         4.32276
| 17>    C       -3.16534         7.45797         5.37057
| 18>    N       -2.38831         7.21832         6.18122
| 19>    C       -3.38261         7.89166         3.09416
| 20>    N       -2.77073         7.99239         2.12740
| 21>    C       -6.13137         7.80767         5.75571
| 22>    C       -7.47661         8.20705         5.56010
| 23>    C       -8.42122         8.16190         6.55670
| 24>    C       -8.02547         7.68220         7.80978
| 25>    C       -6.67871         7.28634         7.99743
| 26>    C       -5.72110         7.34329         6.99218
| 27>    S       -6.39956         6.73705         9.62249
| 28>    C       -8.06626         7.05938        10.02543
| 29>    C       -8.80160         7.53320         8.99236
| 30>   Br       -8.64699         6.77574        11.77677
| 31>    C       -7.66415         8.58952         4.14854
| 32>    O       -8.61757         9.15584         3.66229
| 33>    C       -6.38903         8.22325         3.46284
| 34>    C       -6.23014         8.16581         2.11120
| 35>    C       -7.32406         8.16439         1.18491
| 36>    C       -8.50932         7.49285         1.38994
| 37>    C       -9.74155         7.66411         0.58515
| 38>    C       -9.73357         8.41808        -0.60459
| 39>    C       -8.61459         9.02169        -1.06646
| 40>    S       -7.07869         9.05666        -0.28689
| 41>    N      -10.78354         7.06326         1.11972
| 42>    C      -10.32811         6.44728         2.25053
| 43>    C       -8.93075         6.63612         2.41051
| 44>    S       -8.31784         5.82958         3.79029
| 45>    C       -9.96403         5.39650         4.27268
| 46>    C      -10.90581         5.76511         3.32178
| 47>    C      -10.09026         4.87071         5.56819
| 48>    C      -11.24334         4.75856         6.29495
| 49>    C      -11.25482         4.39536         7.64535
| 50>    S       -9.79055         3.97731         8.49366
| 51>    C      -10.61366         3.74805        10.00945
| 52>    C      -11.99894         4.02229         9.85861
| 53>    C      -12.35764         4.37552         8.52879
| 54>    C      -13.68790         4.70665         8.22535
| 55>    C      -14.61432         4.70665         9.23237
| 56>    F      -15.88951         5.04248         8.97441
| 57>    C      -14.25135         4.38174        10.55259
| 58>    F      -15.18624         4.44351        11.52318
| 59>    C      -12.96572         4.03442        10.87274
| 60>    C       -9.97672         3.42837        11.19645
| 61>    C       -8.62100         3.24091        11.40816
| 62>    C       -8.01474         3.25343        12.65996
| 63>    C       -8.56689         3.75782        13.83274
| 64>    C       -7.92461         3.90813        15.07930
| 65>    C       -8.64039         4.61570        16.01215
| 66>    C       -9.88483         5.05936        15.53874
| 67>    S      -10.14225         4.50182        13.90940
| 68>    C      -10.88298         5.85251        16.09186
| 69>    C      -11.04577         6.40146        17.37681
| 70>    C      -12.19014         7.13530        17.51444
| 71>    C      -12.97911         7.21178        16.33821
| 72>    S      -12.20720         6.31371        15.05337
| 73>    C      -14.19386         7.83774        16.19822
| 74>    C      -14.95104         7.94087        15.01406
| 75>    S      -16.64642         8.40932        15.11037
| 76>    C      -16.90774         8.32125        13.41693
| 77>    C      -15.74837         7.95910        12.77383
| 78>    C      -14.65412         7.74657        13.67266
| 79>    O      -13.52954         7.46052        12.98363
| 80>    C      -13.88929         7.47064        11.67144
| 81>    N      -12.89306         7.23084        10.71043
| 82>    O      -13.23992         7.27071         9.53738
| 83>    O      -11.75594         7.00311        11.07936
| 84>    C      -15.21518         7.75964        11.47289
| 85>    H       -9.43887         8.46847         6.37107
| 86>    H       -4.71058         7.02507         7.18736
| 87>    H       -9.84749         7.77004         9.06690
| 88>    H       -5.23752         8.11840         1.68235
| 89>    H      -10.65612         8.50013        -1.15905
| 90>    H       -8.60551         9.58185        -1.98748
| 91>    H      -11.95685         5.56932         3.42245
| 92>    H       -9.15678         4.63252         6.06500
| 93>    H      -12.18950         5.01326         5.84185
| 94>    H      -13.98754         4.98684         7.23002
| 95>    H      -12.71582         3.81302        11.89743
| 96>    H      -10.63857         3.31632        12.04041
| 97>    H       -7.98210         3.10631        10.54408
| 98>    H       -6.97690         2.95345        12.72089
| 99>    H       -6.93833         3.51463        15.25353
|100>    H       -8.28290         4.84918        16.99924
|101>    H      -10.32854         6.24004        18.16183
|102>    H      -12.49108         7.62808        18.42200
|103>    H      -14.64043         8.26591        17.08517
|104>    H      -17.87080         8.54090        13.00647
|105>    H      -15.71646         7.81771        10.52899
|106> *
|107>
|108>                          ****END OF INPUT****

CARTESIAN COORDINATES (ANGSTROEM)
---------------------------------
  C     -5.409960    7.926410    4.492920
  C     -4.060400    7.755850    4.322760
  C     -3.165340    7.457970    5.370570
  N     -2.388310    7.218320    6.181220
  C     -3.382610    7.891660    3.094160
  N     -2.770730    7.992390    2.127400
  C     -6.131370    7.807670    5.755710
  C     -7.476610    8.207050    5.560100
  C     -8.421220    8.161900    6.556700
  C     -8.025470    7.682200    7.809780
  C     -6.678710    7.286340    7.997430
  C     -5.721100    7.343290    6.992180
  S     -6.399560    6.737050    9.622490
  C     -8.066260    7.059380   10.025430
  C     -8.801600    7.533200    8.992360
  Br    -8.646990    6.775740   11.776770
  C     -7.664150    8.589520    4.148540
  O     -8.617570    9.155840    3.662290
  C     -6.389030    8.223250    3.462840
  C     -6.230140    8.165810    2.111200
  C     -7.324060    8.164390    1.184910
  C     -8.509320    7.492850    1.389940
  C     -9.741550    7.664110    0.585150
  C     -9.733570    8.418080   -0.604590
  C     -8.614590    9.021690   -1.066460
  S     -7.078690    9.056660   -0.286890
  N    -10.783540    7.063260    1.119720
  C    -10.328110    6.447280    2.250530
  C     -8.930750    6.636120    2.410510
  S     -8.317840    5.829580    3.790290
  C     -9.964030    5.396500    4.272680
  C    -10.905810    5.765110    3.321780
  C    -10.090260    4.870710    5.568190
  C    -11.243340    4.758560    6.294950
  C    -11.254820    4.395360    7.645350
  S     -9.790550    3.977310    8.493660
  C    -10.613660    3.748050   10.009450
  C    -11.998940    4.022290    9.858610
  C    -12.357640    4.375520    8.528790
  C    -13.687900    4.706650    8.225350
  C    -14.614320    4.706650    9.232370
  F    -15.889510    5.042480    8.974410
  C    -14.251350    4.381740   10.552590
  F    -15.186240    4.443510   11.523180
  C    -12.965720    4.034420   10.872740
  C     -9.976720    3.428370   11.196450
  C     -8.621000    3.240910   11.408160
  C     -8.014740    3.253430   12.659960
  C     -8.566890    3.757820   13.832740
  C     -7.924610    3.908130   15.079300
  C     -8.640390    4.615700   16.012150
  C     -9.884830    5.059360   15.538740
  S    -10.142250    4.501820   13.909400
  C    -10.882980    5.852510   16.091860
  C    -11.045770    6.401460   17.376810
  C    -12.190140    7.135300   17.514440
  C    -12.979110    7.211780   16.338210
  S    -12.207200    6.313710   15.053370
  C    -14.193860    7.837740   16.198220
  C    -14.951040    7.940870   15.014060
  S    -16.646420    8.409320   15.110370
  C    -16.907740    8.321250   13.416930
  C    -15.748370    7.959100   12.773830
  C    -14.654120    7.746570   13.672660
  O    -13.529540    7.460520   12.983630
  C    -13.889290    7.470640   11.671440
  N    -12.893060    7.230840   10.710430
  O    -13.239920    7.270710    9.537380
  O    -11.755940    7.003110   11.079360
  C    -15.215180    7.759640   11.472890
  H     -9.438870    8.468470    6.371070
  H     -4.710580    7.025070    7.187360
  H     -9.847490    7.770040    9.066900
  H     -5.237520    8.118400    1.682350
  H    -10.656120    8.500130   -1.159050
  H     -8.605510    9.581850   -1.987480
  H    -11.956850    5.569320    3.422450
  H     -9.156780    4.632520    6.065000
  H    -12.189500    5.013260    5.841850
  H    -13.987540    4.986840    7.230020
  H    -12.715820    3.813020   11.897430
  H    -10.638570    3.316320   12.040410
  H     -7.982100    3.106310   10.544080
  H     -6.976900    2.953450   12.720890
  H     -6.938330    3.514630   15.253530
  H     -8.282900    4.849180   16.999240
  H    -10.328540    6.240040   18.161830
  H    -12.491080    7.628080   18.422000
  H    -14.640430    8.265910   17.085170
  H    -17.870800    8.540900   13.006470
  H    -15.716460    7.817710   10.528990

 Total Charge           Charge          ....    0
 Multiplicity           Mult            ....    1
 Number of Electrons    NEL             ....  558
 Basis Dimension        Dim             .... 1131

ORBITAL ENERGIES
----------------

  NO   OCC          E(Eh)            E(eV)
   0   2.0000    -482.867680    -13139.4976
   1   2.0000     -88.978780     -2421.2357
   2   2.0000     -88.977307     -2421.1956
   3   2.0000     -88.965362     -2420.8706
   4   2.0000     -88.964417     -2420.8448
   5   2.0000     -88.953443     -2420.5462
   6   2.0000     -88.950696     -2420.4715
   7   2.0000     -88.945073     -2420.3185
   8   2.0000     -62.544674     -1701.9271
   9   2.0000     -56.378738     -1534.1435
  10   2.0000     -56.376033     -1534.0698
  11   2.0000     -56.375706     -1534.0609
  12   2.0000     -24.788364      -674.5257
  13   2.0000     -24.787650      -674.5062
  14   2.0000     -19.313309      -525.5418
  15   2.0000     -19.253749      -523.9212
  16   2.0000     -19.252071      -523.8755
  17   2.0000     -19.211061      -522.7595
  18   2.0000     -14.662712      -398.9927
  19   2.0000     -14.415745      -392.2724
  20   2.0000     -14.413750      -392.2181
  21   2.0000     -14.378478      -391.2583
  22   2.0000     -10.393092      -282.8104
  23   2.0000     -10.366061      -282.0749
  24   2.0000     -10.365186      -282.0510
  25   2.0000     -10.363392      -282.0022
  26   2.0000     -10.353626      -281.7365
  27   2.0000     -10.345473      -281.5146
  28   2.0000     -10.341846      -281.4159
  29   2.0000     -10.341273      -281.4003
  30   2.0000     -10.332382      -281.1584
  31   2.0000     -10.324127      -280.9338
  32   2.0000     -10.321069      -280.8506
  33   2.0000     -10.318651      -280.7848
  34   2.0000     -10.318073      -280.7690
  35   2.0000     -10.317529      -280.7542
  36   2.0000     -10.317281      -280.7475
  37   2.0000     -10.316491      -280.7260
  38   2.0000     -10.316422      -280.7241
  39   2.0000     -10.314525      -280.6725
  40   2.0000     -10.312939      -280.6293
  41   2.0000     -10.310795      -280.5710
  42   2.0000     -10.309559      -280.5374
  43   2.0000     -10.308604      -280.5114
  44   2.0000     -10.308536      -280.5095
  45   2.0000     -10.307645      -280.4853
  46   2.0000     -10.306978      -280.4671
  47   2.0000     -10.306692      -280.4593
  48   2.0000     -10.302913      -280.3565
  49   2.0000     -10.302443      -280.3437
  50   2.0000     -10.300078      -280.2794
  51   2.0000     -10.299676      -280.2684
  52   2.0000     -10.296637      -280.1857
  53   2.0000     -10.293262      -280.0939
  54   2.0000     -10.292736      -280.0796
  55   2.0000     -10.292530      -280.0740
  56   2.0000     -10.292246      -280.0662
  57   2.0000     -10.291325      -280.0412
  58   2.0000     -10.290940      -280.0307
  59   2.0000     -10.290455      -280.0175
  60   2.0000     -10.289518      -279.9920
  61   2.0000     -10.289488      -279.9912
  62   2.0000     -10.288784      -279.9720
  63   2.0000     -10.288602      -279.9671
  64   2.0000     -10.287788      -279.9449
  65   2.0000     -10.287440      -279.9355
  66   2.0000     -10.287227      -279.9297
  67   2.0000     -10.285184      -279.8741
  68   2.0000     -10.282643      -279.8049
  69   2.0000     -10.281912      -279.7850
  70   2.0000     -10.281464      -279.7729
  71   2.0000     -10.279283      -279.7135
  72   2.0000     -10.276121      -279.6275
  73   2.0000     -10.270309      -279.4693
  74   2.0000      -8.773917      -238.7504
  75   2.0000      -8.073865      -219.7010
  76   2.0000      -8.072736      -219.6703
  77   2.0000      -8.061370      -219.3610
  78   2.0000      -8.059097      -219.2992
  79   2.0000      -8.047546      -218.9849
  80   2.0000      -8.046396      -218.9536
  81   2.0000      -8.041687      -218.8254
  82   2.0000      -6.610422      -179.8787
  83   2.0000      -6.595774      -179.4801
  84   2.0000      -6.595073      -179.4611
  85   2.0000      -6.043202      -164.4439
  86   2.0000      -6.042167      -164.4157
  87   2.0000      -6.038893      -164.3266
  88   2.0000      -6.037582      -164.2909
  89   2.0000      -6.036141      -164.2518
  90   2.0000      -6.034920      -164.2185
  91   2.0000      -6.031022      -164.1125
  92   2.0000      -6.028127      -164.0337
  93   2.0000      -6.026801      -163.9976
  94   2.0000      -6.024255      -163.9283
  95   2.0000      -6.022646      -163.8845
  96   2.0000      -6.021617      -163.8565
  97   2.0000      -6.017052      -163.7323
  98   2.0000      -6.015985      -163.7033
  99   2.0000      -6.013090      -163.6245
 100   2.0000      -6.011761      -163.5883
 101   2.0000      -6.011405      -163.5787
 102   2.0000      -6.009320      -163.5219
 103   2.0000      -6.007795      -163.4804
 104   2.0000      -6.007174      -163.4635
 105   2.0000      -6.002545      -163.3376
 106   2.0000      -2.726304       -74.1865
 107   2.0000      -2.722295       -74.0774
 108   2.0000      -2.721727       -74.0620
 109   2.0000      -2.710091       -73.7453
 110   2.0000      -2.710089       -73.7453
 111   2.0000      -1.332539       -36.2602
 112   2.0000      -1.308230       -35.5987
 113   2.0000      -1.293238       -35.1908
 114   2.0000      -1.234604       -33.5953
 115   2.0000      -1.146955       -31.2102
 116   2.0000      -1.126980       -30.6667
 117   2.0000      -1.046718       -28.4826
 118   2.0000      -1.018762       -27.7219
 119   2.0000      -1.007571       -27.4174
 120   2.0000      -1.003743       -27.3132
 121   2.0000      -1.001869       -27.2622
 122   2.0000      -0.998143       -27.1609
 123   2.0000      -0.993073       -27.0229
 124   2.0000      -0.986977       -26.8570
 125   2.0000      -0.977659       -26.6035
 126   2.0000      -0.973975       -26.5032
 127   2.0000      -0.961481       -26.1632
 128   2.0000      -0.943227       -25.6665
 129   2.0000      -0.942941       -25.6587
 130   2.0000      -0.935563       -25.4580
 131   2.0000      -0.919419       -25.0187
 132   2.0000      -0.910550       -24.7773
 133   2.0000      -0.905597       -24.6426
 134   2.0000      -0.900392       -24.5009
 135   2.0000      -0.894305       -24.3353
 136   2.0000      -0.882288       -24.0083
 137   2.0000      -0.877704       -23.8836
 138   2.0000      -0.874804       -23.8046
 139   2.0000      -0.866956       -23.5911
 140   2.0000      -0.858706       -23.3666
 141   2.0000      -0.856795       -23.3146
 142   2.0000      -0.841947       -22.9105
 143   2.0000      -0.838776       -22.8243
 144   2.0000      -0.831828       -22.6352
 145   2.0000      -0.827599       -22.5201
 146   2.0000      -0.823110       -22.3980
 147   2.0000      -0.820342       -22.3227
 148   2.0000      -0.810301       -22.0494
 149   2.0000      -0.808783       -22.0081
 150   2.0000      -0.799950       -21.7677
 151   2.0000      -0.787769       -21.4363
 152   2.0000      -0.775187       -21.0939
 153   2.0000      -0.761805       -20.7298
 154   2.0000      -0.753985       -20.5170
 155   2.0000      -0.747873       -20.3506
 156   2.0000      -0.735202       -20.0059
 157   2.0000      -0.726791       -19.7770
 158   2.0000      -0.714173       -19.4336
 159   2.0000      -0.713414       -19.4130
 160   2.0000      -0.702898       -19.1268
 161   2.0000      -0.692118       -18.8335
 162   2.0000      -0.686155       -18.6712
 163   2.0000      -0.683562       -18.6007
 164   2.0000      -0.679298       -18.4846
 165   2.0000      -0.674112       -18.3435
 166   2.0000      -0.669299       -18.2126
 167   2.0000      -0.664859       -18.0917
 168   2.0000      -0.660006       -17.9597
 169   2.0000      -0.654630       -17.8134
 170   2.0000      -0.650459       -17.6999
 171   2.0000      -0.650140       -17.6912
 172   2.0000      -0.637713       -17.3530
 173   2.0000      -0.634848       -17.2751
 174   2.0000      -0.632266       -17.2048
 175   2.0000      -0.628846       -17.1118
 176   2.0000      -0.623107       -16.9556
 177   2.0000      -0.620673       -16.8894
 178   2.0000      -0.616914       -16.7871
 179   2.0000      -0.614927       -16.7330
 180   2.0000      -0.609387       -16.5823
 181   2.0000      -0.605890       -16.4871
 182   2.0000      -0.600444       -16.3389
 183   2.0000      -0.596222       -16.2240
 184   2.0000      -0.594057       -16.1651
 185   2.0000      -0.587768       -15.9940
 186   2.0000      -0.585586       -15.9346
 187   2.0000      -0.576385       -15.6842
 188   2.0000      -0.575211       -15.6523
 189   2.0000      -0.571730       -15.5576
 190   2.0000      -0.571609       -15.5543
 191   2.0000      -0.570725       -15.5302
 192   2.0000      -0.560031       -15.2392
 193   2.0000      -0.556121       -15.1328
 194   2.0000      -0.555006       -15.1025
 195   2.0000      -0.544047       -14.8043
 196   2.0000      -0.542373       -14.7587
 197   2.0000      -0.541134       -14.7250
 198   2.0000      -0.540320       -14.7029
 199   2.0000      -0.536313       -14.5938
 200   2.0000      -0.533933       -14.5290
 201   2.0000      -0.532105       -14.4793
 202   2.0000      -0.530954       -14.4480
 203   2.0000      -0.526178       -14.3180
 204   2.0000      -0.521009       -14.1774
 205   2.0000      -0.519898       -14.1472
 206   2.0000      -0.519594       -14.1389
 207   2.0000      -0.514218       -13.9926
 208   2.0000      -0.512016       -13.9327
 209   2.0000      -0.507185       -13.8012
 210   2.0000      -0.504819       -13.7368
 211   2.0000      -0.503091       -13.6898
 212   2.0000      -0.501962       -13.6591
 213   2.0000      -0.500037       -13.6067
 214   2.0000      -0.497803       -13.5459
 215   2.0000      -0.495641       -13.4871
 216   2.0000      -0.489908       -13.3311
 217   2.0000      -0.485846       -13.2205
 218   2.0000      -0.484844       -13.1933
 219   2.0000      -0.484297       -13.1784
 220   2.0000      -0.477921       -13.0049
 221   2.0000      -0.475604       -12.9418
 222   2.0000      -0.471777       -12.8377
 223   2.0000      -0.470859       -12.8127
 224   2.0000      -0.468314       -12.7435
 225   2.0000      -0.467159       -12.7120
 226   2.0000      -0.465894       -12.6776
 227   2.0000      -0.461606       -12.5609
 228   2.0000      -0.459310       -12.4985
 229   2.0000      -0.456086       -12.4107
 230   2.0000      -0.449236       -12.2243
 231   2.0000      -0.447005       -12.1636
 232   2.0000      -0.446689       -12.1550
 233   2.0000      -0.443246       -12.0613
 234   2.0000      -0.442684       -12.0460
 235   2.0000      -0.440899       -11.9975
 236   2.0000      -0.439300       -11.9540
 237   2.0000      -0.436364       -11.8741
 238   2.0000      -0.432616       -11.7721
 239   2.0000      -0.432190       -11.7605
 240   2.0000      -0.430539       -11.7156
 241   2.0000      -0.428620       -11.6634
 242   2.0000      -0.427552       -11.6343
 243   2.0000      -0.426289       -11.5999
 244   2.0000      -0.423733       -11.5304
 245   2.0000      -0.421188       -11.4611
 246   2.0000      -0.417449       -11.3594
 247   2.0000      -0.412750       -11.2315
 248   2.0000      -0.411025       -11.1846
 249   2.0000      -0.408501       -11.1159
 250   2.0000      -0.407104       -11.0779
 251   2.0000      -0.405141       -11.0244
 252   2.0000      -0.401875       -10.9356
 253   2.0000      -0.392518       -10.6810
 254   2.0000      -0.391876       -10.6635
 255   2.0000      -0.389653       -10.6030
 256   2.0000      -0.383045       -10.4232
 257   2.0000      -0.379140       -10.3169
 258   2.0000      -0.377278       -10.2662
 259   2.0000      -0.364538        -9.9196
 260   2.0000      -0.357378        -9.7247
 261   2.0000      -0.351633        -9.5684
 262   2.0000      -0.345557        -9.4031
 263   2.0000      -0.341808        -9.3011
 264   2.0000      -0.336669        -9.1612
 265   2.0000      -0.330139        -8.9835
 266   2.0000      -0.328115        -8.9285
 267   2.0000      -0.327309        -8.9065
 268   2.0000      -0.325219        -8.8497
 269   2.0000      -0.321352        -8.7444
 270   2.0000      -0.317134        -8.6297
 271   2.0000      -0.311803        -8.4846
 272   2.0000      -0.306383        -8.3371
 273   2.0000      -0.293258        -7.9800
 274   2.0000      -0.282636        -7.6909
 275   2.0000      -0.272771        -7.4225
 276   2.0000      -0.263973        -7.1831
 277   2.0000      -0.237453        -6.4614
 278   2.0000      -0.197137        -5.3644
 279   0.0000      -0.108346        -2.9482
 280   0.0000      -0.092235        -2.5099
 281   0.0000      -0.075368        -2.0509
 282   0.0000      -0.063661        -1.7323
 283   0.0000      -0.048438        -1.3181

MULLIKEN ATOMIC CHARGES
-----------------------
   0 C :    0.313957
   1 C :   -0.343566
   2 C :   -0.181623
   3 N :    0.151462
   4 C :   -0.187188
   5 N :    0.150116
   6 C :    0.024421
   7 C :    0.034607
   8 C :   -0.079468
   9 C :    0.113391
  10 C :   -0.088502
  11 C :   -0.032527
  12 S :    0.167941
  13 C :   -0.129708
  14 C :    0.047911
  15 Br:    0.050479
  16 C :    0.096275
  17 O :   -0.126542
  18 C :   -0.100967
  19 C :    0.005376
  20 C :   -0.171812
  21 C :    0.123646
  22 C :   -0.003989
  23 C :    0.056193
  24 C :   -0.086878
  25 S :    0.172714
  26 N :   -0.068847
  27 C :    0.133251
  28 C :   -0.162265
  29 S :    0.102007
  30 C :   -0.044634
  31 C :   -0.083688
  32 C :    0.035943
  33 C :   -0.008485
  34 C :   -0.091275
  35 S :    0.132488
  36 C :   -0.048804
  37 C :    0.134301
  38 C :    0.137684
  39 C :   -0.093541
  40 C :    0.229187
  41 F :   -0.183926
  42 C :    0.195639
  43 F :   -0.189117
  44 C :   -0.123841
  45 C :   -0.042751
  46 C :   -0.004909
  47 C :    0.029249
  48 C :   -0.041580
  49 C :    0.040849
  50 C :    0.028204
  51 C :   -0.038330
  52 S :    0.028802
  53 C :   -0.034672
  54 C :    0.034715
  55 C :    0.035625
  56 C :   -0.034638
  57 S :    0.082980
  58 C :    0.051040
  59 C :   -0.237108
  60 S :    0.150197
  61 C :   -0.131230
  62 C :    0.124663
  63 C :    0.205420
  64 O :   -0.191842
  65 C :    0.236926
  66 N :    0.276176
  67 O :   -0.246522
  68 O :   -0.223694
  69 C :   -0.063352
  70 H :   -0.006981
  71 H :   -0.008494
  72 H :   -0.008041
  73 H :    0.035039
  74 H :   -0.000634
  75 H :    0.055442
  76 H :   -0.021843
  77 H :   -0.005725
  78 H :   -0.008784
  79 H :   -0.015429
  80 H :   -0.007724
  81 H :    0.018312
  82 H :   -0.004831
  83 H :   -0.013276
  84 H :   -0.011668
  85 H :   -0.015434
  86 H :   -0.010894
  87 H :   -0.011693
  88 H :   -0.017424
  89 H :    0.034109
  90 H :    0.013956
Sum of atomic charges:   -0.0000000

LOEWDIN ATOMIC CHARGES
----------------------
   0 C :    0.075247
   1 C :   -0.137804
   2 C :   -0.017996
   3 N :   -0.051514
   4 C :   -0.019634
   5 N :   -0.050162
   6 C :   -0.027939
   7 C :   -0.053289
   8 C :    0.016861
   9 C :   -0.028457
  10 C :   -0.147795
  11 C :   -0.011491
  12 S :    0.418403
  13 C :   -0.271835
  14 C :   -0.070840
  15 Br:    0.169285
  16 C :    0.062040
  17 O :   -0.126723
  18 C :   -0.072134
  19 C :    0.031189
  20 C :   -0.155769
  21 C :   -0.051193
  22 C :    0.024999
  23 C :   -0.033884
  24 C :   -0.166850
  25 S :    0.480626
  26 N :   -0.126677
  27 C :   -0.002821
  28 C :   -0.230896
  29 S :    0.446922
  30 C :   -0.132904
  31 C :   -0.061344
  32 C :   -0.058471
  33 C :   -0.029895
  34 C :   -0.165599
  35 S :    0.469308
  36 C :   -0.155802
  37 C :   -0.040755
  38 C :   -0.037648
  39 C :   -0.028192
  40 C :    0.054698
  41 F :   -0.059691
  42 C :    0.046044
  43 F :   -0.063301
  44 C :   -0.037701
  45 C :   -0.058282
  46 C :   -0.041200
  47 C :   -0.051064
  48 C :   -0.153727
  49 C :   -0.030826
  50 C :   -0.042396
  51 C :   -0.185064
  52 S :    0.413141
  53 C :   -0.178524
  54 C :   -0.032501
  55 C :   -0.032751
  56 C :   -0.146595
  57 S :    0.401978
  58 C :   -0.081717
  59 C :   -0.200970
  60 S :    0.474859
  61 C :   -0.185735
  62 C :   -0.079009
  63 C :    0.012496
  64 O :   -0.000445
  65 C :    0.019952
  66 N :    0.277959
  67 O :   -0.207389
  68 O :   -0.192747
  69 C :    0.001124
  70 H :    0.042357
  71 H :    0.039702
  72 H :    0.036912
  73 H :    0.044290
  74 H :    0.047283
  75 H :    0.036086
  76 H :    0.032842
  77 H :    0.018692
  78 H :    0.034496
  79 H :    0.039188
  80 H :    0.040022
  81 H :    0.014499
  82 H :    0.026012
  83 H :    0.034629
  84 H :    0.033667
  85 H :    0.031912
  86 H :    0.033558
  87 H :    0.032957
  88 H :    0.034185
  89 H :    0.030040
  90 H :    0.047488

  Mayer bond orders larger than 0.100000
B(  0-C ,  1-C ) :   1.6375 B(  0-C ,  6-C ) :   1.0171 B(  0-C , 18-C ) :   1.0487
B(  1-C ,  2-C ) :   1.1384 B(  1-C ,  4-C ) :   1.1437 B(  2-C ,  3-N ) :   2.9739
B(  4-C ,  5-N ) :   2.9677 B(  6-C ,  7-C ) :   1.2661 B(  6-C , 11-C ) :   1.3937
B(  7-C ,  8-C ) :   1.4171 B(  7-C , 16-C ) :   0.9149 B(  8-C ,  9-C ) :   1.2484
B(  8-C , 70-H ) :   1.0206 B(  9-C , 10-C ) :   1.2920 B(  9-C , 14-C ) :   1.1558
B( 10-C , 11-C ) :   1.3414 B( 10-C , 12-S ) :   1.0792 B( 11-C , 71-H ) :   0.9814
B( 12-S , 13-C ) :   1.0787 B( 13-C , 14-C ) :   1.6109 B( 13-C , 15-Br) :   1.0423
B( 14-C , 72-H ) :   0.9993 B( 16-C , 17-O ) :   2.2598 B( 16-C , 18-C ) :   0.9095
B( 18-C , 19-C ) :   1.7073 B( 19-C , 20-C ) :   1.0855 B( 19-C , 73-H ) :   0.9259
B( 20-C , 21-C ) :   1.4623 B( 20-C , 25-S ) :   1.1100 B( 21-C , 22-C ) :   1.0100
B( 21-C , 28-C ) :   1.2811 B( 22-C , 23-C ) :   1.2146 B( 22-C , 26-N ) :   1.6613
B( 23-C , 24-C ) :   1.5923 B( 23-C , 74-H ) :   0.9766 B( 24-C , 25-S ) :   1.1405
B( 24-C , 75-H ) :   0.9408 B( 26-N , 27-C ) :   1.3058 B( 27-C , 28-C ) :   1.3236
B( 27-C , 31-C ) :   1.2308 B( 28-C , 29-S ) :   1.0389 B( 29-S , 30-C ) :   1.0788
B( 30-C , 31-C ) :   1.4324 B( 30-C , 32-C ) :   1.1736 B( 31-C , 76-H ) :   1.0150
B( 32-C , 33-C ) :   1.5831 B( 32-C , 77-H ) :   0.9498 B( 33-C , 34-C ) :   1.2581
B( 33-C , 78-H ) :   0.9698 B( 34-C , 35-S ) :   1.1198 B( 34-C , 38-C ) :   1.2799
B( 35-S , 36-C ) :   1.1176 B( 36-C , 37-C ) :   1.2554 B( 36-C , 45-C ) :   1.3307
B( 37-C , 38-C ) :   1.2381 B( 37-C , 44-C ) :   1.1837 B( 38-C , 39-C ) :   1.1794
B( 39-C , 40-C ) :   1.4840 B( 39-C , 44-C ) :   0.1155 B( 39-C , 79-H ) :   0.9964
B( 40-C , 41-F ) :   1.1191 B( 40-C , 42-C ) :   1.1828 B( 42-C , 43-F ) :   1.1009
B( 42-C , 44-C ) :   1.4784 B( 44-C , 80-H ) :   0.9996 B( 45-C , 46-C ) :   1.4575
B( 45-C , 81-H ) :   0.9262 B( 46-C , 47-C ) :   1.3008 B( 46-C , 82-H ) :   0.9696
B( 47-C , 48-C ) :   1.4691 B( 47-C , 83-H ) :   0.9647 B( 48-C , 49-C ) :   1.2001
B( 48-C , 52-S ) :   1.0493 B( 49-C , 50-C ) :   1.5351 B( 49-C , 84-H ) :   0.9969
B( 50-C , 51-C ) :   1.2278 B( 50-C , 85-H ) :   0.9959 B( 51-C , 52-S ) :   1.0455
B( 51-C , 53-C ) :   1.4431 B( 53-C , 54-C ) :   1.2115 B( 53-C , 57-S ) :   1.0586
B( 54-C , 55-C ) :   1.5701 B( 54-C , 86-H ) :   0.9959 B( 55-C , 56-C ) :   1.1540
B( 55-C , 87-H ) :   0.9979 B( 56-C , 57-S ) :   1.0541 B( 56-C , 58-C ) :   1.5856
B( 58-C , 59-C ) :   1.1558 B( 58-C , 88-H ) :   0.9477 B( 59-C , 60-S ) :   1.1279
B( 59-C , 61-C ) :   0.1041 B( 59-C , 63-C ) :   1.4190 B( 60-S , 61-C ) :   1.1834
B( 61-C , 62-C ) :   1.4293 B( 61-C , 89-H ) :   0.9757 B( 62-C , 63-C ) :   1.2282
B( 62-C , 69-C ) :   1.0688 B( 63-C , 64-O ) :   1.0926 B( 64-O , 65-C ) :   1.1178
B( 65-C , 66-N ) :   0.9238 B( 65-C , 69-C ) :   1.5603 B( 66-N , 67-O ) :   1.5076
B( 66-N , 68-O ) :   1.4780 B( 67-O , 68-O ) :   0.2614 B( 69-C , 90-H ) :   1.0249

-----------------------------------------------------------------------------
         ABSORPTION SPECTRUM VIA TRANSITION ELECTRIC DIPOLE MOMENTS
-----------------------------------------------------------------------------
State   Energy  Wavelength   fosc         T2         TX        TY        TZ
        (cm-1)    (nm)                  (au**2)     (au)      (au)      (au)
-----------------------------------------------------------------------------
   0    6585.2   1518.5   0.466536586  23.32325   2.21742   0.13160  -4.28824
   1    9859.8   1014.2   0.027742582   0.92631   0.77260  -0.25564   0.51385
   2   10114.5    988.7   0.202065150   6.57693   0.05283  -1.58848  -2.01268
   3   13933.6    717.7   0.027578658   0.65161   0.02735   0.77458   0.22556
   4   15272.7    654.8   0.031883122   0.68726   0.07050  -0.82353  -0.06389
   5   16348.6    611.7   0.188491673   3.79565  -0.23125   1.27992  -1.45051
   6   17802.0    561.7   0.009977935   0.18452   0.05823   0.40605  -0.12750
   7   18798.6    532.0   0.275544152   4.82548   1.21908  -0.49481   1.75912
   8   19368.8    516.3   0.436277458   7.41540  -1.41058   1.60847  -1.68479
   9   21529.5    464.5   0.201163288   3.07602  -1.40420   0.21573  -1.02845
  10   22206.4    450.3   0.076947290   1.14075  -0.79372  -0.19282   0.68817
  11   23608.2    423.6   0.053568487   0.74700   0.83774  -0.01539   0.21202
  12   24029.2    416.2   0.100776117   1.38069  -0.73699   0.23649  -0.88409
  13   24370.1    410.3   0.011841575   0.15997   0.39903   0.01805   0.02035
  14   25095.0    398.5   0.015410631   0.20217  -0.44011   0.08515   0.03494
  15   25294.5    395.3   0.017914202   0.23316   0.42981   0.04803   0.21475
  16   25738.5    388.5   0.099685190   1.27504  -0.96215  -0.04438   0.58935
  17   26204.3    381.6   0.036331530   0.45644  -0.21830  -0.11743   0.62849
  18   26463.9    377.9   0.027682044   0.34437   0.10375   0.31597  -0.48350
  19   26680.1    374.8   0.310709760   3.83392  -1.55693  -0.09857   1.18329
  20   27031.7    369.9   0.038063222   0.46356  -0.53859   0.09701  -0.40506
  21   27170.0    368.1   0.074286040   0.90011  -0.83522  -0.37080  -0.25499
  22   27340.2    365.8   0.020573034   0.24773  -0.12423   0.20245  -0.43739
  23   27581.5    362.6   0.078615712   0.93835   0.27630  -0.13620   0.91840
  24   27704.9    360.9   0.255080904   3.03107  -1.31636   0.09744  -1.13524
  25   29262.7    341.7   0.004309459   0.04848  -0.05472  -0.18166  -0.11174
  26   29431.4    339.8   0.034060159   0.38099   0.41590  -0.37156  -0.26451
  27   29672.4    337.0   0.137758903   1.52842  -0.79421   0.27402   0.90696
  28   29854.1    335.0   0.270053742   2.97798   1.34287   0.09388  -1.07976
  29   30051.7    332.8   0.009649530   0.10571   0.29495   0.03325  -0.13269
  30   30543.6    327.4   0.285145158   3.07342  -0.71625  -0.17820   1.59017
  31   30645.0    326.3   0.209384312   2.24937  -0.14215  -0.16142   1.48429
  32   30952.0    323.1   0.075776772   0.80598  -0.87923   0.07534  -0.16511
  33   31026.0    322.3   0.078048567   0.82816  -0.63872   0.43318  -0.48223
  34   31123.5    321.3   0.098885671   1.04597  -0.06187  -0.00962   1.02081
  35   31478.6    317.7   0.017306420   0.18100  -0.26259  -0.10728   0.31707
  36   31810.7    314.4   0.302165167   3.12713  -1.03326   0.02218   1.43493
  37   32038.9    312.1   0.009566891   0.09830   0.08196  -0.01424  -0.30230
  38   32305.4    309.5   0.114645091   1.16830  -1.03321  -0.21380  -0.23468
  39   32402.4    308.6   0.042876589   0.43563  -0.30026  -0.10431   0.57844
  40   32528.9    307.4   0.023088016   0.23366   0.37710  -0.05795  -0.29682
  41   32686.5    305.9   0.025467824   0.25651  -0.12370   0.29979   0.38902
  42   33000.8    303.0   0.056562185   0.56426  -0.33590  -0.05088  -0.66995
  43   33045.9    302.6   0.050606733   0.50416  -0.04834   0.18155  -0.68473
  44   33576.3    297.8   0.015663884   0.15358  -0.13836  -0.02529  -0.36579
  45   33900.7    295.0   0.046320289   0.44982   0.60832   0.24404  -0.14217
  46   34170.1    292.7   0.029940268   0.28846  -0.26160  -0.13078   0.45047
  47   34290.8    291.6   0.035660519   0.34236   0.45383   0.21724   0.29867
  48   34574.7    289.2   0.031505429   0.29999  -0.51619  -0.15483   0.09780
  49   34796.5    287.4   0.106505590   1.00766   0.70851  -0.25166  -0.66508
  50   35187.6    284.2   0.034832600   0.32589   0.45067   0.04234   0.34784
  51   35204.2    284.1   0.109359106   1.02267  -1.00863  -0.07145   0.01519
  52   35535.4    281.4   0.054124978   0.50143   0.16544   0.04965   0.68673
  53   35591.9    281.0   0.278961757   2.58030  -0.02102   0.17138  -1.59702
  54   35946.0    278.2   0.180318909   1.65145   1.06855  -0.12616  -0.70266
  55   36045.0    277.4   0.084616979   0.77284  -0.71252  -0.35133   0.37646
  56   36254.4    275.8   0.287423365   2.60998   0.76460   0.05079  -1.42225
  57   36430.2    274.5   0.138480143   1.25142   0.89567  -0.59520  -0.30809
  58   36475.8    274.2   0.128468087   1.15949  -0.81490   0.63363  -0.30649
  59   36624.8    273.0   0.009851248   0.08855   0.26515   0.12704  -0.04589
  60   36710.1    272.4   0.012069463   0.10824   0.12651   0.21053   0.21889
  61   36809.0    271.7   0.018201880   0.16279  -0.14780   0.16732   0.33609
  62   36962.1    270.5   0.007073850   0.06301   0.21608  -0.02819   0.12458
  63   37146.9    269.2   0.117332180   1.03985   0.89062  -0.43577  -0.23820
  64   37324.5    267.9   0.011904581   0.10500  -0.30610  -0.09233  -0.05275
  65   37505.6    266.6   0.051942960   0.45594   0.59257  -0.22031  -0.23721
  66   37696.3    265.3   0.131153581   1.14540   0.98595  -0.27147  -0.31562
  67   37749.6    264.9   0.028872856   0.25180   0.42180  -0.00728  -0.27171
  68   38075.6    262.6   0.006405797   0.05539  -0.17816   0.04773   0.14617
  69   38287.8    261.2   0.017368390   0.14934   0.17761   0.20063  -0.27847
  70   38372.3    260.6   0.017990960   0.15435   0.05766   0.03921  -0.38664
  71   38712.5    258.3   0.009370730   0.07969  -0.14262   0.11905  -0.21255
  72   38916.8    257.0   0.035804506   0.30288   0.02187   0.25121  -0.48918
  73   39043.5    256.1   0.005161836   0.04352   0.09754  -0.18423   0.00836
  74   39236.5    254.9   0.048863854   0.40999  -0.15944  -0.20984   0.58355
  75   39614.5    252.4   0.001320593   0.01097  -0.01317   0.09010   0.05179
  76   39744.6    251.6   0.224963731   1.86342   1.25593  -0.32815  -0.42236
  77   39996.4    250.0   0.002785907   0.02293  -0.01936  -0.01788   0.14912
  78   40107.0    249.3   0.012264321   0.10067   0.23106   0.08986   0.19800

FINAL SINGLE POINT ENERGY     -8070.559095083109

DIPOLE MOMENT
-------------
                                X             Y             Z
Electronic contribution:      9.20794       5.98396      19.58432
Nuclear contribution   :    -11.64577      -5.69984     -16.67335
                        -----------------------------------------
Total Dipole Moment    :     -2.43783       0.28413       2.91097
                        -----------------------------------------
Magnitude (a.u.)       :      3.80756
Magnitude (Debye)      :      9.67804

Rotational constants in cm-1:     0.001609     0.000485     0.000421
Rotational constants in MHz :    48.234692    14.542340    12.607125

                             ****ORCA TERMINATED NORMALLY****
TOTAL RUN TIME: 0 days 0 hours 13 minutes 37 seconds 812 msec
