                         Program Version 4.2.0 -  RELEASE  -
|  1> # ORCA input file
|  2> # SCF done       -174.232023577593          0.000802591637
|  3> ! CAM-B3LYP def2-SVP def2/J RIJCOSX Grid4 TightSCF
|  4> %maxcore 5000
|  5> %tddft
|  6>     Mode sTDDFT
|  7>     Ethresh 5.0
|  8>     maxcore 5000
|  9> end
| 10>
| 11> %pal
| 12>   nprocs 6
| 13>   end
| 14> * xyz 0 1
| 15>    C        2.84537        -1.50113         8.19255
| 16>    C        3.78828        -2.40901         7.90465
| 17>    C        5.10763        -2.51281         8.45814
| 18>    C        5.83730        -3.54358         7.97569
| 19>    C        5.16528        -4.33446         7.00392
| 20>    S        3.55068        -3.70871         6.72582
| 21>    C        5.64765        -5.44116         6.34664
| 22>    C        6.91772        -6.05277         6.47313
| 23>    C        7.08145        -7.14888         5.68710
| 24>    C        5.96459        -7.47160         4.86966
| 25>    S        4.67698        -6.31688         5.17756
| 26>    C        5.90747        -8.58002         4.06265
| 27>    C        4.93549        -9.02680         3.14814
| 28>    S        4.91575       -10.74651         2.81776
| 29>    C        3.61973       -10.59083         1.65793
| 30>    C        3.23957        -9.24609         1.55491
| 31>    C        3.97998        -8.37909         2.36163
| 32>    C        3.82823        -6.89323         2.25844
| 33>    C        3.16605        -6.50051         0.94170
| 34>    C        1.85327        -7.27278         0.82927
| 35>    N        1.11645        -6.80462        -0.35749
| 36>    O        0.11934        -6.14464        -0.17771
| 37>    O        1.54668        -7.10957        -1.44381
| 38>    C        2.14555        -8.76080         0.65503
| 39>    C        3.19638       -11.75298         0.98649
| 40>    C        2.32325       -11.80039        -0.06941
| 41>    C        1.94845       -12.92460        -0.80501
| 42>    C        1.13675       -12.79566        -1.91805
| 43>    C        0.70103       -13.77454        -2.83182
| 44>    C       -0.04663       -13.28606        -3.87171
| 45>    C       -0.24338       -11.89568        -3.82747
| 46>    S        0.52849       -11.22277        -2.41314
| 47>    C       -0.89242       -11.04981        -4.71626
| 48>    C       -1.49686       -11.32500        -5.95458
| 49>    C       -1.98236       -10.21392        -6.58580
| 50>    C       -1.78336        -8.99780        -5.88870
| 51>    S       -0.98325        -9.33899        -4.36852
| 52>    C       -2.23764        -7.77162        -6.32814
| 53>    C       -2.12173        -6.47409        -5.80857
| 54>    S       -3.29686        -5.31445        -6.39719
| 55>    C       -2.65819        -4.03487        -5.39557
| 56>    C       -1.56718        -4.51106        -4.65514
| 57>    C       -1.24708        -5.84466        -4.91057
| 58>    C        0.00636        -6.45981        -4.37716
| 59>    C        0.99224        -5.38528        -3.93576
| 60>    C        0.26036        -4.47373        -2.94995
| 61>    N        1.25691        -3.60210        -2.29480
| 62>    O        1.38274        -2.46530        -2.68227
| 63>    O        1.91752        -4.10699        -1.41537
| 64>    C       -0.80102        -3.66633        -3.68111
| 65>    C       -3.27401        -2.77794        -5.51764
| 66>    C       -2.98561        -1.61220        -4.85427
| 67>    C       -3.60626        -0.37124        -5.05572
| 68>    C       -4.54743         0.02391        -5.98213
| 69>    C       -5.06732         1.34001        -6.06850
| 70>    C       -5.95700         1.53969        -7.07856
| 71>    C       -6.19997         0.38751        -7.86079
| 72>    S       -5.25842        -0.95932        -7.24921
| 73>    C       -7.02796         0.26286        -8.95328
| 74>    C       -7.83456         1.27332        -9.54309
| 75>    C       -8.54299         0.86495       -10.62040
| 76>    C       -8.35030        -0.51274       -10.96821
| 77>    S       -7.20918        -1.24473        -9.82888
| 78>    C       -8.91209        -1.19146       -11.97878
| 79>    H        3.03228        -0.72652         8.91506
| 80>    H        1.88369        -1.51285         7.71350
| 81>    H        5.44957        -1.80795         9.19513
| 82>    H        6.84369        -3.76955         8.28122
| 83>    H        7.66896        -5.66818         7.13918
| 84>    H        7.97904        -7.74150         5.65391
| 85>    H        6.73401        -9.26964         4.19791
| 86>    H        4.80863        -6.42115         2.33462
| 87>    H        3.22021        -6.52184         3.08770
| 88>    H        3.80616        -6.76038         0.09665
| 89>    H        2.98195        -5.42581         0.91516
| 90>    H        1.21948        -7.06911         1.69691
| 91>    H        2.44604        -8.90989        -0.38842
| 92>    H        1.23559        -9.33887         0.84026
| 93>    H        3.65220       -12.67729         1.31872
| 94>    H        1.89612       -10.88084        -0.43001
| 95>    H        2.31033       -13.90692        -0.53658
| 96>    H        0.95933       -14.81203        -2.70998
| 97>    H       -0.45030       -13.89290        -4.66292
| 98>    H       -1.54992       -12.32161        -6.35524
| 99>    H       -2.46986       -10.23118        -7.54493
|100>    H       -2.86436        -7.83159        -7.21191
|101>    H        0.46028        -7.08985        -5.14294
|102>    H       -0.21284        -7.09326        -3.51496
|103>    H        1.33833        -4.80072        -4.79095
|104>    H        1.84572        -5.85949        -3.45106
|105>    H       -0.17400        -5.08768        -2.15435
|106>    H       -0.31609        -2.84193        -4.21450
|107>    H       -1.49450        -3.23595        -2.95356
|108>    H       -4.07761        -2.75819        -6.24099
|109>    H       -2.21721        -1.60903        -4.09880
|110>    H       -3.28270         0.42271        -4.39266
|111>    H       -4.75941         2.10417        -5.37600
|112>    H       -6.43781         2.47927        -7.28341
|113>    H       -7.85926         2.27251        -9.14529
|114>    H       -9.20462         1.48876       -11.19487
|115>    H       -9.59989        -0.70716       -12.64921
|116>    H       -8.69615        -2.22958       -12.15204
|117> *
|118>
|119>                          ****END OF INPUT****

CARTESIAN COORDINATES (ANGSTROEM)
---------------------------------
  C      2.845370   -1.501130    8.192550
  C      3.788280   -2.409010    7.904650
  C      5.107630   -2.512810    8.458140
  C      5.837300   -3.543580    7.975690
  C      5.165280   -4.334460    7.003920
  S      3.550680   -3.708710    6.725820
  C      5.647650   -5.441160    6.346640
  C      6.917720   -6.052770    6.473130
  C      7.081450   -7.148880    5.687100
  C      5.964590   -7.471600    4.869660
  S      4.676980   -6.316880    5.177560
  C      5.907470   -8.580020    4.062650
  C      4.935490   -9.026800    3.148140
  S      4.915750  -10.746510    2.817760
  C      3.619730  -10.590830    1.657930
  C      3.239570   -9.246090    1.554910
  C      3.979980   -8.379090    2.361630
  C      3.828230   -6.893230    2.258440
  C      3.166050   -6.500510    0.941700
  C      1.853270   -7.272780    0.829270
  N      1.116450   -6.804620   -0.357490
  O      0.119340   -6.144640   -0.177710
  O      1.546680   -7.109570   -1.443810
  C      2.145550   -8.760800    0.655030
  C      3.196380  -11.752980    0.986490
  C      2.323250  -11.800390   -0.069410
  C      1.948450  -12.924600   -0.805010
  C      1.136750  -12.795660   -1.918050
  C      0.701030  -13.774540   -2.831820
  C     -0.046630  -13.286060   -3.871710
  C     -0.243380  -11.895680   -3.827470
  S      0.528490  -11.222770   -2.413140
  C     -0.892420  -11.049810   -4.716260
  C     -1.496860  -11.325000   -5.954580
  C     -1.982360  -10.213920   -6.585800
  C     -1.783360   -8.997800   -5.888700
  S     -0.983250   -9.338990   -4.368520
  C     -2.237640   -7.771620   -6.328140
  C     -2.121730   -6.474090   -5.808570
  S     -3.296860   -5.314450   -6.397190
  C     -2.658190   -4.034870   -5.395570
  C     -1.567180   -4.511060   -4.655140
  C     -1.247080   -5.844660   -4.910570
  C      0.006360   -6.459810   -4.377160
  C      0.992240   -5.385280   -3.935760
  C      0.260360   -4.473730   -2.949950
  N      1.256910   -3.602100   -2.294800
  O      1.382740   -2.465300   -2.682270
  O      1.917520   -4.106990   -1.415370
  C     -0.801020   -3.666330   -3.681110
  C     -3.274010   -2.777940   -5.517640
  C     -2.985610   -1.612200   -4.854270
  C     -3.606260   -0.371240   -5.055720
  C     -4.547430    0.023910   -5.982130
  C     -5.067320    1.340010   -6.068500
  C     -5.957000    1.539690   -7.078560
  C     -6.199970    0.387510   -7.860790
  S     -5.258420   -0.959320   -7.249210
  C     -7.027960    0.262860   -8.953280
  C     -7.834560    1.273320   -9.543090
  C     -8.542990    0.864950  -10.620400
  C     -8.350300   -0.512740  -10.968210
  S     -7.209180   -1.244730   -9.828880
  C     -8.912090   -1.191460  -11.978780
  H      3.032280   -0.726520    8.915060
  H      1.883690   -1.512850    7.713500
  H      5.449570   -1.807950    9.195130
  H      6.843690   -3.769550    8.281220
  H      7.668960   -5.668180    7.139180
  H      7.979040   -7.741500    5.653910
  H      6.734010   -9.269640    4.197910
  H      4.808630   -6.421150    2.334620
  H      3.220210   -6.521840    3.087700
  H      3.806160   -6.760380    0.096650
  H      2.981950   -5.425810    0.915160
  H      1.219480   -7.069110    1.696910
  H      2.446040   -8.909890   -0.388420
  H      1.235590   -9.338870    0.840260
  H      3.652200  -12.677290    1.318720
  H      1.896120  -10.880840   -0.430010
  H      2.310330  -13.906920   -0.536580
  H      0.959330  -14.812030   -2.709980
  H     -0.450300  -13.892900   -4.662920
  H     -1.549920  -12.321610   -6.355240
  H     -2.469860  -10.231180   -7.544930
  H     -2.864360   -7.831590   -7.211910
  H      0.460280   -7.089850   -5.142940
  H     -0.212840   -7.093260   -3.514960
  H      1.338330   -4.800720   -4.790950
  H      1.845720   -5.859490   -3.451060
  H     -0.174000   -5.087680   -2.154350
  H     -0.316090   -2.841930   -4.214500
  H     -1.494500   -3.235950   -2.953560
  H     -4.077610   -2.758190   -6.240990
  H     -2.217210   -1.609030   -4.098800
  H     -3.282700    0.422710   -4.392660
  H     -4.759410    2.104170   -5.376000
  H     -6.437810    2.479270   -7.283410
  H     -7.859260    2.272510   -9.145290
  H     -9.204620    1.488760  -11.194870
  H     -9.599890   -0.707160  -12.649210
  H     -8.696150   -2.229580  -12.152040

 Total Charge           Charge          ....    0
 Multiplicity           Mult            ....    1
 Number of Electrons    NEL             ....  512
 Basis Dimension        Dim             .... 1118

ORBITAL ENERGIES
----------------

  NO   OCC          E(Eh)            E(eV)
   0   2.0000     -88.942053     -2420.2363
   1   2.0000     -88.939022     -2420.1538
   2   2.0000     -88.939019     -2420.1538
   3   2.0000     -88.938974     -2420.1525
   4   2.0000     -88.937951     -2420.1247
   5   2.0000     -88.935846     -2420.0674
   6   2.0000     -88.933196     -2419.9953
   7   2.0000     -88.933004     -2419.9901
   8   2.0000     -19.248138      -523.7685
   9   2.0000     -19.247661      -523.7555
  10   2.0000     -19.231294      -523.3101
  11   2.0000     -19.228811      -523.2425
  12   2.0000     -14.641381      -398.4122
  13   2.0000     -14.626681      -398.0122
  14   2.0000     -10.323885      -280.9272
  15   2.0000     -10.305134      -280.4169
  16   2.0000     -10.304357      -280.3958
  17   2.0000     -10.304203      -280.3916
  18   2.0000     -10.303915      -280.3838
  19   2.0000     -10.303376      -280.3691
  20   2.0000     -10.303223      -280.3650
  21   2.0000     -10.301584      -280.3203
  22   2.0000     -10.301513      -280.3184
  23   2.0000     -10.301491      -280.3178
  24   2.0000     -10.301484      -280.3176
  25   2.0000     -10.300474      -280.2902
  26   2.0000     -10.299049      -280.2514
  27   2.0000     -10.297795      -280.2173
  28   2.0000     -10.294595      -280.1302
  29   2.0000     -10.294350      -280.1235
  30   2.0000     -10.292774      -280.0806
  31   2.0000     -10.292167      -280.0641
  32   2.0000     -10.284781      -279.8631
  33   2.0000     -10.284386      -279.8524
  34   2.0000     -10.282739      -279.8076
  35   2.0000     -10.281625      -279.7772
  36   2.0000     -10.281483      -279.7734
  37   2.0000     -10.281190      -279.7654
  38   2.0000     -10.280835      -279.7557
  39   2.0000     -10.279627      -279.7229
  40   2.0000     -10.279517      -279.7199
  41   2.0000     -10.279262      -279.7129
  42   2.0000     -10.279242      -279.7124
  43   2.0000     -10.278715      -279.6981
  44   2.0000     -10.277860      -279.6748
  45   2.0000     -10.276447      -279.6363
  46   2.0000     -10.276086      -279.6265
  47   2.0000     -10.275826      -279.6195
  48   2.0000     -10.275298      -279.6051
  49   2.0000     -10.275016      -279.5974
  50   2.0000     -10.274560      -279.5850
  51   2.0000     -10.272915      -279.5402
  52   2.0000     -10.272086      -279.5177
  53   2.0000     -10.271966      -279.5144
  54   2.0000     -10.270634      -279.4782
  55   2.0000     -10.270507      -279.4747
  56   2.0000     -10.269847      -279.4567
  57   2.0000     -10.269043      -279.4349
  58   2.0000     -10.268576      -279.4221
  59   2.0000     -10.266437      -279.3640
  60   2.0000     -10.265190      -279.3300
  61   2.0000     -10.264645      -279.3152
  62   2.0000     -10.263659      -279.2884
  63   2.0000     -10.260291      -279.1967
  64   2.0000      -8.037916      -218.7228
  65   2.0000      -8.034998      -218.6434
  66   2.0000      -8.034920      -218.6413
  67   2.0000      -8.034693      -218.6351
  68   2.0000      -8.033904      -218.6136
  69   2.0000      -8.031879      -218.5585
  70   2.0000      -8.029864      -218.5037
  71   2.0000      -8.029769      -218.5011
  72   2.0000      -6.007153      -163.4629
  73   2.0000      -6.004749      -163.3975
  74   2.0000      -6.004445      -163.3893
  75   2.0000      -6.004174      -163.3819
  76   2.0000      -6.003704      -163.3691
  77   2.0000      -6.003309      -163.3584
  78   2.0000      -6.001583      -163.3114
  79   2.0000      -6.000687      -163.2870
  80   2.0000      -6.000385      -163.2788
  81   2.0000      -6.000367      -163.2783
  82   2.0000      -5.999824      -163.2635
  83   2.0000      -5.999688      -163.2598
  84   2.0000      -5.999597      -163.2573
  85   2.0000      -5.999468      -163.2538
  86   2.0000      -5.997626      -163.2037
  87   2.0000      -5.996919      -163.1844
  88   2.0000      -5.995810      -163.1543
  89   2.0000      -5.995694      -163.1511
  90   2.0000      -5.995681      -163.1508
  91   2.0000      -5.995665      -163.1503
  92   2.0000      -5.994844      -163.1280
  93   2.0000      -5.992860      -163.0740
  94   2.0000      -5.990380      -163.0065
  95   2.0000      -5.990285      -163.0039
  96   2.0000      -1.326268       -36.0896
  97   2.0000      -1.308962       -35.6187
  98   2.0000      -1.144979       -31.1565
  99   2.0000      -1.128430       -30.7061
 100   2.0000      -0.989414       -26.9233
 101   2.0000      -0.988896       -26.9092
 102   2.0000      -0.985773       -26.8243
 103   2.0000      -0.983481       -26.7619
 104   2.0000      -0.980289       -26.6750
 105   2.0000      -0.965382       -26.2694
 106   2.0000      -0.963531       -26.2190
 107   2.0000      -0.962806       -26.1993
 108   2.0000      -0.945983       -25.7415
 109   2.0000      -0.934117       -25.4186
 110   2.0000      -0.906748       -24.6739
 111   2.0000      -0.901401       -24.5284
 112   2.0000      -0.887399       -24.1473
 113   2.0000      -0.880365       -23.9560
 114   2.0000      -0.872243       -23.7349
 115   2.0000      -0.865557       -23.5530
 116   2.0000      -0.860697       -23.4208
 117   2.0000      -0.857226       -23.3263
 118   2.0000      -0.848187       -23.0804
 119   2.0000      -0.839829       -22.8529
 120   2.0000      -0.838845       -22.8261
 121   2.0000      -0.835703       -22.7406
 122   2.0000      -0.835038       -22.7225
 123   2.0000      -0.830681       -22.6040
 124   2.0000      -0.825572       -22.4649
 125   2.0000      -0.815379       -22.1876
 126   2.0000      -0.814763       -22.1708
 127   2.0000      -0.811600       -22.0848
 128   2.0000      -0.804080       -21.8801
 129   2.0000      -0.793169       -21.5832
 130   2.0000      -0.780056       -21.2264
 131   2.0000      -0.772840       -21.0300
 132   2.0000      -0.764465       -20.8022
 133   2.0000      -0.757821       -20.6213
 134   2.0000      -0.744351       -20.2548
 135   2.0000      -0.731640       -19.9089
 136   2.0000      -0.719019       -19.5655
 137   2.0000      -0.718422       -19.5493
 138   2.0000      -0.703696       -19.1485
 139   2.0000      -0.694399       -18.8956
 140   2.0000      -0.685646       -18.6574
 141   2.0000      -0.677359       -18.4319
 142   2.0000      -0.673161       -18.3176
 143   2.0000      -0.665675       -18.1139
 144   2.0000      -0.663084       -18.0434
 145   2.0000      -0.654144       -17.8002
 146   2.0000      -0.650060       -17.6890
 147   2.0000      -0.643357       -17.5066
 148   2.0000      -0.638794       -17.3825
 149   2.0000      -0.635833       -17.3019
 150   2.0000      -0.630345       -17.1525
 151   2.0000      -0.626962       -17.0605
 152   2.0000      -0.622519       -16.9396
 153   2.0000      -0.621346       -16.9077
 154   2.0000      -0.616764       -16.7830
 155   2.0000      -0.616349       -16.7717
 156   2.0000      -0.613404       -16.6916
 157   2.0000      -0.611013       -16.6265
 158   2.0000      -0.607973       -16.5438
 159   2.0000      -0.606217       -16.4960
 160   2.0000      -0.603761       -16.4292
 161   2.0000      -0.600658       -16.3447
 162   2.0000      -0.593179       -16.1412
 163   2.0000      -0.592968       -16.1355
 164   2.0000      -0.591653       -16.0997
 165   2.0000      -0.590800       -16.0765
 166   2.0000      -0.574268       -15.6266
 167   2.0000      -0.571648       -15.5553
 168   2.0000      -0.563928       -15.3453
 169   2.0000      -0.562822       -15.3152
 170   2.0000      -0.559452       -15.2235
 171   2.0000      -0.550358       -14.9760
 172   2.0000      -0.540803       -14.7160
 173   2.0000      -0.536229       -14.5915
 174   2.0000      -0.532872       -14.5002
 175   2.0000      -0.531786       -14.4706
 176   2.0000      -0.524687       -14.2774
 177   2.0000      -0.524388       -14.2693
 178   2.0000      -0.517016       -14.0687
 179   2.0000      -0.513736       -13.9795
 180   2.0000      -0.512168       -13.9368
 181   2.0000      -0.510172       -13.8825
 182   2.0000      -0.507890       -13.8204
 183   2.0000      -0.505300       -13.7499
 184   2.0000      -0.499103       -13.5813
 185   2.0000      -0.496534       -13.5114
 186   2.0000      -0.493395       -13.4260
 187   2.0000      -0.492364       -13.3979
 188   2.0000      -0.489645       -13.3239
 189   2.0000      -0.488786       -13.3006
 190   2.0000      -0.488447       -13.2913
 191   2.0000      -0.488105       -13.2820
 192   2.0000      -0.485748       -13.2179
 193   2.0000      -0.485310       -13.2060
 194   2.0000      -0.483844       -13.1661
 195   2.0000      -0.477295       -12.9879
 196   2.0000      -0.475907       -12.9501
 197   2.0000      -0.475263       -12.9326
 198   2.0000      -0.471373       -12.8267
 199   2.0000      -0.469222       -12.7682
 200   2.0000      -0.465017       -12.6537
 201   2.0000      -0.462178       -12.5765
 202   2.0000      -0.459476       -12.5030
 203   2.0000      -0.456987       -12.4353
 204   2.0000      -0.455774       -12.4023
 205   2.0000      -0.454533       -12.3685
 206   2.0000      -0.452137       -12.3033
 207   2.0000      -0.449034       -12.2188
 208   2.0000      -0.447466       -12.1762
 209   2.0000      -0.439472       -11.9586
 210   2.0000      -0.436876       -11.8880
 211   2.0000      -0.434844       -11.8327
 212   2.0000      -0.433233       -11.7889
 213   2.0000      -0.430878       -11.7248
 214   2.0000      -0.430447       -11.7131
 215   2.0000      -0.424657       -11.5555
 216   2.0000      -0.422131       -11.4868
 217   2.0000      -0.418353       -11.3840
 218   2.0000      -0.415457       -11.3052
 219   2.0000      -0.414131       -11.2691
 220   2.0000      -0.411725       -11.2036
 221   2.0000      -0.410112       -11.1597
 222   2.0000      -0.407354       -11.0847
 223   2.0000      -0.403006       -10.9663
 224   2.0000      -0.400890       -10.9088
 225   2.0000      -0.399573       -10.8729
 226   2.0000      -0.396888       -10.7999
 227   2.0000      -0.393667       -10.7122
 228   2.0000      -0.389638       -10.6026
 229   2.0000      -0.386918       -10.5286
 230   2.0000      -0.385137       -10.4801
 231   2.0000      -0.384500       -10.4628
 232   2.0000      -0.379688       -10.3318
 233   2.0000      -0.378588       -10.3019
 234   2.0000      -0.373309       -10.1583
 235   2.0000      -0.367909       -10.0113
 236   2.0000      -0.367392        -9.9973
 237   2.0000      -0.361114        -9.8264
 238   2.0000      -0.358243        -9.7483
 239   2.0000      -0.353012        -9.6059
 240   2.0000      -0.341224        -9.2852
 241   2.0000      -0.332101        -9.0369
 242   2.0000      -0.331467        -9.0197
 243   2.0000      -0.330579        -8.9955
 244   2.0000      -0.324853        -8.8397
 245   2.0000      -0.319434        -8.6923
 246   2.0000      -0.314044        -8.5456
 247   2.0000      -0.312939        -8.5155
 248   2.0000      -0.304508        -8.2861
 249   2.0000      -0.300695        -8.1823
 250   2.0000      -0.298252        -8.1159
 251   2.0000      -0.278014        -7.5652
 252   2.0000      -0.256823        -6.9885
 253   2.0000      -0.223308        -6.0765
 254   2.0000      -0.207660        -5.6507
 255   2.0000      -0.184558        -5.0221
 256   0.0000      -0.087647        -2.3850
 257   0.0000      -0.064919        -1.7665
 258   0.0000      -0.050619        -1.3774
 259   0.0000      -0.018269        -0.4971
 260   0.0000      -0.016147        -0.4394

MULLIKEN ATOMIC CHARGES
-----------------------
   0 C :   -0.029882
   1 C :   -0.064474
   2 C :    0.049756
   3 C :    0.029127
   4 C :   -0.067185
   5 S :    0.074700
   6 C :   -0.045941
   7 C :    0.030006
   8 C :    0.027920
   9 C :   -0.022982
  10 S :    0.060811
  11 C :   -0.022218
  12 C :   -0.139770
  13 S :    0.106681
  14 C :   -0.112641
  15 C :   -0.087330
  16 C :   -0.077638
  17 C :    0.106060
  18 C :    0.077679
  19 C :    0.014494
  20 N :    0.241426
  21 O :   -0.222970
  22 O :   -0.225515
  23 C :    0.116231
  24 C :    0.044523
  25 C :   -0.027164
  26 C :    0.012310
  27 C :   -0.028275
  28 C :    0.030104
  29 C :    0.025300
  30 C :   -0.032057
  31 S :    0.027478
  32 C :   -0.030517
  33 C :    0.021104
  34 C :    0.032139
  35 C :   -0.027499
  36 S :    0.058900
  37 C :    0.001239
  38 C :   -0.140854
  39 S :    0.111235
  40 C :   -0.111687
  41 C :   -0.097531
  42 C :   -0.081661
  43 C :    0.108752
  44 C :    0.085243
  45 C :   -0.040514
  46 N :    0.231045
  47 O :   -0.236971
  48 O :   -0.256259
  49 C :    0.167101
  50 C :    0.039693
  51 C :   -0.009978
  52 C :   -0.008204
  53 C :   -0.022700
  54 C :    0.033313
  55 C :    0.023294
  56 C :   -0.034968
  57 S :    0.059055
  58 C :   -0.064154
  59 C :    0.029522
  60 C :    0.049746
  61 C :   -0.064302
  62 S :    0.080306
  63 C :   -0.030091
  64 H :    0.018994
  65 H :    0.021110
  66 H :   -0.012953
  67 H :   -0.013041
  68 H :   -0.016047
  69 H :   -0.012838
  70 H :   -0.009115
  71 H :    0.030498
  72 H :    0.037772
  73 H :    0.026062
  74 H :    0.034535
  75 H :    0.023075
  76 H :    0.067073
  77 H :    0.040611
  78 H :   -0.027586
  79 H :   -0.007205
  80 H :   -0.022866
  81 H :   -0.016240
  82 H :   -0.015914
  83 H :   -0.016915
  84 H :   -0.013723
  85 H :   -0.011436
  86 H :    0.024570
  87 H :    0.042474
  88 H :    0.009804
  89 H :    0.028421
  90 H :    0.036990
  91 H :    0.043395
  92 H :    0.036046
  93 H :   -0.015432
  94 H :   -0.017921
  95 H :   -0.017774
  96 H :   -0.014315
  97 H :   -0.017820
  98 H :   -0.012491
  99 H :   -0.012242
 100 H :    0.019133
 101 H :    0.020954
Sum of atomic charges:   -0.0000000

LOEWDIN ATOMIC CHARGES
----------------------
   0 C :   -0.078928
   1 C :   -0.139158
   2 C :   -0.033463
   3 C :   -0.026833
   4 C :   -0.179563
   5 S :    0.347175
   6 C :   -0.181181
   7 C :   -0.037501
   8 C :   -0.033102
   9 C :   -0.152213
  10 S :    0.387559
  11 C :   -0.084075
  12 C :   -0.176978
  13 S :    0.421733
  14 C :   -0.165774
  15 C :   -0.060096
  16 C :   -0.060098
  17 C :   -0.033243
  18 C :   -0.014575
  19 C :    0.015774
  20 N :    0.289813
  21 O :   -0.188643
  22 O :   -0.185796
  23 C :   -0.032029
  24 C :   -0.050448
  25 C :   -0.038168
  26 C :   -0.061876
  27 C :   -0.139409
  28 C :   -0.043953
  29 C :   -0.031963
  30 C :   -0.186714
  31 S :    0.369601
  32 C :   -0.175240
  33 C :   -0.043846
  34 C :   -0.030085
  35 C :   -0.159487
  36 S :    0.406703
  37 C :   -0.072981
  38 C :   -0.176430
  39 S :    0.428524
  40 C :   -0.160949
  41 C :   -0.052758
  42 C :   -0.053093
  43 C :   -0.034569
  44 C :   -0.015788
  45 C :    0.005751
  46 N :    0.281907
  47 O :   -0.200437
  48 O :   -0.219175
  49 C :   -0.032055
  50 C :   -0.052028
  51 C :   -0.041394
  52 C :   -0.061579
  53 C :   -0.145644
  54 C :   -0.030968
  55 C :   -0.041823
  56 C :   -0.180727
  57 S :    0.383774
  58 C :   -0.176640
  59 C :   -0.026551
  60 C :   -0.032799
  61 C :   -0.139436
  62 S :    0.351187
  63 C :   -0.078465
  64 H :    0.028115
  65 H :    0.026060
  66 H :    0.032789
  67 H :    0.031856
  68 H :    0.030785
  69 H :    0.032434
  70 H :    0.033193
  71 H :    0.037125
  72 H :    0.023411
  73 H :    0.032620
  74 H :    0.036698
  75 H :    0.035889
  76 H :    0.039341
  77 H :    0.038706
  78 H :    0.026344
  79 H :    0.015228
  80 H :    0.029745
  81 H :    0.031812
  82 H :    0.031051
  83 H :    0.031001
  84 H :    0.032026
  85 H :    0.033673
  86 H :    0.032875
  87 H :    0.023181
  88 H :    0.024570
  89 H :    0.028735
  90 H :    0.029585
  91 H :    0.038574
  92 H :    0.037801
  93 H :    0.009278
  94 H :    0.030501
  95 H :    0.034527
  96 H :    0.032742
  97 H :    0.029926
  98 H :    0.032191
  99 H :    0.032863
 100 H :    0.028136
 101 H :    0.025850

  Mayer bond orders larger than 0.100000
B(  0-C ,  1-C ) :   1.8637 B(  0-C , 64-H ) :   0.9507 B(  0-C , 65-H ) :   0.9409
B(  1-C ,  2-C ) :   1.0808 B(  1-C ,  5-S ) :   1.0083 B(  2-C ,  3-C ) :   1.6585
B(  2-C , 66-H ) :   0.9935 B(  3-C ,  4-C ) :   1.1554 B(  3-C , 67-H ) :   0.9916
B(  4-C ,  5-S ) :   1.0415 B(  4-C ,  6-C ) :   1.5539 B(  6-C ,  7-C ) :   1.1695
B(  6-C , 10-S ) :   1.0356 B(  7-C ,  8-C ) :   1.6073 B(  7-C , 68-H ) :   0.9921
B(  8-C ,  9-C ) :   1.1357 B(  8-C , 69-H ) :   0.9982 B(  9-C , 10-S ) :   1.0279
B(  9-C , 11-C ) :   1.6205 B( 11-C , 12-C ) :   1.1400 B( 11-C , 70-H ) :   0.9420
B( 12-C , 13-S ) :   1.1086 B( 12-C , 16-C ) :   1.4617 B( 13-S , 14-C ) :   1.1068
B( 14-C , 15-C ) :   1.4419 B( 14-C , 24-C ) :   1.1793 B( 15-C , 16-C ) :   1.3606
B( 15-C , 23-C ) :   1.0571 B( 16-C , 17-C ) :   1.0392 B( 17-C , 18-C ) :   1.0973
B( 17-C , 71-H ) :   0.9208 B( 17-C , 72-H ) :   0.8942 B( 18-C , 19-C ) :   1.0482
B( 18-C , 73-H ) :   0.9258 B( 18-C , 74-H ) :   0.9289 B( 19-C , 20-N ) :   0.8363
B( 19-C , 23-C ) :   1.0141 B( 19-C , 75-H ) :   0.9198 B( 20-N , 21-O ) :   1.5461
B( 20-N , 22-O ) :   1.5304 B( 21-O , 22-O ) :   0.2601 B( 23-C , 76-H ) :   0.8784
B( 23-C , 77-H ) :   0.9029 B( 24-C , 25-C ) :   1.5809 B( 24-C , 78-H ) :   0.9586
B( 25-C , 26-C ) :   1.1991 B( 25-C , 79-H ) :   0.9548 B( 26-C , 27-C ) :   1.5031
B( 26-C , 80-H ) :   0.9899 B( 27-C , 28-C ) :   1.1714 B( 27-C , 31-S ) :   1.0449
B( 28-C , 29-C ) :   1.5492 B( 28-C , 81-H ) :   0.9987 B( 29-C , 30-C ) :   1.2221
B( 29-C , 82-H ) :   0.9947 B( 30-C , 31-S ) :   1.0477 B( 30-C , 32-C ) :   1.4566
B( 32-C , 33-C ) :   1.2108 B( 32-C , 36-S ) :   1.0550 B( 33-C , 34-C ) :   1.5635
B( 33-C , 83-H ) :   0.9946 B( 34-C , 35-C ) :   1.1646 B( 34-C , 84-H ) :   0.9980
B( 35-C , 36-S ) :   1.0311 B( 35-C , 37-C ) :   1.5764 B( 37-C , 38-C ) :   1.1799
B( 37-C , 85-H ) :   0.9389 B( 38-C , 39-S ) :   1.1059 B( 38-C , 42-C ) :   1.4222
B( 39-S , 40-C ) :   1.1239 B( 40-C , 41-C ) :   1.4285 B( 40-C , 50-C ) :   1.2249
B( 41-C , 42-C ) :   1.3786 B( 41-C , 49-C ) :   1.0331 B( 42-C , 43-C ) :   1.0414
B( 43-C , 44-C ) :   1.1007 B( 43-C , 86-H ) :   0.9244 B( 43-C , 87-H ) :   0.8854
B( 44-C , 45-C ) :   1.0529 B( 44-C , 88-H ) :   0.9255 B( 44-C , 89-H ) :   0.9177
B( 45-C , 46-N ) :   0.8373 B( 45-C , 49-C ) :   1.0227 B( 45-C , 90-H ) :   0.9013
B( 46-N , 47-O ) :   1.5702 B( 46-N , 48-O ) :   1.5414 B( 47-O , 48-O ) :   0.2687
B( 49-C , 91-H ) :   0.8846 B( 49-C , 92-H ) :   0.9032 B( 50-C , 51-C ) :   1.5638
B( 50-C , 93-H ) :   0.9204 B( 51-C , 52-C ) :   1.2348 B( 51-C , 94-H ) :   0.9657
B( 52-C , 53-C ) :   1.5484 B( 52-C , 95-H ) :   0.9591 B( 53-C , 54-C ) :   1.1563
B( 53-C , 57-S ) :   1.0411 B( 54-C , 55-C ) :   1.5897 B( 54-C , 96-H ) :   0.9984
B( 55-C , 56-C ) :   1.1799 B( 55-C , 97-H ) :   0.9922 B( 56-C , 57-S ) :   1.0330
B( 56-C , 58-C ) :   1.5423 B( 58-C , 59-C ) :   1.1587 B( 58-C , 62-S ) :   1.0445
B( 59-C , 60-C ) :   1.6541 B( 59-C , 98-H ) :   0.9918 B( 60-C , 61-C ) :   1.0823
B( 60-C , 99-H ) :   0.9934 B( 61-C , 62-S ) :   1.0087 B( 61-C , 63-C ) :   1.8601
B( 63-C ,100-H ) :   0.9506 B( 63-C ,101-H ) :   0.9416

-----------------------------------------------------------------------------
         ABSORPTION SPECTRUM VIA TRANSITION ELECTRIC DIPOLE MOMENTS
-----------------------------------------------------------------------------
State   Energy  Wavelength   fosc         T2         TX        TY        TZ
        (cm-1)    (nm)                  (au**2)     (au)      (au)      (au)
-----------------------------------------------------------------------------
   0    9183.5   1088.9   1.528145714  54.78140   4.22106  -2.58404   5.50335
   1   14930.9    669.8   0.004475645   0.09868   0.17048  -0.23774   0.11445
   2   15417.4    648.6   1.389397151  29.66809   1.10660  -5.16934  -1.31204
   3   17794.3    562.0   0.011907965   0.22031   0.29178   0.09777   0.35442
   4   19235.8    519.9   0.831865172  14.23701  -0.26487  -3.22551  -1.93983
   5   20479.2    488.3   0.028252598   0.45417  -0.03721   0.63293   0.22844
   6   21572.1    463.6   0.197526264   3.01444   0.55578   0.71759   1.48008
   7   22768.7    439.2   0.000942444   0.01363   0.01891   0.05284   0.10236
   8   23819.6    419.8   0.307760437   4.25357  -1.80206   0.12111  -0.99573
   9   25279.8    395.6   0.014269277   0.18583   0.30185   0.17296   0.25455
  10   26213.7    381.5   0.001125365   0.01413  -0.04275  -0.10049  -0.04697
  11   26559.8    376.5   0.295658574   3.66472  -0.83058  -1.34051  -1.08531
  12   26927.3    371.4   0.515337126   6.30049  -1.31383  -1.54128  -1.48283
  13   27683.0    361.2   0.012390297   0.14735   0.17207   0.13835   0.31400
  14   28064.0    356.3   0.169043833   1.98301   0.09505  -0.75559  -1.18451
  15   29709.2    336.6   0.000583991   0.00647   0.05197   0.05937  -0.01567
  16   30588.6    326.9   0.002046010   0.02202   0.03475   0.13069   0.06109
  17   30889.4    323.7   0.036122001   0.38498   0.25765  -0.32448  -0.46185
  18   31246.0    320.0   0.076052341   0.80130  -0.42555  -0.49043  -0.61618
  19   31601.8    316.4   0.132009511   1.37521   0.63133  -0.80614  -0.57164
  20   31792.4    314.5   0.002128447   0.02204  -0.10057   0.09055  -0.06105
  21   31930.3    313.2   0.019997299   0.20618   0.31781  -0.04933   0.32053
  22   32169.1    310.9   0.004065123   0.04160   0.19109  -0.07098  -0.00706
  23   32438.8    308.3   0.000918277   0.00932   0.05722  -0.05437  -0.05558
  24   33160.9    301.6   0.000976448   0.00969  -0.02899   0.08878  -0.03118
  25   33446.7    299.0   0.015594148   0.15349  -0.36037  -0.15341   0.00964
  26   33581.5    297.8   0.046960705   0.46037  -0.59027   0.20581  -0.26380
  27   33886.0    295.1   0.018596609   0.18067   0.30776   0.00090   0.29318
  28   34106.8    293.2   0.039397508   0.38028   0.43270  -0.31918   0.30195
  29   34401.3    290.7   0.009493070   0.09085  -0.10417   0.27814   0.05133
  30   34418.3    290.5   0.001164462   0.01114  -0.04643  -0.03651  -0.08746
  31   34730.8    287.9   0.005405215   0.05124   0.04970   0.09309   0.20025
  32   35516.1    281.6   0.010228964   0.09482   0.00186  -0.28396   0.11906
  33   35698.0    280.1   0.049371021   0.45531   0.32837  -0.10050   0.58085
  34   36352.4    275.1   0.006304713   0.05710   0.07792  -0.22315   0.03506
  35   36457.1    274.3   0.038701792   0.34948   0.12478  -0.57374   0.06882
  36   36722.9    272.3   0.081008671   0.72622  -0.07100   0.84177   0.11227
  37   36953.0    270.6   0.057532229   0.51255   0.23109   0.49489   0.46285
  38   37353.4    267.7   0.022568703   0.19891  -0.25125  -0.29709  -0.21799
  39   37645.3    265.6   0.007290116   0.06375   0.15630  -0.12724   0.15210
  40   37727.6    265.1   0.000155269   0.00135  -0.01826   0.02707  -0.01700
  41   37822.2    264.4   0.002046556   0.01781  -0.06948   0.11188   0.02166
  42   38099.0    262.5   0.042835285   0.37014   0.29260   0.04867   0.53118
  43   38311.7    261.0   0.058297455   0.50095   0.36128   0.30944   0.52409
  44   38480.4    259.9   0.043314548   0.37057   0.40613  -0.26760   0.36609
  45   38811.8    257.7   0.019685821   0.16698  -0.16163   0.27530  -0.25508
  46   39234.0    254.9   0.064389462   0.54029  -0.42920  -0.43912  -0.40404
  47   39696.8    251.9   0.120883516   1.00251  -0.24082   0.76722   0.59656
  48   39831.6    251.1   0.001331553   0.01101   0.00859  -0.04806  -0.09286

FINAL SINGLE POINT ENERGY     -5519.876983428287

DIPOLE MOMENT
-------------
                                X             Y             Z
Electronic contribution:     -4.08936     -10.29900      -1.60690
Nuclear contribution   :      4.22059      10.05566       1.81509
                        -----------------------------------------
Total Dipole Moment    :      0.13123      -0.24334       0.20819
                        -----------------------------------------
Magnitude (a.u.)       :      0.34610
Magnitude (Debye)      :      0.87970

Rotational constants in cm-1:     0.001155     0.000352     0.000276
Rotational constants in MHz :    34.627887    10.557436     8.260773

                             ****ORCA TERMINATED NORMALLY****
TOTAL RUN TIME: 0 days 0 hours 11 minutes 24 seconds 968 msec
