                         Program Version 4.2.0 -  RELEASE  -
|  1> # ORCA input file
|  2> # SCF done       -177.814756474289          0.000844252485
|  3> ! CAM-B3LYP def2-SVP def2/J RIJCOSX Grid4 TightSCF
|  4> %maxcore 5000
|  5> %tddft
|  6>     Mode sTDDFT
|  7>     Ethresh 5.0
|  8>     maxcore 5000
|  9> end
| 10>
| 11> %pal
| 12>   nprocs 6
| 13>   end
| 14> * xyz 0 1
| 15>    C        1.66569        -0.37637        -0.28556
| 16>    O        1.08326        -1.18760         0.38667
| 17>    C        2.64353         0.62536         0.19967
| 18>    C        3.17905         1.34410        -0.88295
| 19>    C        4.13320         2.32298        -0.65124
| 20>    C        4.53053         2.56909         0.65737
| 21>    C        3.98895         1.85154         1.72761
| 22>    C        3.03785         0.86584         1.49972
| 23>   Br        4.54695         2.21215         3.49507
| 24>   Br        5.83344         3.90007         0.97555
| 25>    C        2.56629         0.86835        -2.11904
| 26>    C        2.76056         1.40550        -3.36212
| 27>    C        3.63537         2.48202        -3.62978
| 28>    N        4.33500         3.34722        -3.90795
| 29>    C        2.10732         0.98876        -4.54332
| 30>    N        1.61068         0.71835        -5.54178
| 31>    C        1.66037        -0.21608        -1.77114
| 32>    C        1.04316        -1.04599        -2.65195
| 33>    C        0.06532        -2.02789        -2.34415
| 34>    S       -0.24331        -3.36414        -3.46086
| 35>    C       -1.48821        -3.84629        -2.32754
| 36>    N       -1.58252        -3.02375        -1.30803
| 37>    N       -0.74195        -2.04676        -1.32062
| 38>    C       -2.29124        -4.99862        -2.52393
| 39>    C       -3.25631        -5.35709        -1.63919
| 40>    C       -4.06849        -6.50417        -1.82355
| 41>    N       -5.07186        -6.87982        -0.96724
| 42>    C       -5.51352        -6.16830         0.20844
| 43>    C       -6.38310        -4.96612        -0.15018
| 44>    C       -5.71680        -8.06352        -1.39094
| 45>    O       -6.62796        -8.58309        -0.78950
| 46>    C       -5.02195        -8.41970        -2.61258
| 47>    C       -4.01971        -7.45213        -2.84808
| 48>    C       -3.33381        -7.82418        -4.06480
| 49>    O       -2.42605        -7.30078        -4.67978
| 50>    N       -3.96492        -9.01234        -4.48087
| 51>    C       -3.53246        -9.65000        -5.70149
| 52>    C       -2.45825       -10.70404        -5.44038
| 53>    C       -4.97378        -9.38289        -3.61962
| 54>    C       -5.85478       -10.49422        -3.68219
| 55>    C       -5.77915       -11.60350        -4.45780
| 56>    C       -6.77222       -12.61855        -4.41284
| 57>    S       -6.61997       -14.10413        -5.34686
| 58>    C       -8.18565       -14.53309        -4.66917
| 59>    N       -8.64715       -13.61229        -3.86650
| 60>    N       -7.88183       -12.57828        -3.72499
| 61>    C       -8.85025       -15.74366        -4.99794
| 62>    C      -10.13380       -15.98073        -4.63726
| 63>    C      -10.81761       -17.17754        -4.96726
| 64>    C      -12.15946       -17.38888        -4.89778
| 65>    C      -12.71079       -18.77137        -4.88821
| 66>    O      -12.13009       -19.78971        -5.17521
| 67>    C      -14.09877       -18.62073        -4.39663
| 68>    C      -14.40049       -17.25401        -4.24072
| 69>    C      -13.25553       -16.46401        -4.68977
| 70>    C      -13.29216       -15.15035        -5.07095
| 71>    C      -12.26497       -14.51628        -5.80557
| 72>    N      -11.49632       -13.98436        -6.47036
| 73>    C      -14.41890       -14.31821        -4.89361
| 74>    N      -15.30812       -13.60736        -4.75535
| 75>    C      -15.64159       -16.87244        -3.76031
| 76>    C      -16.56742       -17.86243        -3.45037
| 77>    C      -16.26607       -19.21584        -3.62227
| 78>    C      -15.01980       -19.60348        -4.09782
| 79>   Br      -17.55097       -20.53654        -3.20571
| 80>   Br      -18.25942       -17.34922        -2.78462
| 81>    H        4.57801         2.89263        -1.45093
| 82>    H        2.61349         0.30144         2.31557
| 83>    H        1.30352        -0.98855        -3.70096
| 84>    H       -2.10702        -5.58560        -3.41325
| 85>    H       -3.40845        -4.74217        -0.76433
| 86>    H       -4.64542        -5.85892         0.79636
| 87>    H       -6.09951        -6.88456         0.79113
| 88>    H       -5.83281        -4.25377        -0.76071
| 89>    H       -6.71069        -4.46787         0.75767
| 90>    H       -7.26049        -5.29346        -0.70252
| 91>    H       -3.10494        -8.85746        -6.32362
| 92>    H       -4.39887       -10.06884        -6.21705
| 93>    H       -1.57092       -10.22655        -5.03258
| 94>    H       -2.18990       -11.19655        -6.37097
| 95>    H       -2.80010       -11.45261        -4.72873
| 96>    H       -6.67851       -10.43330        -2.98160
| 97>    H       -4.96081       -11.79153        -5.13330
| 98>    H       -8.30639       -16.45441        -5.60428
| 99>    H      -10.64682       -15.22181        -4.06369
|100>    H      -10.21862       -18.03884        -5.24394
|101>    H      -15.90466       -15.83724        -3.61252
|102>    H      -14.77673       -20.64615        -4.23184
|103> *
|104>
|105>                          ****END OF INPUT****

CARTESIAN COORDINATES (ANGSTROEM)
---------------------------------
  C      1.665690   -0.376370   -0.285560
  O      1.083260   -1.187600    0.386670
  C      2.643530    0.625360    0.199670
  C      3.179050    1.344100   -0.882950
  C      4.133200    2.322980   -0.651240
  C      4.530530    2.569090    0.657370
  C      3.988950    1.851540    1.727610
  C      3.037850    0.865840    1.499720
  Br     4.546950    2.212150    3.495070
  Br     5.833440    3.900070    0.975550
  C      2.566290    0.868350   -2.119040
  C      2.760560    1.405500   -3.362120
  C      3.635370    2.482020   -3.629780
  N      4.335000    3.347220   -3.907950
  C      2.107320    0.988760   -4.543320
  N      1.610680    0.718350   -5.541780
  C      1.660370   -0.216080   -1.771140
  C      1.043160   -1.045990   -2.651950
  C      0.065320   -2.027890   -2.344150
  S     -0.243310   -3.364140   -3.460860
  C     -1.488210   -3.846290   -2.327540
  N     -1.582520   -3.023750   -1.308030
  N     -0.741950   -2.046760   -1.320620
  C     -2.291240   -4.998620   -2.523930
  C     -3.256310   -5.357090   -1.639190
  C     -4.068490   -6.504170   -1.823550
  N     -5.071860   -6.879820   -0.967240
  C     -5.513520   -6.168300    0.208440
  C     -6.383100   -4.966120   -0.150180
  C     -5.716800   -8.063520   -1.390940
  O     -6.627960   -8.583090   -0.789500
  C     -5.021950   -8.419700   -2.612580
  C     -4.019710   -7.452130   -2.848080
  C     -3.333810   -7.824180   -4.064800
  O     -2.426050   -7.300780   -4.679780
  N     -3.964920   -9.012340   -4.480870
  C     -3.532460   -9.650000   -5.701490
  C     -2.458250  -10.704040   -5.440380
  C     -4.973780   -9.382890   -3.619620
  C     -5.854780  -10.494220   -3.682190
  C     -5.779150  -11.603500   -4.457800
  C     -6.772220  -12.618550   -4.412840
  S     -6.619970  -14.104130   -5.346860
  C     -8.185650  -14.533090   -4.669170
  N     -8.647150  -13.612290   -3.866500
  N     -7.881830  -12.578280   -3.724990
  C     -8.850250  -15.743660   -4.997940
  C    -10.133800  -15.980730   -4.637260
  C    -10.817610  -17.177540   -4.967260
  C    -12.159460  -17.388880   -4.897780
  C    -12.710790  -18.771370   -4.888210
  O    -12.130090  -19.789710   -5.175210
  C    -14.098770  -18.620730   -4.396630
  C    -14.400490  -17.254010   -4.240720
  C    -13.255530  -16.464010   -4.689770
  C    -13.292160  -15.150350   -5.070950
  C    -12.264970  -14.516280   -5.805570
  N    -11.496320  -13.984360   -6.470360
  C    -14.418900  -14.318210   -4.893610
  N    -15.308120  -13.607360   -4.755350
  C    -15.641590  -16.872440   -3.760310
  C    -16.567420  -17.862430   -3.450370
  C    -16.266070  -19.215840   -3.622270
  C    -15.019800  -19.603480   -4.097820
  Br   -17.550970  -20.536540   -3.205710
  Br   -18.259420  -17.349220   -2.784620
  H      4.578010    2.892630   -1.450930
  H      2.613490    0.301440    2.315570
  H      1.303520   -0.988550   -3.700960
  H     -2.107020   -5.585600   -3.413250
  H     -3.408450   -4.742170   -0.764330
  H     -4.645420   -5.858920    0.796360
  H     -6.099510   -6.884560    0.791130
  H     -5.832810   -4.253770   -0.760710
  H     -6.710690   -4.467870    0.757670
  H     -7.260490   -5.293460   -0.702520
  H     -3.104940   -8.857460   -6.323620
  H     -4.398870  -10.068840   -6.217050
  H     -1.570920  -10.226550   -5.032580
  H     -2.189900  -11.196550   -6.370970
  H     -2.800100  -11.452610   -4.728730
  H     -6.678510  -10.433300   -2.981600
  H     -4.960810  -11.791530   -5.133300
  H     -8.306390  -16.454410   -5.604280
  H    -10.646820  -15.221810   -4.063690
  H    -10.218620  -18.038840   -5.243940
  H    -15.904660  -15.837240   -3.612520
  H    -14.776730  -20.646150   -4.231840

 Total Charge           Charge          ....    0
 Multiplicity           Mult            ....    1
 Number of Electrons    NEL             ....  572
 Basis Dimension        Dim             .... 1114

ORBITAL ENERGIES
----------------

  NO   OCC          E(Eh)            E(eV)
   0   2.0000    -482.881932    -13139.8854
   1   2.0000    -482.880276    -13139.8403
   2   2.0000    -482.880173    -13139.8375
   3   2.0000    -482.879160    -13139.8100
   4   2.0000     -88.990102     -2421.5438
   5   2.0000     -88.985266     -2421.4122
   6   2.0000     -62.559525     -1702.3312
   7   2.0000     -62.557883     -1702.2865
   8   2.0000     -62.557800     -1702.2843
   9   2.0000     -62.556754     -1702.2558
  10   2.0000     -56.393477     -1534.5445
  11   2.0000     -56.391850     -1534.5002
  12   2.0000     -56.391750     -1534.4975
  13   2.0000     -56.390828     -1534.4724
  14   2.0000     -56.390721     -1534.4695
  15   2.0000     -56.390719     -1534.4695
  16   2.0000     -56.389173     -1534.4274
  17   2.0000     -56.389092     -1534.4252
  18   2.0000     -56.389075     -1534.4247
  19   2.0000     -56.389001     -1534.4227
  20   2.0000     -56.388045     -1534.3967
  21   2.0000     -56.387949     -1534.3941
  22   2.0000     -19.228799      -523.2422
  23   2.0000     -19.226957      -523.1921
  24   2.0000     -19.203688      -522.5589
  25   2.0000     -19.199979      -522.4580
  26   2.0000     -14.464665      -393.6035
  27   2.0000     -14.462759      -393.5517
  28   2.0000     -14.457105      -393.3978
  29   2.0000     -14.453927      -393.3114
  30   2.0000     -14.451237      -393.2381
  31   2.0000     -14.448230      -393.1563
  32   2.0000     -14.431171      -392.6921
  33   2.0000     -14.428748      -392.6262
  34   2.0000     -14.425190      -392.5294
  35   2.0000     -14.422245      -392.4492
  36   2.0000     -10.385250      -282.5970
  37   2.0000     -10.383639      -282.5532
  38   2.0000     -10.380045      -282.4554
  39   2.0000     -10.379625      -282.4440
  40   2.0000     -10.361496      -281.9506
  41   2.0000     -10.359950      -281.9086
  42   2.0000     -10.359925      -281.9079
  43   2.0000     -10.359419      -281.8941
  44   2.0000     -10.358472      -281.8684
  45   2.0000     -10.358283      -281.8632
  46   2.0000     -10.357557      -281.8435
  47   2.0000     -10.357523      -281.8425
  48   2.0000     -10.357319      -281.8370
  49   2.0000     -10.354509      -281.7605
  50   2.0000     -10.354126      -281.7501
  51   2.0000     -10.353008      -281.7197
  52   2.0000     -10.352995      -281.7193
  53   2.0000     -10.348466      -281.5961
  54   2.0000     -10.337532      -281.2985
  55   2.0000     -10.332774      -281.1691
  56   2.0000     -10.330340      -281.1028
  57   2.0000     -10.326406      -280.9958
  58   2.0000     -10.325475      -280.9705
  59   2.0000     -10.325203      -280.9631
  60   2.0000     -10.324001      -280.9304
  61   2.0000     -10.323831      -280.9257
  62   2.0000     -10.321721      -280.8683
  63   2.0000     -10.319013      -280.7946
  64   2.0000     -10.317984      -280.7666
  65   2.0000     -10.317710      -280.7592
  66   2.0000     -10.316908      -280.7373
  67   2.0000     -10.316654      -280.7304
  68   2.0000     -10.316209      -280.7183
  69   2.0000     -10.313677      -280.6494
  70   2.0000     -10.311316      -280.5852
  71   2.0000     -10.310412      -280.5606
  72   2.0000     -10.310180      -280.5543
  73   2.0000     -10.309963      -280.5484
  74   2.0000     -10.309732      -280.5421
  75   2.0000     -10.309346      -280.5316
  76   2.0000     -10.307536      -280.4823
  77   2.0000     -10.306455      -280.4529
  78   2.0000     -10.275037      -279.5980
  79   2.0000     -10.273563      -279.5579
  80   2.0000     -10.273088      -279.5449
  81   2.0000     -10.267113      -279.3824
  82   2.0000      -8.788844      -239.1566
  83   2.0000      -8.787201      -239.1119
  84   2.0000      -8.787134      -239.1101
  85   2.0000      -8.786071      -239.0812
  86   2.0000      -8.086247      -220.0380
  87   2.0000      -8.081684      -219.9138
  88   2.0000      -6.624963      -180.2744
  89   2.0000      -6.623384      -180.2314
  90   2.0000      -6.623282      -180.2287
  91   2.0000      -6.622229      -180.2000
  92   2.0000      -6.611000      -179.8944
  93   2.0000      -6.610157      -179.8715
  94   2.0000      -6.609303      -179.8483
  95   2.0000      -6.609242      -179.8466
  96   2.0000      -6.608506      -179.8266
  97   2.0000      -6.608476      -179.8258
  98   2.0000      -6.608185      -179.8178
  99   2.0000      -6.607383      -179.7960
 100   2.0000      -6.054712      -164.7571
 101   2.0000      -6.051474      -164.6690
 102   2.0000      -6.050266      -164.6361
 103   2.0000      -6.048871      -164.5982
 104   2.0000      -6.047016      -164.5477
 105   2.0000      -6.044110      -164.4686
 106   2.0000      -2.740902       -74.5837
 107   2.0000      -2.739298       -74.5401
 108   2.0000      -2.739162       -74.5364
 109   2.0000      -2.738163       -74.5092
 110   2.0000      -2.737115       -74.4807
 111   2.0000      -2.736481       -74.4634
 112   2.0000      -2.735470       -74.4359
 113   2.0000      -2.735442       -74.4352
 114   2.0000      -2.734888       -74.4201
 115   2.0000      -2.734793       -74.4175
 116   2.0000      -2.734342       -74.4052
 117   2.0000      -2.733726       -74.3885
 118   2.0000      -2.725351       -74.1606
 119   2.0000      -2.725350       -74.1605
 120   2.0000      -2.723670       -74.1148
 121   2.0000      -2.723669       -74.1148
 122   2.0000      -2.723653       -74.1144
 123   2.0000      -2.723629       -74.1137
 124   2.0000      -2.722545       -74.0842
 125   2.0000      -2.722536       -74.0840
 126   2.0000      -1.162749       -31.6400
 127   2.0000      -1.155314       -31.4377
 128   2.0000      -1.144742       -31.1500
 129   2.0000      -1.144367       -31.1398
 130   2.0000      -1.144175       -31.1346
 131   2.0000      -1.137696       -30.9583
 132   2.0000      -1.074353       -29.2346
 133   2.0000      -1.065384       -28.9906
 134   2.0000      -1.035136       -28.1675
 135   2.0000      -1.031260       -28.0620
 136   2.0000      -1.018090       -27.7036
 137   2.0000      -1.013763       -27.5859
 138   2.0000      -1.008071       -27.4310
 139   2.0000      -1.002115       -27.2689
 140   2.0000      -0.987536       -26.8722
 141   2.0000      -0.983655       -26.7666
 142   2.0000      -0.963058       -26.2061
 143   2.0000      -0.962337       -26.1865
 144   2.0000      -0.945297       -25.7228
 145   2.0000      -0.943946       -25.6861
 146   2.0000      -0.937904       -25.5217
 147   2.0000      -0.928872       -25.2759
 148   2.0000      -0.927172       -25.2296
 149   2.0000      -0.919948       -25.0330
 150   2.0000      -0.918156       -24.9843
 151   2.0000      -0.914259       -24.8783
 152   2.0000      -0.906083       -24.6558
 153   2.0000      -0.898473       -24.4487
 154   2.0000      -0.892528       -24.2869
 155   2.0000      -0.883099       -24.0304
 156   2.0000      -0.877095       -23.8670
 157   2.0000      -0.860321       -23.4105
 158   2.0000      -0.857876       -23.3440
 159   2.0000      -0.856571       -23.3085
 160   2.0000      -0.844549       -22.9813
 161   2.0000      -0.829263       -22.5654
 162   2.0000      -0.820301       -22.3215
 163   2.0000      -0.803481       -21.8638
 164   2.0000      -0.792809       -21.5734
 165   2.0000      -0.788309       -21.4510
 166   2.0000      -0.775578       -21.1045
 167   2.0000      -0.773496       -21.0479
 168   2.0000      -0.768797       -20.9200
 169   2.0000      -0.741175       -20.1684
 170   2.0000      -0.739078       -20.1113
 171   2.0000      -0.736968       -20.0539
 172   2.0000      -0.725843       -19.7512
 173   2.0000      -0.716135       -19.4870
 174   2.0000      -0.714295       -19.4370
 175   2.0000      -0.710433       -19.3319
 176   2.0000      -0.704609       -19.1734
 177   2.0000      -0.702953       -19.1283
 178   2.0000      -0.696175       -18.9439
 179   2.0000      -0.690927       -18.8011
 180   2.0000      -0.684776       -18.6337
 181   2.0000      -0.677216       -18.4280
 182   2.0000      -0.662613       -18.0306
 183   2.0000      -0.659585       -17.9482
 184   2.0000      -0.639320       -17.3968
 185   2.0000      -0.637637       -17.3510
 186   2.0000      -0.626319       -17.0430
 187   2.0000      -0.623544       -16.9675
 188   2.0000      -0.618547       -16.8315
 189   2.0000      -0.616298       -16.7703
 190   2.0000      -0.605623       -16.4799
 191   2.0000      -0.601626       -16.3711
 192   2.0000      -0.596219       -16.2239
 193   2.0000      -0.589529       -16.0419
 194   2.0000      -0.586953       -15.9718
 195   2.0000      -0.585715       -15.9381
 196   2.0000      -0.581688       -15.8285
 197   2.0000      -0.579173       -15.7601
 198   2.0000      -0.574380       -15.6297
 199   2.0000      -0.563168       -15.3246
 200   2.0000      -0.559095       -15.2137
 201   2.0000      -0.557778       -15.1779
 202   2.0000      -0.556585       -15.1454
 203   2.0000      -0.552973       -15.0472
 204   2.0000      -0.549981       -14.9657
 205   2.0000      -0.549141       -14.9429
 206   2.0000      -0.548955       -14.9378
 207   2.0000      -0.543011       -14.7761
 208   2.0000      -0.541081       -14.7236
 209   2.0000      -0.538449       -14.6519
 210   2.0000      -0.536873       -14.6090
 211   2.0000      -0.536184       -14.5903
 212   2.0000      -0.533087       -14.5060
 213   2.0000      -0.529265       -14.4020
 214   2.0000      -0.524503       -14.2725
 215   2.0000      -0.521934       -14.2025
 216   2.0000      -0.521058       -14.1787
 217   2.0000      -0.519274       -14.1302
 218   2.0000      -0.514051       -13.9880
 219   2.0000      -0.510945       -13.9035
 220   2.0000      -0.509806       -13.8725
 221   2.0000      -0.508714       -13.8428
 222   2.0000      -0.506219       -13.7749
 223   2.0000      -0.500050       -13.6070
 224   2.0000      -0.498107       -13.5542
 225   2.0000      -0.495659       -13.4876
 226   2.0000      -0.493926       -13.4404
 227   2.0000      -0.487224       -13.2580
 228   2.0000      -0.477890       -13.0041
 229   2.0000      -0.476868       -12.9762
 230   2.0000      -0.475704       -12.9446
 231   2.0000      -0.475233       -12.9318
 232   2.0000      -0.469490       -12.7755
 233   2.0000      -0.469121       -12.7654
 234   2.0000      -0.468106       -12.7378
 235   2.0000      -0.467154       -12.7119
 236   2.0000      -0.463830       -12.6215
 237   2.0000      -0.462844       -12.5946
 238   2.0000      -0.461630       -12.5616
 239   2.0000      -0.460054       -12.5187
 240   2.0000      -0.456222       -12.4144
 241   2.0000      -0.455895       -12.4055
 242   2.0000      -0.455240       -12.3877
 243   2.0000      -0.453397       -12.3376
 244   2.0000      -0.449392       -12.2286
 245   2.0000      -0.445369       -12.1191
 246   2.0000      -0.441420       -12.0117
 247   2.0000      -0.441081       -12.0024
 248   2.0000      -0.438520       -11.9327
 249   2.0000      -0.434865       -11.8333
 250   2.0000      -0.434045       -11.8110
 251   2.0000      -0.432935       -11.7808
 252   2.0000      -0.432591       -11.7714
 253   2.0000      -0.427099       -11.6219
 254   2.0000      -0.423658       -11.5283
 255   2.0000      -0.421082       -11.4582
 256   2.0000      -0.417007       -11.3473
 257   2.0000      -0.408676       -11.1206
 258   2.0000      -0.405523       -11.0348
 259   2.0000      -0.404579       -11.0092
 260   2.0000      -0.403342       -10.9755
 261   2.0000      -0.401939       -10.9373
 262   2.0000      -0.398777       -10.8513
 263   2.0000      -0.394779       -10.7425
 264   2.0000      -0.393755       -10.7146
 265   2.0000      -0.389790       -10.6067
 266   2.0000      -0.384186       -10.4542
 267   2.0000      -0.371642       -10.1129
 268   2.0000      -0.359466        -9.7816
 269   2.0000      -0.356245        -9.6939
 270   2.0000      -0.354263        -9.6400
 271   2.0000      -0.353538        -9.6203
 272   2.0000      -0.349472        -9.5096
 273   2.0000      -0.348971        -9.4960
 274   2.0000      -0.345496        -9.4014
 275   2.0000      -0.342132        -9.3099
 276   2.0000      -0.340988        -9.2788
 277   2.0000      -0.336640        -9.1604
 278   2.0000      -0.332778        -9.0554
 279   2.0000      -0.328618        -8.9422
 280   2.0000      -0.326444        -8.8830
 281   2.0000      -0.320051        -8.7090
 282   2.0000      -0.316522        -8.6130
 283   2.0000      -0.309907        -8.4330
 284   2.0000      -0.298477        -8.1220
 285   2.0000      -0.249259        -6.7827
 286   0.0000      -0.121057        -3.2941
 287   0.0000      -0.106463        -2.8970
 288   0.0000      -0.090286        -2.4568
 289   0.0000      -0.076117        -2.0712
 290   0.0000      -0.071371        -1.9421

MULLIKEN ATOMIC CHARGES
-----------------------
   0 C :    0.147233
   1 O :   -0.090964
   2 C :   -0.026774
   3 C :    0.038509
   4 C :   -0.004786
   5 C :   -0.025313
   6 C :   -0.016756
   7 C :   -0.014521
   8 Br:    0.020710
   9 Br:    0.026308
  10 C :    0.294858
  11 C :   -0.327351
  12 C :   -0.186880
  13 N :    0.164183
  14 C :   -0.194817
  15 N :    0.170509
  16 C :   -0.064584
  17 C :    0.046665
  18 C :   -0.135487
  19 S :    0.146387
  20 C :   -0.098718
  21 N :   -0.049969
  22 N :    0.014741
  23 C :    0.079292
  24 C :   -0.022165
  25 C :    0.148599
  26 N :   -0.264847
  27 C :    0.093659
  28 C :    0.003867
  29 C :    0.152163
  30 O :   -0.172268
  31 C :   -0.030367
  32 C :   -0.057181
  33 C :    0.166544
  34 O :   -0.213980
  35 N :   -0.266236
  36 C :    0.103807
  37 C :    0.005409
  38 C :    0.109935
  39 C :   -0.017698
  40 C :    0.062417
  41 C :   -0.106898
  42 S :    0.108824
  43 C :   -0.092681
  44 N :   -0.034708
  45 N :   -0.032169
  46 C :    0.070849
  47 C :    0.023923
  48 C :    0.027620
  49 C :   -0.098700
  50 C :    0.146972
  51 O :   -0.128997
  52 C :   -0.007739
  53 C :    0.032442
  54 C :    0.258369
  55 C :   -0.303304
  56 C :   -0.209278
  57 N :    0.176894
  58 C :   -0.179675
  59 N :    0.163017
  60 C :   -0.014420
  61 C :   -0.020757
  62 C :   -0.014643
  63 C :   -0.024458
  64 Br:    0.017163
  65 Br:    0.025330
  66 H :    0.008234
  67 H :    0.009721
  68 H :    0.028827
  69 H :    0.014095
  70 H :    0.010497
  71 H :    0.029800
  72 H :    0.047637
  73 H :    0.019613
  74 H :    0.027700
  75 H :    0.031087
  76 H :    0.041861
  77 H :    0.026062
  78 H :    0.032040
  79 H :    0.022815
  80 H :    0.019291
  81 H :    0.044401
  82 H :   -0.014135
  83 H :    0.006151
  84 H :    0.051492
  85 H :    0.022914
  86 H :    0.013408
  87 H :    0.009377
Sum of atomic charges:   -0.0000000

LOEWDIN ATOMIC CHARGES
----------------------
   0 C :    0.077280
   1 O :   -0.096427
   2 C :   -0.039982
   3 C :   -0.014886
   4 C :   -0.006231
   5 C :   -0.118656
   6 C :   -0.120273
   7 C :    0.008084
   8 Br:    0.143054
   9 Br:    0.144631
  10 C :    0.070922
  11 C :   -0.122988
  12 C :   -0.019478
  13 N :   -0.036140
  14 C :   -0.023374
  15 N :   -0.037130
  16 C :   -0.060201
  17 C :    0.033388
  18 C :   -0.163323
  19 S :    0.427258
  20 C :   -0.140012
  21 N :   -0.070586
  22 N :   -0.022194
  23 C :   -0.007455
  24 C :   -0.002970
  25 C :    0.081326
  26 N :   -0.001056
  27 C :    0.036793
  28 C :   -0.059548
  29 C :    0.081994
  30 O :   -0.175703
  31 C :   -0.101644
  32 C :   -0.120193
  33 C :    0.081891
  34 O :   -0.200091
  35 N :   -0.000249
  36 C :    0.036049
  37 C :   -0.062772
  38 C :    0.064225
  39 C :    0.014206
  40 C :   -0.049898
  41 C :   -0.141324
  42 S :    0.395523
  43 C :   -0.151563
  44 N :   -0.055826
  45 N :   -0.063782
  46 C :   -0.006496
  47 C :    0.004811
  48 C :    0.065084
  49 C :   -0.080336
  50 C :    0.083490
  51 O :   -0.130016
  52 C :   -0.044845
  53 C :   -0.008660
  54 C :    0.065552
  55 C :   -0.120705
  56 C :   -0.022497
  57 N :   -0.035889
  58 C :   -0.020104
  59 N :   -0.035807
  60 C :   -0.008401
  61 C :   -0.117045
  62 C :   -0.123326
  63 C :    0.007991
  64 Br:    0.139906
  65 Br:    0.145098
  66 H :    0.044867
  67 H :    0.047632
  68 H :    0.047530
  69 H :    0.038841
  70 H :    0.040411
  71 H :    0.026054
  72 H :    0.039257
  73 H :    0.023719
  74 H :    0.033095
  75 H :    0.032713
  76 H :    0.037847
  77 H :    0.023975
  78 H :    0.034523
  79 H :    0.030903
  80 H :    0.020669
  81 H :    0.057727
  82 H :    0.030429
  83 H :    0.038011
  84 H :    0.043334
  85 H :    0.047163
  86 H :    0.045562
  87 H :    0.047266

  Mayer bond orders larger than 0.100000
B(  0-C ,  1-O ) :   2.2942 B(  0-C ,  2-C ) :   0.9341 B(  0-C , 16-C ) :   0.9107
B(  2-C ,  3-C ) :   1.3278 B(  2-C ,  7-C ) :   1.3751 B(  3-C ,  4-C ) :   1.3565
B(  3-C , 10-C ) :   1.0008 B(  4-C ,  5-C ) :   1.3804 B(  4-C , 66-H ) :   0.9786
B(  5-C ,  6-C ) :   1.4132 B(  5-C ,  9-Br) :   1.0598 B(  6-C ,  7-C ) :   1.3562
B(  6-C ,  8-Br) :   1.0392 B(  7-C , 67-H ) :   1.0070 B( 10-C , 11-C ) :   1.6602
B( 10-C , 16-C ) :   1.0580 B( 11-C , 12-C ) :   1.1366 B( 11-C , 14-C ) :   1.1377
B( 12-C , 13-N ) :   2.9737 B( 14-C , 15-N ) :   2.9844 B( 16-C , 17-C ) :   1.6883
B( 17-C , 18-C ) :   1.1253 B( 17-C , 68-H ) :   0.9224 B( 18-C , 19-S ) :   1.0845
B( 18-C , 22-N ) :   1.6215 B( 19-S , 20-C ) :   1.1368 B( 19-S , 22-N ) :   0.1062
B( 20-C , 21-N ) :   1.6063 B( 20-C , 23-C ) :   1.1136 B( 21-N , 22-N ) :   1.2843
B( 23-C , 24-C ) :   1.6472 B( 23-C , 69-H ) :   0.9244 B( 24-C , 25-C ) :   1.1302
B( 24-C , 70-H ) :   0.9736 B( 25-C , 26-N ) :   1.1798 B( 25-C , 32-C ) :   1.3237
B( 26-N , 27-C ) :   0.9390 B( 26-N , 29-C ) :   1.0230 B( 27-C , 28-C ) :   1.1205
B( 27-C , 71-H ) :   0.9503 B( 27-C , 72-H ) :   0.9287 B( 28-C , 73-H ) :   0.9687
B( 28-C , 74-H ) :   0.9678 B( 28-C , 75-H ) :   0.9640 B( 29-C , 30-O ) :   2.1567
B( 29-C , 31-C ) :   0.9658 B( 31-C , 32-C ) :   1.2560 B( 31-C , 38-C ) :   1.3552
B( 32-C , 33-C ) :   0.9900 B( 33-C , 34-O ) :   2.0138 B( 33-C , 35-N ) :   1.0667
B( 34-O , 69-H ) :   0.1132 B( 35-N , 36-C ) :   0.9413 B( 35-N , 38-C ) :   1.1610
B( 36-C , 37-C ) :   1.1171 B( 36-C , 76-H ) :   0.9269 B( 36-C , 77-H ) :   0.9503
B( 37-C , 78-H ) :   0.9600 B( 37-C , 79-H ) :   0.9688 B( 37-C , 80-H ) :   0.9663
B( 38-C , 39-C ) :   1.1560 B( 39-C , 40-C ) :   1.6380 B( 39-C , 81-H ) :   0.9538
B( 40-C , 41-C ) :   1.1121 B( 40-C , 82-H ) :   0.9461 B( 41-C , 42-S ) :   1.1033
B( 41-C , 45-N ) :   1.6559 B( 42-S , 43-C ) :   1.0892 B( 43-C , 44-N ) :   1.6548
B( 43-C , 46-C ) :   1.1023 B( 44-N , 45-N ) :   1.2541 B( 46-C , 47-C ) :   1.7162
B( 46-C , 83-H ) :   0.9583 B( 47-C , 48-C ) :   1.0991 B( 47-C , 84-H ) :   0.9515
B( 48-C , 49-C ) :   1.6470 B( 48-C , 85-H ) :   0.9575 B( 49-C , 50-C ) :   0.9358
B( 49-C , 54-C ) :   1.0325 B( 50-C , 51-O ) :   2.2826 B( 50-C , 52-C ) :   0.9220
B( 52-C , 53-C ) :   1.3258 B( 52-C , 63-C ) :   1.3713 B( 53-C , 54-C ) :   1.0073
B( 53-C , 60-C ) :   1.3678 B( 54-C , 55-C ) :   1.6689 B( 55-C , 56-C ) :   1.1507
B( 55-C , 58-C ) :   1.1272 B( 56-C , 57-N ) :   3.0155 B( 58-C , 59-N ) :   2.9895
B( 60-C , 61-C ) :   1.3677 B( 60-C , 86-H ) :   0.9832 B( 61-C , 62-C ) :   1.4186
B( 61-C , 65-Br) :   1.0560 B( 62-C , 63-C ) :   1.3572 B( 62-C , 64-Br) :   1.0355
B( 63-C , 87-H ) :   1.0089

-----------------------------------------------------------------------------
         ABSORPTION SPECTRUM VIA TRANSITION ELECTRIC DIPOLE MOMENTS
-----------------------------------------------------------------------------
State   Energy  Wavelength   fosc         T2         TX        TY        TZ
        (cm-1)    (nm)                  (au**2)     (au)      (au)      (au)
-----------------------------------------------------------------------------
   0   13713.7    729.2   1.255251731  30.13361   2.91500   4.42616   1.43020
   1   19012.6    526.0   0.082858522   1.43473   0.89711   0.62237   0.49253
   2   21666.8    461.5   0.076885100   1.16821  -0.78374  -0.58704   0.45754
   3   22169.0    451.1   0.173614497   2.57820  -1.43101  -0.03192   0.72759
   4   24809.6    403.1   0.204406041   2.71237  -1.60376  -0.34608  -0.14331
   5   25470.0    392.6   0.526855188   6.80986   2.00795   1.66673  -0.00377
   6   25778.4    387.9   0.007339790   0.09374  -0.28445  -0.11262  -0.01181
   7   25816.9    387.3   0.187876835   2.39577  -0.89987  -1.23064   0.26744
   8   26447.0    378.1   0.104426250   1.29990  -0.61237  -0.94925  -0.15435
   9   27105.9    368.9   0.000952252   0.01157   0.07601   0.05688   0.05052
  10   27580.6    362.6   0.007936364   0.09473   0.11530  -0.27784   0.06512
  11   27867.0    358.8   0.165345517   1.95334   0.64406   0.80603  -0.94278
  12   28345.1    352.8   0.631873055   7.33883  -1.86104  -1.83337  -0.71701
  13   28430.8    351.7   0.092557090   1.07176   0.38673   0.73614  -0.61667
  14   29006.3    344.8   0.046708791   0.53013  -0.44563   0.50906  -0.26907
  15   29477.3    339.2   0.036637781   0.40918  -0.39976  -0.01694   0.49909
  16   30207.8    331.0   0.021546498   0.23482   0.45526  -0.09349  -0.13719
  17   30269.0    330.4   0.023453463   0.25509  -0.23084  -0.37604   0.24575
  18   31139.0    321.1   0.011365859   0.12016  -0.18540  -0.29270   0.01092
  19   31589.2    316.6   0.025763337   0.26850   0.20831   0.46605  -0.08887
  20   32070.2    311.8   0.008979256   0.09218  -0.01525  -0.28690   0.09814
  21   32206.1    310.5   0.096122043   0.98256   0.67920   0.49981   0.52100
  22   32700.5    305.8   0.008388149   0.08445   0.19186   0.19868  -0.09035
  23   32861.4    304.3   0.125200319   1.25428  -0.77716  -0.79763   0.11872
  24   32920.2    303.8   0.034598021   0.34599  -0.05168  -0.56019   0.17179
  25   33461.5    298.9   0.058861073   0.57911  -0.48905  -0.56625   0.13891
  26   34994.9    285.8   0.124206323   1.16846  -0.53597  -0.93331   0.10061
  27   35123.4    284.7   0.351406122   3.29373  -0.79511  -0.70654  -1.47049
  28   35260.9    283.6   0.377980677   3.52900  -0.05493  -0.78329   1.70659
  29   35598.8    280.9   0.453255126   4.19162  -0.88623  -1.50685   1.06565
  30   35815.7    279.2   0.079779176   0.73332   0.57074   0.29541  -0.56595
  31   36196.1    276.3   0.201814558   1.83555  -0.43321   1.18391   0.49622
  32   36281.7    275.6   0.000462092   0.00419  -0.04286   0.02088   0.04382
  33   36824.8    271.6   0.127345125   1.13846   0.71845   0.59390  -0.51920
  34   37068.0    269.8   0.118014670   1.04812   0.08351  -1.01639   0.09002
  35   37474.1    266.9   0.107979074   0.94860   0.86284   0.19631  -0.40690
  36   37602.1    265.9   0.011654225   0.10203  -0.06670   0.18525   0.25153
  37   37821.5    264.4   0.003886286   0.03383   0.10607   0.12723  -0.07993
  38   37943.0    263.6   0.003910513   0.03393   0.06140  -0.08812  -0.14965
  39   38003.8    263.1   0.010527879   0.09120   0.12486   0.02229   0.27406
  40   38462.4    260.0   0.002535271   0.02170  -0.11686  -0.06167   0.06513
  41   38553.6    259.4   0.007227331   0.06171  -0.16843  -0.00481   0.18255
  42   38881.4    257.2   0.033978177   0.28770   0.35297  -0.02080  -0.40333
  43   39462.0    253.4   0.129939038   1.08402  -0.35686  -0.88930  -0.40720
  44   39789.9    251.3   0.018138822   0.15008   0.37064  -0.10100   0.04999
  45   39812.6    251.2   0.037439722   0.30959  -0.44943  -0.32576  -0.03856
  46   39887.3    250.7   0.135102105   1.11507  -0.91466   0.52738   0.01867
  47   40243.5    248.5   0.187302000   1.53222  -1.01861  -0.33219   0.61993

FINAL SINGLE POINT ENERGY    -13703.121306507412

DIPOLE MOMENT
-------------
                                X             Y             Z
Electronic contribution:    -39.66494      20.77782      87.89567
Nuclear contribution   :     40.90570     -22.97742     -87.17370
                        -----------------------------------------
Total Dipole Moment    :      1.24076      -2.19961       0.72197
                        -----------------------------------------
Magnitude (a.u.)       :      2.62659
Magnitude (Debye)      :      6.67627

Rotational constants in cm-1:     0.002366     0.000107     0.000105
Rotational constants in MHz :    70.941654     3.208481     3.144082

                             ****ORCA TERMINATED NORMALLY****
TOTAL RUN TIME: 0 days 0 hours 7 minutes 36 seconds 4 msec
