                         Program Version 4.2.0 -  RELEASE  -
|  1> # ORCA input file
|  2> # SCF done       -170.828007904123          0.000700924420
|  3> ! CAM-B3LYP def2-SVP def2/J RIJCOSX Grid4 TightSCF
|  4> %maxcore 5000
|  5> %tddft
|  6>     Mode sTDDFT
|  7>     Ethresh 5.0
|  8>     maxcore 5000
|  9> end
| 10>
| 11> %pal
| 12>   nprocs 6
| 13>   end
| 14> * xyz 0 1
| 15>    C       -1.28313        -0.56075        -2.49084
| 16>    C       -2.51000        -0.00830        -2.69630
| 17>    S       -3.51175        -1.04821        -3.64006
| 18>    C       -2.25572        -2.25773        -3.76179
| 19>   Cl       -2.49715        -3.70107        -4.61320
| 20>    C       -1.13544        -1.84771        -3.10135
| 21>    C        0.20595        -2.38012        -2.84458
| 22>    O        0.65148        -3.44963        -3.18655
| 23>    C        0.86990        -1.33555        -1.99447
| 24>    C       -0.04933        -0.21335        -1.81903
| 25>    C        0.19120         0.98024        -1.19611
| 26>    C       -0.79956         1.98381        -1.12762
| 27>    N       -1.59455         2.80774        -1.06018
| 28>    C        1.40123         1.36206        -0.58160
| 29>    N        2.35853         1.73705        -0.07096
| 30>    C        2.04662        -1.48587        -1.34079
| 31>    C        3.01940        -2.53688        -1.52302
| 32>    C        3.31691        -3.07533        -2.77231
| 33>    C        4.24218        -4.09745        -2.89954
| 34>    N        4.48771        -4.55281        -4.24482
| 35>    O        4.44194        -3.71545        -5.12276
| 36>    O        4.73145        -5.72553        -4.43639
| 37>    C        4.94219        -4.60783        -1.78878
| 38>    C        4.66268        -4.01843        -0.54711
| 39>    C        3.73800        -3.01040        -0.41495
| 40>    C        5.94037        -5.65091        -1.90405
| 41>    C        7.00216        -5.75440        -1.08755
| 42>    C        7.99504        -6.79352        -1.20311
| 43>    C        8.60949        -7.36711        -0.09773
| 44>    C        8.39437        -7.02618         1.30360
| 45>    O        7.56260        -6.20956         1.64881
| 46>    C        9.27682        -7.74654         2.29034
| 47>    S        9.69392        -8.63559        -0.57078
| 48>    C        9.34025        -8.38278        -2.21939
| 49>    C        8.43195        -7.37849        -2.43395
| 50>    C        8.01808        -6.91968        -3.74342
| 51>    C        7.94983        -7.71671        -4.81751
| 52>    C        7.49362        -7.32053        -6.12726
| 53>    C        7.03367        -6.08284        -6.48596
| 54>    S        6.47026        -6.01422        -8.10119
| 55>    C        6.83791        -7.65864        -8.34454
| 56>    C        7.38555        -8.24042        -7.23022
| 57>    C        7.82673        -9.62620        -7.19321
| 58>    O        8.58470       -10.12820        -6.40103
| 59>    O        7.26447       -10.35615        -8.21533
| 60>    C        7.57758       -11.66550        -8.25580
| 61>    C        6.90964       -12.55143        -9.00973
| 62>    C        7.23454       -13.93955        -9.05568
| 63>    C        7.88297       -14.72323        -8.15500
| 64>    C        8.39523       -16.04825        -8.63804
| 65>    O        8.10605       -16.59103        -9.67677
| 66>    C        9.33976       -16.48004        -7.60268
| 67>    C       10.22211       -17.50084        -7.41258
| 68>    S       11.03813       -17.32599        -5.87665
| 69>    C       10.16780       -15.88196        -5.50634
| 70>    C        9.30892       -15.55504        -6.50841
| 71>    C        8.31187       -14.53279        -6.77608
| 72>    C        7.77897       -13.72916        -5.80427
| 73>    C        8.29351       -13.71597        -4.49052
| 74>    N        8.70764       -13.67417        -3.42125
| 75>    C        6.66391       -12.88367        -5.95947
| 76>    N        5.74167       -12.20278        -6.01368
| 77>   Cl       10.55764       -18.79997        -8.44627
| 78>    H       -2.89805         0.93208        -2.35850
| 79>    H        2.29340        -0.77243        -0.56327
| 80>    H        2.85009        -2.69269        -3.66573
| 81>    H        5.17352        -4.38976         0.32731
| 82>    H        3.53750        -2.59273         0.56054
| 83>    H        5.80434        -6.37177        -2.69655
| 84>    H        7.14020        -5.06725        -0.26462
| 85>    H        9.12177        -8.82034         2.21058
| 86>    H        9.03867        -7.41802         3.29834
| 87>    H       10.32290        -7.53877         2.07579
| 88>    H        9.83632        -8.97733        -2.96116
| 89>    H        7.74725        -5.87584        -3.81092
| 90>    H        8.20554        -8.76053        -4.71801
| 91>    H        6.98255        -5.19622        -5.88873
| 92>    H        6.65601        -8.12148        -9.29391
| 93>    H        8.43633       -11.94577        -7.65359
| 94>    H        6.11710       -12.20300        -9.65562
| 95>    H        6.96158       -14.45560        -9.97169
| 96>    H       10.36049       -15.37509        -4.58185
| 97> *
| 98>
| 99>                          ****END OF INPUT****

CARTESIAN COORDINATES (ANGSTROEM)
---------------------------------
  C     -1.283130   -0.560750   -2.490840
  C     -2.510000   -0.008300   -2.696300
  S     -3.511750   -1.048210   -3.640060
  C     -2.255720   -2.257730   -3.761790
  Cl    -2.497150   -3.701070   -4.613200
  C     -1.135440   -1.847710   -3.101350
  C      0.205950   -2.380120   -2.844580
  O      0.651480   -3.449630   -3.186550
  C      0.869900   -1.335550   -1.994470
  C     -0.049330   -0.213350   -1.819030
  C      0.191200    0.980240   -1.196110
  C     -0.799560    1.983810   -1.127620
  N     -1.594550    2.807740   -1.060180
  C      1.401230    1.362060   -0.581600
  N      2.358530    1.737050   -0.070960
  C      2.046620   -1.485870   -1.340790
  C      3.019400   -2.536880   -1.523020
  C      3.316910   -3.075330   -2.772310
  C      4.242180   -4.097450   -2.899540
  N      4.487710   -4.552810   -4.244820
  O      4.441940   -3.715450   -5.122760
  O      4.731450   -5.725530   -4.436390
  C      4.942190   -4.607830   -1.788780
  C      4.662680   -4.018430   -0.547110
  C      3.738000   -3.010400   -0.414950
  C      5.940370   -5.650910   -1.904050
  C      7.002160   -5.754400   -1.087550
  C      7.995040   -6.793520   -1.203110
  C      8.609490   -7.367110   -0.097730
  C      8.394370   -7.026180    1.303600
  O      7.562600   -6.209560    1.648810
  C      9.276820   -7.746540    2.290340
  S      9.693920   -8.635590   -0.570780
  C      9.340250   -8.382780   -2.219390
  C      8.431950   -7.378490   -2.433950
  C      8.018080   -6.919680   -3.743420
  C      7.949830   -7.716710   -4.817510
  C      7.493620   -7.320530   -6.127260
  C      7.033670   -6.082840   -6.485960
  S      6.470260   -6.014220   -8.101190
  C      6.837910   -7.658640   -8.344540
  C      7.385550   -8.240420   -7.230220
  C      7.826730   -9.626200   -7.193210
  O      8.584700  -10.128200   -6.401030
  O      7.264470  -10.356150   -8.215330
  C      7.577580  -11.665500   -8.255800
  C      6.909640  -12.551430   -9.009730
  C      7.234540  -13.939550   -9.055680
  C      7.882970  -14.723230   -8.155000
  C      8.395230  -16.048250   -8.638040
  O      8.106050  -16.591030   -9.676770
  C      9.339760  -16.480040   -7.602680
  C     10.222110  -17.500840   -7.412580
  S     11.038130  -17.325990   -5.876650
  C     10.167800  -15.881960   -5.506340
  C      9.308920  -15.555040   -6.508410
  C      8.311870  -14.532790   -6.776080
  C      7.778970  -13.729160   -5.804270
  C      8.293510  -13.715970   -4.490520
  N      8.707640  -13.674170   -3.421250
  C      6.663910  -12.883670   -5.959470
  N      5.741670  -12.202780   -6.013680
  Cl    10.557640  -18.799970   -8.446270
  H     -2.898050    0.932080   -2.358500
  H      2.293400   -0.772430   -0.563270
  H      2.850090   -2.692690   -3.665730
  H      5.173520   -4.389760    0.327310
  H      3.537500   -2.592730    0.560540
  H      5.804340   -6.371770   -2.696550
  H      7.140200   -5.067250   -0.264620
  H      9.121770   -8.820340    2.210580
  H      9.038670   -7.418020    3.298340
  H     10.322900   -7.538770    2.075790
  H      9.836320   -8.977330   -2.961160
  H      7.747250   -5.875840   -3.810920
  H      8.205540   -8.760530   -4.718010
  H      6.982550   -5.196220   -5.888730
  H      6.656010   -8.121480   -9.293910
  H      8.436330  -11.945770   -7.653590
  H      6.117100  -12.203000   -9.655620
  H      6.961580  -14.455600   -9.971690
  H     10.360490  -15.375090   -4.581850

 Total Charge           Charge          ....    0
 Multiplicity           Mult            ....    1
 Number of Electrons    NEL             ....  478
 Basis Dimension        Dim             .... 1001

ORBITAL ENERGIES
----------------

  NO   OCC          E(Eh)            E(eV)
   0   2.0000    -101.620477     -2765.2338
   1   2.0000    -101.615037     -2765.0857
   2   2.0000     -88.998196     -2421.7640
   3   2.0000     -88.990595     -2421.5572
   4   2.0000     -88.967395     -2420.9259
   5   2.0000     -88.966340     -2420.8972
   6   2.0000     -19.296261      -525.0780
   7   2.0000     -19.251891      -523.8706
   8   2.0000     -19.250064      -523.8209
   9   2.0000     -19.228452      -523.2328
  10   2.0000     -19.226639      -523.1835
  11   2.0000     -19.214941      -522.8651
  12   2.0000     -19.204395      -522.5782
  13   2.0000     -14.654528      -398.7700
  14   2.0000     -14.425336      -392.5333
  15   2.0000     -14.424066      -392.4988
  16   2.0000     -14.418495      -392.3472
  17   2.0000     -14.417710      -392.3258
  18   2.0000     -10.424850      -283.6746
  19   2.0000     -10.384421      -282.5745
  20   2.0000     -10.380344      -282.4635
  21   2.0000     -10.373356      -282.2734
  22   2.0000     -10.371540      -282.2240
  23   2.0000     -10.362978      -281.9910
  24   2.0000     -10.361327      -281.9460
  25   2.0000     -10.353635      -281.7367
  26   2.0000     -10.352956      -281.7182
  27   2.0000     -10.348174      -281.5881
  28   2.0000     -10.345008      -281.5020
  29   2.0000     -10.334421      -281.2139
  30   2.0000     -10.333954      -281.2012
  31   2.0000     -10.328200      -281.0446
  32   2.0000     -10.327344      -281.0213
  33   2.0000     -10.326510      -280.9986
  34   2.0000     -10.325910      -280.9823
  35   2.0000     -10.320293      -280.8295
  36   2.0000     -10.319824      -280.8167
  37   2.0000     -10.319600      -280.8106
  38   2.0000     -10.317629      -280.7570
  39   2.0000     -10.316975      -280.7392
  40   2.0000     -10.313587      -280.6470
  41   2.0000     -10.310400      -280.5602
  42   2.0000     -10.309876      -280.5460
  43   2.0000     -10.305774      -280.4344
  44   2.0000     -10.305251      -280.4201
  45   2.0000     -10.304090      -280.3885
  46   2.0000     -10.302117      -280.3349
  47   2.0000     -10.301729      -280.3243
  48   2.0000     -10.299975      -280.2766
  49   2.0000     -10.297801      -280.2174
  50   2.0000     -10.297201      -280.2011
  51   2.0000     -10.294329      -280.1229
  52   2.0000     -10.293992      -280.1138
  53   2.0000     -10.291645      -280.0499
  54   2.0000     -10.291534      -280.0469
  55   2.0000     -10.289416      -279.9892
  56   2.0000     -10.286866      -279.9199
  57   2.0000     -10.286226      -279.9024
  58   2.0000     -10.285703      -279.8882
  59   2.0000     -10.279444      -279.7179
  60   2.0000     -10.273536      -279.5571
  61   2.0000     -10.269548      -279.4486
  62   2.0000     -10.269294      -279.4417
  63   2.0000      -9.575237      -260.5554
  64   2.0000      -9.569814      -260.4079
  65   2.0000      -8.093773      -220.2428
  66   2.0000      -8.086323      -220.0400
  67   2.0000      -8.063683      -219.4240
  68   2.0000      -8.062037      -219.3792
  69   2.0000      -7.345898      -199.8920
  70   2.0000      -7.340452      -199.7438
  71   2.0000      -7.335264      -199.6027
  72   2.0000      -7.334712      -199.5877
  73   2.0000      -7.329849      -199.4553
  74   2.0000      -7.329318      -199.4409
  75   2.0000      -6.063134      -164.9863
  76   2.0000      -6.058522      -164.8608
  77   2.0000      -6.056126      -164.7956
  78   2.0000      -6.055720      -164.7845
  79   2.0000      -6.051116      -164.6592
  80   2.0000      -6.048543      -164.5892
  81   2.0000      -6.032748      -164.1594
  82   2.0000      -6.031143      -164.1157
  83   2.0000      -6.028219      -164.0362
  84   2.0000      -6.026819      -163.9981
  85   2.0000      -6.026519      -163.9899
  86   2.0000      -6.024706      -163.9406
  87   2.0000      -1.330918       -36.2161
  88   2.0000      -1.225682       -33.3525
  89   2.0000      -1.148456       -31.2511
  90   2.0000      -1.144670       -31.1480
  91   2.0000      -1.132481       -30.8164
  92   2.0000      -1.127925       -30.6924
  93   2.0000      -1.121491       -30.5173
  94   2.0000      -1.042484       -28.3674
  95   2.0000      -1.035402       -28.1747
  96   2.0000      -1.021990       -27.8098
  97   2.0000      -1.015331       -27.6285
  98   2.0000      -1.003258       -27.3000
  99   2.0000      -0.997534       -27.1443
 100   2.0000      -0.996755       -27.1231
 101   2.0000      -0.994041       -27.0492
 102   2.0000      -0.992025       -26.9944
 103   2.0000      -0.990304       -26.9475
 104   2.0000      -0.985347       -26.8127
 105   2.0000      -0.959281       -26.1034
 106   2.0000      -0.952700       -25.9243
 107   2.0000      -0.929663       -25.2974
 108   2.0000      -0.921362       -25.0715
 109   2.0000      -0.910437       -24.7742
 110   2.0000      -0.908324       -24.7168
 111   2.0000      -0.902331       -24.5537
 112   2.0000      -0.899245       -24.4697
 113   2.0000      -0.884556       -24.0700
 114   2.0000      -0.873706       -23.7747
 115   2.0000      -0.860963       -23.4280
 116   2.0000      -0.856047       -23.2942
 117   2.0000      -0.839650       -22.8481
 118   2.0000      -0.836968       -22.7751
 119   2.0000      -0.830044       -22.5867
 120   2.0000      -0.827883       -22.5279
 121   2.0000      -0.817030       -22.2325
 122   2.0000      -0.797264       -21.6947
 123   2.0000      -0.790276       -21.5045
 124   2.0000      -0.783969       -21.3329
 125   2.0000      -0.777870       -21.1669
 126   2.0000      -0.759292       -20.6614
 127   2.0000      -0.756825       -20.5942
 128   2.0000      -0.737096       -20.0574
 129   2.0000      -0.734058       -19.9747
 130   2.0000      -0.706976       -19.2378
 131   2.0000      -0.702694       -19.1213
 132   2.0000      -0.699062       -19.0225
 133   2.0000      -0.697197       -18.9717
 134   2.0000      -0.683310       -18.5938
 135   2.0000      -0.681983       -18.5577
 136   2.0000      -0.679875       -18.5003
 137   2.0000      -0.674736       -18.3605
 138   2.0000      -0.673407       -18.3243
 139   2.0000      -0.670436       -18.2435
 140   2.0000      -0.661236       -17.9931
 141   2.0000      -0.655875       -17.8473
 142   2.0000      -0.639594       -17.4042
 143   2.0000      -0.632729       -17.2174
 144   2.0000      -0.628878       -17.1126
 145   2.0000      -0.621069       -16.9002
 146   2.0000      -0.617951       -16.8153
 147   2.0000      -0.614665       -16.7259
 148   2.0000      -0.610302       -16.6072
 149   2.0000      -0.608487       -16.5578
 150   2.0000      -0.605539       -16.4775
 151   2.0000      -0.598986       -16.2992
 152   2.0000      -0.595856       -16.2141
 153   2.0000      -0.587820       -15.9954
 154   2.0000      -0.579960       -15.7815
 155   2.0000      -0.575956       -15.6726
 156   2.0000      -0.574467       -15.6320
 157   2.0000      -0.565989       -15.4013
 158   2.0000      -0.561969       -15.2919
 159   2.0000      -0.559067       -15.2130
 160   2.0000      -0.556146       -15.1335
 161   2.0000      -0.554342       -15.0844
 162   2.0000      -0.544695       -14.8219
 163   2.0000      -0.539624       -14.6839
 164   2.0000      -0.539428       -14.6786
 165   2.0000      -0.534655       -14.5487
 166   2.0000      -0.534195       -14.5362
 167   2.0000      -0.532659       -14.4944
 168   2.0000      -0.528566       -14.3830
 169   2.0000      -0.528139       -14.3714
 170   2.0000      -0.523463       -14.2442
 171   2.0000      -0.522001       -14.2044
 172   2.0000      -0.520927       -14.1751
 173   2.0000      -0.516229       -14.0473
 174   2.0000      -0.511690       -13.9238
 175   2.0000      -0.509931       -13.8759
 176   2.0000      -0.508037       -13.8244
 177   2.0000      -0.501541       -13.6476
 178   2.0000      -0.499686       -13.5971
 179   2.0000      -0.496780       -13.5181
 180   2.0000      -0.491094       -13.3633
 181   2.0000      -0.489755       -13.3269
 182   2.0000      -0.487444       -13.2640
 183   2.0000      -0.485616       -13.2143
 184   2.0000      -0.484510       -13.1842
 185   2.0000      -0.481779       -13.1099
 186   2.0000      -0.479602       -13.0506
 187   2.0000      -0.478274       -13.0145
 188   2.0000      -0.475052       -12.9268
 189   2.0000      -0.473320       -12.8797
 190   2.0000      -0.464289       -12.6340
 191   2.0000      -0.460477       -12.5302
 192   2.0000      -0.458493       -12.4762
 193   2.0000      -0.457833       -12.4583
 194   2.0000      -0.457023       -12.4362
 195   2.0000      -0.456433       -12.4202
 196   2.0000      -0.451549       -12.2873
 197   2.0000      -0.451130       -12.2759
 198   2.0000      -0.449525       -12.2322
 199   2.0000      -0.449415       -12.2292
 200   2.0000      -0.447536       -12.1781
 201   2.0000      -0.446048       -12.1376
 202   2.0000      -0.444389       -12.0924
 203   2.0000      -0.441058       -12.0018
 204   2.0000      -0.437712       -11.9107
 205   2.0000      -0.435930       -11.8623
 206   2.0000      -0.435060       -11.8386
 207   2.0000      -0.431691       -11.7469
 208   2.0000      -0.428502       -11.6601
 209   2.0000      -0.427226       -11.6254
 210   2.0000      -0.422278       -11.4908
 211   2.0000      -0.420455       -11.4412
 212   2.0000      -0.419348       -11.4110
 213   2.0000      -0.417424       -11.3587
 214   2.0000      -0.409752       -11.1499
 215   2.0000      -0.406481       -11.0609
 216   2.0000      -0.401106       -10.9147
 217   2.0000      -0.401091       -10.9142
 218   2.0000      -0.394499       -10.7349
 219   2.0000      -0.388419       -10.5694
 220   2.0000      -0.386920       -10.5286
 221   2.0000      -0.380686       -10.3590
 222   2.0000      -0.377549       -10.2736
 223   2.0000      -0.375285       -10.2120
 224   2.0000      -0.366233        -9.9657
 225   2.0000      -0.355502        -9.6737
 226   2.0000      -0.343011        -9.3338
 227   2.0000      -0.340840        -9.2747
 228   2.0000      -0.339800        -9.2464
 229   2.0000      -0.335543        -9.1306
 230   2.0000      -0.332061        -9.0358
 231   2.0000      -0.329327        -8.9614
 232   2.0000      -0.324945        -8.8422
 233   2.0000      -0.321869        -8.7585
 234   2.0000      -0.314172        -8.5491
 235   2.0000      -0.311821        -8.4851
 236   2.0000      -0.296121        -8.0579
 237   2.0000      -0.285176        -7.7600
 238   2.0000      -0.267580        -7.2812
 239   0.0000      -0.099545        -2.7088
 240   0.0000      -0.089415        -2.4331
 241   0.0000      -0.060763        -1.6534
 242   0.0000      -0.052797        -1.4367
 243   0.0000      -0.045612        -1.2412

MULLIKEN ATOMIC CHARGES
-----------------------
   0 C :    0.031873
   1 C :   -0.126468
   2 S :    0.191271
   3 C :   -0.169694
   4 Cl:    0.004814
   5 C :    0.074894
   6 C :    0.145345
   7 O :   -0.123786
   8 C :   -0.091574
   9 C :    0.284136
  10 C :   -0.326773
  11 C :   -0.190455
  12 N :    0.158529
  13 C :   -0.195429
  14 N :    0.167697
  15 C :   -0.029021
  16 C :    0.058195
  17 C :    0.040807
  18 C :    0.105403
  19 N :    0.245846
  20 O :   -0.235575
  21 O :   -0.221934
  22 C :    0.082338
  23 C :   -0.049870
  24 C :    0.035358
  25 C :   -0.083497
  26 C :    0.012474
  27 C :    0.087950
  28 C :   -0.174111
  29 C :    0.021542
  30 O :   -0.200840
  31 C :    0.017170
  32 S :    0.141118
  33 C :   -0.110743
  34 C :    0.078770
  35 C :   -0.010396
  36 C :    0.002368
  37 C :    0.121053
  38 C :   -0.128320
  39 S :    0.162473
  40 C :   -0.087394
  41 C :   -0.012474
  42 C :    0.226847
  43 O :   -0.200554
  44 O :   -0.239471
  45 C :    0.168743
  46 C :   -0.000104
  47 C :    0.033406
  48 C :   -0.134004
  49 C :    0.127591
  50 O :   -0.131745
  51 C :    0.095642
  52 C :   -0.174072
  53 S :    0.181065
  54 C :   -0.127691
  55 C :    0.006893
  56 C :    0.269438
  57 C :   -0.323443
  58 C :   -0.177108
  59 N :    0.148808
  60 C :   -0.201091
  61 N :    0.172481
  62 Cl:   -0.002311
  63 H :    0.055148
  64 H :    0.034676
  65 H :    0.002285
  66 H :    0.013586
  67 H :   -0.003461
  68 H :    0.061187
  69 H :    0.027054
  70 H :    0.047813
  71 H :    0.036724
  72 H :    0.044477
  73 H :    0.041012
  74 H :   -0.005385
  75 H :    0.005132
  76 H :    0.020773
  77 H :    0.034171
  78 H :    0.056938
  79 H :    0.019617
  80 H :    0.033677
  81 H :    0.052186
Sum of atomic charges:   -0.0000000

LOEWDIN ATOMIC CHARGES
----------------------
   0 C :   -0.060105
   1 C :   -0.148062
   2 S :    0.480814
   3 C :   -0.271021
   4 Cl:    0.196197
   5 C :   -0.117555
   6 C :    0.080976
   7 O :   -0.122299
   8 C :   -0.083772
   9 C :    0.074553
  10 C :   -0.132761
  11 C :   -0.015167
  12 N :   -0.048120
  13 C :   -0.025161
  14 N :   -0.041967
  15 C :    0.081016
  16 C :   -0.045886
  17 C :    0.046693
  18 C :   -0.030526
  19 N :    0.287276
  20 O :   -0.202505
  21 O :   -0.183307
  22 C :    0.016114
  23 C :   -0.008050
  24 C :    0.023227
  25 C :   -0.033756
  26 C :    0.015821
  27 C :   -0.019268
  28 C :   -0.227421
  29 C :    0.066637
  30 O :   -0.160833
  31 C :   -0.084807
  32 S :    0.472261
  33 C :   -0.158912
  34 C :   -0.054616
  35 C :   -0.017562
  36 C :   -0.015166
  37 C :   -0.043242
  38 C :   -0.167773
  39 S :    0.493927
  40 C :   -0.151958
  41 C :   -0.112296
  42 C :    0.126785
  43 O :   -0.156409
  44 O :   -0.033481
  45 C :    0.118020
  46 C :   -0.079482
  47 C :    0.077739
  48 C :   -0.099001
  49 C :    0.080447
  50 O :   -0.136382
  51 C :   -0.117959
  52 C :   -0.273501
  53 S :    0.470984
  54 C :   -0.153053
  55 C :   -0.057176
  56 C :    0.065545
  57 C :   -0.138142
  58 C :   -0.013047
  59 N :   -0.055814
  60 C :   -0.017837
  61 N :   -0.039786
  62 Cl:    0.190142
  63 H :    0.038240
  64 H :    0.047917
  65 H :    0.039932
  66 H :    0.043694
  67 H :    0.037929
  68 H :    0.035576
  69 H :    0.033415
  70 H :    0.041363
  71 H :    0.040661
  72 H :    0.041217
  73 H :    0.031478
  74 H :    0.025129
  75 H :    0.030196
  76 H :    0.019156
  77 H :    0.028951
  78 H :    0.027259
  79 H :    0.042346
  80 H :    0.048515
  81 H :    0.036795

  Mayer bond orders larger than 0.100000
B(  0-C ,  1-C ) :   1.5399 B(  0-C ,  5-C ) :   1.2226 B(  0-C ,  9-C ) :   1.0044
B(  1-C ,  2-S ) :   1.1654 B(  1-C , 63-H ) :   0.9538 B(  2-S ,  3-C ) :   1.1538
B(  3-C ,  4-Cl) :   1.1318 B(  3-C ,  5-C ) :   1.4735 B(  5-C ,  6-C ) :   0.9537
B(  6-C ,  7-O ) :   2.2418 B(  6-C ,  8-C ) :   0.9193 B(  8-C ,  9-C ) :   1.0487
B(  8-C , 15-C ) :   1.6910 B(  9-C , 10-C ) :   1.6716 B( 10-C , 11-C ) :   1.1416
B( 10-C , 13-C ) :   1.1359 B( 11-C , 12-N ) :   2.9943 B( 13-C , 14-N ) :   2.9853
B( 15-C , 16-C ) :   1.0561 B( 15-C , 64-H ) :   0.9489 B( 16-C , 17-C ) :   1.3213
B( 16-C , 24-C ) :   1.2972 B( 17-C , 18-C ) :   1.4052 B( 17-C , 65-H ) :   0.9788
B( 18-C , 19-N ) :   0.8676 B( 18-C , 22-C ) :   1.3524 B( 19-N , 20-O ) :   1.5445
B( 19-N , 21-O ) :   1.5198 B( 20-O , 21-O ) :   0.2635 B( 22-C , 23-C ) :   1.3447
B( 22-C , 25-C ) :   1.0629 B( 23-C , 24-C ) :   1.4000 B( 23-C , 66-H ) :   0.9929
B( 24-C , 67-H ) :   1.0000 B( 25-C , 26-C ) :   1.7245 B( 25-C , 68-H ) :   0.9636
B( 26-C , 27-C ) :   1.0990 B( 26-C , 69-H ) :   0.9401 B( 27-C , 28-C ) :   1.4645
B( 27-C , 34-C ) :   1.2421 B( 28-C , 29-C ) :   0.9945 B( 28-C , 32-S ) :   1.1303
B( 29-C , 30-O ) :   2.1229 B( 29-C , 31-C ) :   1.0607 B( 31-C , 70-H ) :   0.9461
B( 31-C , 71-H ) :   0.9487 B( 31-C , 72-H ) :   0.9525 B( 32-S , 33-C ) :   1.1855
B( 33-C , 34-C ) :   1.5232 B( 33-C , 73-H ) :   0.9636 B( 34-C , 35-C ) :   1.0439
B( 35-C , 36-C ) :   1.7666 B( 35-C , 74-H ) :   0.9563 B( 36-C , 37-C ) :   1.0890
B( 36-C , 75-H ) :   0.9615 B( 37-C , 38-C ) :   1.5518 B( 37-C , 41-C ) :   1.2242
B( 38-C , 39-S ) :   1.1724 B( 38-C , 76-H ) :   0.9508 B( 39-S , 40-C ) :   1.2298
B( 40-C , 41-C ) :   1.5012 B( 40-C , 77-H ) :   0.9660 B( 41-C , 42-C ) :   0.9831
B( 42-C , 43-O ) :   2.0592 B( 42-C , 44-O ) :   1.0878 B( 44-O , 45-C ) :   1.0812
B( 45-C , 46-C ) :   1.6691 B( 45-C , 78-H ) :   0.9598 B( 46-C , 47-C ) :   1.1445
B( 46-C , 79-H ) :   0.9585 B( 47-C , 48-C ) :   1.6992 B( 47-C , 80-H ) :   0.9264
B( 48-C , 49-C ) :   0.9446 B( 48-C , 56-C ) :   1.0224 B( 49-C , 50-O ) :   2.2714
B( 49-C , 51-C ) :   0.9254 B( 51-C , 52-C ) :   1.4838 B( 51-C , 55-C ) :   1.2228
B( 52-C , 53-S ) :   1.1494 B( 52-C , 62-Cl) :   1.1274 B( 53-S , 54-C ) :   1.1579
B( 54-C , 55-C ) :   1.5531 B( 54-C , 81-H ) :   0.9552 B( 55-C , 56-C ) :   1.0110
B( 56-C , 57-C ) :   1.6602 B( 57-C , 58-C ) :   1.1313 B( 57-C , 60-C ) :   1.1675
B( 58-C , 59-N ) :   2.9967 B( 60-C , 61-N ) :   2.9676

-----------------------------------------------------------------------------
         ABSORPTION SPECTRUM VIA TRANSITION ELECTRIC DIPOLE MOMENTS
-----------------------------------------------------------------------------
State   Energy  Wavelength   fosc         T2         TX        TY        TZ
        (cm-1)    (nm)                  (au**2)     (au)      (au)      (au)
-----------------------------------------------------------------------------
   0   23097.1    433.0   0.611964909   8.72257   2.20035  -1.96974  -0.03397
   1   24902.5    401.6   0.162002093   2.14168  -1.03009   1.02319  -0.18349
   2   24973.6    400.4   0.055508643   0.73174  -0.06006  -0.80836   0.27327
   3   25553.2    391.3   0.176619966   2.27547   0.17575  -1.06613   1.05259
   4   28357.0    352.6   0.007932489   0.09209  -0.14979   0.15371  -0.21455
   5   28642.6    349.1   0.245445194   2.82110   1.29419  -0.95029   0.49308
   6   29368.1    340.5   0.043820058   0.49122   0.45765  -0.50503  -0.16345
   7   29703.3    336.7   0.039979003   0.44310  -0.46328  -0.28942  -0.38041
   8   30406.8    328.9   0.027673352   0.29962   0.42157  -0.33347   0.10341
   9   30483.0    328.1   0.043782187   0.47284  -0.15769  -0.13163  -0.65624
  10   31868.4    313.8   0.012541816   0.12956  -0.03845   0.32454   0.15085
  11   31938.4    313.1   0.075721854   0.78052   0.75489   0.15549   0.43183
  12   32240.0    310.2   0.001024845   0.01046  -0.04641   0.08423  -0.03489
  13   32530.8    307.4   0.087024592   0.88069   0.57747  -0.73829   0.04634
  14   33174.0    301.4   0.047153350   0.46794   0.19431   0.55284   0.35291
  15   33354.2    299.8   0.009974357   0.09845   0.17457   0.25483   0.05511
  16   34199.8    292.4   0.034511615   0.33221  -0.20554  -0.00819   0.53842
  17   34574.4    289.2   0.033107799   0.31525  -0.10029   0.40285   0.37802
  18   34633.2    288.7   0.273205961   2.59701   0.27268  -0.92079  -1.29414
  19   35036.4    285.4   0.010009023   0.09405   0.27987  -0.11088  -0.05852
  20   35307.3    283.2   0.345304902   3.21969  -0.85229   1.53925   0.35215
  21   35422.0    282.3   0.109590815   1.01854   0.94214  -0.09221   0.34986
  22   35584.2    281.0   0.022792745   0.21087  -0.12294  -0.43182  -0.09636
  23   36182.8    276.4   0.135106092   1.22927  -0.84993   0.21986  -0.67716
  24   36457.1    274.3   0.167393228   1.51158   0.98518   0.34621   0.64895
  25   36527.8    273.8   0.400385730   3.60853  -0.97440   1.62480   0.13821
  26   36980.2    270.4   0.073297885   0.65253   0.05241  -0.78545   0.18125
  27   37688.4    265.3   0.033880719   0.29595  -0.18216  -0.48681   0.16057
  28   37884.4    264.0   0.052103581   0.45277  -0.51556   0.19589   0.38549
  29   37903.8    263.8   0.552649679   4.80002  -1.13425  -1.33278  -1.31803
  30   38195.9    261.8   0.463140848   3.99182  -1.21132   1.50671   0.50433
  31   38640.0    258.8   0.032939800   0.28065   0.23906   0.42770  -0.20142
  32   39017.1    256.3   0.273173911   2.30494   0.29333   0.08006   1.48744
  33   39207.1    255.1   0.109304931   0.91780   0.14871  -0.12638   0.93793
  34   39519.8    253.0   0.015508432   0.12919  -0.32067  -0.07859   0.14207
  35   39866.2    250.8   0.010103745   0.08344  -0.01402   0.17697   0.22786

FINAL SINGLE POINT ENERGY     -5035.566163570926

DIPOLE MOMENT
-------------
                                X             Y             Z
Electronic contribution:    -22.99599     -19.24921     -26.39326
Nuclear contribution   :     23.66471      18.43094      25.74028
                        -----------------------------------------
Total Dipole Moment    :      0.66873      -0.81828      -0.65298
                        -----------------------------------------
Magnitude (a.u.)       :      1.24224
Magnitude (Debye)      :      3.15752

Rotational constants in cm-1:     0.001749     0.000338     0.000304
Rotational constants in MHz :    52.419336    10.142679     9.127046

                             ****ORCA TERMINATED NORMALLY****
TOTAL RUN TIME: 0 days 0 hours 6 minutes 37 seconds 545 msec
