                         Program Version 4.2.0 -  RELEASE  -
|  1> # ORCA input file
|  2> # SCF done       -192.166764286903          0.000985773898
|  3> ! CAM-B3LYP def2-SVP def2/J RIJCOSX Grid4 TightSCF
|  4> %maxcore 5000
|  5> %tddft
|  6>     Mode sTDDFT
|  7>     Ethresh 5.0
|  8>     maxcore 5000
|  9> end
| 10>
| 11> %pal
| 12>   nprocs 6
| 13>   end
| 14> * xyz 0 1
| 15>    C        0.47376        -0.09411        -1.88967
| 16>    C        1.63007        -0.67660        -1.43988
| 17>    C        2.17270        -1.86624        -1.97094
| 18>    N        2.66887        -2.82680        -2.35672
| 19>    C        2.45486        -0.18261        -0.40777
| 20>    N        3.17869         0.15343         0.41846
| 21>    C       -0.35339        -0.59620        -2.98219
| 22>    C       -1.41826         0.32317        -3.20672
| 23>    C       -2.36081         0.12053        -4.17316
| 24>    C       -2.28511        -1.04120        -4.97331
| 25>    C       -1.22781        -1.97058        -4.75240
| 26>    C       -0.26287        -1.72904        -3.74705
| 27>    C       -1.16617        -3.13024        -5.55135
| 28>    C       -2.10273        -3.36236        -6.52194
| 29>    C       -3.14226        -2.44593        -6.73927
| 30>    C       -3.23122        -1.30938        -5.98179
| 31>    C       -1.30589         1.43343        -2.25252
| 32>    O       -2.04050         2.40142        -2.17364
| 33>    C       -0.13883         1.13210        -1.40548
| 34>    C        0.25406         1.85271        -0.31221
| 35>    C       -0.28952         3.03100         0.23943
| 36>    S       -1.60750         3.99067        -0.37947
| 37>    C       -1.48280         5.10494         0.93966
| 38>    C       -0.45433         4.73608         1.82643
| 39>    C        0.20897         3.58205         1.41737
| 40>    C       -0.09826         5.42514         2.99811
| 41>    N        0.20657         5.95757         3.96859
| 42>    C       -2.38934         6.18957         0.99113
| 43>    C       -2.49727         7.08454         2.01038
| 44>    C       -3.44947         8.13173         2.00206
| 45>    N       -3.63763         8.99746         3.05674
| 46>    C       -2.95331         8.96614         4.32777
| 47>    C       -3.50264         7.87598         5.24404
| 48>    C       -4.65970         9.92382         2.80217
| 49>    O       -5.01295        10.77630         3.59452
| 50>    C       -5.11042         9.60198         1.46597
| 51>    C       -4.34900         8.49820         1.00252
| 52>    C       -4.79018         8.18679        -0.33760
| 53>    O       -4.45090         7.33379        -1.13354
| 54>    N       -5.79128         9.13948        -0.60399
| 55>    C       -6.49684         9.14659        -1.86179
| 56>    C       -7.88227         8.51245        -1.74835
| 57>    C       -6.00094         9.97614         0.46564
| 58>    C       -6.99851        10.99031         0.48392
| 59>    C       -7.26225        11.73719         1.57624
| 60>    C       -8.32366        12.69649         1.65614
| 61>    C       -8.65255        13.45732         2.76371
| 62>    O       -9.72232        14.20890         2.54532
| 63>    C      -10.12706        13.95269         1.28751
| 64>    N      -11.27737        14.58818         0.77831
| 65>    O      -11.57514        14.31745        -0.37406
| 66>    O      -11.88424        15.34312         1.50249
| 67>    C       -9.30894        13.02646         0.67341
| 68>    C       -9.43585        12.53826        -0.69181
| 69>    C      -10.33071        11.60165        -1.04782
| 70>    C      -10.61283        11.05809        -2.37099
| 71>    C       -9.80750        11.15902        -3.47029
| 72>    C      -10.10506        10.59249        -4.72864
| 73>    N      -10.28803        10.14276        -5.76793
| 74>    C       -8.53987        11.77647        -3.45425
| 75>    N       -7.47961        12.21696        -3.46027
| 76>    C      -11.86127        10.32051        -2.27422
| 77>    C      -12.28028        10.28763        -0.91021
| 78>    C      -11.32314        11.03370        -0.08438
| 79>    O      -11.31436        11.18007         1.11659
| 80>    C      -13.42074         9.64175        -0.52495
| 81>    C      -14.20947         8.99313        -1.50074
| 82>    C      -13.80198         9.03009        -2.86691
| 83>    C      -12.61697         9.70318        -3.23756
| 84>    C      -14.60121         8.38385        -3.83235
| 85>    C      -15.74722         7.73108        -3.46808
| 86>    C      -16.14655         7.69384        -2.12332
| 87>    C      -15.39420         8.31084        -1.16063
| 88>    H       -3.15553         0.83628        -4.32238
| 89>    H        0.52250        -2.45418        -3.60582
| 90>    H       -0.36350        -3.83266        -5.38124
| 91>    H       -2.04728        -4.25423        -7.12785
| 92>    H       -3.87239        -2.64487        -7.50940
| 93>    H       -4.02927        -0.59980        -6.14421
| 94>    H        1.09888         1.47458         0.25111
| 95>    H        1.03072         3.14690         1.96020
| 96>    H       -3.05176         6.27979         0.13921
| 97>    H       -1.85292         7.00167         2.87199
| 98>    H       -3.11933         9.94630         4.78329
| 99>    H       -1.88128         8.82865         4.16454
|100>    H       -4.56073         8.04377         5.43063
|101>    H       -2.97307         7.89511         6.19204
|102>    H       -3.37881         6.89216         4.79711
|103>    H       -5.88608         8.55626        -2.55081
|104>    H       -6.56151        10.17015        -2.24134
|105>    H       -7.79113         7.48228        -1.41268
|106>    H       -8.36796         8.51547        -2.72107
|107>    H       -8.50846         9.05018        -1.03816
|108>    H       -7.57448        11.13549        -0.41891
|109>    H       -6.67602        11.60564         2.47604
|110>    H       -8.17983        13.51765         3.72514
|111>    H       -8.78259        13.00507        -1.41890
|112>    H      -13.71833         9.62849         0.51299
|113>    H      -12.33717         9.72169        -4.27925
|114>    H      -14.28897         8.41441        -4.86582
|115>    H      -16.35308         7.23979        -4.21440
|116>    H      -17.05391         7.17445        -1.85424
|117>    H      -15.69740         8.28577        -0.12435
|118> *
|119>
|120>                          ****END OF INPUT****

CARTESIAN COORDINATES (ANGSTROEM)
---------------------------------
  C      0.473760   -0.094110   -1.889670
  C      1.630070   -0.676600   -1.439880
  C      2.172700   -1.866240   -1.970940
  N      2.668870   -2.826800   -2.356720
  C      2.454860   -0.182610   -0.407770
  N      3.178690    0.153430    0.418460
  C     -0.353390   -0.596200   -2.982190
  C     -1.418260    0.323170   -3.206720
  C     -2.360810    0.120530   -4.173160
  C     -2.285110   -1.041200   -4.973310
  C     -1.227810   -1.970580   -4.752400
  C     -0.262870   -1.729040   -3.747050
  C     -1.166170   -3.130240   -5.551350
  C     -2.102730   -3.362360   -6.521940
  C     -3.142260   -2.445930   -6.739270
  C     -3.231220   -1.309380   -5.981790
  C     -1.305890    1.433430   -2.252520
  O     -2.040500    2.401420   -2.173640
  C     -0.138830    1.132100   -1.405480
  C      0.254060    1.852710   -0.312210
  C     -0.289520    3.031000    0.239430
  S     -1.607500    3.990670   -0.379470
  C     -1.482800    5.104940    0.939660
  C     -0.454330    4.736080    1.826430
  C      0.208970    3.582050    1.417370
  C     -0.098260    5.425140    2.998110
  N      0.206570    5.957570    3.968590
  C     -2.389340    6.189570    0.991130
  C     -2.497270    7.084540    2.010380
  C     -3.449470    8.131730    2.002060
  N     -3.637630    8.997460    3.056740
  C     -2.953310    8.966140    4.327770
  C     -3.502640    7.875980    5.244040
  C     -4.659700    9.923820    2.802170
  O     -5.012950   10.776300    3.594520
  C     -5.110420    9.601980    1.465970
  C     -4.349000    8.498200    1.002520
  C     -4.790180    8.186790   -0.337600
  O     -4.450900    7.333790   -1.133540
  N     -5.791280    9.139480   -0.603990
  C     -6.496840    9.146590   -1.861790
  C     -7.882270    8.512450   -1.748350
  C     -6.000940    9.976140    0.465640
  C     -6.998510   10.990310    0.483920
  C     -7.262250   11.737190    1.576240
  C     -8.323660   12.696490    1.656140
  C     -8.652550   13.457320    2.763710
  O     -9.722320   14.208900    2.545320
  C    -10.127060   13.952690    1.287510
  N    -11.277370   14.588180    0.778310
  O    -11.575140   14.317450   -0.374060
  O    -11.884240   15.343120    1.502490
  C     -9.308940   13.026460    0.673410
  C     -9.435850   12.538260   -0.691810
  C    -10.330710   11.601650   -1.047820
  C    -10.612830   11.058090   -2.370990
  C     -9.807500   11.159020   -3.470290
  C    -10.105060   10.592490   -4.728640
  N    -10.288030   10.142760   -5.767930
  C     -8.539870   11.776470   -3.454250
  N     -7.479610   12.216960   -3.460270
  C    -11.861270   10.320510   -2.274220
  C    -12.280280   10.287630   -0.910210
  C    -11.323140   11.033700   -0.084380
  O    -11.314360   11.180070    1.116590
  C    -13.420740    9.641750   -0.524950
  C    -14.209470    8.993130   -1.500740
  C    -13.801980    9.030090   -2.866910
  C    -12.616970    9.703180   -3.237560
  C    -14.601210    8.383850   -3.832350
  C    -15.747220    7.731080   -3.468080
  C    -16.146550    7.693840   -2.123320
  C    -15.394200    8.310840   -1.160630
  H     -3.155530    0.836280   -4.322380
  H      0.522500   -2.454180   -3.605820
  H     -0.363500   -3.832660   -5.381240
  H     -2.047280   -4.254230   -7.127850
  H     -3.872390   -2.644870   -7.509400
  H     -4.029270   -0.599800   -6.144210
  H      1.098880    1.474580    0.251110
  H      1.030720    3.146900    1.960200
  H     -3.051760    6.279790    0.139210
  H     -1.852920    7.001670    2.871990
  H     -3.119330    9.946300    4.783290
  H     -1.881280    8.828650    4.164540
  H     -4.560730    8.043770    5.430630
  H     -2.973070    7.895110    6.192040
  H     -3.378810    6.892160    4.797110
  H     -5.886080    8.556260   -2.550810
  H     -6.561510   10.170150   -2.241340
  H     -7.791130    7.482280   -1.412680
  H     -8.367960    8.515470   -2.721070
  H     -8.508460    9.050180   -1.038160
  H     -7.574480   11.135490   -0.418910
  H     -6.676020   11.605640    2.476040
  H     -8.179830   13.517650    3.725140
  H     -8.782590   13.005070   -1.418900
  H    -13.718330    9.628490    0.512990
  H    -12.337170    9.721690   -4.279250
  H    -14.288970    8.414410   -4.865820
  H    -16.353080    7.239790   -4.214400
  H    -17.053910    7.174450   -1.854240
  H    -15.697400    8.285770   -0.124350

 Total Charge           Charge          ....    0
 Multiplicity           Mult            ....    1
 Number of Electrons    NEL             ....  500
 Basis Dimension        Dim             .... 1176

ORBITAL ENERGIES
----------------

  NO   OCC          E(Eh)            E(eV)
   0   2.0000     -88.978918     -2421.2395
   1   2.0000     -19.333993      -526.1047
   2   2.0000     -19.251248      -523.8531
   3   2.0000     -19.248665      -523.7828
   4   2.0000     -19.232285      -523.3371
   5   2.0000     -19.226038      -523.1671
   6   2.0000     -19.197380      -522.3873
   7   2.0000     -19.191896      -522.2380
   8   2.0000     -14.663621      -399.0174
   9   2.0000     -14.457169      -393.3996
  10   2.0000     -14.454470      -393.3261
  11   2.0000     -14.436773      -392.8446
  12   2.0000     -14.431462      -392.7001
  13   2.0000     -14.420276      -392.3957
  14   2.0000     -14.416486      -392.2925
  15   2.0000     -14.415977      -392.2787
  16   2.0000     -10.387932      -282.6700
  17   2.0000     -10.382339      -282.5178
  18   2.0000     -10.378638      -282.4171
  19   2.0000     -10.375285      -282.3259
  20   2.0000     -10.373908      -282.2884
  21   2.0000     -10.365037      -282.0470
  22   2.0000     -10.361323      -281.9459
  23   2.0000     -10.358162      -281.8599
  24   2.0000     -10.345009      -281.5020
  25   2.0000     -10.344434      -281.4864
  26   2.0000     -10.344343      -281.4839
  27   2.0000     -10.340981      -281.3924
  28   2.0000     -10.339917      -281.3634
  29   2.0000     -10.338992      -281.3383
  30   2.0000     -10.333158      -281.1795
  31   2.0000     -10.331294      -281.1288
  32   2.0000     -10.330881      -281.1176
  33   2.0000     -10.329956      -281.0924
  34   2.0000     -10.326542      -280.9995
  35   2.0000     -10.322894      -280.9002
  36   2.0000     -10.322029      -280.8767
  37   2.0000     -10.319423      -280.8058
  38   2.0000     -10.319206      -280.7999
  39   2.0000     -10.317492      -280.7532
  40   2.0000     -10.317288      -280.7477
  41   2.0000     -10.312679      -280.6223
  42   2.0000     -10.311184      -280.5816
  43   2.0000     -10.311146      -280.5806
  44   2.0000     -10.310371      -280.5595
  45   2.0000     -10.310165      -280.5538
  46   2.0000     -10.309926      -280.5473
  47   2.0000     -10.307375      -280.4779
  48   2.0000     -10.305858      -280.4367
  49   2.0000     -10.305728      -280.4331
  50   2.0000     -10.304275      -280.3936
  51   2.0000     -10.303766      -280.3797
  52   2.0000     -10.302855      -280.3549
  53   2.0000     -10.300533      -280.2917
  54   2.0000     -10.300348      -280.2867
  55   2.0000     -10.300234      -280.2836
  56   2.0000     -10.300121      -280.2806
  57   2.0000     -10.299512      -280.2640
  58   2.0000     -10.299202      -280.2555
  59   2.0000     -10.297562      -280.2109
  60   2.0000     -10.297012      -280.1959
  61   2.0000     -10.296873      -280.1922
  62   2.0000     -10.296838      -280.1912
  63   2.0000     -10.296437      -280.1803
  64   2.0000     -10.292050      -280.0609
  65   2.0000     -10.289214      -279.9838
  66   2.0000     -10.288721      -279.9703
  67   2.0000     -10.288369      -279.9608
  68   2.0000     -10.287851      -279.9466
  69   2.0000     -10.269395      -279.4444
  70   2.0000     -10.266595      -279.3683
  71   2.0000     -10.263184      -279.2754
  72   2.0000     -10.260259      -279.1958
  73   2.0000      -8.072066      -219.6521
  74   2.0000      -6.041374      -164.3942
  75   2.0000      -6.036756      -164.2685
  76   2.0000      -6.034562      -164.2088
  77   2.0000      -1.334680       -36.3185
  78   2.0000      -1.255633       -34.1675
  79   2.0000      -1.151409       -31.3314
  80   2.0000      -1.147166       -31.2160
  81   2.0000      -1.141694       -31.0671
  82   2.0000      -1.137412       -30.9505
  83   2.0000      -1.129542       -30.7364
  84   2.0000      -1.067234       -29.0409
  85   2.0000      -1.058128       -28.7931
  86   2.0000      -1.036158       -28.1953
  87   2.0000      -1.022001       -27.8101
  88   2.0000      -1.017578       -27.6897
  89   2.0000      -1.015196       -27.6249
  90   2.0000      -1.011184       -27.5157
  91   2.0000      -1.002338       -27.2750
  92   2.0000      -0.996583       -27.1184
  93   2.0000      -0.994040       -27.0492
  94   2.0000      -0.986794       -26.8520
  95   2.0000      -0.974566       -26.5193
  96   2.0000      -0.968653       -26.3584
  97   2.0000      -0.938582       -25.5401
  98   2.0000      -0.935878       -25.4665
  99   2.0000      -0.933234       -25.3946
 100   2.0000      -0.929139       -25.2832
 101   2.0000      -0.921502       -25.0753
 102   2.0000      -0.913968       -24.8703
 103   2.0000      -0.905158       -24.6306
 104   2.0000      -0.896638       -24.3988
 105   2.0000      -0.893958       -24.3258
 106   2.0000      -0.886132       -24.1129
 107   2.0000      -0.882825       -24.0229
 108   2.0000      -0.877627       -23.8814
 109   2.0000      -0.872465       -23.7410
 110   2.0000      -0.868306       -23.6278
 111   2.0000      -0.844231       -22.9727
 112   2.0000      -0.841200       -22.8902
 113   2.0000      -0.831283       -22.6204
 114   2.0000      -0.823690       -22.4137
 115   2.0000      -0.821854       -22.3638
 116   2.0000      -0.809878       -22.0379
 117   2.0000      -0.800126       -21.7725
 118   2.0000      -0.794356       -21.6155
 119   2.0000      -0.776600       -21.1324
 120   2.0000      -0.776130       -21.1196
 121   2.0000      -0.766391       -20.8546
 122   2.0000      -0.762398       -20.7459
 123   2.0000      -0.745464       -20.2851
 124   2.0000      -0.731223       -19.8976
 125   2.0000      -0.724643       -19.7185
 126   2.0000      -0.718441       -19.5498
 127   2.0000      -0.716158       -19.4876
 128   2.0000      -0.710564       -19.3354
 129   2.0000      -0.708445       -19.2778
 130   2.0000      -0.706408       -19.2223
 131   2.0000      -0.700740       -19.0681
 132   2.0000      -0.699743       -19.0410
 133   2.0000      -0.692942       -18.8559
 134   2.0000      -0.682493       -18.5716
 135   2.0000      -0.677393       -18.4328
 136   2.0000      -0.672786       -18.3074
 137   2.0000      -0.661216       -17.9926
 138   2.0000      -0.659431       -17.9440
 139   2.0000      -0.654885       -17.8203
 140   2.0000      -0.651312       -17.7231
 141   2.0000      -0.647656       -17.6236
 142   2.0000      -0.641031       -17.4433
 143   2.0000      -0.640267       -17.4226
 144   2.0000      -0.630492       -17.1566
 145   2.0000      -0.624318       -16.9886
 146   2.0000      -0.619858       -16.8672
 147   2.0000      -0.618175       -16.8214
 148   2.0000      -0.613747       -16.7009
 149   2.0000      -0.609608       -16.5883
 150   2.0000      -0.598747       -16.2927
 151   2.0000      -0.593472       -16.1492
 152   2.0000      -0.589953       -16.0534
 153   2.0000      -0.588819       -16.0226
 154   2.0000      -0.587677       -15.9915
 155   2.0000      -0.580297       -15.7907
 156   2.0000      -0.579330       -15.7644
 157   2.0000      -0.576607       -15.6903
 158   2.0000      -0.565749       -15.3948
 159   2.0000      -0.564925       -15.3724
 160   2.0000      -0.559101       -15.2139
 161   2.0000      -0.557627       -15.1738
 162   2.0000      -0.553309       -15.0563
 163   2.0000      -0.552449       -15.0329
 164   2.0000      -0.550701       -14.9853
 165   2.0000      -0.549688       -14.9578
 166   2.0000      -0.545402       -14.8411
 167   2.0000      -0.544511       -14.8169
 168   2.0000      -0.543988       -14.8027
 169   2.0000      -0.541328       -14.7303
 170   2.0000      -0.536902       -14.6098
 171   2.0000      -0.533512       -14.5176
 172   2.0000      -0.532817       -14.4987
 173   2.0000      -0.532556       -14.4916
 174   2.0000      -0.527059       -14.3420
 175   2.0000      -0.524996       -14.2859
 176   2.0000      -0.522721       -14.2240
 177   2.0000      -0.519613       -14.1394
 178   2.0000      -0.519144       -14.1266
 179   2.0000      -0.517688       -14.0870
 180   2.0000      -0.516514       -14.0551
 181   2.0000      -0.513833       -13.9821
 182   2.0000      -0.510404       -13.8888
 183   2.0000      -0.509371       -13.8607
 184   2.0000      -0.506274       -13.7764
 185   2.0000      -0.506120       -13.7722
 186   2.0000      -0.500643       -13.6232
 187   2.0000      -0.499000       -13.5785
 188   2.0000      -0.497966       -13.5504
 189   2.0000      -0.490532       -13.3481
 190   2.0000      -0.488586       -13.2951
 191   2.0000      -0.486895       -13.2491
 192   2.0000      -0.479677       -13.0527
 193   2.0000      -0.478251       -13.0139
 194   2.0000      -0.475868       -12.9490
 195   2.0000      -0.471677       -12.8350
 196   2.0000      -0.469024       -12.7628
 197   2.0000      -0.468874       -12.7587
 198   2.0000      -0.465246       -12.6600
 199   2.0000      -0.461737       -12.5645
 200   2.0000      -0.459949       -12.5158
 201   2.0000      -0.456155       -12.4126
 202   2.0000      -0.453246       -12.3334
 203   2.0000      -0.452306       -12.3079
 204   2.0000      -0.451376       -12.2826
 205   2.0000      -0.449398       -12.2287
 206   2.0000      -0.448526       -12.2050
 207   2.0000      -0.448090       -12.1931
 208   2.0000      -0.447535       -12.1781
 209   2.0000      -0.447067       -12.1653
 210   2.0000      -0.445982       -12.1358
 211   2.0000      -0.444311       -12.0903
 212   2.0000      -0.443198       -12.0600
 213   2.0000      -0.440278       -11.9806
 214   2.0000      -0.438031       -11.9194
 215   2.0000      -0.437301       -11.8996
 216   2.0000      -0.436716       -11.8836
 217   2.0000      -0.430504       -11.7146
 218   2.0000      -0.429960       -11.6998
 219   2.0000      -0.429142       -11.6775
 220   2.0000      -0.425884       -11.5889
 221   2.0000      -0.424859       -11.5610
 222   2.0000      -0.419420       -11.4130
 223   2.0000      -0.416524       -11.3342
 224   2.0000      -0.412847       -11.2341
 225   2.0000      -0.410032       -11.1575
 226   2.0000      -0.409066       -11.1312
 227   2.0000      -0.407279       -11.0826
 228   2.0000      -0.399132       -10.8609
 229   2.0000      -0.390217       -10.6183
 230   2.0000      -0.388255       -10.5650
 231   2.0000      -0.388183       -10.5630
 232   2.0000      -0.380273       -10.3477
 233   2.0000      -0.378115       -10.2890
 234   2.0000      -0.371114       -10.0985
 235   2.0000      -0.352584        -9.5943
 236   2.0000      -0.348129        -9.4731
 237   2.0000      -0.345708        -9.4072
 238   2.0000      -0.342267        -9.3136
 239   2.0000      -0.337676        -9.1886
 240   2.0000      -0.336871        -9.1667
 241   2.0000      -0.335291        -9.1237
 242   2.0000      -0.329135        -8.9562
 243   2.0000      -0.320795        -8.7293
 244   2.0000      -0.320667        -8.7258
 245   2.0000      -0.317334        -8.6351
 246   2.0000      -0.306312        -8.3352
 247   2.0000      -0.300926        -8.1886
 248   2.0000      -0.289482        -7.8772
 249   2.0000      -0.240402        -6.5417
 250   0.0000      -0.108922        -2.9639
 251   0.0000      -0.102702        -2.7947
 252   0.0000      -0.078102        -2.1253
 253   0.0000      -0.070412        -1.9160
 254   0.0000      -0.061333        -1.6690

MULLIKEN ATOMIC CHARGES
-----------------------
   0 C :    0.328746
   1 C :   -0.353696
   2 C :   -0.180740
   3 N :    0.154008
   4 C :   -0.192412
   5 N :    0.148539
   6 C :    0.045568
   7 C :   -0.006186
   8 C :   -0.078990
   9 C :    0.097962
  10 C :    0.097083
  11 C :   -0.084222
  12 C :   -0.020070
  13 C :    0.038059
  14 C :    0.034961
  15 C :   -0.016219
  16 C :    0.170064
  17 O :   -0.174046
  18 C :   -0.093241
  19 C :   -0.012971
  20 C :   -0.053810
  21 S :    0.237964
  22 C :   -0.054269
  23 C :   -0.049719
  24 C :    0.007786
  25 C :   -0.161339
  26 N :    0.117738
  27 C :    0.047922
  28 C :   -0.025287
  29 C :    0.128441
  30 N :   -0.256938
  31 C :    0.094367
  32 C :    0.009428
  33 C :    0.165778
  34 O :   -0.217814
  35 C :   -0.071044
  36 C :   -0.060913
  37 C :    0.167935
  38 O :   -0.202202
  39 N :   -0.259286
  40 C :    0.095657
  41 C :   -0.003802
  42 C :    0.139522
  43 C :   -0.015721
  44 C :    0.030226
  45 C :    0.060839
  46 C :    0.123631
  47 O :   -0.123414
  48 C :    0.160957
  49 N :    0.277293
  50 O :   -0.258358
  51 O :   -0.226075
  52 C :   -0.010973
  53 C :   -0.094586
  54 C :   -0.012593
  55 C :    0.323763
  56 C :   -0.352813
  57 C :   -0.179512
  58 N :    0.164287
  59 C :   -0.172639
  60 N :    0.146014
  61 C :    0.049354
  62 C :   -0.003589
  63 C :    0.148761
  64 O :   -0.132464
  65 C :   -0.072481
  66 C :    0.097965
  67 C :    0.098727
  68 C :   -0.084203
  69 C :   -0.018866
  70 C :    0.040125
  71 C :    0.038843
  72 C :   -0.015099
  73 H :   -0.009982
  74 H :   -0.006974
  75 H :   -0.006999
  76 H :   -0.003704
  77 H :   -0.003607
  78 H :   -0.016225
  79 H :    0.013038
  80 H :    0.016339
  81 H :    0.008415
  82 H :   -0.011324
  83 H :    0.039880
  84 H :    0.039900
  85 H :    0.023626
  86 H :    0.028486
  87 H :    0.016161
  88 H :    0.044731
  89 H :    0.036116
  90 H :    0.028020
  91 H :    0.029652
  92 H :    0.009433
  93 H :   -0.035325
  94 H :    0.005476
  95 H :    0.035234
  96 H :    0.065622
  97 H :   -0.007679
  98 H :   -0.004096
  99 H :   -0.006394
 100 H :   -0.000041
 101 H :   -0.000628
 102 H :   -0.012862
Sum of atomic charges:   -0.0000000

LOEWDIN ATOMIC CHARGES
----------------------
   0 C :    0.076995
   1 C :   -0.139569
   2 C :   -0.017194
   3 N :   -0.052237
   4 C :   -0.021543
   5 N :   -0.051530
   6 C :   -0.025396
   7 C :   -0.056225
   8 C :    0.034244
   9 C :   -0.008439
  10 C :   -0.005709
  11 C :    0.020631
  12 C :   -0.004983
  13 C :   -0.012222
  14 C :   -0.011551
  15 C :   -0.008937
  16 C :    0.085634
  17 O :   -0.162338
  18 C :   -0.100708
  19 C :    0.057887
  20 C :   -0.187309
  21 S :    0.552059
  22 C :   -0.134760
  23 C :   -0.113857
  24 C :    0.014799
  25 C :   -0.026194
  26 N :   -0.060975
  27 C :   -0.009992
  28 C :   -0.018858
  29 C :    0.068214
  30 N :    0.002800
  31 C :    0.036953
  32 C :   -0.059130
  33 C :    0.079311
  34 O :   -0.208835
  35 C :   -0.124399
  36 C :   -0.111281
  37 C :    0.082546
  38 O :   -0.191977
  39 N :    0.003029
  40 C :    0.034015
  41 C :   -0.064017
  42 C :    0.084478
  43 C :   -0.048187
  44 C :    0.037434
  45 C :   -0.062892
  46 C :    0.094607
  47 O :    0.064846
  48 C :    0.004586
  49 N :    0.276995
  50 O :   -0.219953
  51 O :   -0.186412
  52 C :   -0.015123
  53 C :    0.070982
  54 C :   -0.060783
  55 C :    0.081279
  56 C :   -0.130575
  57 C :   -0.019862
  58 N :   -0.040188
  59 C :   -0.013111
  60 N :   -0.047353
  61 C :   -0.025700
  62 C :   -0.055803
  63 C :    0.085816
  64 O :   -0.129904
  65 C :    0.039592
  66 C :   -0.005469
  67 C :   -0.004160
  68 C :    0.024830
  69 C :   -0.003757
  70 C :   -0.008693
  71 C :   -0.007181
  72 C :   -0.006837
  73 H :    0.040081
  74 H :    0.039421
  75 H :    0.035328
  76 H :    0.033678
  77 H :    0.033304
  78 H :    0.032295
  79 H :    0.051674
  80 H :    0.046766
  81 H :    0.037179
  82 H :    0.036466
  83 H :    0.037093
  84 H :    0.028935
  85 H :    0.029544
  86 H :    0.033566
  87 H :    0.022730
  88 H :    0.039787
  89 H :    0.024610
  90 H :    0.032919
  91 H :    0.029920
  92 H :    0.017557
  93 H :    0.027417
  94 H :    0.041150
  95 H :    0.039737
  96 H :    0.054667
  97 H :    0.041725
  98 H :    0.040270
  99 H :    0.035871
 100 H :    0.035192
 101 H :    0.034844
 102 H :    0.033820

  Mayer bond orders larger than 0.100000
B(  0-C ,  1-C ) :   1.6305 B(  0-C ,  6-C ) :   0.9883 B(  0-C , 18-C ) :   1.0694
B(  1-C ,  2-C ) :   1.1470 B(  1-C ,  4-C ) :   1.1448 B(  2-C ,  3-N ) :   2.9643
B(  4-C ,  5-N ) :   2.9607 B(  6-C ,  7-C ) :   1.2136 B(  6-C , 11-C ) :   1.4520
B(  7-C ,  8-C ) :   1.4703 B(  7-C , 16-C ) :   0.9624 B(  8-C ,  9-C ) :   1.1773
B(  8-C , 73-H ) :   1.0168 B(  9-C , 10-C ) :   1.2559 B(  9-C , 15-C ) :   1.2459
B( 10-C , 11-C ) :   1.2049 B( 10-C , 12-C ) :   1.2408 B( 11-C , 74-H ) :   0.9896
B( 12-C , 13-C ) :   1.4876 B( 12-C , 75-H ) :   0.9974 B( 13-C , 14-C ) :   1.2609
B( 13-C , 76-H ) :   0.9885 B( 14-C , 15-C ) :   1.4874 B( 14-C , 77-H ) :   0.9891
B( 15-C , 78-H ) :   0.9977 B( 16-C , 17-O ) :   2.1357 B( 16-C , 18-C ) :   0.9676
B( 18-C , 19-C ) :   1.5339 B( 19-C , 20-C ) :   1.2284 B( 19-C , 79-H ) :   0.9391
B( 20-C , 21-S ) :   1.0963 B( 20-C , 24-C ) :   1.3615 B( 21-S , 22-C ) :   1.1526
B( 22-C , 23-C ) :   1.3565 B( 22-C , 27-C ) :   1.1732 B( 23-C , 24-C ) :   1.3484
B( 23-C , 25-C ) :   1.1021 B( 24-C , 80-H ) :   1.0136 B( 25-C , 26-N ) :   2.9726
B( 27-C , 28-C ) :   1.6007 B( 27-C , 81-H ) :   0.9225 B( 28-C , 29-C ) :   1.1733
B( 28-C , 82-H ) :   0.9459 B( 29-C , 30-N ) :   1.1555 B( 29-C , 36-C ) :   1.3424
B( 30-N , 31-C ) :   0.9394 B( 30-N , 33-C ) :   1.0717 B( 31-C , 32-C ) :   1.1240
B( 31-C , 83-H ) :   0.9276 B( 31-C , 84-H ) :   0.9480 B( 32-C , 85-H ) :   0.9635
B( 32-C , 86-H ) :   0.9674 B( 32-C , 87-H ) :   0.9677 B( 33-C , 34-O ) :   2.0201
B( 33-C , 35-C ) :   0.9854 B( 34-O , 94-H ) :   0.1152 B( 35-C , 36-C ) :   1.2507
B( 35-C , 42-C ) :   1.3422 B( 36-C , 37-C ) :   0.9805 B( 37-C , 38-O ) :   2.0323
B( 37-C , 39-N ) :   1.0568 B( 38-O , 81-H ) :   0.1102 B( 39-N , 40-C ) :   0.9357
B( 39-N , 42-C ) :   1.1733 B( 40-C , 41-C ) :   1.1198 B( 40-C , 88-H ) :   0.9241
B( 40-C , 89-H ) :   0.9432 B( 41-C , 90-H ) :   0.9582 B( 41-C , 91-H ) :   0.9655
B( 41-C , 92-H ) :   0.9677 B( 42-C , 43-C ) :   1.1442 B( 43-C , 44-C ) :   1.6503
B( 43-C , 93-H ) :   0.9400 B( 44-C , 45-C ) :   1.0966 B( 44-C , 94-H ) :   0.9435
B( 45-C , 46-C ) :   1.4218 B( 45-C , 52-C ) :   1.2453 B( 46-C , 47-O ) :   1.1932
B( 46-C , 95-H ) :   1.0058 B( 47-O , 48-C ) :   1.1755 B( 48-C , 49-N ) :   0.9490
B( 48-C , 52-C ) :   1.5041 B( 49-N , 50-O ) :   1.5058 B( 49-N , 51-O ) :   1.5080
B( 50-O , 51-O ) :   0.2653 B( 52-C , 53-C ) :   0.9755 B( 53-C , 54-C ) :   1.8007
B( 53-C , 96-H ) :   0.9276 B( 54-C , 55-C ) :   1.0014 B( 54-C , 63-C ) :   0.9092
B( 55-C , 56-C ) :   1.6729 B( 55-C , 61-C ) :   1.0100 B( 56-C , 57-C ) :   1.1277
B( 56-C , 59-C ) :   1.1708 B( 57-C , 58-N ) :   2.9774 B( 59-C , 60-N ) :   2.8802
B( 61-C , 62-C ) :   1.2084 B( 61-C , 68-C ) :   1.4346 B( 62-C , 63-C ) :   0.9464
B( 62-C , 65-C ) :   1.4670 B( 63-C , 64-O ) :   2.2473 B( 65-C , 66-C ) :   1.1837
B( 65-C , 97-H ) :   1.0169 B( 66-C , 67-C ) :   1.2513 B( 66-C , 72-C ) :   1.2428
B( 67-C , 68-C ) :   1.2137 B( 67-C , 69-C ) :   1.2354 B( 68-C , 98-H ) :   0.9924
B( 69-C , 70-C ) :   1.4903 B( 69-C , 99-H ) :   0.9984 B( 70-C , 71-C ) :   1.2585
B( 70-C ,100-H ) :   0.9890 B( 71-C , 72-C ) :   1.4889 B( 71-C ,101-H ) :   0.9888
B( 72-C ,102-H ) :   0.9985

-----------------------------------------------------------------------------
         ABSORPTION SPECTRUM VIA TRANSITION ELECTRIC DIPOLE MOMENTS
-----------------------------------------------------------------------------
State   Energy  Wavelength   fosc         T2         TX        TY        TZ
        (cm-1)    (nm)                  (au**2)     (au)      (au)      (au)
-----------------------------------------------------------------------------
   0   14018.9    713.3   0.924423752  21.70872   2.90989  -3.62182  -0.35166
   1   16245.1    615.6   0.015395265   0.31199   0.15122  -0.48024  -0.24184
   2   21608.3    462.8   0.228405962   3.47986  -0.82166  -0.60937  -1.55994
   3   23725.7    421.5   0.015613158   0.21664  -0.26288   0.36264   0.12662
   4   24107.5    414.8   0.488674397   6.67333   1.03831  -2.08551  -1.11619
   5   25711.9    388.9   0.056090216   0.71817   0.31876  -0.72467  -0.30235
   6   26163.5    382.2   0.041631671   0.52385   0.40766  -0.55389  -0.22553
   7   26562.2    376.5   0.043393219   0.53782   0.55533   0.19174  -0.43893
   8   26610.2    375.8   0.300697924   3.72012  -0.62273  -1.25604  -1.32465
   9   26664.3    375.0   0.013451346   0.16608   0.38517  -0.12008  -0.05748
  10   27229.7    367.2   0.008768396   0.10601   0.30504  -0.06404  -0.09412
  11   27591.4    362.4   0.008005418   0.09552  -0.03632  -0.26052  -0.16225
  12   28226.3    354.3   0.015208989   0.17739  -0.19774   0.31848   0.19199
  13   28468.8    351.3   0.014072763   0.16274  -0.08776   0.36818   0.13957
  14   28936.1    345.6   0.023697341   0.26961  -0.15175  -0.31633  -0.38277
  15   29309.3    341.2   0.061183561   0.68723   0.73571   0.17655  -0.33881
  16   29440.7    339.7   0.008969934   0.10030  -0.03006   0.29084  -0.12170
  17   31138.6    321.1   0.017325412   0.18317  -0.28295   0.31337   0.07006
  18   31580.6    316.7   0.016323711   0.17017  -0.30598   0.25022   0.11803
  19   31840.0    314.1   0.000287525   0.00297   0.01254   0.01574   0.05067
  20   32079.9    311.7   0.018258206   0.18737  -0.39339   0.16632   0.07038
  21   32188.8    310.7   0.311946916   3.19045  -1.14411  -0.51374  -1.27182
  22   32426.2    308.4   0.186534562   1.89382  -1.08164   0.79590  -0.30070
  23   33048.5    302.6   0.066571558   0.66315  -0.76171  -0.12831   0.25784
  24   33459.3    298.9   0.317823790   3.12712  -1.40814  -0.11693   1.06330
  25   33677.8    296.9   0.158930277   1.55360   1.00166   0.64184  -0.37190
  26   33701.7    296.7   0.123407977   1.20550   0.71555   0.24057   0.79725
  27   33765.3    296.2   0.297095887   2.89668  -1.05328  -0.44723  -1.25987
  28   34253.8    291.9   0.583426256   5.60728   1.91991   1.37455   0.17842
  29   34415.0    290.6   0.114028906   1.09079  -0.64065  -0.00252  -0.82483
  30   35238.0    283.8   0.215109726   2.00967  -1.02743  -0.91087  -0.35264
  31   35648.3    280.5   0.038765009   0.35799   0.39232   0.07695   0.44515
  32   36002.3    277.8   0.031296670   0.28618   0.35430  -0.00846   0.40073
  33   36121.0    276.8   0.056135769   0.51163   0.63277  -0.09206   0.32055
  34   36195.4    276.3   0.147940428   1.34558   0.66442  -0.91106  -0.27219
  35   36543.1    273.6   0.107310998   0.96675  -0.16008   0.61752   0.74819
  36   36691.5    272.5   0.001885405   0.01692  -0.09928   0.08196   0.01852
  37   36842.4    271.4   0.020586575   0.18396   0.11758  -0.02674   0.41160
  38   37031.1    270.0   0.000411112   0.00365  -0.03351   0.04504  -0.02244
  39   37351.4    267.7   0.128678018   1.13416   0.51683   0.31080   0.87775
  40   37613.9    265.9   0.011252412   0.09849  -0.04787   0.12820   0.28241
  41   37787.4    264.6   0.007700435   0.06709   0.20145  -0.16164  -0.01945
  42   38106.2    262.4   0.055716034   0.48135  -0.50607   0.38164   0.28213
  43   38318.5    261.0   0.382200014   3.28365   1.17149  -1.34336  -0.32657
  44   38470.7    259.9   0.082657382   0.70734   0.62975  -0.53073  -0.17051
  45   38867.3    257.3   0.099786046   0.84520  -0.71118   0.53949  -0.21994
  46   39217.6    255.0   0.028465502   0.23895  -0.04918  -0.05088  -0.48368
  47   39306.1    254.4   0.045023062   0.37710  -0.31836  -0.14283   0.50532
  48   39357.2    254.1   0.049899565   0.41740   0.58151  -0.19420   0.20380
  49   39455.4    253.5   0.158816435   1.32515   0.64697   0.60633   0.73413
  50   39749.3    251.6   0.003764972   0.03118   0.07227  -0.01642   0.16028
  51   39858.7    250.9   0.132689891   1.09595  -0.14793   0.38030   0.96407
  52   40251.8    248.4   0.327220924   2.67628  -0.29625  -1.13859  -1.13672

FINAL SINGLE POINT ENERGY     -3548.661765824946

DIPOLE MOMENT
-------------
                                X             Y             Z
Electronic contribution:     13.40670      11.64909      -1.33299
Nuclear contribution   :    -17.23761     -13.17181       0.24196
                        -----------------------------------------
Total Dipole Moment    :     -3.83092      -1.52272      -1.09103
                        -----------------------------------------
Magnitude (a.u.)       :      4.26438
Magnitude (Debye)      :     10.83919

Rotational constants in cm-1:     0.001253     0.000354     0.000292
Rotational constants in MHz :    37.565288    10.616159     8.744415

                             ****ORCA TERMINATED NORMALLY****
TOTAL RUN TIME: 0 days 0 hours 9 minutes 45 seconds 281 msec
