                         Program Version 4.2.0 -  RELEASE  -
|  1> # ORCA input file
|  2> # SCF done       -194.325119827414          0.000820709847
|  3> ! CAM-B3LYP def2-SVP def2/J RIJCOSX Grid4 TightSCF
|  4> %maxcore 5000
|  5> %tddft
|  6>     Mode sTDDFT
|  7>     Ethresh 5.0
|  8>     maxcore 5000
|  9> end
| 10>
| 11> %pal
| 12>   nprocs 6
| 13>   end
| 14> * xyz 0 1
| 15>    C       -7.65013         6.71465        -7.04331
| 16>    C       -6.31471         6.77503        -7.34205
| 17>    C       -5.78607         7.50887        -8.42311
| 18>    N       -5.30690         8.10914        -9.27572
| 19>    C       -5.33675         6.03504        -6.64604
| 20>    N       -4.52751         5.41446        -6.11899
| 21>    C       -8.73194         7.20734        -7.88576
| 22>    C       -9.92832         6.51196        -7.53847
| 23>    C      -11.10234         6.73520        -8.19909
| 24>    C      -11.13466         7.68340        -9.24644
| 25>    C       -9.94532         8.39161        -9.58723
| 26>    C       -8.74238         8.13765        -8.88972
| 27>    C       -9.99288         9.33670       -10.63210
| 28>    C      -11.15705         9.56996       -11.31220
| 29>    C      -12.32708         8.87213       -10.97686
| 30>    C      -12.31627         7.94928        -9.96625
| 31>    C       -9.65559         5.59706        -6.41649
| 32>    O      -10.40353         4.80843        -5.88906
| 33>    C       -8.25099         5.90208        -6.00362
| 34>    C       -7.81539         5.51954        -4.77817
| 35>    C       -6.73003         6.02944        -4.01503
| 36>    S       -6.08678         7.63788        -4.23279
| 37>    C       -4.97618         7.44668        -2.91963
| 38>    C       -5.11481         6.17796        -2.34469
| 39>    C       -6.11520         5.40327        -2.95426
| 40>    C       -4.35417         5.70409        -1.26463
| 41>    N       -3.73896         5.31376        -0.37611
| 42>    C       -4.11481         8.52230        -2.58496
| 43>    C       -3.23954         8.50752        -1.55118
| 44>    C       -2.38793         9.57323        -1.17427
| 45>    S       -2.34931        11.10695        -2.00752
| 46>    C       -1.21157        11.73081        -0.91781
| 47>    C       -0.84008        10.82146         0.04120
| 48>    N        0.21896        11.11320         0.94924
| 49>    O        0.60627        12.26030         0.99643
| 50>    O        0.69010        10.19252         1.58621
| 51>    C       -1.52046         9.57201        -0.08475
| 52>    N       -1.35178         8.48501         0.74034
| 53>    C       -1.33114         8.55575         2.10433
| 54>    S       -1.94173         9.93222         2.95670
| 55>    C       -1.59116         9.16093         4.48785
| 56>    C       -1.06067         7.87839         4.28747
| 57>    C       -0.91429         7.53651         2.94626
| 58>    C       -0.35706         6.23033         2.46895
| 59>    C        0.39268         5.53718         3.60974
| 60>    N        0.70856         4.15008         3.15728
| 61>    O        0.08794         3.24951         3.66226
| 62>    O        1.53289         4.05039         2.28877
| 63>    C       -0.47035         5.52503         4.86164
| 64>    N        0.17659         4.73180         5.95142
| 65>    O       -0.55434         4.27786         6.78692
| 66>    O        1.37882         4.65769         5.92788
| 67>    C       -0.64453         6.95351         5.39081
| 68>    C       -1.77511         9.73276         5.75180
| 69>    C       -2.30544        10.94822         6.10516
| 70>    C       -2.45329        11.44915         7.45884
| 71>    C       -2.02366        10.85333         8.61753
| 72>    C       -2.20196        11.40634         9.90295
| 73>    N       -2.31688        11.79925        10.97558
| 74>    C       -1.34670         9.61962         8.69876
| 75>    N       -0.79425         8.62049         8.83008
| 76>    C       -3.14364        12.73300         7.37614
| 77>    C       -3.39210        13.02701         6.00404
| 78>    C       -2.86793        11.93222         5.17827
| 79>    O       -2.91205        11.85609         3.95886
| 80>    C       -4.03046        14.16767         5.61146
| 81>    C       -4.46399        15.08579         6.59412
| 82>    C       -4.22309        14.79934         7.96859
| 83>    C       -3.55492        13.61014         8.34358
| 84>    C       -4.66421        15.71922         8.94083
| 85>    C       -5.31308        16.86756         8.57508
| 86>    C       -5.54914        17.14885         7.22151
| 87>    C       -5.13293        16.27702         6.25180
| 88>    H      -11.99622         6.19329        -7.92822
| 89>    H       -7.85739         8.69300        -9.15937
| 90>    H       -9.08862         9.86867       -10.88876
| 91>    H      -11.18251        10.29315       -12.11338
| 92>    H      -13.23692         9.06920       -11.52356
| 93>    H      -13.21414         7.40905        -9.70433
| 94>    H       -8.42923         4.77810        -4.27490
| 95>    H       -6.35716         4.40203        -2.64403
| 96>    H       -4.18630         9.40267        -3.21022
| 97>    H       -3.18548         7.62586        -0.93103
| 98>    H       -0.82016        12.72373        -1.02515
| 99>    H       -1.49382         7.57137         0.32960
|100>    H        0.32563         6.39363         1.63222
|101>    H       -1.17437         5.58597         2.12238
|102>    H        1.34831         6.03780         3.79555
|103>    H       -1.44390         5.06351         4.66965
|104>    H        0.30582         7.30262         5.81076
|105>    H       -1.37797         6.94756         6.19988
|106>    H       -1.44635         9.10064         6.56454
|107>    H       -4.20451        14.36678         4.56442
|108>    H       -3.38972        13.42411         9.39268
|109>    H       -4.47972        15.49871         9.98191
|110>    H       -5.64788        17.56549         9.32767
|111>    H       -6.06241        18.05932         6.95051
|112>    H       -5.31168        16.48831         5.20760
|113> *
|114>
|115>                          ****END OF INPUT****

CARTESIAN COORDINATES (ANGSTROEM)
---------------------------------
  C     -7.650130    6.714650   -7.043310
  C     -6.314710    6.775030   -7.342050
  C     -5.786070    7.508870   -8.423110
  N     -5.306900    8.109140   -9.275720
  C     -5.336750    6.035040   -6.646040
  N     -4.527510    5.414460   -6.118990
  C     -8.731940    7.207340   -7.885760
  C     -9.928320    6.511960   -7.538470
  C    -11.102340    6.735200   -8.199090
  C    -11.134660    7.683400   -9.246440
  C     -9.945320    8.391610   -9.587230
  C     -8.742380    8.137650   -8.889720
  C     -9.992880    9.336700  -10.632100
  C    -11.157050    9.569960  -11.312200
  C    -12.327080    8.872130  -10.976860
  C    -12.316270    7.949280   -9.966250
  C     -9.655590    5.597060   -6.416490
  O    -10.403530    4.808430   -5.889060
  C     -8.250990    5.902080   -6.003620
  C     -7.815390    5.519540   -4.778170
  C     -6.730030    6.029440   -4.015030
  S     -6.086780    7.637880   -4.232790
  C     -4.976180    7.446680   -2.919630
  C     -5.114810    6.177960   -2.344690
  C     -6.115200    5.403270   -2.954260
  C     -4.354170    5.704090   -1.264630
  N     -3.738960    5.313760   -0.376110
  C     -4.114810    8.522300   -2.584960
  C     -3.239540    8.507520   -1.551180
  C     -2.387930    9.573230   -1.174270
  S     -2.349310   11.106950   -2.007520
  C     -1.211570   11.730810   -0.917810
  C     -0.840080   10.821460    0.041200
  N      0.218960   11.113200    0.949240
  O      0.606270   12.260300    0.996430
  O      0.690100   10.192520    1.586210
  C     -1.520460    9.572010   -0.084750
  N     -1.351780    8.485010    0.740340
  C     -1.331140    8.555750    2.104330
  S     -1.941730    9.932220    2.956700
  C     -1.591160    9.160930    4.487850
  C     -1.060670    7.878390    4.287470
  C     -0.914290    7.536510    2.946260
  C     -0.357060    6.230330    2.468950
  C      0.392680    5.537180    3.609740
  N      0.708560    4.150080    3.157280
  O      0.087940    3.249510    3.662260
  O      1.532890    4.050390    2.288770
  C     -0.470350    5.525030    4.861640
  N      0.176590    4.731800    5.951420
  O     -0.554340    4.277860    6.786920
  O      1.378820    4.657690    5.927880
  C     -0.644530    6.953510    5.390810
  C     -1.775110    9.732760    5.751800
  C     -2.305440   10.948220    6.105160
  C     -2.453290   11.449150    7.458840
  C     -2.023660   10.853330    8.617530
  C     -2.201960   11.406340    9.902950
  N     -2.316880   11.799250   10.975580
  C     -1.346700    9.619620    8.698760
  N     -0.794250    8.620490    8.830080
  C     -3.143640   12.733000    7.376140
  C     -3.392100   13.027010    6.004040
  C     -2.867930   11.932220    5.178270
  O     -2.912050   11.856090    3.958860
  C     -4.030460   14.167670    5.611460
  C     -4.463990   15.085790    6.594120
  C     -4.223090   14.799340    7.968590
  C     -3.554920   13.610140    8.343580
  C     -4.664210   15.719220    8.940830
  C     -5.313080   16.867560    8.575080
  C     -5.549140   17.148850    7.221510
  C     -5.132930   16.277020    6.251800
  H    -11.996220    6.193290   -7.928220
  H     -7.857390    8.693000   -9.159370
  H     -9.088620    9.868670  -10.888760
  H    -11.182510   10.293150  -12.113380
  H    -13.236920    9.069200  -11.523560
  H    -13.214140    7.409050   -9.704330
  H     -8.429230    4.778100   -4.274900
  H     -6.357160    4.402030   -2.644030
  H     -4.186300    9.402670   -3.210220
  H     -3.185480    7.625860   -0.931030
  H     -0.820160   12.723730   -1.025150
  H     -1.493820    7.571370    0.329600
  H      0.325630    6.393630    1.632220
  H     -1.174370    5.585970    2.122380
  H      1.348310    6.037800    3.795550
  H     -1.443900    5.063510    4.669650
  H      0.305820    7.302620    5.810760
  H     -1.377970    6.947560    6.199880
  H     -1.446350    9.100640    6.564540
  H     -4.204510   14.366780    4.564420
  H     -3.389720   13.424110    9.392680
  H     -4.479720   15.498710    9.981910
  H     -5.647880   17.565490    9.327670
  H     -6.062410   18.059320    6.950510
  H     -5.311680   16.488310    5.207600

 Total Charge           Charge          ....    0
 Multiplicity           Mult            ....    1
 Number of Electrons    NEL             ....  518
 Basis Dimension        Dim             .... 1159

ORBITAL ENERGIES
----------------

  NO   OCC          E(Eh)            E(eV)
   0   2.0000     -89.005874     -2421.9730
   1   2.0000     -88.997249     -2421.7383
   2   2.0000     -88.970405     -2421.0078
   3   2.0000     -19.256577      -523.9981
   4   2.0000     -19.254500      -523.9416
   5   2.0000     -19.253292      -523.9087
   6   2.0000     -19.251718      -523.8659
   7   2.0000     -19.246903      -523.7349
   8   2.0000     -19.246431      -523.7220
   9   2.0000     -19.225950      -523.1647
  10   2.0000     -19.219507      -522.9894
  11   2.0000     -14.665153      -399.0591
  12   2.0000     -14.651515      -398.6880
  13   2.0000     -14.646494      -398.5514
  14   2.0000     -14.488693      -394.2574
  15   2.0000     -14.434441      -392.7811
  16   2.0000     -14.427616      -392.5954
  17   2.0000     -14.425946      -392.5499
  18   2.0000     -14.414916      -392.2498
  19   2.0000     -14.408839      -392.0844
  20   2.0000     -10.377669      -282.3907
  21   2.0000     -10.371128      -282.2127
  22   2.0000     -10.367160      -282.1048
  23   2.0000     -10.359332      -281.8918
  24   2.0000     -10.358346      -281.8649
  25   2.0000     -10.356510      -281.8150
  26   2.0000     -10.355665      -281.7920
  27   2.0000     -10.354022      -281.7473
  28   2.0000     -10.351002      -281.6651
  29   2.0000     -10.348594      -281.5996
  30   2.0000     -10.346928      -281.5542
  31   2.0000     -10.341214      -281.3987
  32   2.0000     -10.339503      -281.3522
  33   2.0000     -10.337270      -281.2914
  34   2.0000     -10.337192      -281.2893
  35   2.0000     -10.336431      -281.2686
  36   2.0000     -10.336214      -281.2627
  37   2.0000     -10.335401      -281.2405
  38   2.0000     -10.329640      -281.0838
  39   2.0000     -10.327973      -281.0384
  40   2.0000     -10.327653      -281.0297
  41   2.0000     -10.324772      -280.9513
  42   2.0000     -10.322027      -280.8766
  43   2.0000     -10.321923      -280.8738
  44   2.0000     -10.318429      -280.7787
  45   2.0000     -10.315308      -280.6938
  46   2.0000     -10.314763      -280.6790
  47   2.0000     -10.314402      -280.6691
  48   2.0000     -10.312960      -280.6299
  49   2.0000     -10.312479      -280.6168
  50   2.0000     -10.312068      -280.6056
  51   2.0000     -10.310080      -280.5515
  52   2.0000     -10.307749      -280.4881
  53   2.0000     -10.307497      -280.4813
  54   2.0000     -10.307294      -280.4757
  55   2.0000     -10.307105      -280.4706
  56   2.0000     -10.300203      -280.2828
  57   2.0000     -10.300035      -280.2782
  58   2.0000     -10.297295      -280.2036
  59   2.0000     -10.296150      -280.1725
  60   2.0000     -10.295760      -280.1619
  61   2.0000     -10.295602      -280.1576
  62   2.0000     -10.295173      -280.1459
  63   2.0000     -10.294940      -280.1396
  64   2.0000     -10.294589      -280.1300
  65   2.0000     -10.294311      -280.1225
  66   2.0000     -10.294182      -280.1189
  67   2.0000     -10.292120      -280.0628
  68   2.0000     -10.287037      -279.9245
  69   2.0000     -10.285832      -279.8917
  70   2.0000     -10.285325      -279.8779
  71   2.0000     -10.284541      -279.8566
  72   2.0000     -10.284028      -279.8426
  73   2.0000      -8.101557      -220.4546
  74   2.0000      -8.092337      -220.2037
  75   2.0000      -8.063720      -219.4250
  76   2.0000      -6.070662      -165.1911
  77   2.0000      -6.066542      -165.0790
  78   2.0000      -6.063925      -165.0078
  79   2.0000      -6.061595      -164.9444
  80   2.0000      -6.057409      -164.8305
  81   2.0000      -6.054541      -164.7524
  82   2.0000      -6.033588      -164.1823
  83   2.0000      -6.028756      -164.0508
  84   2.0000      -6.025259      -163.9556
  85   2.0000      -1.338222       -36.4149
  86   2.0000      -1.336669       -36.3726
  87   2.0000      -1.328273       -36.1442
  88   2.0000      -1.157901       -31.5081
  89   2.0000      -1.157340       -31.4928
  90   2.0000      -1.152268       -31.3548
  91   2.0000      -1.141538       -31.0628
  92   2.0000      -1.134317       -30.8663
  93   2.0000      -1.099580       -29.9211
  94   2.0000      -1.038731       -28.2653
  95   2.0000      -1.031546       -28.0698
  96   2.0000      -1.028611       -27.9899
  97   2.0000      -1.015463       -27.6322
  98   2.0000      -1.012582       -27.5537
  99   2.0000      -1.009071       -27.4582
 100   2.0000      -1.006924       -27.3998
 101   2.0000      -1.004509       -27.3341
 102   2.0000      -0.997058       -27.1313
 103   2.0000      -0.990064       -26.9410
 104   2.0000      -0.982138       -26.7253
 105   2.0000      -0.976087       -26.5607
 106   2.0000      -0.968429       -26.3523
 107   2.0000      -0.952188       -25.9103
 108   2.0000      -0.936399       -25.4807
 109   2.0000      -0.924990       -25.1703
 110   2.0000      -0.924104       -25.1462
 111   2.0000      -0.914783       -24.8925
 112   2.0000      -0.909411       -24.7463
 113   2.0000      -0.899373       -24.4732
 114   2.0000      -0.894680       -24.3455
 115   2.0000      -0.891295       -24.2534
 116   2.0000      -0.887220       -24.1425
 117   2.0000      -0.883777       -24.0488
 118   2.0000      -0.879120       -23.9221
 119   2.0000      -0.876345       -23.8465
 120   2.0000      -0.864611       -23.5273
 121   2.0000      -0.846009       -23.0211
 122   2.0000      -0.838194       -22.8084
 123   2.0000      -0.830111       -22.5885
 124   2.0000      -0.826826       -22.4991
 125   2.0000      -0.807613       -21.9763
 126   2.0000      -0.802638       -21.8409
 127   2.0000      -0.788159       -21.4469
 128   2.0000      -0.784404       -21.3447
 129   2.0000      -0.771464       -20.9926
 130   2.0000      -0.766599       -20.8602
 131   2.0000      -0.763409       -20.7734
 132   2.0000      -0.760464       -20.6933
 133   2.0000      -0.733600       -19.9623
 134   2.0000      -0.732890       -19.9430
 135   2.0000      -0.723292       -19.6818
 136   2.0000      -0.713483       -19.4149
 137   2.0000      -0.710148       -19.3241
 138   2.0000      -0.708278       -19.2732
 139   2.0000      -0.703435       -19.1414
 140   2.0000      -0.698232       -18.9999
 141   2.0000      -0.697326       -18.9752
 142   2.0000      -0.687932       -18.7196
 143   2.0000      -0.684568       -18.6281
 144   2.0000      -0.677022       -18.4227
 145   2.0000      -0.671858       -18.2822
 146   2.0000      -0.671191       -18.2640
 147   2.0000      -0.664588       -18.0844
 148   2.0000      -0.654615       -17.8130
 149   2.0000      -0.651934       -17.7400
 150   2.0000      -0.648414       -17.6443
 151   2.0000      -0.646460       -17.5911
 152   2.0000      -0.643973       -17.5234
 153   2.0000      -0.642950       -17.4955
 154   2.0000      -0.638709       -17.3801
 155   2.0000      -0.634697       -17.2710
 156   2.0000      -0.624186       -16.9850
 157   2.0000      -0.619327       -16.8527
 158   2.0000      -0.617535       -16.8040
 159   2.0000      -0.613959       -16.7067
 160   2.0000      -0.606817       -16.5123
 161   2.0000      -0.605596       -16.4791
 162   2.0000      -0.604881       -16.4596
 163   2.0000      -0.603088       -16.4108
 164   2.0000      -0.601158       -16.3583
 165   2.0000      -0.598593       -16.2885
 166   2.0000      -0.587431       -15.9848
 167   2.0000      -0.585717       -15.9382
 168   2.0000      -0.580795       -15.8042
 169   2.0000      -0.570585       -15.5264
 170   2.0000      -0.564142       -15.3511
 171   2.0000      -0.559671       -15.2294
 172   2.0000      -0.556891       -15.1538
 173   2.0000      -0.556044       -15.1307
 174   2.0000      -0.554050       -15.0765
 175   2.0000      -0.553717       -15.0674
 176   2.0000      -0.547675       -14.9030
 177   2.0000      -0.546813       -14.8795
 178   2.0000      -0.543530       -14.7902
 179   2.0000      -0.543059       -14.7774
 180   2.0000      -0.541942       -14.7470
 181   2.0000      -0.537484       -14.6257
 182   2.0000      -0.536013       -14.5857
 183   2.0000      -0.531074       -14.4513
 184   2.0000      -0.529181       -14.3997
 185   2.0000      -0.527436       -14.3523
 186   2.0000      -0.526212       -14.3190
 187   2.0000      -0.525185       -14.2910
 188   2.0000      -0.522573       -14.2199
 189   2.0000      -0.518662       -14.1135
 190   2.0000      -0.518172       -14.1002
 191   2.0000      -0.516838       -14.0639
 192   2.0000      -0.512427       -13.9439
 193   2.0000      -0.511883       -13.9291
 194   2.0000      -0.510569       -13.8933
 195   2.0000      -0.508706       -13.8426
 196   2.0000      -0.503555       -13.7024
 197   2.0000      -0.495722       -13.4893
 198   2.0000      -0.495080       -13.4718
 199   2.0000      -0.494641       -13.4599
 200   2.0000      -0.489887       -13.3305
 201   2.0000      -0.488373       -13.2893
 202   2.0000      -0.484890       -13.1945
 203   2.0000      -0.476436       -12.9645
 204   2.0000      -0.475657       -12.9433
 205   2.0000      -0.470152       -12.7935
 206   2.0000      -0.468293       -12.7429
 207   2.0000      -0.466171       -12.6852
 208   2.0000      -0.464719       -12.6457
 209   2.0000      -0.464326       -12.6349
 210   2.0000      -0.459721       -12.5096
 211   2.0000      -0.458106       -12.4657
 212   2.0000      -0.456608       -12.4249
 213   2.0000      -0.454758       -12.3746
 214   2.0000      -0.449389       -12.2285
 215   2.0000      -0.447638       -12.1809
 216   2.0000      -0.446610       -12.1529
 217   2.0000      -0.443633       -12.0719
 218   2.0000      -0.442358       -12.0372
 219   2.0000      -0.440674       -11.9914
 220   2.0000      -0.440094       -11.9756
 221   2.0000      -0.438065       -11.9204
 222   2.0000      -0.437483       -11.9045
 223   2.0000      -0.433459       -11.7950
 224   2.0000      -0.432279       -11.7629
 225   2.0000      -0.428125       -11.6499
 226   2.0000      -0.427311       -11.6277
 227   2.0000      -0.424750       -11.5580
 228   2.0000      -0.423696       -11.5294
 229   2.0000      -0.420304       -11.4371
 230   2.0000      -0.411419       -11.1953
 231   2.0000      -0.409653       -11.1472
 232   2.0000      -0.404853       -11.0166
 233   2.0000      -0.402709       -10.9583
 234   2.0000      -0.399875       -10.8812
 235   2.0000      -0.392791       -10.6884
 236   2.0000      -0.392225       -10.6730
 237   2.0000      -0.389390       -10.5959
 238   2.0000      -0.385280       -10.4840
 239   2.0000      -0.383895       -10.4463
 240   2.0000      -0.382855       -10.4180
 241   2.0000      -0.379596       -10.3293
 242   2.0000      -0.378065       -10.2877
 243   2.0000      -0.377364       -10.2686
 244   2.0000      -0.377091       -10.2612
 245   2.0000      -0.372837       -10.1454
 246   2.0000      -0.365320        -9.9409
 247   2.0000      -0.356176        -9.6921
 248   2.0000      -0.349676        -9.5152
 249   2.0000      -0.345124        -9.3913
 250   2.0000      -0.336449        -9.1552
 251   2.0000      -0.331448        -9.0192
 252   2.0000      -0.329325        -8.9614
 253   2.0000      -0.325255        -8.8506
 254   2.0000      -0.315727        -8.5914
 255   2.0000      -0.304808        -8.2942
 256   2.0000      -0.294771        -8.0211
 257   2.0000      -0.287196        -7.8150
 258   2.0000      -0.262891        -7.1536
 259   0.0000      -0.113539        -3.0896
 260   0.0000      -0.089984        -2.4486
 261   0.0000      -0.077203        -2.1008
 262   0.0000      -0.064535        -1.7561
 263   0.0000      -0.059712        -1.6249

MULLIKEN ATOMIC CHARGES
-----------------------
   0 C :    0.249152
   1 C :   -0.322225
   2 C :   -0.174382
   3 N :    0.158421
   4 C :   -0.202710
   5 N :    0.174055
   6 C :    0.036727
   7 C :    0.008374
   8 C :   -0.074854
   9 C :    0.090775
  10 C :    0.093151
  11 C :   -0.076096
  12 C :   -0.015907
  13 C :    0.034859
  14 C :    0.036533
  15 C :   -0.011818
  16 C :    0.145653
  17 O :   -0.137385
  18 C :   -0.136585
  19 C :    0.062389
  20 C :   -0.096890
  21 S :    0.173311
  22 C :   -0.049866
  23 C :   -0.061859
  24 C :    0.074185
  25 C :   -0.158738
  26 N :    0.094479
  27 C :    0.033851
  28 C :   -0.001468
  29 C :   -0.156452
  30 S :    0.185792
  31 C :   -0.079154
  32 C :    0.113131
  33 N :    0.268326
  34 O :   -0.233756
  35 O :   -0.228205
  36 C :    0.109525
  37 N :   -0.031810
  38 C :   -0.065311
  39 S :    0.165215
  40 C :   -0.076008
  41 C :   -0.085816
  42 C :   -0.065242
  43 C :    0.203425
  44 C :   -0.000183
  45 N :    0.228462
  46 O :   -0.224159
  47 O :   -0.220169
  48 C :    0.030323
  49 N :    0.226374
  50 O :   -0.210425
  51 O :   -0.232475
  52 C :    0.199592
  53 C :   -0.056142
  54 C :   -0.102603
  55 C :    0.336151
  56 C :   -0.361861
  57 C :   -0.180032
  58 N :    0.142162
  59 C :   -0.180600
  60 N :    0.134832
  61 C :    0.044678
  62 C :    0.003067
  63 C :    0.172948
  64 O :   -0.199131
  65 C :   -0.088647
  66 C :    0.102480
  67 C :    0.099666
  68 C :   -0.089046
  69 C :   -0.022148
  70 C :    0.036967
  71 C :    0.038367
  72 C :   -0.020835
  73 H :   -0.009409
  74 H :   -0.005305
  75 H :   -0.010313
  76 H :   -0.000709
  77 H :   -0.002325
  78 H :   -0.014920
  79 H :    0.033661
  80 H :    0.010504
  81 H :   -0.006422
  82 H :   -0.021817
  83 H :    0.054330
  84 H :    0.161976
  85 H :    0.042188
  86 H :    0.043466
  87 H :    0.061932
  88 H :    0.045699
  89 H :    0.054713
  90 H :    0.062930
  91 H :   -0.009040
  92 H :   -0.017619
  93 H :   -0.008461
  94 H :   -0.008402
  95 H :   -0.005280
  96 H :   -0.007215
  97 H :   -0.020567
Sum of atomic charges:   -0.0000000

LOEWDIN ATOMIC CHARGES
----------------------
   0 C :    0.060367
   1 C :   -0.139426
   2 C :   -0.019692
   3 N :   -0.046077
   4 C :   -0.035940
   5 N :   -0.045557
   6 C :   -0.024233
   7 C :   -0.058305
   8 C :    0.035714
   9 C :   -0.008457
  10 C :   -0.004822
  11 C :    0.017057
  12 C :   -0.006070
  13 C :   -0.010488
  14 C :   -0.010679
  15 C :   -0.007743
  16 C :    0.084735
  17 O :   -0.137364
  18 C :   -0.088116
  19 C :    0.049412
  20 C :   -0.179550
  21 S :    0.495668
  22 C :   -0.113455
  23 C :   -0.114854
  24 C :    0.019131
  25 C :   -0.015353
  26 N :   -0.072869
  27 C :   -0.057484
  28 C :   -0.008459
  29 C :   -0.200208
  30 S :    0.498391
  31 C :   -0.127833
  32 C :   -0.090108
  33 N :    0.283414
  34 O :   -0.197413
  35 O :   -0.196603
  36 C :   -0.000854
  37 N :    0.030351
  38 C :   -0.102588
  39 S :    0.494144
  40 C :   -0.197066
  41 C :   -0.008330
  42 C :   -0.104341
  43 C :   -0.018767
  44 C :    0.006744
  45 N :    0.274547
  46 O :   -0.191922
  47 O :   -0.185486
  48 C :    0.006135
  49 N :    0.274947
  50 O :   -0.175971
  51 O :   -0.200945
  52 C :   -0.013739
  53 C :    0.055593
  54 C :   -0.118973
  55 C :    0.079472
  56 C :   -0.150355
  57 C :   -0.017727
  58 N :   -0.058995
  59 C :   -0.018382
  60 N :   -0.061243
  61 C :   -0.024060
  62 C :   -0.053666
  63 C :    0.087075
  64 O :   -0.181516
  65 C :    0.029592
  66 C :   -0.009418
  67 C :   -0.006614
  68 C :    0.019641
  69 C :   -0.005005
  70 C :   -0.014308
  71 C :   -0.013619
  72 C :   -0.010925
  73 H :    0.040619
  74 H :    0.038888
  75 H :    0.034610
  76 H :    0.034460
  77 H :    0.034009
  78 H :    0.032904
  79 H :    0.054622
  80 H :    0.047430
  81 H :    0.027116
  82 H :    0.035932
  83 H :    0.044851
  84 H :    0.096951
  85 H :    0.042858
  86 H :    0.042642
  87 H :    0.050087
  88 H :    0.044964
  89 H :    0.052593
  90 H :    0.050538
  91 H :    0.046826
  92 H :    0.037161
  93 H :    0.039247
  94 H :    0.034970
  95 H :    0.033018
  96 H :    0.032027
  97 H :    0.030524

  Mayer bond orders larger than 0.100000
B(  0-C ,  1-C ) :   1.6625 B(  0-C ,  6-C ) :   1.0060 B(  0-C , 18-C ) :   1.0219
B(  1-C ,  2-C ) :   1.1340 B(  1-C ,  4-C ) :   1.1532 B(  2-C ,  3-N ) :   2.9904
B(  4-C ,  5-N ) :   3.0177 B(  6-C ,  7-C ) :   1.2127 B(  6-C , 11-C ) :   1.4556
B(  7-C ,  8-C ) :   1.4744 B(  7-C , 16-C ) :   0.9221 B(  8-C ,  9-C ) :   1.1867
B(  8-C , 73-H ) :   1.0159 B(  9-C , 10-C ) :   1.2551 B(  9-C , 15-C ) :   1.2458
B( 10-C , 11-C ) :   1.2061 B( 10-C , 12-C ) :   1.2396 B( 11-C , 74-H ) :   0.9940
B( 12-C , 13-C ) :   1.4902 B( 12-C , 75-H ) :   0.9977 B( 13-C , 14-C ) :   1.2598
B( 13-C , 76-H ) :   0.9895 B( 14-C , 15-C ) :   1.4890 B( 14-C , 77-H ) :   0.9889
B( 15-C , 78-H ) :   0.9976 B( 16-C , 17-O ) :   2.2774 B( 16-C , 18-C ) :   0.9274
B( 18-C , 19-C ) :   1.6880 B( 19-C , 20-C ) :   1.0965 B( 19-C , 79-H ) :   0.9465
B( 20-C , 21-S ) :   1.1043 B( 20-C , 24-C ) :   1.4588 B( 21-S , 22-C ) :   1.1615
B( 22-C , 23-C ) :   1.4239 B( 22-C , 27-C ) :   1.1690 B( 23-C , 24-C ) :   1.2890
B( 23-C , 25-C ) :   1.1148 B( 24-C , 80-H ) :   1.0058 B( 25-C , 26-N ) :   2.9538
B( 27-C , 28-C ) :   1.6568 B( 27-C , 81-H ) :   0.9501 B( 28-C , 29-C ) :   1.1914
B( 28-C , 82-H ) :   0.9434 B( 29-C , 30-S ) :   1.1008 B( 29-C , 36-C ) :   1.4503
B( 30-S , 31-C ) :   1.2226 B( 31-C , 32-C ) :   1.5232 B( 31-C , 83-H ) :   0.9519
B( 32-C , 33-N ) :   0.9207 B( 32-C , 36-C ) :   1.2344 B( 33-N , 34-O ) :   1.5467
B( 33-N , 35-O ) :   1.5352 B( 34-O , 35-O ) :   0.2688 B( 36-C , 37-N ) :   1.1504
B( 37-N , 38-C ) :   1.1622 B( 37-N , 84-H ) :   0.8923 B( 38-C , 39-S ) :   1.1296
B( 38-C , 42-C ) :   1.4076 B( 39-S , 40-C ) :   1.0496 B( 39-S , 64-O ) :   0.1005
B( 40-C , 41-C ) :   1.3799 B( 40-C , 53-C ) :   1.3155 B( 41-C , 42-C ) :   1.4128
B( 41-C , 52-C ) :   1.0629 B( 42-C , 43-C ) :   1.0289 B( 43-C , 44-C ) :   1.0528
B( 43-C , 85-H ) :   0.9056 B( 43-C , 86-H ) :   0.8919 B( 44-C , 45-N ) :   0.8351
B( 44-C , 48-C ) :   0.9877 B( 44-C , 87-H ) :   0.9020 B( 45-N , 46-O ) :   1.5745
B( 45-N , 47-O ) :   1.5700 B( 46-O , 47-O ) :   0.2768 B( 48-C , 49-N ) :   0.8397
B( 48-C , 52-C ) :   1.0368 B( 48-C , 88-H ) :   0.9040 B( 49-N , 50-O ) :   1.5893
B( 49-N , 51-O ) :   1.5575 B( 50-O , 51-O ) :   0.2758 B( 52-C , 89-H ) :   0.8872
B( 52-C , 90-H ) :   0.8950 B( 53-C , 54-C ) :   1.4694 B( 53-C , 91-H ) :   0.9275
B( 54-C , 55-C ) :   1.0886 B( 54-C , 63-C ) :   0.9898 B( 55-C , 56-C ) :   1.6101
B( 55-C , 61-C ) :   0.9799 B( 56-C , 57-C ) :   1.1494 B( 56-C , 59-C ) :   1.1510
B( 57-C , 58-N ) :   2.9595 B( 59-C , 60-N ) :   2.9488 B( 61-C , 62-C ) :   1.2166
B( 61-C , 68-C ) :   1.4564 B( 62-C , 63-C ) :   0.9643 B( 62-C , 65-C ) :   1.4685
B( 63-C , 64-O ) :   2.0937 B( 65-C , 66-C ) :   1.1711 B( 65-C , 92-H ) :   1.0179
B( 66-C , 67-C ) :   1.2599 B( 66-C , 72-C ) :   1.2455 B( 67-C , 68-C ) :   1.1973
B( 67-C , 69-C ) :   1.2415 B( 68-C , 93-H ) :   0.9907 B( 69-C , 70-C ) :   1.4855
B( 69-C , 94-H ) :   0.9982 B( 70-C , 71-C ) :   1.2618 B( 70-C , 95-H ) :   0.9887
B( 71-C , 72-C ) :   1.4869 B( 71-C , 96-H ) :   0.9881 B( 72-C , 97-H ) :   0.9978

-----------------------------------------------------------------------------
         ABSORPTION SPECTRUM VIA TRANSITION ELECTRIC DIPOLE MOMENTS
-----------------------------------------------------------------------------
State   Energy  Wavelength   fosc         T2         TX        TY        TZ
        (cm-1)    (nm)                  (au**2)     (au)      (au)      (au)
-----------------------------------------------------------------------------
   0   18084.8    553.0   1.344931495  24.48289  -1.62806  -1.78736  -4.31713
   1   21626.7    462.4   0.273182509   4.15851  -1.46401   0.81647   1.16128
   2   22918.1    436.3   0.148043431   2.12660   0.30182   0.42218   1.36282
   3   24862.6    402.2   0.157124531   2.08053   0.24502   1.10247   0.89725
   4   25527.9    391.7   0.102210558   1.31812  -0.84860   0.14254  -0.76006
   5   26675.9    374.9   0.025975948   0.32057   0.03487  -0.51819   0.22546
   6   27281.6    366.5   0.063575837   0.76718   0.57655   0.62704   0.20394
   7   27726.9    360.7   0.078104627   0.92737   0.45077   0.84013   0.13545
   8   28246.5    354.0   0.257023519   2.99560   1.64657  -0.49491   0.19872
   9   29243.2    342.0   0.013137132   0.14789   0.05605  -0.00835   0.38037
  10   29265.6    341.7   0.099852140   1.12325   0.77403  -0.68272  -0.24088
  11   29925.1    334.2   0.026300448   0.28934  -0.13512  -0.50671   0.11969
  12   30177.8    331.4   0.145280593   1.58488  -1.22387  -0.29459  -0.01521
  13   30960.8    323.0   0.129363084   1.37554  -1.01924  -0.47712  -0.33021
  14   31519.6    317.3   0.040289329   0.42081  -0.26447  -0.19640  -0.55883
  15   31648.9    316.0   0.121164665   1.26036  -0.35729   1.06179   0.07290
  16   32382.5    308.8   0.047116960   0.47901  -0.44639  -0.42708  -0.31201
  17   32947.3    303.5   0.180915915   1.80772   1.16067  -0.60940   0.29866
  18   33355.3    299.8   0.085810365   0.84694  -0.84894   0.30752  -0.17798
  19   33605.1    297.6   0.531181447   5.20371   1.86827  -0.62232   1.15151
  20   34046.0    293.7   0.236456524   2.28644  -0.57528   1.36723   0.29357
  21   34146.4    292.9   0.030350011   0.29261  -0.30639   0.36046  -0.26230
  22   34373.2    290.9   0.500815634   4.79660  -0.51056   1.86687  -1.02504
  23   34489.9    289.9   0.005439097   0.05192  -0.11317   0.09852  -0.17147
  24   34871.0    286.8   0.002892339   0.02731  -0.02858  -0.05852  -0.15187
  25   35876.3    278.7   0.186046604   1.70722   0.29274  -1.05167   0.71799
  26   36173.8    276.4   0.000963804   0.00877   0.01277  -0.05909   0.07153
  27   36414.9    274.6   0.044468943   0.40203  -0.13407   0.29717   0.54382
  28   36513.5    273.9   0.069293956   0.62477   0.33105  -0.63530   0.33403
  29   36583.5    273.3   0.256030181   2.30400  -0.64290   1.09315  -0.83409
  30   37035.8    270.0   0.004404068   0.03915  -0.03278  -0.17459  -0.08714
  31   37208.0    268.8   0.172905930   1.52985  -0.12101   0.69926  -1.01304
  32   37541.9    266.4   0.072447314   0.63530   0.17735  -0.76534  -0.13453
  33   37973.4    263.3   0.024802516   0.21503   0.04755  -0.08077   0.45414
  34   38421.7    260.3   0.053289204   0.45660   0.25044  -0.49613  -0.38437
  35   38786.8    257.8   0.101298773   0.85980  -0.30700  -0.29383   0.82414
  36   39041.6    256.1   0.249352258   2.10262  -1.04528  -0.40409  -0.92018
  37   39103.2    255.7   0.025633999   0.21581  -0.33633  -0.13655  -0.28991
  38   39288.1    254.5   0.153793704   1.28871  -0.63230  -0.15875   0.92936
  39   39556.8    252.8   0.024763960   0.20610  -0.04296   0.16528   0.42064
  40   39755.5    251.5   0.008258248   0.06839   0.18663   0.12248  -0.13622
  41   40177.8    248.9   0.140107550   1.14803  -0.23348   0.75376   0.72482

FINAL SINGLE POINT ENERGY     -4319.215528477457

DIPOLE MOMENT
-------------
                                X             Y             Z
Electronic contribution:     18.48220     -12.90020      -0.18379
Nuclear contribution   :    -23.22310      16.99296      -4.58296
                        -----------------------------------------
Total Dipole Moment    :     -4.74090       4.09276      -4.76674
                        -----------------------------------------
Magnitude (a.u.)       :      7.87075
Magnitude (Debye)      :     20.00584

Rotational constants in cm-1:     0.001182     0.000333     0.000288
Rotational constants in MHz :    35.439456     9.973488     8.643064

                             ****ORCA TERMINATED NORMALLY****
TOTAL RUN TIME: 0 days 0 hours 9 minutes 35 seconds 928 msec
