                         Program Version 4.2.0 -  RELEASE  -
|  1> # ORCA input file
|  2> # SCF done       -146.739678883224          0.000775642078
|  3> ! CAM-B3LYP def2-SVP def2/J RIJCOSX Grid4 TightSCF
|  4> %maxcore 5000
|  5> %tddft
|  6>     Mode sTDDFT
|  7>     Ethresh 5.0
|  8>     maxcore 5000
|  9> end
| 10>
| 11> %pal
| 12>   nprocs 6
| 13>   end
| 14> * xyz 0 1
| 15>    C       -4.03219        -3.48599        -4.03940
| 16>    S       -4.40672        -2.89552        -5.65493
| 17>    C       -5.70737        -1.83508        -5.04269
| 18>    O       -6.38429        -1.12332        -5.72248
| 19>    N       -5.78588        -1.98252        -3.68642
| 20>    C       -4.91971        -2.85849        -3.05604
| 21>    O       -4.94201        -3.03516        -1.85835
| 22>    C       -6.76568        -1.22511        -2.93653
| 23>    C       -3.02698        -4.38769        -3.88370
| 24>    C       -2.50697        -5.02905        -2.73267
| 25>    S       -1.14966        -6.11005        -2.99040
| 26>    C       -1.05775        -6.49183        -1.30693
| 27>    C       -2.04986        -5.80148        -0.59602
| 28>    C       -2.85546        -4.98539        -1.39681
| 29>    C       -2.19352        -5.94064         0.79564
| 30>    N       -2.28681        -6.07886         1.93049
| 31>    C       -0.10593        -7.37220        -0.74009
| 32>    C        0.84332        -8.01454        -1.46919
| 33>    C        1.86927        -8.89844        -1.05652
| 34>    N        2.20533        -9.35967         0.19930
| 35>    C        1.53712        -9.12523         1.45756
| 36>    C        0.25943        -9.95023         1.59028
| 37>    C        3.32646       -10.20961         0.15756
| 38>    O        3.80896       -10.73374         1.14340
| 39>    C        3.69948       -10.25932        -1.23686
| 40>    C        2.78583        -9.44834        -1.95007
| 41>    C        3.15302        -9.47207        -3.34843
| 42>    O        2.67078        -8.94643        -4.32832
| 43>    N        4.28894       -10.31059        -3.38699
| 44>    C        4.97634       -10.58265        -4.62691
| 45>    C        6.23324        -9.72999        -4.78516
| 46>    C        4.62505       -10.77480        -2.13934
| 47>    C        5.73887       -11.62595        -1.89579
| 48>    C        6.03594       -12.10966        -0.67072
| 49>    C        7.15034       -12.96516        -0.38199
| 50>    C        7.66678       -13.21122         0.87404
| 51>    O        8.73726       -13.99252         0.81884
| 52>    C        8.95744       -14.28003        -0.47859
| 53>    N        9.99223       -15.19226        -0.77816
| 54>    O       10.11719       -15.51368        -1.94785
| 55>    O       10.67399       -15.59364         0.13948
| 56>    C        8.00546       -13.68023        -1.28985
| 57>    C        7.83507       -13.75743        -2.71442
| 58>    C        8.77788       -13.61232        -3.66266
| 59>    S       10.47636       -13.30461        -3.45674
| 60>    C       10.73246       -13.25947        -5.23324
| 61>    O       11.78588       -13.06609        -5.75775
| 62>    N        9.53458       -13.46695        -5.86965
| 63>    C        8.41182       -13.63616        -5.09541
| 64>    O        7.29071       -13.75037        -5.52849
| 65>    C        9.47483       -13.48144        -7.31615
| 66>    H       -6.58273        -0.15771        -3.05824
| 67>    H       -6.66458        -1.50839        -1.89047
| 68>    H       -7.76777        -1.45600        -3.29673
| 69>    H       -2.52503        -4.66987        -4.80285
| 70>    H       -3.66132        -4.38421        -1.01849
| 71>    H       -0.19092        -7.49384         0.32915
| 72>    H        0.85734        -7.84268        -2.54025
| 73>    H        1.34028        -8.05730         1.57860
| 74>    H        2.24761        -9.43408         2.23046
| 75>    H       -0.42657        -9.75240         0.76978
| 76>    H       -0.23715        -9.70897         2.52581
| 77>    H        0.50243       -11.00999         1.58710
| 78>    H        4.26826       -10.33501        -5.42270
| 79>    H        5.21966       -11.64684        -4.69256
| 80>    H        5.97077        -8.67494        -4.77860
| 81>    H        6.71315        -9.96337        -5.73149
| 82>    H        6.94014        -9.91494        -3.97885
| 83>    H        6.36673       -11.86089        -2.74107
| 84>    H        5.43110       -11.82356         0.17984
| 85>    H        7.34308       -12.86676         1.83729
| 86>    H        6.82113       -13.91371        -3.06550
| 87>    H        9.90269       -12.56134        -7.71315
| 88>    H        8.42701       -13.56689        -7.59800
| 89>    H       10.03810       -14.33002        -7.70411
| 90> *
| 91>
| 92>                          ****END OF INPUT****

CARTESIAN COORDINATES (ANGSTROEM)
---------------------------------
  C     -4.032190   -3.485990   -4.039400
  S     -4.406720   -2.895520   -5.654930
  C     -5.707370   -1.835080   -5.042690
  O     -6.384290   -1.123320   -5.722480
  N     -5.785880   -1.982520   -3.686420
  C     -4.919710   -2.858490   -3.056040
  O     -4.942010   -3.035160   -1.858350
  C     -6.765680   -1.225110   -2.936530
  C     -3.026980   -4.387690   -3.883700
  C     -2.506970   -5.029050   -2.732670
  S     -1.149660   -6.110050   -2.990400
  C     -1.057750   -6.491830   -1.306930
  C     -2.049860   -5.801480   -0.596020
  C     -2.855460   -4.985390   -1.396810
  C     -2.193520   -5.940640    0.795640
  N     -2.286810   -6.078860    1.930490
  C     -0.105930   -7.372200   -0.740090
  C      0.843320   -8.014540   -1.469190
  C      1.869270   -8.898440   -1.056520
  N      2.205330   -9.359670    0.199300
  C      1.537120   -9.125230    1.457560
  C      0.259430   -9.950230    1.590280
  C      3.326460  -10.209610    0.157560
  O      3.808960  -10.733740    1.143400
  C      3.699480  -10.259320   -1.236860
  C      2.785830   -9.448340   -1.950070
  C      3.153020   -9.472070   -3.348430
  O      2.670780   -8.946430   -4.328320
  N      4.288940  -10.310590   -3.386990
  C      4.976340  -10.582650   -4.626910
  C      6.233240   -9.729990   -4.785160
  C      4.625050  -10.774800   -2.139340
  C      5.738870  -11.625950   -1.895790
  C      6.035940  -12.109660   -0.670720
  C      7.150340  -12.965160   -0.381990
  C      7.666780  -13.211220    0.874040
  O      8.737260  -13.992520    0.818840
  C      8.957440  -14.280030   -0.478590
  N      9.992230  -15.192260   -0.778160
  O     10.117190  -15.513680   -1.947850
  O     10.673990  -15.593640    0.139480
  C      8.005460  -13.680230   -1.289850
  C      7.835070  -13.757430   -2.714420
  C      8.777880  -13.612320   -3.662660
  S     10.476360  -13.304610   -3.456740
  C     10.732460  -13.259470   -5.233240
  O     11.785880  -13.066090   -5.757750
  N      9.534580  -13.466950   -5.869650
  C      8.411820  -13.636160   -5.095410
  O      7.290710  -13.750370   -5.528490
  C      9.474830  -13.481440   -7.316150
  H     -6.582730   -0.157710   -3.058240
  H     -6.664580   -1.508390   -1.890470
  H     -7.767770   -1.456000   -3.296730
  H     -2.525030   -4.669870   -4.802850
  H     -3.661320   -4.384210   -1.018490
  H     -0.190920   -7.493840    0.329150
  H      0.857340   -7.842680   -2.540250
  H      1.340280   -8.057300    1.578600
  H      2.247610   -9.434080    2.230460
  H     -0.426570   -9.752400    0.769780
  H     -0.237150   -9.708970    2.525810
  H      0.502430  -11.009990    1.587100
  H      4.268260  -10.335010   -5.422700
  H      5.219660  -11.646840   -4.692560
  H      5.970770   -8.674940   -4.778600
  H      6.713150   -9.963370   -5.731490
  H      6.940140   -9.914940   -3.978850
  H      6.366730  -11.860890   -2.741070
  H      5.431100  -11.823560    0.179840
  H      7.343080  -12.866760    1.837290
  H      6.821130  -13.913710   -3.065500
  H      9.902690  -12.561340   -7.713150
  H      8.427010  -13.566890   -7.598000
  H     10.038100  -14.330020   -7.704110

 Total Charge           Charge          ....    0
 Multiplicity           Mult            ....    1
 Number of Electrons    NEL             ....  384
 Basis Dimension        Dim             ....  846

ORBITAL ENERGIES
----------------

  NO   OCC          E(Eh)            E(eV)
   0   2.0000     -88.982692     -2421.3421
   1   2.0000     -88.966903     -2420.9125
   2   2.0000     -88.957925     -2420.6682
   3   2.0000     -19.339460      -526.2535
   4   2.0000     -19.252444      -523.8856
   5   2.0000     -19.249364      -523.8018
   6   2.0000     -19.230489      -523.2882
   7   2.0000     -19.228859      -523.2439
   8   2.0000     -19.223226      -523.0906
   9   2.0000     -19.220782      -523.0241
  10   2.0000     -19.200663      -522.4766
  11   2.0000     -19.197503      -522.3906
  12   2.0000     -14.663717      -399.0200
  13   2.0000     -14.484773      -394.1507
  14   2.0000     -14.477713      -393.9586
  15   2.0000     -14.462094      -393.5336
  16   2.0000     -14.460192      -393.4818
  17   2.0000     -14.412366      -392.1804
  18   2.0000     -10.423751      -283.6447
  19   2.0000     -10.415829      -283.4291
  20   2.0000     -10.414556      -283.3945
  21   2.0000     -10.410800      -283.2923
  22   2.0000     -10.397261      -282.9239
  23   2.0000     -10.383340      -282.5451
  24   2.0000     -10.380689      -282.4729
  25   2.0000     -10.371197      -282.2146
  26   2.0000     -10.351931      -281.6904
  27   2.0000     -10.344727      -281.4943
  28   2.0000     -10.338616      -281.3281
  29   2.0000     -10.337707      -281.3033
  30   2.0000     -10.336653      -281.2746
  31   2.0000     -10.331715      -281.1403
  32   2.0000     -10.329072      -281.0683
  33   2.0000     -10.327082      -281.0142
  34   2.0000     -10.322260      -280.8830
  35   2.0000     -10.322242      -280.8825
  36   2.0000     -10.320274      -280.8289
  37   2.0000     -10.317050      -280.7412
  38   2.0000     -10.313280      -280.6386
  39   2.0000     -10.313049      -280.6323
  40   2.0000     -10.312733      -280.6237
  41   2.0000     -10.311599      -280.5929
  42   2.0000     -10.310399      -280.5602
  43   2.0000     -10.309400      -280.5330
  44   2.0000     -10.307062      -280.4694
  45   2.0000     -10.303357      -280.3686
  46   2.0000     -10.298602      -280.2392
  47   2.0000     -10.271936      -279.5136
  48   2.0000     -10.270463      -279.4735
  49   2.0000     -10.267757      -279.3999
  50   2.0000     -10.264508      -279.3115
  51   2.0000      -8.078131      -219.8171
  52   2.0000      -8.064073      -219.4346
  53   2.0000      -8.055770      -219.2086
  54   2.0000      -6.047208      -164.5529
  55   2.0000      -6.043274      -164.4458
  56   2.0000      -6.040423      -164.3683
  57   2.0000      -6.033588      -164.1823
  58   2.0000      -6.029940      -164.0830
  59   2.0000      -6.025357      -163.9583
  60   2.0000      -6.024547      -163.9363
  61   2.0000      -6.021825      -163.8622
  62   2.0000      -6.016005      -163.7038
  63   2.0000      -1.335999       -36.3544
  64   2.0000      -1.261376       -34.3238
  65   2.0000      -1.182706       -32.1831
  66   2.0000      -1.175465       -31.9860
  67   2.0000      -1.158249       -31.5176
  68   2.0000      -1.152346       -31.3569
  69   2.0000      -1.151107       -31.3232
  70   2.0000      -1.141423       -31.0597
  71   2.0000      -1.134301       -30.8659
  72   2.0000      -1.071809       -29.1654
  73   2.0000      -1.070220       -29.1222
  74   2.0000      -1.062248       -28.9052
  75   2.0000      -1.061618       -28.8881
  76   2.0000      -1.019553       -27.7434
  77   2.0000      -0.991633       -26.9837
  78   2.0000      -0.979846       -26.6630
  79   2.0000      -0.955467       -25.9996
  80   2.0000      -0.951248       -25.8848
  81   2.0000      -0.939432       -25.5633
  82   2.0000      -0.935350       -25.4522
  83   2.0000      -0.923757       -25.1367
  84   2.0000      -0.904070       -24.6010
  85   2.0000      -0.891582       -24.2612
  86   2.0000      -0.877935       -23.8898
  87   2.0000      -0.868260       -23.6266
  88   2.0000      -0.863255       -23.4904
  89   2.0000      -0.841530       -22.8992
  90   2.0000      -0.826058       -22.4782
  91   2.0000      -0.820990       -22.3403
  92   2.0000      -0.818596       -22.2751
  93   2.0000      -0.812153       -22.0998
  94   2.0000      -0.803713       -21.8701
  95   2.0000      -0.789966       -21.4961
  96   2.0000      -0.777671       -21.1615
  97   2.0000      -0.769495       -20.9390
  98   2.0000      -0.766092       -20.8464
  99   2.0000      -0.742675       -20.2092
 100   2.0000      -0.729161       -19.8415
 101   2.0000      -0.725342       -19.7376
 102   2.0000      -0.719239       -19.5715
 103   2.0000      -0.710427       -19.3317
 104   2.0000      -0.699729       -19.0406
 105   2.0000      -0.686206       -18.6726
 106   2.0000      -0.675394       -18.3784
 107   2.0000      -0.669125       -18.2078
 108   2.0000      -0.660817       -17.9818
 109   2.0000      -0.655542       -17.8382
 110   2.0000      -0.654096       -17.7989
 111   2.0000      -0.644864       -17.5476
 112   2.0000      -0.638653       -17.3786
 113   2.0000      -0.632859       -17.2210
 114   2.0000      -0.614275       -16.7153
 115   2.0000      -0.611654       -16.6439
 116   2.0000      -0.602844       -16.4042
 117   2.0000      -0.598367       -16.2824
 118   2.0000      -0.595464       -16.2034
 119   2.0000      -0.591752       -16.1024
 120   2.0000      -0.591334       -16.0910
 121   2.0000      -0.588122       -16.0036
 122   2.0000      -0.586472       -15.9587
 123   2.0000      -0.585807       -15.9406
 124   2.0000      -0.580789       -15.8041
 125   2.0000      -0.576945       -15.6995
 126   2.0000      -0.571834       -15.5604
 127   2.0000      -0.567591       -15.4449
 128   2.0000      -0.567172       -15.4335
 129   2.0000      -0.550661       -14.9842
 130   2.0000      -0.548182       -14.9168
 131   2.0000      -0.545114       -14.8333
 132   2.0000      -0.538617       -14.6565
 133   2.0000      -0.537235       -14.6189
 134   2.0000      -0.535959       -14.5842
 135   2.0000      -0.535181       -14.5630
 136   2.0000      -0.527448       -14.3526
 137   2.0000      -0.524590       -14.2748
 138   2.0000      -0.522498       -14.2179
 139   2.0000      -0.520666       -14.1681
 140   2.0000      -0.515801       -14.0357
 141   2.0000      -0.511829       -13.9276
 142   2.0000      -0.511534       -13.9195
 143   2.0000      -0.509098       -13.8533
 144   2.0000      -0.505621       -13.7587
 145   2.0000      -0.503620       -13.7042
 146   2.0000      -0.502087       -13.6625
 147   2.0000      -0.496581       -13.5126
 148   2.0000      -0.495067       -13.4714
 149   2.0000      -0.494800       -13.4642
 150   2.0000      -0.492846       -13.4110
 151   2.0000      -0.487506       -13.2657
 152   2.0000      -0.481462       -13.1012
 153   2.0000      -0.473491       -12.8844
 154   2.0000      -0.472741       -12.8639
 155   2.0000      -0.469630       -12.7793
 156   2.0000      -0.465681       -12.6718
 157   2.0000      -0.461319       -12.5531
 158   2.0000      -0.460371       -12.5273
 159   2.0000      -0.454972       -12.3804
 160   2.0000      -0.454301       -12.3622
 161   2.0000      -0.450962       -12.2713
 162   2.0000      -0.449747       -12.2382
 163   2.0000      -0.446518       -12.1504
 164   2.0000      -0.444155       -12.0861
 165   2.0000      -0.437191       -11.8966
 166   2.0000      -0.435627       -11.8540
 167   2.0000      -0.431982       -11.7548
 168   2.0000      -0.427105       -11.6221
 169   2.0000      -0.419708       -11.4208
 170   2.0000      -0.416150       -11.3240
 171   2.0000      -0.413516       -11.2523
 172   2.0000      -0.398151       -10.8342
 173   2.0000      -0.395976       -10.7751
 174   2.0000      -0.390754       -10.6330
 175   2.0000      -0.386131       -10.5071
 176   2.0000      -0.379069       -10.3150
 177   2.0000      -0.376554       -10.2465
 178   2.0000      -0.372330       -10.1316
 179   2.0000      -0.363725        -9.8975
 180   2.0000      -0.362023        -9.8512
 181   2.0000      -0.356759        -9.7079
 182   2.0000      -0.355880        -9.6840
 183   2.0000      -0.354252        -9.6397
 184   2.0000      -0.341676        -9.2975
 185   2.0000      -0.340143        -9.2558
 186   2.0000      -0.337295        -9.1783
 187   2.0000      -0.328547        -8.9402
 188   2.0000      -0.323193        -8.7945
 189   2.0000      -0.312700        -8.5090
 190   2.0000      -0.288109        -7.8399
 191   2.0000      -0.243900        -6.6369
 192   0.0000      -0.103881        -2.8267
 193   0.0000      -0.077594        -2.1114
 194   0.0000      -0.061972        -1.6863
 195   0.0000      -0.034014        -0.9256
 196   0.0000      -0.028689        -0.7807

MULLIKEN ATOMIC CHARGES
-----------------------
   0 C :   -0.206613
   1 S :    0.053740
   2 C :    0.140060
   3 O :   -0.173107
   4 N :   -0.270707
   5 C :    0.259758
   6 O :   -0.187156
   7 C :    0.121903
   8 C :    0.117401
   9 C :   -0.104883
  10 S :    0.151325
  11 C :   -0.039739
  12 C :   -0.067862
  13 C :    0.034510
  14 C :   -0.181337
  15 N :    0.127661
  16 C :   -0.002525
  17 C :   -0.039134
  18 C :    0.112187
  19 N :   -0.263966
  20 C :    0.097234
  21 C :   -0.001296
  22 C :    0.160817
  23 O :   -0.217026
  24 C :   -0.063162
  25 C :   -0.034332
  26 C :    0.150015
  27 O :   -0.184850
  28 N :   -0.263389
  29 C :    0.096014
  30 C :   -0.000250
  31 C :    0.137308
  32 C :   -0.040736
  33 C :    0.021506
  34 C :    0.051680
  35 C :    0.121137
  36 O :   -0.124055
  37 C :    0.136188
  38 N :    0.275380
  39 O :   -0.244914
  40 O :   -0.232796
  41 C :    0.008835
  42 C :   -0.049685
  43 C :   -0.130594
  44 S :    0.102851
  45 C :    0.137054
  46 O :   -0.162603
  47 N :   -0.262354
  48 C :    0.221267
  49 O :   -0.180947
  50 C :    0.122819
  51 H :    0.049728
  52 H :    0.060626
  53 H :    0.048885
  54 H :    0.007430
  55 H :    0.022602
  56 H :    0.010425
  57 H :    0.013791
  58 H :    0.032113
  59 H :    0.043365
  60 H :    0.022541
  61 H :    0.032131
  62 H :    0.026498
  63 H :    0.043441
  64 H :    0.035772
  65 H :    0.030343
  66 H :    0.024146
  67 H :    0.015420
  68 H :   -0.015802
  69 H :    0.016457
  70 H :    0.039044
  71 H :    0.051749
  72 H :    0.049638
  73 H :    0.057913
  74 H :    0.053113
Sum of atomic charges:   -0.0000000

LOEWDIN ATOMIC CHARGES
----------------------
   0 C :   -0.202661
   1 S :    0.334041
   2 C :   -0.052643
   3 O :   -0.162562
   4 N :   -0.043270
   5 C :    0.076132
   6 O :   -0.165516
   7 C :    0.041170
   8 C :   -0.017400
   9 C :   -0.170045
  10 S :    0.470796
  11 C :   -0.133378
  12 C :   -0.105029
  13 C :    0.000059
  14 C :   -0.030711
  15 N :   -0.055005
  16 C :   -0.032260
  17 C :   -0.018373
  18 C :    0.062096
  19 N :   -0.001347
  20 C :    0.035089
  21 C :   -0.062318
  22 C :    0.081064
  23 O :   -0.207726
  24 C :   -0.129904
  25 C :   -0.103105
  26 C :    0.081227
  27 O :   -0.188429
  28 N :   -0.001624
  29 C :    0.035576
  30 C :   -0.061301
  31 C :    0.087734
  32 C :   -0.048597
  33 C :    0.036742
  34 C :   -0.066047
  35 C :    0.091584
  36 O :    0.062445
  37 C :    0.000274
  38 N :    0.267176
  39 O :   -0.210093
  40 O :   -0.194491
  41 C :   -0.028384
  42 C :   -0.016344
  43 C :   -0.184814
  44 S :    0.373655
  45 C :   -0.044313
  46 O :   -0.150131
  47 N :   -0.043971
  48 C :    0.072337
  49 O :   -0.170112
  50 C :    0.043182
  51 H :    0.035796
  52 H :    0.038852
  53 H :    0.035733
  54 H :    0.038385
  55 H :    0.041145
  56 H :    0.040893
  57 H :    0.040334
  58 H :    0.023990
  59 H :    0.037799
  60 H :    0.022480
  61 H :    0.035295
  62 H :    0.031571
  63 H :    0.038839
  64 H :    0.026517
  65 H :    0.032368
  66 H :    0.031247
  67 H :    0.020627
  68 H :    0.031125
  69 H :    0.041990
  70 H :    0.040410
  71 H :    0.051554
  72 H :    0.036141
  73 H :    0.039068
  74 H :    0.037365

  Mayer bond orders larger than 0.100000
B(  0-C ,  1-S ) :   1.0383 B(  0-C ,  5-C ) :   0.9478 B(  0-C ,  8-C ) :   1.7405
B(  1-S ,  2-C ) :   0.9911 B(  2-C ,  3-O ) :   2.1377 B(  2-C ,  4-N ) :   1.0602
B(  4-N ,  5-C ) :   1.0835 B(  4-N ,  7-C ) :   0.9277 B(  5-C ,  6-O ) :   2.0711
B(  7-C , 51-H ) :   0.9772 B(  7-C , 52-H ) :   0.9580 B(  7-C , 53-H ) :   0.9766
B(  8-C ,  9-C ) :   1.1668 B(  8-C , 54-H ) :   0.9258 B(  9-C , 10-S ) :   1.1009
B(  9-C , 13-C ) :   1.4736 B( 10-S , 11-C ) :   1.1450 B( 11-C , 12-C ) :   1.4118
B( 11-C , 16-C ) :   1.2010 B( 12-C , 13-C ) :   1.2741 B( 12-C , 14-C ) :   1.1034
B( 13-C , 55-H ) :   0.9828 B( 14-C , 15-N ) :   3.0091 B( 16-C , 17-C ) :   1.5504
B( 16-C , 56-H ) :   0.9620 B( 17-C , 18-C ) :   1.1960 B( 17-C , 57-H ) :   0.9479
B( 18-C , 19-N ) :   1.1588 B( 18-C , 25-C ) :   1.3531 B( 19-N , 20-C ) :   0.9381
B( 19-N , 22-C ) :   1.0686 B( 20-C , 21-C ) :   1.1153 B( 20-C , 58-H ) :   0.9508
B( 20-C , 59-H ) :   0.9236 B( 21-C , 60-H ) :   0.9688 B( 21-C , 61-H ) :   0.9687
B( 21-C , 62-H ) :   0.9616 B( 22-C , 23-O ) :   2.0170 B( 22-C , 24-C ) :   0.9915
B( 23-O , 69-H ) :   0.1141 B( 24-C , 25-C ) :   1.2399 B( 24-C , 31-C ) :   1.3324
B( 25-C , 26-C ) :   0.9730 B( 26-C , 27-O ) :   2.1351 B( 26-C , 28-N ) :   1.0288
B( 28-N , 29-C ) :   0.9374 B( 28-N , 31-C ) :   1.1819 B( 29-C , 30-C ) :   1.1177
B( 29-C , 63-H ) :   0.9276 B( 29-C , 64-H ) :   0.9470 B( 30-C , 65-H ) :   0.9629
B( 30-C , 66-H ) :   0.9683 B( 30-C , 67-H ) :   0.9692 B( 31-C , 32-C ) :   1.1453
B( 32-C , 33-C ) :   1.6450 B( 32-C , 68-H ) :   0.9501 B( 33-C , 34-C ) :   1.0896
B( 33-C , 69-H ) :   0.9438 B( 34-C , 35-C ) :   1.4399 B( 34-C , 41-C ) :   1.2291
B( 35-C , 36-O ) :   1.1865 B( 35-C , 70-H ) :   1.0073 B( 36-O , 37-C ) :   1.1752
B( 37-C , 38-N ) :   0.9520 B( 37-C , 41-C ) :   1.4614 B( 38-N , 39-O ) :   1.4931
B( 38-N , 40-O ) :   1.4994 B( 39-O , 40-O ) :   0.2675 B( 41-C , 42-C ) :   1.0302
B( 42-C , 43-C ) :   1.8225 B( 42-C , 71-H ) :   0.9263 B( 43-C , 44-S ) :   1.0573
B( 43-C , 48-C ) :   0.9275 B( 44-S , 45-C ) :   0.9887 B( 45-C , 46-O ) :   2.1520
B( 45-C , 47-N ) :   1.0434 B( 47-N , 48-C ) :   1.0952 B( 47-N , 50-C ) :   0.9262
B( 48-C , 49-O ) :   2.1431 B( 50-C , 72-H ) :   0.9753 B( 50-C , 73-H ) :   0.9604
B( 50-C , 74-H ) :   0.9783

-----------------------------------------------------------------------------
         ABSORPTION SPECTRUM VIA TRANSITION ELECTRIC DIPOLE MOMENTS
-----------------------------------------------------------------------------
State   Energy  Wavelength   fosc         T2         TX        TY        TZ
        (cm-1)    (nm)                  (au**2)     (au)      (au)      (au)
-----------------------------------------------------------------------------
   0   15422.3    648.4   1.083922040  23.13797   3.81793  -2.90563  -0.34448
   1   22630.9    441.9   0.024720638   0.35961   0.08737   0.08160  -0.58764
   2   24573.9    406.9   0.028043797   0.37570   0.49985  -0.30986  -0.17271
   3   25129.1    397.9   0.640418295   8.38999   1.68223  -1.75449   1.57539
   4   26655.9    375.2   0.002908806   0.03593   0.04438   0.03027  -0.18177
   5   28730.4    348.1   0.000527125   0.00604  -0.00309   0.05795   0.05170
   6   29626.3    337.5   0.184049821   2.04519  -0.81158  -0.06612   1.17565
   7   30649.8    326.3   0.007272511   0.07811  -0.04538  -0.00800  -0.27566
   8   31993.6    312.6   0.069832892   0.71858  -0.40285   0.48613  -0.56566
   9   32176.5    310.8   0.063184130   0.64647  -0.39599   0.54728  -0.43605
  10   32583.4    306.9   0.017285122   0.17464   0.32936  -0.25632   0.02162
  11   32903.6    303.9   0.051482861   0.51510   0.22899  -0.37655   0.56646
  12   33195.0    301.3   0.324966602   3.22286   1.23972  -1.10494   0.68195
  13   33901.4    295.0   0.081709386   0.79347   0.45401  -0.53463   0.54910
  14   34960.9    286.0   0.098352796   0.92615   0.08324   0.12922  -0.95001
  15   35915.0    278.4   0.008803869   0.08070  -0.18685   0.06473   0.20395
  16   36407.0    274.7   0.003286687   0.02972   0.09034  -0.05397   0.13655
  17   36715.2    272.4   0.060478415   0.54229   0.43251  -0.46700  -0.37032
  18   37393.6    267.4   0.005859874   0.05159  -0.14391   0.17509   0.01489
  19   38949.6    256.7   0.220941038   1.86745  -0.91624   0.79764  -0.62588
  20   39690.9    251.9   0.070641385   0.58593   0.59746  -0.38331   0.28644
  21   39778.9    251.4   0.044695209   0.36990   0.02047   0.14775  -0.58962

FINAL SINGLE POINT ENERGY     -3468.883217538532

DIPOLE MOMENT
-------------
                                X             Y             Z
Electronic contribution:      9.58357      -3.75123      -0.54612
Nuclear contribution   :     -9.94815       4.04056      -0.13282
                        -----------------------------------------
Total Dipole Moment    :     -0.36459       0.28933      -0.67894
                        -----------------------------------------
Magnitude (a.u.)       :      0.82316
Magnitude (Debye)      :      2.09231

Rotational constants in cm-1:     0.003762     0.000456     0.000411
Rotational constants in MHz :   112.791616    13.670265    12.324083

                             ****ORCA TERMINATED NORMALLY****
TOTAL RUN TIME: 0 days 0 hours 5 minutes 22 seconds 630 msec
