                         Program Version 4.2.0 -  RELEASE  -
|  1> # ORCA input file
|  2> # SCF done       -161.493555677489          0.000908978279
|  3> ! CAM-B3LYP def2-SVP def2/J RIJCOSX Grid4 TightSCF
|  4> %maxcore 5000
|  5> %tddft
|  6>     Mode sTDDFT
|  7>     Ethresh 5.0
|  8>     maxcore 5000
|  9> end
| 10>
| 11> %pal
| 12>   nprocs 6
| 13>   end
| 14> * xyz 0 1
| 15>    C        2.36753         1.22803        -5.61598
| 16>    S        2.63025         2.89560        -5.34708
| 17>    C        2.34329         2.70261        -3.64183
| 18>    C        2.06099         1.38765        -3.31734
| 19>    C        2.07889         0.56680        -4.46344
| 20>    S        1.75960        -1.19211        -4.39901
| 21>    O        3.02275        -1.87729        -4.39730
| 22>    O        0.82153        -1.52457        -5.43524
| 23>    C        0.99654        -1.35813        -2.76050
| 24>    C        1.90094        -0.61404        -1.79921
| 25>    C        1.75809         0.89995        -1.94048
| 26>    C        2.41454         3.81353        -2.75431
| 27>    S        2.88482         5.42529        -3.26910
| 28>    C        2.66004         5.88286        -1.58141
| 29>    N        2.28330         4.87916        -0.84116
| 30>    N        2.14637         3.74914        -1.47917
| 31>    C        2.88186         7.20970        -1.12391
| 32>    C        2.72026         7.55213         0.17726
| 33>    C        2.95065         8.86566         0.66089
| 34>    N        2.78761         9.23230         1.97770
| 35>    C        2.30025         8.39904         3.04993
| 36>    C        0.78435         8.22793         2.99175
| 37>    C        3.10274        10.58355         2.19187
| 38>    O        3.03470        11.12437         3.27912
| 39>    C        3.49637        11.07093         0.88952
| 40>    C        3.38841         9.99244        -0.02832
| 41>    C        3.78577        10.47671        -1.33021
| 42>    O        3.85028         9.93781        -2.41837
| 43>    N        4.10959        11.82708        -1.11477
| 44>    C        4.60136        12.65350        -2.18999
| 45>    C        6.12239        12.78498        -2.15733
| 46>    C        3.94948        12.19348         0.20300
| 47>    C        4.22010        13.49988         0.69403
| 48>    C        4.04885        13.83090         1.99464
| 49>    C        4.31765        15.11493         2.58732
| 50>    C        3.99597        15.31001         3.93239
| 51>    C        4.25589        16.51219         4.56751
| 52>    N        3.92603        16.58199         5.96878
| 53>    O        3.03375        15.86190         6.36342
| 54>    O        4.55689        17.34103         6.67595
| 55>    C        4.84677        17.59567         3.88660
| 56>    C        5.15077        17.38823         2.53201
| 57>    C        4.90391        16.19246         1.90304
| 58>    C        5.08517        18.87705         4.50562
| 59>    C        6.01690        19.75349         4.08661
| 60>    C        6.25446        21.02151         4.69111
| 61>    S        5.40700        21.60496         6.09378
| 62>    C        6.28885        23.07631         6.05958
| 63>    C        7.19284        23.13610         5.03622
| 64>    C        7.16980        21.95485         4.26714
| 65>    S        8.15647        21.73782         2.79859
| 66>    O        7.30035        21.94630         1.66084
| 67>    O        8.85993        20.48414         2.86253
| 68>    C        9.33695        23.11327         2.91531
| 69>    C        8.54943        24.34776         3.30383
| 70>    C        8.10684        24.29056         4.76567
| 71>    H        2.42964         0.81251        -6.60115
| 72>    H        0.94442        -2.42228        -2.54690
| 73>    H       -0.00297        -0.93793        -2.82670
| 74>    H        2.93000        -0.91212        -2.01349
| 75>    H        1.67324        -0.89490        -0.76895
| 76>    H        2.41430         1.41219        -1.23403
| 77>    H        0.73870         1.20304        -1.68040
| 78>    H        3.19066         7.94126        -1.85719
| 79>    H        2.41073         6.78788         0.87482
| 80>    H        2.57665         8.90953         3.97685
| 81>    H        2.80249         7.42840         3.01675
| 82>    H        0.29859         9.19808         3.06262
| 83>    H        0.45238         7.61177         3.82260
| 84>    H        0.48116         7.75408         2.06087
| 85>    H        4.12199        13.63558        -2.14689
| 86>    H        4.29845        12.15565        -3.11554
| 87>    H        6.45771        13.23010        -1.22304
| 88>    H        6.45630        13.40748        -2.98285
| 89>    H        6.58002        11.80371        -2.25495
| 90>    H        4.57041        14.22966        -0.02077
| 91>    H        3.67822        13.07465         2.67413
| 92>    H        3.54706        14.50835         4.50122
| 93>    H        5.57651        18.20400         1.96931
| 94>    H        5.17070        16.08823         0.86315
| 95>    H        4.49704        19.13201         5.37734
| 96>    H        6.68479        19.52726         3.26737
| 97>    H        6.09160        23.82630         6.80002
| 98>    H        9.79764        23.20455         1.93531
| 99>    H       10.08102        22.82867         3.65416
|100>    H        7.67378        24.40928         2.65317
|101>    H        9.15387        25.24405         3.14726
|102>    H        7.59976        25.21891         5.03653
|103>    H        8.99070        24.20411         5.40694
|104> *
|105>
|106>                          ****END OF INPUT****

CARTESIAN COORDINATES (ANGSTROEM)
---------------------------------
  C      2.367530    1.228030   -5.615980
  S      2.630250    2.895600   -5.347080
  C      2.343290    2.702610   -3.641830
  C      2.060990    1.387650   -3.317340
  C      2.078890    0.566800   -4.463440
  S      1.759600   -1.192110   -4.399010
  O      3.022750   -1.877290   -4.397300
  O      0.821530   -1.524570   -5.435240
  C      0.996540   -1.358130   -2.760500
  C      1.900940   -0.614040   -1.799210
  C      1.758090    0.899950   -1.940480
  C      2.414540    3.813530   -2.754310
  S      2.884820    5.425290   -3.269100
  C      2.660040    5.882860   -1.581410
  N      2.283300    4.879160   -0.841160
  N      2.146370    3.749140   -1.479170
  C      2.881860    7.209700   -1.123910
  C      2.720260    7.552130    0.177260
  C      2.950650    8.865660    0.660890
  N      2.787610    9.232300    1.977700
  C      2.300250    8.399040    3.049930
  C      0.784350    8.227930    2.991750
  C      3.102740   10.583550    2.191870
  O      3.034700   11.124370    3.279120
  C      3.496370   11.070930    0.889520
  C      3.388410    9.992440   -0.028320
  C      3.785770   10.476710   -1.330210
  O      3.850280    9.937810   -2.418370
  N      4.109590   11.827080   -1.114770
  C      4.601360   12.653500   -2.189990
  C      6.122390   12.784980   -2.157330
  C      3.949480   12.193480    0.203000
  C      4.220100   13.499880    0.694030
  C      4.048850   13.830900    1.994640
  C      4.317650   15.114930    2.587320
  C      3.995970   15.310010    3.932390
  C      4.255890   16.512190    4.567510
  N      3.926030   16.581990    5.968780
  O      3.033750   15.861900    6.363420
  O      4.556890   17.341030    6.675950
  C      4.846770   17.595670    3.886600
  C      5.150770   17.388230    2.532010
  C      4.903910   16.192460    1.903040
  C      5.085170   18.877050    4.505620
  C      6.016900   19.753490    4.086610
  C      6.254460   21.021510    4.691110
  S      5.407000   21.604960    6.093780
  C      6.288850   23.076310    6.059580
  C      7.192840   23.136100    5.036220
  C      7.169800   21.954850    4.267140
  S      8.156470   21.737820    2.798590
  O      7.300350   21.946300    1.660840
  O      8.859930   20.484140    2.862530
  C      9.336950   23.113270    2.915310
  C      8.549430   24.347760    3.303830
  C      8.106840   24.290560    4.765670
  H      2.429640    0.812510   -6.601150
  H      0.944420   -2.422280   -2.546900
  H     -0.002970   -0.937930   -2.826700
  H      2.930000   -0.912120   -2.013490
  H      1.673240   -0.894900   -0.768950
  H      2.414300    1.412190   -1.234030
  H      0.738700    1.203040   -1.680400
  H      3.190660    7.941260   -1.857190
  H      2.410730    6.787880    0.874820
  H      2.576650    8.909530    3.976850
  H      2.802490    7.428400    3.016750
  H      0.298590    9.198080    3.062620
  H      0.452380    7.611770    3.822600
  H      0.481160    7.754080    2.060870
  H      4.121990   13.635580   -2.146890
  H      4.298450   12.155650   -3.115540
  H      6.457710   13.230100   -1.223040
  H      6.456300   13.407480   -2.982850
  H      6.580020   11.803710   -2.254950
  H      4.570410   14.229660   -0.020770
  H      3.678220   13.074650    2.674130
  H      3.547060   14.508350    4.501220
  H      5.576510   18.204000    1.969310
  H      5.170700   16.088230    0.863150
  H      4.497040   19.132010    5.377340
  H      6.684790   19.527260    3.267370
  H      6.091600   23.826300    6.800020
  H      9.797640   23.204550    1.935310
  H     10.081020   22.828670    3.654160
  H      7.673780   24.409280    2.653170
  H      9.153870   25.244050    3.147260
  H      7.599760   25.218910    5.036530
  H      8.990700   24.204110    5.406940

 Total Charge           Charge          ....    0
 Multiplicity           Mult            ....    1
 Number of Electrons    NEL             ....  440
 Basis Dimension        Dim             ....  969

ORBITAL ENERGIES
----------------

  NO   OCC          E(Eh)            E(eV)
   0   2.0000     -89.141205     -2425.6555
   1   2.0000     -89.134018     -2425.4599
   2   2.0000     -88.979364     -2421.2516
   3   2.0000     -88.976516     -2421.1741
   4   2.0000     -88.969985     -2420.9964
   5   2.0000     -19.241615      -523.5910
   6   2.0000     -19.240111      -523.5500
   7   2.0000     -19.194772      -522.3163
   8   2.0000     -19.191664      -522.2317
   9   2.0000     -19.190284      -522.1942
  10   2.0000     -19.189113      -522.1623
  11   2.0000     -19.183609      -522.0125
  12   2.0000     -19.183534      -522.0105
  13   2.0000     -14.646336      -398.5471
  14   2.0000     -14.455437      -393.3524
  15   2.0000     -14.452559      -393.2741
  16   2.0000     -14.441405      -392.9706
  17   2.0000     -14.440298      -392.9405
  18   2.0000     -10.376348      -282.3548
  19   2.0000     -10.372292      -282.2444
  20   2.0000     -10.352825      -281.7147
  21   2.0000     -10.343582      -281.4632
  22   2.0000     -10.340968      -281.3920
  23   2.0000     -10.337406      -281.2951
  24   2.0000     -10.330285      -281.1013
  25   2.0000     -10.320118      -280.8247
  26   2.0000     -10.319669      -280.8125
  27   2.0000     -10.318942      -280.7927
  28   2.0000     -10.312589      -280.6198
  29   2.0000     -10.311196      -280.5819
  30   2.0000     -10.309211      -280.5279
  31   2.0000     -10.305930      -280.4386
  32   2.0000     -10.304488      -280.3994
  33   2.0000     -10.304294      -280.3941
  34   2.0000     -10.300655      -280.2951
  35   2.0000     -10.299817      -280.2723
  36   2.0000     -10.298923      -280.2479
  37   2.0000     -10.298082      -280.2251
  38   2.0000     -10.297795      -280.2173
  39   2.0000     -10.296464      -280.1810
  40   2.0000     -10.295800      -280.1630
  41   2.0000     -10.295488      -280.1545
  42   2.0000     -10.294776      -280.1351
  43   2.0000     -10.293906      -280.1114
  44   2.0000     -10.292763      -280.0803
  45   2.0000     -10.292478      -280.0726
  46   2.0000     -10.291556      -280.0475
  47   2.0000     -10.290943      -280.0308
  48   2.0000     -10.290075      -280.0072
  49   2.0000     -10.287103      -279.9263
  50   2.0000     -10.282555      -279.8025
  51   2.0000     -10.277450      -279.6636
  52   2.0000     -10.266531      -279.3665
  53   2.0000     -10.262512      -279.2571
  54   2.0000     -10.261046      -279.2173
  55   2.0000     -10.260072      -279.1907
  56   2.0000      -8.206471      -223.3094
  57   2.0000      -8.199429      -223.1178
  58   2.0000      -8.075027      -219.7327
  59   2.0000      -8.072927      -219.6755
  60   2.0000      -8.065627      -219.4769
  61   2.0000      -6.175404      -168.0413
  62   2.0000      -6.175295      -168.0383
  63   2.0000      -6.174530      -168.0175
  64   2.0000      -6.168501      -167.8534
  65   2.0000      -6.168153      -167.8440
  66   2.0000      -6.167430      -167.8243
  67   2.0000      -6.044273      -164.4730
  68   2.0000      -6.041691      -164.4028
  69   2.0000      -6.040041      -164.3579
  70   2.0000      -6.038234      -164.3087
  71   2.0000      -6.037283      -164.2828
  72   2.0000      -6.035140      -164.2245
  73   2.0000      -6.034790      -164.2150
  74   2.0000      -6.030612      -164.1013
  75   2.0000      -6.027976      -164.0296
  76   2.0000      -1.321943       -35.9719
  77   2.0000      -1.198701       -32.6183
  78   2.0000      -1.191497       -32.4223
  79   2.0000      -1.144685       -31.1485
  80   2.0000      -1.140007       -31.0212
  81   2.0000      -1.134965       -30.8840
  82   2.0000      -1.127133       -30.6708
  83   2.0000      -1.075561       -29.2675
  84   2.0000      -1.069404       -29.1000
  85   2.0000      -1.064610       -28.9695
  86   2.0000      -1.055817       -28.7302
  87   2.0000      -1.010360       -27.4933
  88   2.0000      -1.003903       -27.3176
  89   2.0000      -0.989546       -26.9269
  90   2.0000      -0.946452       -25.7543
  91   2.0000      -0.936508       -25.4837
  92   2.0000      -0.930533       -25.3211
  93   2.0000      -0.929381       -25.2897
  94   2.0000      -0.924597       -25.1596
  95   2.0000      -0.920037       -25.0355
  96   2.0000      -0.905084       -24.6286
  97   2.0000      -0.892830       -24.2952
  98   2.0000      -0.885943       -24.1077
  99   2.0000      -0.872233       -23.7347
 100   2.0000      -0.866426       -23.5767
 101   2.0000      -0.856566       -23.3084
 102   2.0000      -0.854645       -23.2561
 103   2.0000      -0.850098       -23.1323
 104   2.0000      -0.842434       -22.9238
 105   2.0000      -0.820608       -22.3299
 106   2.0000      -0.810369       -22.0513
 107   2.0000      -0.806086       -21.9347
 108   2.0000      -0.798851       -21.7378
 109   2.0000      -0.787514       -21.4293
 110   2.0000      -0.772246       -21.0139
 111   2.0000      -0.761128       -20.7114
 112   2.0000      -0.736087       -20.0300
 113   2.0000      -0.731675       -19.9099
 114   2.0000      -0.729351       -19.8466
 115   2.0000      -0.726034       -19.7564
 116   2.0000      -0.720739       -19.6123
 117   2.0000      -0.710061       -19.3218
 118   2.0000      -0.707413       -19.2497
 119   2.0000      -0.705281       -19.1917
 120   2.0000      -0.696857       -18.9625
 121   2.0000      -0.693609       -18.8741
 122   2.0000      -0.683940       -18.6110
 123   2.0000      -0.667595       -18.1662
 124   2.0000      -0.652277       -17.7494
 125   2.0000      -0.648539       -17.6476
 126   2.0000      -0.641207       -17.4481
 127   2.0000      -0.634310       -17.2605
 128   2.0000      -0.627605       -17.0780
 129   2.0000      -0.621235       -16.9047
 130   2.0000      -0.619427       -16.8555
 131   2.0000      -0.611067       -16.6280
 132   2.0000      -0.607949       -16.5431
 133   2.0000      -0.602210       -16.3870
 134   2.0000      -0.594980       -16.1902
 135   2.0000      -0.592090       -16.1116
 136   2.0000      -0.588097       -16.0029
 137   2.0000      -0.586641       -15.9633
 138   2.0000      -0.579178       -15.7602
 139   2.0000      -0.574360       -15.6291
 140   2.0000      -0.570148       -15.5145
 141   2.0000      -0.568136       -15.4598
 142   2.0000      -0.566011       -15.4019
 143   2.0000      -0.562324       -15.3016
 144   2.0000      -0.556485       -15.1427
 145   2.0000      -0.554346       -15.0845
 146   2.0000      -0.547103       -14.8874
 147   2.0000      -0.543804       -14.7977
 148   2.0000      -0.541345       -14.7307
 149   2.0000      -0.536871       -14.6090
 150   2.0000      -0.532726       -14.4962
 151   2.0000      -0.531199       -14.4547
 152   2.0000      -0.530824       -14.4444
 153   2.0000      -0.530228       -14.4282
 154   2.0000      -0.528837       -14.3904
 155   2.0000      -0.524603       -14.2752
 156   2.0000      -0.521928       -14.2024
 157   2.0000      -0.520482       -14.1630
 158   2.0000      -0.518119       -14.0987
 159   2.0000      -0.516042       -14.0422
 160   2.0000      -0.512184       -13.9372
 161   2.0000      -0.509802       -13.8724
 162   2.0000      -0.507253       -13.8031
 163   2.0000      -0.505655       -13.7596
 164   2.0000      -0.500615       -13.6224
 165   2.0000      -0.499267       -13.5857
 166   2.0000      -0.490258       -13.3406
 167   2.0000      -0.488766       -13.3000
 168   2.0000      -0.482371       -13.1260
 169   2.0000      -0.480003       -13.0615
 170   2.0000      -0.477216       -12.9857
 171   2.0000      -0.476204       -12.9582
 172   2.0000      -0.472368       -12.8538
 173   2.0000      -0.468900       -12.7594
 174   2.0000      -0.466628       -12.6976
 175   2.0000      -0.463276       -12.6064
 176   2.0000      -0.460991       -12.5442
 177   2.0000      -0.457613       -12.4523
 178   2.0000      -0.456306       -12.4167
 179   2.0000      -0.452946       -12.3253
 180   2.0000      -0.449268       -12.2252
 181   2.0000      -0.447351       -12.1731
 182   2.0000      -0.443050       -12.0560
 183   2.0000      -0.442259       -12.0345
 184   2.0000      -0.440442       -11.9850
 185   2.0000      -0.438505       -11.9323
 186   2.0000      -0.435636       -11.8543
 187   2.0000      -0.434623       -11.8267
 188   2.0000      -0.428966       -11.6727
 189   2.0000      -0.428115       -11.6496
 190   2.0000      -0.424815       -11.5598
 191   2.0000      -0.424517       -11.5517
 192   2.0000      -0.409449       -11.1417
 193   2.0000      -0.406231       -11.0541
 194   2.0000      -0.399712       -10.8767
 195   2.0000      -0.396233       -10.7820
 196   2.0000      -0.392968       -10.6932
 197   2.0000      -0.390334       -10.6215
 198   2.0000      -0.389136       -10.5889
 199   2.0000      -0.383773       -10.4430
 200   2.0000      -0.378469       -10.2987
 201   2.0000      -0.376930       -10.2568
 202   2.0000      -0.371865       -10.1190
 203   2.0000      -0.370726       -10.0880
 204   2.0000      -0.368042       -10.0149
 205   2.0000      -0.363577        -9.8934
 206   2.0000      -0.353829        -9.6282
 207   2.0000      -0.349787        -9.5182
 208   2.0000      -0.349164        -9.5012
 209   2.0000      -0.343868        -9.3571
 210   2.0000      -0.339921        -9.2497
 211   2.0000      -0.332780        -9.0554
 212   2.0000      -0.329686        -8.9712
 213   2.0000      -0.327895        -8.9225
 214   2.0000      -0.326825        -8.8934
 215   2.0000      -0.322743        -8.7823
 216   2.0000      -0.315486        -8.5848
 217   2.0000      -0.292515        -7.9597
 218   2.0000      -0.276282        -7.5180
 219   2.0000      -0.237216        -6.4550
 220   0.0000      -0.091978        -2.5029
 221   0.0000      -0.061505        -1.6736
 222   0.0000      -0.040138        -1.0922
 223   0.0000      -0.029110        -0.7921
 224   0.0000      -0.012062        -0.3282

MULLIKEN ATOMIC CHARGES
-----------------------
   0 C :   -0.073823
   1 S :    0.163406
   2 C :   -0.108084
   3 C :   -0.052945
   4 C :   -0.061216
   5 S :    0.736280
   6 O :   -0.457618
   7 O :   -0.458332
   8 C :   -0.017807
   9 C :   -0.019090
  10 C :    0.154344
  11 C :   -0.097409
  12 S :    0.117660
  13 C :   -0.102323
  14 N :   -0.038229
  15 N :   -0.081291
  16 C :    0.069599
  17 C :   -0.023742
  18 C :    0.131543
  19 N :   -0.256289
  20 C :    0.100904
  21 C :    0.004331
  22 C :    0.165060
  23 O :   -0.215864
  24 C :   -0.065618
  25 C :   -0.055561
  26 C :    0.164930
  27 O :   -0.212483
  28 N :   -0.260151
  29 C :    0.103508
  30 C :    0.004603
  31 C :    0.128863
  32 C :    0.002265
  33 C :    0.007703
  34 C :    0.104450
  35 C :   -0.066481
  36 C :    0.144299
  37 N :    0.243728
  38 O :   -0.229679
  39 O :   -0.236014
  40 C :    0.069434
  41 C :   -0.032469
  42 C :    0.018587
  43 C :   -0.009950
  44 C :    0.009988
  45 C :   -0.127882
  46 S :    0.155225
  47 C :   -0.127693
  48 C :   -0.028629
  49 C :   -0.026031
  50 S :    0.730129
  51 O :   -0.464912
  52 O :   -0.459167
  53 C :   -0.011417
  54 C :   -0.037618
  55 C :    0.125591
  56 H :    0.045270
  57 H :    0.067384
  58 H :    0.052426
  59 H :    0.045555
  60 H :    0.024343
  61 H :    0.037951
  62 H :    0.025524
  63 H :    0.011311
  64 H :    0.001584
  65 H :    0.042886
  66 H :    0.026559
  67 H :    0.028101
  68 H :    0.023933
  69 H :    0.018655
  70 H :    0.023187
  71 H :    0.041689
  72 H :    0.015004
  73 H :    0.023797
  74 H :    0.030233
  75 H :   -0.033048
  76 H :    0.012511
  77 H :    0.019446
  78 H :   -0.000227
  79 H :   -0.016210
  80 H :    0.010048
  81 H :    0.019326
  82 H :    0.021749
  83 H :    0.067241
  84 H :    0.054657
  85 H :    0.048717
  86 H :    0.026725
  87 H :    0.015592
  88 H :    0.027469
Sum of atomic charges:    0.0000000

LOEWDIN ATOMIC CHARGES
----------------------
   0 C :   -0.152963
   1 S :    0.468647
   2 C :   -0.215465
   3 C :   -0.034999
   4 C :   -0.224651
   5 S :    1.168366
   6 O :   -0.510881
   7 O :   -0.513118
   8 C :   -0.135844
   9 C :   -0.049701
  10 C :   -0.027368
  11 C :   -0.157302
  12 S :    0.395064
  13 C :   -0.147459
  14 N :   -0.077345
  15 N :   -0.077572
  16 C :   -0.015087
  17 C :   -0.010714
  18 C :    0.068452
  19 N :    0.002556
  20 C :    0.037009
  21 C :   -0.060092
  22 C :    0.079117
  23 O :   -0.204912
  24 C :   -0.125232
  25 C :   -0.115951
  26 C :    0.081964
  27 O :   -0.201607
  28 N :   -0.000670
  29 C :    0.036297
  30 C :   -0.060740
  31 C :    0.081747
  32 C :   -0.051477
  33 C :    0.039852
  34 C :   -0.032891
  35 C :    0.021043
  36 C :   -0.028563
  37 N :    0.284472
  38 O :   -0.197131
  39 O :   -0.196987
  40 C :    0.003453
  41 C :   -0.001814
  42 C :    0.014833
  43 C :   -0.017292
  44 C :   -0.022953
  45 C :   -0.157862
  46 S :    0.473305
  47 C :   -0.185519
  48 C :   -0.071709
  49 C :   -0.221574
  50 S :    1.170010
  51 O :   -0.516513
  52 O :   -0.512256
  53 C :   -0.132946
  54 C :   -0.047305
  55 C :   -0.024723
  56 H :    0.037383
  57 H :    0.042725
  58 H :    0.032167
  59 H :    0.030885
  60 H :    0.035848
  61 H :    0.042804
  62 H :    0.040995
  63 H :    0.036992
  64 H :    0.037156
  65 H :    0.037544
  66 H :    0.024903
  67 H :    0.031546
  68 H :    0.031306
  69 H :    0.023544
  70 H :    0.022890
  71 H :    0.037602
  72 H :    0.021752
  73 H :    0.030850
  74 H :    0.032694
  75 H :    0.025416
  76 H :    0.039107
  77 H :    0.047370
  78 H :    0.039717
  79 H :    0.031947
  80 H :    0.022715
  81 H :    0.030961
  82 H :    0.025601
  83 H :    0.043631
  84 H :    0.033244
  85 H :    0.032707
  86 H :    0.035411
  87 H :    0.037585
  88 H :    0.036009

  Mayer bond orders larger than 0.100000
B(  0-C ,  1-S ) :   1.2042 B(  0-C ,  2-C ) :   0.1022 B(  0-C ,  4-C ) :   1.5756
B(  0-C , 56-H ) :   0.9675 B(  1-S ,  2-C ) :   1.1382 B(  2-C ,  3-C ) :   1.5598
B(  2-C , 11-C ) :   1.0932 B(  3-C ,  4-C ) :   1.2825 B(  3-C , 10-C ) :   1.0717
B(  4-C ,  5-S ) :   0.7910 B(  5-S ,  6-O ) :   1.7125 B(  5-S ,  7-O ) :   1.7447
B(  5-S ,  8-C ) :   0.8878 B(  8-C ,  9-C ) :   1.0132 B(  8-C , 57-H ) :   0.9323
B(  8-C , 58-H ) :   0.9377 B(  9-C , 10-C ) :   1.0650 B(  9-C , 59-H ) :   0.9457
B(  9-C , 60-H ) :   0.9305 B( 10-C , 61-H ) :   0.8936 B( 10-C , 62-H ) :   0.9101
B( 11-C , 12-S ) :   1.1135 B( 11-C , 15-N ) :   1.6589 B( 12-S , 13-C ) :   1.0840
B( 13-C , 14-N ) :   1.6785 B( 13-C , 16-C ) :   1.1027 B( 14-N , 15-N ) :   1.2123
B( 16-C , 17-C ) :   1.6648 B( 16-C , 63-H ) :   0.9240 B( 17-C , 18-C ) :   1.1304
B( 17-C , 64-H ) :   0.9694 B( 18-C , 19-N ) :   1.1575 B( 18-C , 25-C ) :   1.3511
B( 19-N , 20-C ) :   0.9441 B( 19-N , 22-C ) :   1.0661 B( 20-C , 21-C ) :   1.1206
B( 20-C , 65-H ) :   0.9284 B( 20-C , 66-H ) :   0.9495 B( 21-C , 67-H ) :   0.9638
B( 21-C , 68-H ) :   0.9682 B( 21-C , 69-H ) :   0.9689 B( 22-C , 23-O ) :   2.0149
B( 22-C , 24-C ) :   0.9894 B( 23-O , 76-H ) :   0.1171 B( 24-C , 25-C ) :   1.2468
B( 24-C , 31-C ) :   1.3478 B( 25-C , 26-C ) :   0.9842 B( 26-C , 27-O ) :   2.0265
B( 26-C , 28-N ) :   1.0594 B( 27-O , 63-H ) :   0.1091 B( 28-N , 29-C ) :   0.9462
B( 28-N , 31-C ) :   1.1586 B( 29-C , 30-C ) :   1.1194 B( 29-C , 70-H ) :   0.9494
B( 29-C , 71-H ) :   0.9276 B( 30-C , 72-H ) :   0.9688 B( 30-C , 73-H ) :   0.9683
B( 30-C , 74-H ) :   0.9635 B( 31-C , 32-C ) :   1.1518 B( 32-C , 33-C ) :   1.6098
B( 32-C , 75-H ) :   0.9561 B( 33-C , 34-C ) :   1.0783 B( 33-C , 76-H ) :   0.9643
B( 34-C , 35-C ) :   1.2955 B( 34-C , 42-C ) :   1.2960 B( 35-C , 36-C ) :   1.3553
B( 35-C , 77-H ) :   1.0049 B( 36-C , 37-N ) :   0.8774 B( 36-C , 40-C ) :   1.3457
B( 37-N , 38-O ) :   1.5578 B( 37-N , 39-O ) :   1.5164 B( 38-O , 39-O ) :   0.2653
B( 40-C , 41-C ) :   1.3267 B( 40-C , 43-C ) :   1.0804 B( 41-C , 42-C ) :   1.4344
B( 41-C , 78-H ) :   0.9863 B( 42-C , 79-H ) :   0.9907 B( 43-C , 44-C ) :   1.7098
B( 43-C , 80-H ) :   0.9523 B( 44-C , 45-C ) :   1.1476 B( 44-C , 81-H ) :   0.9441
B( 45-C , 46-S ) :   1.1677 B( 45-C , 49-C ) :   1.5638 B( 46-S , 47-C ) :   1.1564
B( 47-C , 48-C ) :   1.5911 B( 47-C , 82-H ) :   0.9691 B( 48-C , 49-C ) :   1.2828
B( 48-C , 55-C ) :   1.0297 B( 49-C , 50-S ) :   0.8157 B( 50-S , 51-O ) :   1.6996
B( 50-S , 52-O ) :   1.6899 B( 50-S , 53-C ) :   0.8759 B( 53-C , 54-C ) :   1.0237
B( 53-C , 83-H ) :   0.9322 B( 53-C , 84-H ) :   0.9366 B( 54-C , 55-C ) :   1.0835
B( 54-C , 85-H ) :   0.9482 B( 54-C , 86-H ) :   0.9338 B( 55-C , 87-H ) :   0.9217
B( 55-C , 88-H ) :   0.9230

-----------------------------------------------------------------------------
         ABSORPTION SPECTRUM VIA TRANSITION ELECTRIC DIPOLE MOMENTS
-----------------------------------------------------------------------------
State   Energy  Wavelength   fosc         T2         TX        TY        TZ
        (cm-1)    (nm)                  (au**2)     (au)      (au)      (au)
-----------------------------------------------------------------------------
   0   16005.8    624.8   1.067927087  21.96545   1.05117   4.44614   1.04513
   1   23864.4    419.0   0.043668750   0.60242   0.36199   0.68569   0.03483
   2   26235.0    381.2   0.461508640   5.79127  -0.64741  -2.09761  -0.98598
   3   27192.3    367.8   0.220267855   2.66674  -0.32154  -1.38699  -0.79975
   4   27822.5    359.4   0.080692282   0.95480   0.14686   0.80843   0.52885
   5   28650.8    349.0   0.396138908   4.55184  -0.10621  -1.67610  -1.31576
   6   29302.5    341.3   0.021416253   0.24061   0.04436  -0.42719  -0.23695
   7   29807.1    335.5   0.002164277   0.02390   0.05627  -0.09763  -0.10586
   8   31333.7    319.1   0.256955462   2.69974  -0.15964   0.64118   1.50437
   9   31910.4    313.4   0.301360453   3.10906  -0.30973  -1.37593  -1.05827
  10   32875.3    304.2   0.000599774   0.00601   0.01376   0.07321   0.02140
  11   34272.7    291.8   0.049992531   0.48021  -0.30645  -0.61838   0.06245
  12   35489.9    281.8   0.041698242   0.38680  -0.24031  -0.11820   0.56132
  13   35671.3    280.3   0.058538103   0.54025  -0.06313   0.40255   0.61173
  14   37271.9    268.3   0.205844315   1.81816  -0.29381  -1.14534  -0.64811
  15   38281.0    261.2   0.057103166   0.49108   0.08777  -0.18698  -0.66964
  16   38666.3    258.6   0.043114640   0.36709  -0.02486   0.20400   0.56996
  17   39154.2    255.4   0.072360729   0.60841   0.16763   0.75806   0.07520
  18   39747.7    251.6   0.108171407   0.89593  -0.57086   0.00375   0.75501
  19   40041.0    249.7   0.032512077   0.26731   0.17471   0.42287   0.24077

FINAL SINGLE POINT ENERGY     -4330.697644783690

DIPOLE MOMENT
-------------
                                X             Y             Z
Electronic contribution:     -7.55980     -19.85235     -10.49613
Nuclear contribution   :      8.32281      23.61558      11.05363
                        -----------------------------------------
Total Dipole Moment    :      0.76300       3.76323       0.55750
                        -----------------------------------------
Magnitude (a.u.)       :      3.88006
Magnitude (Debye)      :      9.86233

Rotational constants in cm-1:     0.004536     0.000250     0.000239
Rotational constants in MHz :   135.976384     7.493230     7.169654

                             ****ORCA TERMINATED NORMALLY****
TOTAL RUN TIME: 0 days 0 hours 5 minutes 58 seconds 146 msec
