                         Program Version 4.2.0 -  RELEASE  -
|  1> # ORCA input file
|  2> # SCF done       -184.941746166185          0.000447201324
|  3> ! CAM-B3LYP def2-SVP def2/J RIJCOSX Grid4 TightSCF
|  4> %maxcore 5000
|  5> %tddft
|  6>     Mode sTDDFT
|  7>     Ethresh 5.0
|  8>     maxcore 5000
|  9> end
| 10>
| 11> %pal
| 12>   nprocs 6
| 13>   end
| 14> * xyz 0 1
| 15>    C       -1.40428        -3.13931        -0.34382
| 16>    N       -0.81408        -2.25757        -1.19569
| 17>    C       -0.05576        -2.60099        -2.37141
| 18>    C       -0.96141        -3.07206        -3.50656
| 19>    C       -1.09107        -0.92115        -0.82926
| 20>    O       -0.66419         0.03997        -1.44478
| 21>    C       -1.91127        -1.04571         0.34629
| 22>    C       -2.08133        -2.44254         0.61609
| 23>    C       -2.91553        -2.57187         1.79318
| 24>    O       -3.33332        -3.53453         2.39833
| 25>    N       -3.20495        -1.24203         2.15356
| 26>    C       -3.99032        -0.94266         3.32505
| 27>    C       -3.11832        -0.51391         4.50309
| 28>    C       -2.61219        -0.32798         1.30640
| 29>    C       -2.76483         1.07185         1.44365
| 30>    C       -2.14751         1.97001         0.63123
| 31>    C       -2.33577         3.36439         0.73547
| 32>    S       -3.49298         4.05180         1.83763
| 33>    C       -3.15873         5.66448         1.27395
| 34>    C       -2.15359         5.66202         0.31088
| 35>    C       -1.70861         4.35999        -0.01225
| 36>    S       -0.49386         3.85188        -1.17834
| 37>    C       -0.58161         5.17493        -2.43757
| 38>    C        0.37475         6.31594        -2.12932
| 39>    C        0.19676         6.80655        -0.70187
| 40>    S       -1.54925         7.19162        -0.32447
| 41>    C       -3.93932         6.70009         1.84340
| 42>    C       -4.07664         7.97973         1.42137
| 43>    C       -4.95582         8.90284         2.04538
| 44>    S       -5.90292         8.47024         3.44868
| 45>    C       -6.70170        10.01388         3.46159
| 46>    C       -6.21877        10.81783         2.42687
| 47>    C       -5.23816        10.18985         1.64192
| 48>    C       -6.68352        12.12381         2.20065
| 49>    N       -7.06110        13.19025         2.01036
| 50>    C       -7.73313        10.32366         4.37574
| 51>    C       -8.11834         9.48971         5.37494
| 52>    C       -9.21295         9.70482         6.23997
| 53>    S      -10.27629        11.06281         6.08317
| 54>    C      -11.30895        10.47481         7.36441
| 55>    C      -10.81785         9.27408         7.89439
| 56>    C       -9.62128         8.86205         7.27377
| 57>    S       -8.60819         7.46186         7.63764
| 58>    C       -8.84060         7.28001         9.44054
| 59>    C       -9.98731         6.33678         9.76600
| 60>    C      -11.23389         6.70717         8.97993
| 61>    S      -11.68762         8.46606         9.18808
| 62>    C      -12.48102        11.21829         7.60966
| 63>    C      -13.49302        10.94392         8.48342
| 64>    C      -14.65872        11.73208         8.51410
| 65>    C      -15.78772        11.41992         9.22672
| 66>    C      -17.02331        12.17397         9.26154
| 67>    C      -17.25378        13.41185         8.71407
| 68>    C      -18.48634        14.09197         8.78810
| 69>    N      -19.46132        14.69896         8.80655
| 70>    C      -16.30834        14.19284         8.01901
| 71>    N      -15.60074        14.89513         7.44773
| 72>    C      -18.00264        11.39183        10.01107
| 73>    C      -17.37142        10.20548        10.48019
| 74>    C      -15.96787        10.18507        10.02834
| 75>    O      -15.15178         9.31610        10.26394
| 76>    C      -18.04289         9.27066        11.21283
| 77>    C      -19.40843         9.47861        11.51068
| 78>    C      -20.04976        10.66014        11.04062
| 79>    C      -19.32509        11.61418        10.28898
| 80>    C      -21.41451        10.85417        11.33531
| 81>    C      -22.11378         9.92678        12.05876
| 82>    C      -21.48068         8.76402        12.52207
| 83>    C      -20.15652         8.54529        12.25438
| 84>    H       -1.29328        -4.19912        -0.47963
| 85>    H        0.67170        -3.37813        -2.11740
| 86>    H        0.47672        -1.69381        -2.66999
| 87>    H       -1.51725        -3.95939        -3.21141
| 88>    H       -0.36435        -3.30923        -4.38268
| 89>    H       -1.66962        -2.28950        -3.76771
| 90>    H       -4.51693        -1.86777         3.57686
| 91>    H       -4.72815        -0.17071         3.08695
| 92>    H       -2.41979        -1.30825         4.75416
| 93>    H       -3.74229        -0.31217         5.36949
| 94>    H       -2.55131         0.38274         4.26254
| 95>    H       -3.40963         1.43884         2.23115
| 96>    H       -1.48016         1.62450        -0.14823
| 97>    H       -1.61451         5.51688        -2.48195
| 98>    H       -0.32662         4.68986        -3.37855
| 99>    H        0.18596         7.13121        -2.83141
|100>    H        1.40710         5.98275        -2.25581
|101>    H        0.73592         7.73790        -0.53354
|102>    H        0.52907         6.06491         0.02275
|103>    H       -4.53159         6.38490         2.69532
|104>    H       -3.54888         8.34356         0.55326
|105>    H       -4.76348        10.66014         0.79906
|106>    H       -8.24088        11.26931         4.23017
|107>    H       -7.57883         8.56226         5.52281
|108>    H       -9.01103         8.27638         9.84541
|109>    H       -7.89274         6.89870         9.81775
|110>    H      -10.19067         6.38923        10.83767
|111>    H       -9.70974         5.31024         9.51624
|112>    H      -12.10348         6.15780         9.33779
|113>    H      -11.10884         6.52266         7.91422
|114>    H      -12.58969        12.09103         6.97408
|115>    H      -13.45155        10.09318         9.14191
|116>    H      -14.66032        12.62477         7.90120
|117>    H      -17.53909         8.37955        11.55734
|118>    H      -19.84181        12.49641         9.94641
|119>    H      -21.89754        11.75137        10.97670
|120>    H      -23.15936        10.08409        12.27787
|121>    H      -22.04739         8.04227        13.09139
|122>    H      -19.66341         7.65136        12.60801
|123> *
|124>
|125>                          ****END OF INPUT****

CARTESIAN COORDINATES (ANGSTROEM)
---------------------------------
  C     -1.404280   -3.139310   -0.343820
  N     -0.814080   -2.257570   -1.195690
  C     -0.055760   -2.600990   -2.371410
  C     -0.961410   -3.072060   -3.506560
  C     -1.091070   -0.921150   -0.829260
  O     -0.664190    0.039970   -1.444780
  C     -1.911270   -1.045710    0.346290
  C     -2.081330   -2.442540    0.616090
  C     -2.915530   -2.571870    1.793180
  O     -3.333320   -3.534530    2.398330
  N     -3.204950   -1.242030    2.153560
  C     -3.990320   -0.942660    3.325050
  C     -3.118320   -0.513910    4.503090
  C     -2.612190   -0.327980    1.306400
  C     -2.764830    1.071850    1.443650
  C     -2.147510    1.970010    0.631230
  C     -2.335770    3.364390    0.735470
  S     -3.492980    4.051800    1.837630
  C     -3.158730    5.664480    1.273950
  C     -2.153590    5.662020    0.310880
  C     -1.708610    4.359990   -0.012250
  S     -0.493860    3.851880   -1.178340
  C     -0.581610    5.174930   -2.437570
  C      0.374750    6.315940   -2.129320
  C      0.196760    6.806550   -0.701870
  S     -1.549250    7.191620   -0.324470
  C     -3.939320    6.700090    1.843400
  C     -4.076640    7.979730    1.421370
  C     -4.955820    8.902840    2.045380
  S     -5.902920    8.470240    3.448680
  C     -6.701700   10.013880    3.461590
  C     -6.218770   10.817830    2.426870
  C     -5.238160   10.189850    1.641920
  C     -6.683520   12.123810    2.200650
  N     -7.061100   13.190250    2.010360
  C     -7.733130   10.323660    4.375740
  C     -8.118340    9.489710    5.374940
  C     -9.212950    9.704820    6.239970
  S    -10.276290   11.062810    6.083170
  C    -11.308950   10.474810    7.364410
  C    -10.817850    9.274080    7.894390
  C     -9.621280    8.862050    7.273770
  S     -8.608190    7.461860    7.637640
  C     -8.840600    7.280010    9.440540
  C     -9.987310    6.336780    9.766000
  C    -11.233890    6.707170    8.979930
  S    -11.687620    8.466060    9.188080
  C    -12.481020   11.218290    7.609660
  C    -13.493020   10.943920    8.483420
  C    -14.658720   11.732080    8.514100
  C    -15.787720   11.419920    9.226720
  C    -17.023310   12.173970    9.261540
  C    -17.253780   13.411850    8.714070
  C    -18.486340   14.091970    8.788100
  N    -19.461320   14.698960    8.806550
  C    -16.308340   14.192840    8.019010
  N    -15.600740   14.895130    7.447730
  C    -18.002640   11.391830   10.011070
  C    -17.371420   10.205480   10.480190
  C    -15.967870   10.185070   10.028340
  O    -15.151780    9.316100   10.263940
  C    -18.042890    9.270660   11.212830
  C    -19.408430    9.478610   11.510680
  C    -20.049760   10.660140   11.040620
  C    -19.325090   11.614180   10.288980
  C    -21.414510   10.854170   11.335310
  C    -22.113780    9.926780   12.058760
  C    -21.480680    8.764020   12.522070
  C    -20.156520    8.545290   12.254380
  H     -1.293280   -4.199120   -0.479630
  H      0.671700   -3.378130   -2.117400
  H      0.476720   -1.693810   -2.669990
  H     -1.517250   -3.959390   -3.211410
  H     -0.364350   -3.309230   -4.382680
  H     -1.669620   -2.289500   -3.767710
  H     -4.516930   -1.867770    3.576860
  H     -4.728150   -0.170710    3.086950
  H     -2.419790   -1.308250    4.754160
  H     -3.742290   -0.312170    5.369490
  H     -2.551310    0.382740    4.262540
  H     -3.409630    1.438840    2.231150
  H     -1.480160    1.624500   -0.148230
  H     -1.614510    5.516880   -2.481950
  H     -0.326620    4.689860   -3.378550
  H      0.185960    7.131210   -2.831410
  H      1.407100    5.982750   -2.255810
  H      0.735920    7.737900   -0.533540
  H      0.529070    6.064910    0.022750
  H     -4.531590    6.384900    2.695320
  H     -3.548880    8.343560    0.553260
  H     -4.763480   10.660140    0.799060
  H     -8.240880   11.269310    4.230170
  H     -7.578830    8.562260    5.522810
  H     -9.011030    8.276380    9.845410
  H     -7.892740    6.898700    9.817750
  H    -10.190670    6.389230   10.837670
  H     -9.709740    5.310240    9.516240
  H    -12.103480    6.157800    9.337790
  H    -11.108840    6.522660    7.914220
  H    -12.589690   12.091030    6.974080
  H    -13.451550   10.093180    9.141910
  H    -14.660320   12.624770    7.901200
  H    -17.539090    8.379550   11.557340
  H    -19.841810   12.496410    9.946410
  H    -21.897540   11.751370   10.976700
  H    -23.159360   10.084090   12.277870
  H    -22.047390    8.042270   13.091390
  H    -19.663410    7.651360   12.608010

 Total Charge           Charge          ....    0
 Multiplicity           Mult            ....    1
 Number of Electrons    NEL             ....  534
 Basis Dimension        Dim             .... 1189

ORBITAL ENERGIES
----------------

  NO   OCC          E(Eh)            E(eV)
   0   2.0000     -88.972722     -2421.0709
   1   2.0000     -88.968687     -2420.9610
   2   2.0000     -88.963130     -2420.8098
   3   2.0000     -88.941343     -2420.2170
   4   2.0000     -88.939390     -2420.1638
   5   2.0000     -88.938251     -2420.1328
   6   2.0000     -88.932796     -2419.9844
   7   2.0000     -19.206815      -522.6440
   8   2.0000     -19.179445      -521.8992
   9   2.0000     -19.178991      -521.8869
  10   2.0000     -14.445022      -393.0690
  11   2.0000     -14.443801      -393.0358
  12   2.0000     -14.407133      -392.0380
  13   2.0000     -14.405839      -392.0028
  14   2.0000     -14.405096      -391.9826
  15   2.0000     -10.365297      -282.0541
  16   2.0000     -10.361914      -281.9620
  17   2.0000     -10.357476      -281.8413
  18   2.0000     -10.333934      -281.2006
  19   2.0000     -10.331124      -281.1242
  20   2.0000     -10.330558      -281.1088
  21   2.0000     -10.329394      -281.0771
  22   2.0000     -10.325818      -280.9798
  23   2.0000     -10.322015      -280.8763
  24   2.0000     -10.320704      -280.8406
  25   2.0000     -10.319785      -280.8156
  26   2.0000     -10.319582      -280.8101
  27   2.0000     -10.319035      -280.7952
  28   2.0000     -10.318195      -280.7724
  29   2.0000     -10.317732      -280.7598
  30   2.0000     -10.316635      -280.7299
  31   2.0000     -10.316264      -280.7198
  32   2.0000     -10.310297      -280.5574
  33   2.0000     -10.309240      -280.5287
  34   2.0000     -10.308741      -280.5151
  35   2.0000     -10.308596      -280.5111
  36   2.0000     -10.306796      -280.4622
  37   2.0000     -10.306417      -280.4519
  38   2.0000     -10.306289      -280.4484
  39   2.0000     -10.305453      -280.4256
  40   2.0000     -10.304920      -280.4111
  41   2.0000     -10.303299      -280.3670
  42   2.0000     -10.303023      -280.3595
  43   2.0000     -10.302032      -280.3326
  44   2.0000     -10.301413      -280.3157
  45   2.0000     -10.300691      -280.2961
  46   2.0000     -10.297301      -280.2038
  47   2.0000     -10.296215      -280.1743
  48   2.0000     -10.295261      -280.1483
  49   2.0000     -10.294543      -280.1287
  50   2.0000     -10.292147      -280.0636
  51   2.0000     -10.291035      -280.0333
  52   2.0000     -10.290624      -280.0221
  53   2.0000     -10.289039      -279.9790
  54   2.0000     -10.288798      -279.9724
  55   2.0000     -10.287258      -279.9305
  56   2.0000     -10.286671      -279.9145
  57   2.0000     -10.283985      -279.8414
  58   2.0000     -10.283679      -279.8331
  59   2.0000     -10.281188      -279.7653
  60   2.0000     -10.280567      -279.7484
  61   2.0000     -10.280252      -279.7399
  62   2.0000     -10.280093      -279.7355
  63   2.0000     -10.279557      -279.7210
  64   2.0000     -10.275720      -279.6166
  65   2.0000     -10.260967      -279.2151
  66   2.0000     -10.260388      -279.1993
  67   2.0000     -10.251166      -278.9484
  68   2.0000     -10.248738      -278.8824
  69   2.0000      -8.068234      -219.5478
  70   2.0000      -8.064331      -219.4416
  71   2.0000      -8.058835      -219.2920
  72   2.0000      -8.036115      -218.6738
  73   2.0000      -8.034615      -218.6330
  74   2.0000      -8.033083      -218.5913
  75   2.0000      -8.027827      -218.4483
  76   2.0000      -6.037375      -164.2853
  77   2.0000      -6.033553      -164.1813
  78   2.0000      -6.033501      -164.1799
  79   2.0000      -6.030339      -164.0939
  80   2.0000      -6.029701      -164.0765
  81   2.0000      -6.028052      -164.0316
  82   2.0000      -6.026216      -163.9817
  83   2.0000      -6.024265      -163.9286
  84   2.0000      -6.020711      -163.8319
  85   2.0000      -6.006542      -163.4463
  86   2.0000      -6.005129      -163.4079
  87   2.0000      -6.003553      -163.3650
  88   2.0000      -6.002210      -163.3284
  89   2.0000      -6.001063      -163.2972
  90   2.0000      -5.999384      -163.2515
  91   2.0000      -5.998319      -163.2226
  92   2.0000      -5.995981      -163.1589
  93   2.0000      -5.994119      -163.1083
  94   2.0000      -5.994107      -163.1079
  95   2.0000      -5.992851      -163.0738
  96   2.0000      -5.987422      -162.9260
  97   2.0000      -1.122623       -30.5481
  98   2.0000      -1.120536       -30.4913
  99   2.0000      -1.115556       -30.3558
 100   2.0000      -1.053425       -28.6651
 101   2.0000      -1.045067       -28.4377
 102   2.0000      -1.013638       -27.5825
 103   2.0000      -1.009997       -27.4834
 104   2.0000      -1.008756       -27.4496
 105   2.0000      -1.005652       -27.3652
 106   2.0000      -0.990269       -26.9466
 107   2.0000      -0.984555       -26.7911
 108   2.0000      -0.984512       -26.7899
 109   2.0000      -0.963898       -26.2290
 110   2.0000      -0.943264       -25.6675
 111   2.0000      -0.938504       -25.5380
 112   2.0000      -0.935455       -25.4550
 113   2.0000      -0.927693       -25.2438
 114   2.0000      -0.919577       -25.0230
 115   2.0000      -0.917296       -24.9609
 116   2.0000      -0.908985       -24.7347
 117   2.0000      -0.899739       -24.4831
 118   2.0000      -0.890631       -24.2353
 119   2.0000      -0.884047       -24.0561
 120   2.0000      -0.880961       -23.9722
 121   2.0000      -0.873932       -23.7809
 122   2.0000      -0.870729       -23.6937
 123   2.0000      -0.867781       -23.6135
 124   2.0000      -0.866033       -23.5659
 125   2.0000      -0.859360       -23.3844
 126   2.0000      -0.854225       -23.2446
 127   2.0000      -0.839380       -22.8407
 128   2.0000      -0.825007       -22.4496
 129   2.0000      -0.821250       -22.3474
 130   2.0000      -0.814379       -22.1604
 131   2.0000      -0.807140       -21.9634
 132   2.0000      -0.793151       -21.5827
 133   2.0000      -0.784117       -21.3369
 134   2.0000      -0.777629       -21.1604
 135   2.0000      -0.774561       -21.0769
 136   2.0000      -0.769086       -20.9279
 137   2.0000      -0.760797       -20.7023
 138   2.0000      -0.755367       -20.5546
 139   2.0000      -0.753110       -20.4932
 140   2.0000      -0.747096       -20.3295
 141   2.0000      -0.736861       -20.0510
 142   2.0000      -0.716531       -19.4978
 143   2.0000      -0.703728       -19.1494
 144   2.0000      -0.703026       -19.1303
 145   2.0000      -0.697019       -18.9669
 146   2.0000      -0.690910       -18.8006
 147   2.0000      -0.686647       -18.6846
 148   2.0000      -0.679076       -18.4786
 149   2.0000      -0.670531       -18.2461
 150   2.0000      -0.666312       -18.1313
 151   2.0000      -0.665876       -18.1194
 152   2.0000      -0.661642       -18.0042
 153   2.0000      -0.659777       -17.9535
 154   2.0000      -0.657936       -17.9034
 155   2.0000      -0.645338       -17.5605
 156   2.0000      -0.642002       -17.4698
 157   2.0000      -0.632031       -17.1984
 158   2.0000      -0.627216       -17.0674
 159   2.0000      -0.624462       -16.9925
 160   2.0000      -0.614173       -16.7125
 161   2.0000      -0.611442       -16.6382
 162   2.0000      -0.601428       -16.3657
 163   2.0000      -0.599529       -16.3140
 164   2.0000      -0.590611       -16.0713
 165   2.0000      -0.584456       -15.9039
 166   2.0000      -0.581358       -15.8196
 167   2.0000      -0.579467       -15.7681
 168   2.0000      -0.575685       -15.6652
 169   2.0000      -0.570781       -15.5317
 170   2.0000      -0.568266       -15.4633
 171   2.0000      -0.567062       -15.4306
 172   2.0000      -0.559099       -15.2139
 173   2.0000      -0.556128       -15.1330
 174   2.0000      -0.555119       -15.1056
 175   2.0000      -0.551186       -14.9985
 176   2.0000      -0.547510       -14.8985
 177   2.0000      -0.543431       -14.7875
 178   2.0000      -0.539776       -14.6880
 179   2.0000      -0.539146       -14.6709
 180   2.0000      -0.533135       -14.5074
 181   2.0000      -0.528275       -14.3751
 182   2.0000      -0.526232       -14.3195
 183   2.0000      -0.525550       -14.3010
 184   2.0000      -0.524570       -14.2743
 185   2.0000      -0.522067       -14.2062
 186   2.0000      -0.519612       -14.1394
 187   2.0000      -0.517921       -14.0934
 188   2.0000      -0.516511       -14.0550
 189   2.0000      -0.512904       -13.9568
 190   2.0000      -0.510170       -13.8824
 191   2.0000      -0.507846       -13.8192
 192   2.0000      -0.507011       -13.7965
 193   2.0000      -0.505589       -13.7578
 194   2.0000      -0.503786       -13.7087
 195   2.0000      -0.501769       -13.6538
 196   2.0000      -0.496720       -13.5164
 197   2.0000      -0.496528       -13.5112
 198   2.0000      -0.492675       -13.4064
 199   2.0000      -0.490504       -13.3473
 200   2.0000      -0.488427       -13.2908
 201   2.0000      -0.487750       -13.2723
 202   2.0000      -0.486763       -13.2455
 203   2.0000      -0.479372       -13.0444
 204   2.0000      -0.478575       -13.0227
 205   2.0000      -0.475065       -12.9272
 206   2.0000      -0.469660       -12.7801
 207   2.0000      -0.468929       -12.7602
 208   2.0000      -0.466337       -12.6897
 209   2.0000      -0.464421       -12.6375
 210   2.0000      -0.461190       -12.5496
 211   2.0000      -0.460877       -12.5411
 212   2.0000      -0.459137       -12.4938
 213   2.0000      -0.458304       -12.4711
 214   2.0000      -0.455899       -12.4056
 215   2.0000      -0.453327       -12.3356
 216   2.0000      -0.450868       -12.2688
 217   2.0000      -0.448157       -12.1950
 218   2.0000      -0.446387       -12.1468
 219   2.0000      -0.442043       -12.0286
 220   2.0000      -0.441368       -12.0102
 221   2.0000      -0.440473       -11.9859
 222   2.0000      -0.439016       -11.9462
 223   2.0000      -0.436960       -11.8903
 224   2.0000      -0.436690       -11.8830
 225   2.0000      -0.433850       -11.8057
 226   2.0000      -0.432953       -11.7813
 227   2.0000      -0.432264       -11.7625
 228   2.0000      -0.428050       -11.6478
 229   2.0000      -0.427118       -11.6225
 230   2.0000      -0.426692       -11.6109
 231   2.0000      -0.424513       -11.5516
 232   2.0000      -0.423285       -11.5182
 233   2.0000      -0.420450       -11.4410
 234   2.0000      -0.418467       -11.3871
 235   2.0000      -0.416268       -11.3272
 236   2.0000      -0.414805       -11.2874
 237   2.0000      -0.411784       -11.2052
 238   2.0000      -0.408637       -11.1196
 239   2.0000      -0.404983       -11.0201
 240   2.0000      -0.401423       -10.9233
 241   2.0000      -0.397852       -10.8261
 242   2.0000      -0.395933       -10.7739
 243   2.0000      -0.393842       -10.7170
 244   2.0000      -0.390492       -10.6258
 245   2.0000      -0.388022       -10.5586
 246   2.0000      -0.383065       -10.4237
 247   2.0000      -0.372963       -10.1488
 248   2.0000      -0.371345       -10.1048
 249   2.0000      -0.367997       -10.0137
 250   2.0000      -0.357293        -9.7224
 251   2.0000      -0.342655        -9.3241
 252   2.0000      -0.337150        -9.1743
 253   2.0000      -0.335297        -9.1239
 254   2.0000      -0.333932        -9.0868
 255   2.0000      -0.326415        -8.8822
 256   2.0000      -0.321437        -8.7467
 257   2.0000      -0.321061        -8.7365
 258   2.0000      -0.310148        -8.4396
 259   2.0000      -0.305426        -8.3111
 260   2.0000      -0.301220        -8.1966
 261   2.0000      -0.287482        -7.8228
 262   2.0000      -0.279309        -7.6004
 263   2.0000      -0.275122        -7.4865
 264   2.0000      -0.269767        -7.3407
 265   2.0000      -0.246778        -6.7152
 266   2.0000      -0.229858        -6.2548
 267   0.0000      -0.101205        -2.7539
 268   0.0000      -0.078249        -2.1293
 269   0.0000      -0.058395        -1.5890
 270   0.0000      -0.046892        -1.2760
 271   0.0000      -0.025546        -0.6951

MULLIKEN ATOMIC CHARGES
-----------------------
   0 C :    0.029976
   1 N :   -0.257536
   2 C :    0.115747
   3 C :   -0.002595
   4 C :    0.161753
   5 O :   -0.216846
   6 C :   -0.102066
   7 C :    0.006749
   8 C :    0.158158
   9 O :   -0.189209
  10 N :   -0.270226
  11 C :    0.101579
  12 C :    0.003017
  13 C :    0.161445
  14 C :   -0.053199
  15 C :    0.009205
  16 C :   -0.097570
  17 S :    0.113008
  18 C :   -0.098160
  19 C :   -0.026207
  20 C :   -0.026924
  21 S :    0.015224
  22 C :   -0.106503
  23 C :    0.097464
  24 C :   -0.094865
  25 S :   -0.033154
  26 C :    0.026590
  27 C :    0.019715
  28 C :   -0.035327
  29 S :    0.105951
  30 C :   -0.036972
  31 C :   -0.056134
  32 C :    0.014237
  33 C :   -0.194232
  34 N :    0.130661
  35 C :   -0.005834
  36 C :   -0.009172
  37 C :   -0.081249
  38 S :    0.148150
  39 C :   -0.114455
  40 C :   -0.007650
  41 C :   -0.036168
  42 S :   -0.028277
  43 C :   -0.104758
  44 C :    0.101053
  45 C :   -0.107252
  46 S :    0.013208
  47 C :    0.069137
  48 C :   -0.038299
  49 C :   -0.038175
  50 C :   -0.081943
  51 C :    0.336559
  52 C :   -0.360306
  53 C :   -0.181947
  54 N :    0.140213
  55 C :   -0.192438
  56 N :    0.144713
  57 C :    0.045841
  58 C :    0.005065
  59 C :    0.147067
  60 O :   -0.157611
  61 C :   -0.087297
  62 C :    0.100378
  63 C :    0.095634
  64 C :   -0.087678
  65 C :   -0.018692
  66 C :    0.035091
  67 C :    0.035054
  68 C :   -0.019084
  69 H :    0.012009
  70 H :    0.016473
  71 H :    0.038970
  72 H :    0.013950
  73 H :    0.020193
  74 H :    0.029897
  75 H :    0.040901
  76 H :    0.020723
  77 H :    0.029433
  78 H :    0.018669
  79 H :    0.014716
  80 H :   -0.024286
  81 H :    0.045889
  82 H :    0.073425
  83 H :    0.061658
  84 H :    0.022382
  85 H :    0.024746
  86 H :    0.058850
  87 H :    0.077793
  88 H :   -0.004763
  89 H :    0.010963
  90 H :   -0.003870
  91 H :    0.019716
  92 H :    0.013743
  93 H :    0.077925
  94 H :    0.059822
  95 H :    0.027513
  96 H :    0.023358
  97 H :    0.066925
  98 H :    0.078402
  99 H :    0.006543
 100 H :    0.060732
 101 H :    0.009530
 102 H :   -0.019348
 103 H :   -0.009879
 104 H :   -0.010485
 105 H :   -0.006667
 106 H :   -0.007156
 107 H :   -0.021023
Sum of atomic charges:   -0.0000000

LOEWDIN ATOMIC CHARGES
----------------------
   0 C :    0.081616
   1 N :   -0.000568
   2 C :    0.037833
   3 C :   -0.060947
   4 C :    0.073086
   5 O :   -0.211154
   6 C :   -0.136397
   7 C :   -0.127120
   8 C :    0.081245
   9 O :   -0.194800
  10 N :   -0.010862
  11 C :    0.035166
  12 C :   -0.061989
  13 C :    0.085848
  14 C :   -0.068220
  15 C :    0.015427
  16 C :   -0.198360
  17 S :    0.436462
  18 C :   -0.174381
  19 C :   -0.211527
  20 C :   -0.191523
  21 S :    0.325836
  22 C :   -0.132091
  23 C :   -0.062445
  24 C :   -0.130915
  25 S :    0.306600
  26 C :   -0.053148
  27 C :   -0.037091
  28 C :   -0.153562
  29 S :    0.448283
  30 C :   -0.134779
  31 C :   -0.104030
  32 C :   -0.027350
  33 C :   -0.034089
  34 N :   -0.054370
  35 C :   -0.035214
  36 C :   -0.038797
  37 C :   -0.179542
  38 S :    0.456404
  39 C :   -0.190964
  40 C :   -0.190753
  41 C :   -0.206001
  42 S :    0.292377
  43 C :   -0.128802
  44 C :   -0.061924
  45 C :   -0.132408
  46 S :    0.352809
  47 C :    0.003148
  48 C :   -0.043681
  49 C :    0.069154
  50 C :   -0.099499
  51 C :    0.075787
  52 C :   -0.145781
  53 C :   -0.016829
  54 N :   -0.060916
  55 C :   -0.020773
  56 N :   -0.058272
  57 C :   -0.024698
  58 C :   -0.053519
  59 C :    0.083638
  60 O :   -0.152061
  61 C :    0.027497
  62 C :   -0.009097
  63 C :   -0.007301
  64 C :    0.017564
  65 C :   -0.005727
  66 C :   -0.016033
  67 C :   -0.014740
  68 C :   -0.011508
  69 H :    0.030828
  70 H :    0.023455
  71 H :    0.035019
  72 H :    0.021965
  73 H :    0.028844
  74 H :    0.031349
  75 H :    0.036823
  76 H :    0.021309
  77 H :    0.032110
  78 H :    0.028633
  79 H :    0.021417
  80 H :    0.018648
  81 H :    0.037743
  82 H :    0.026281
  83 H :    0.032695
  84 H :    0.029067
  85 H :    0.030325
  86 H :    0.031389
  87 H :    0.027915
  88 H :    0.020427
  89 H :    0.024772
  90 H :    0.040073
  91 H :    0.037607
  92 H :    0.021414
  93 H :    0.028755
  94 H :    0.031729
  95 H :    0.031411
  96 H :    0.029804
  97 H :    0.034903
  98 H :    0.026662
  99 H :    0.035880
 100 H :    0.016783
 101 H :    0.040890
 102 H :    0.036544
 103 H :    0.038521
 104 H :    0.034300
 105 H :    0.032321
 106 H :    0.031720
 107 H :    0.030447

  Mayer bond orders larger than 0.100000
B(  0-C ,  1-N ) :   1.1846 B(  0-C ,  7-C ) :   1.4606 B(  0-C , 69-H ) :   0.9904
B(  1-N ,  2-C ) :   0.9466 B(  1-N ,  4-C ) :   1.0560 B(  2-C ,  3-C ) :   1.1178
B(  2-C , 70-H ) :   0.9539 B(  2-C , 71-H ) :   0.9340 B(  3-C , 72-H ) :   0.9695
B(  3-C , 73-H ) :   0.9689 B(  3-C , 74-H ) :   0.9674 B(  4-C ,  5-O ) :   2.0208
B(  4-C ,  6-C ) :   1.0131 B(  5-O , 81-H ) :   0.1058 B(  6-C ,  7-C ) :   1.1994
B(  6-C , 13-C ) :   1.3694 B(  7-C ,  8-C ) :   0.9491 B(  8-C ,  9-O ) :   2.1738
B(  8-C , 10-N ) :   1.0211 B( 10-N , 11-C ) :   0.9518 B( 10-N , 13-C ) :   1.1493
B( 11-C , 12-C ) :   1.1188 B( 11-C , 75-H ) :   0.9274 B( 11-C , 76-H ) :   0.9499
B( 12-C , 77-H ) :   0.9641 B( 12-C , 78-H ) :   0.9679 B( 12-C , 79-H ) :   0.9685
B( 13-C , 14-C ) :   1.1760 B( 14-C , 15-C ) :   1.5782 B( 14-C , 80-H ) :   0.9574
B( 15-C , 16-C ) :   1.1808 B( 15-C , 81-H ) :   0.9437 B( 16-C , 17-S ) :   1.0918
B( 16-C , 18-C ) :   0.1037 B( 16-C , 20-C ) :   1.5054 B( 17-S , 18-C ) :   1.1230
B( 18-C , 19-C ) :   1.5163 B( 18-C , 26-C ) :   1.1607 B( 19-C , 20-C ) :   1.2696
B( 19-C , 25-S ) :   1.0116 B( 20-C , 21-S ) :   1.0460 B( 21-S , 22-C ) :   1.0068
B( 22-C , 23-C ) :   1.0416 B( 22-C , 82-H ) :   0.9393 B( 22-C , 83-H ) :   0.9539
B( 23-C , 24-C ) :   1.0460 B( 23-C , 84-H ) :   0.9405 B( 23-C , 85-H ) :   0.9404
B( 24-C , 25-S ) :   0.9977 B( 24-C , 86-H ) :   0.9532 B( 24-C , 87-H ) :   0.9378
B( 26-C , 27-C ) :   1.6426 B( 26-C , 88-H ) :   0.9429 B( 27-C , 28-C ) :   1.1750
B( 27-C , 89-H ) :   0.9636 B( 28-C , 29-S ) :   1.0966 B( 28-C , 32-C ) :   1.4703
B( 29-S , 30-C ) :   1.1153 B( 30-C , 31-C ) :   1.4445 B( 30-C , 35-C ) :   1.2102
B( 31-C , 32-C ) :   1.2590 B( 31-C , 33-C ) :   1.1045 B( 32-C , 90-H ) :   1.0106
B( 33-C , 34-N ) :   3.0221 B( 35-C , 36-C ) :   1.6188 B( 35-C , 91-H ) :   0.9627
B( 36-C , 37-C ) :   1.1787 B( 36-C , 92-H ) :   0.9590 B( 37-C , 38-S ) :   1.1274
B( 37-C , 39-C ) :   0.1034 B( 37-C , 41-C ) :   1.5011 B( 38-S , 39-C ) :   1.1043
B( 39-C , 40-C ) :   1.4685 B( 39-C , 47-C ) :   1.1723 B( 40-C , 41-C ) :   1.2980
B( 40-C , 46-S ) :   1.0410 B( 41-C , 42-S ) :   1.0125 B( 42-S , 43-C ) :   1.0015
B( 43-C , 44-C ) :   1.0408 B( 43-C , 93-H ) :   0.9407 B( 43-C , 94-H ) :   0.9544
B( 44-C , 45-C ) :   1.0441 B( 44-C , 95-H ) :   0.9404 B( 44-C , 96-H ) :   0.9404
B( 45-C , 46-S ) :   1.0035 B( 45-C , 97-H ) :   0.9525 B( 45-C , 98-H ) :   0.9379
B( 47-C , 48-C ) :   1.5371 B( 47-C , 99-H ) :   0.9590 B( 48-C , 49-C ) :   1.2003
B( 48-C ,100-H ) :   0.9608 B( 49-C , 50-C ) :   1.5068 B( 49-C ,101-H ) :   0.9644
B( 50-C , 51-C ) :   1.0727 B( 50-C , 59-C ) :   0.9502 B( 51-C , 52-C ) :   1.6154
B( 51-C , 57-C ) :   0.9824 B( 52-C , 53-C ) :   1.1493 B( 52-C , 55-C ) :   1.1476
B( 53-C , 54-N ) :   2.9591 B( 55-C , 56-N ) :   2.9645 B( 57-C , 58-C ) :   1.2169
B( 57-C , 64-C ) :   1.4528 B( 58-C , 59-C ) :   0.9455 B( 58-C , 61-C ) :   1.4737
B( 59-C , 60-O ) :   2.1883 B( 61-C , 62-C ) :   1.1755 B( 61-C ,102-H ) :   1.0159
B( 62-C , 63-C ) :   1.2586 B( 62-C , 68-C ) :   1.2443 B( 63-C , 64-C ) :   1.2029
B( 63-C , 65-C ) :   1.2410 B( 64-C ,103-H ) :   0.9892 B( 65-C , 66-C ) :   1.4888
B( 65-C ,104-H ) :   0.9968 B( 66-C , 67-C ) :   1.2604 B( 66-C ,105-H ) :   0.9884
B( 67-C , 68-C ) :   1.4886 B( 67-C ,106-H ) :   0.9885 B( 68-C ,107-H ) :   0.9973

-----------------------------------------------------------------------------
         ABSORPTION SPECTRUM VIA TRANSITION ELECTRIC DIPOLE MOMENTS
-----------------------------------------------------------------------------
State   Energy  Wavelength   fosc         T2         TX        TY        TZ
        (cm-1)    (nm)                  (au**2)     (au)      (au)      (au)
-----------------------------------------------------------------------------
   0   15506.5    644.9   2.154998280  45.75180  -5.03278   3.24567   3.14460
   1   18694.1    534.9   0.396286875   6.97882  -1.72480  -1.95861   0.40957
   2   21504.2    465.0   0.198130588   3.03322   0.93245  -1.43472  -0.32455
   3   22193.6    450.6   0.061485568   0.91206   0.08672  -0.33234   0.89112
   4   23330.7    428.6   0.032646898   0.46067   0.17320   0.65616   0.01094
   5   24777.6    403.6   0.100675997   1.33765  -0.73589  -0.52195   0.72366
   6   25189.3    397.0   0.178116880   2.32790   0.36211   1.29256  -0.72531
   7   26112.3    383.0   0.130778497   1.64880   0.71381   0.83905  -0.65975
   8   26522.4    377.0   0.061307830   0.76099   0.21903   0.61500  -0.57861
   9   26954.9    371.0   0.003384113   0.04133  -0.18647   0.07476   0.03116
  10   27577.9    362.6   0.131094869   1.56495   0.25489   1.02752  -0.66646
  11   28391.9    352.2   0.110719612   1.28382  -0.27749   0.96038  -0.53338
  12   28884.1    346.2   0.057676642   0.65738  -0.07894  -0.64627   0.48320
  13   29052.0    344.2   0.010060842   0.11401  -0.02866  -0.16240   0.29464
  14   29700.8    336.7   0.056970801   0.63148   0.00705  -0.74627   0.27297
  15   30267.3    330.4   0.088737750   0.96518   0.89417  -0.27980  -0.29557
  16   30350.4    329.5   0.079005651   0.85698   0.54489   0.23649  -0.71004
  17   30567.1    327.1   0.005658908   0.06095   0.06252   0.00970  -0.23863
  18   31959.8    312.9   0.015271664   0.15731  -0.35013   0.11344  -0.14782
  19   32235.4    310.2   0.016682554   0.17037  -0.15956  -0.24944   0.28757
  20   32886.3    304.1   0.042090994   0.42136   0.29365  -0.55588  -0.16161
  21   33018.8    302.9   0.025491081   0.25416   0.18983  -0.45725  -0.09509
  22   33533.4    298.2   0.739353920   7.25856  -1.93716  -1.30068   1.34692
  23   34097.4    293.3   0.265671299   2.56507  -1.15771  -0.61625   0.91925
  24   34435.2    290.4   0.031718587   0.30324  -0.24970  -0.29299   0.39376
  25   35128.0    284.7   0.111937735   1.04906   0.08020   0.83196  -0.59200
  26   35418.5    282.3   0.025846498   0.24024   0.08472  -0.45775  -0.15340
  27   35752.6    279.7   0.002175476   0.02003  -0.00123  -0.03801   0.13633
  28   36108.6    276.9   0.107076357   0.97624   0.41776   0.64228  -0.62385
  29   36275.6    275.7   0.012781900   0.11600   0.13038  -0.23958   0.20396
  30   36904.9    271.0   0.000108379   0.00097   0.01580   0.02669  -0.00216
  31   36967.1    270.5   0.005034714   0.04484  -0.01776   0.21092   0.00592
  32   37122.5    269.4   0.076435402   0.67785  -0.38786   0.72510   0.04048
  33   37557.1    266.3   0.192306830   1.68569  -0.70026   1.08442   0.13913
  34   37854.6    264.2   0.037398329   0.32524  -0.36547  -0.37490   0.22611
  35   37984.9    263.3   0.043354291   0.37575   0.13897  -0.59603  -0.03435
  36   38491.7    259.8   0.154785918   1.32385   0.09130  -1.01415   0.53575
  37   39010.7    256.3   0.235993462   1.99155  -0.04921   1.27591  -0.60098
  38   39140.6    255.5   0.124023703   1.04316  -0.62405  -0.59175   0.55096
  39   39797.3    251.3   0.116535700   0.96401   0.66053  -0.71581   0.12379
  40   40138.2    249.1   0.030173896   0.24749  -0.07172   0.39966  -0.28743

FINAL SINGLE POINT ENERGY     -5363.824650219223

DIPOLE MOMENT
-------------
                                X             Y             Z
Electronic contribution:    -39.64448      61.69299      19.77885
Nuclear contribution   :     41.72447     -65.00328     -19.47558
                        -----------------------------------------
Total Dipole Moment    :      2.07999      -3.31029       0.30328
                        -----------------------------------------
Magnitude (a.u.)       :      3.92127
Magnitude (Debye)      :      9.96708

Rotational constants in cm-1:     0.001383     0.000206     0.000186
Rotational constants in MHz :    41.447047     6.183162     5.566469

                             ****ORCA TERMINATED NORMALLY****
TOTAL RUN TIME: 0 days 0 hours 10 minutes 17 seconds 435 msec
