                         Program Version 4.2.0 -  RELEASE  -
|  1> # ORCA input file
|  2> # SCF done       -200.531741099051          0.000660169860
|  3> ! CAM-B3LYP def2-SVP def2/J RIJCOSX Grid4 TightSCF
|  4> %maxcore 5000
|  5> %tddft
|  6>     Mode sTDDFT
|  7>     Ethresh 5.0
|  8>     maxcore 5000
|  9> end
| 10>
| 11> %pal
| 12>   nprocs 6
| 13>   end
| 14> * xyz 0 1
| 15>    C      -10.77149        -0.59915        -3.84383
| 16>    C      -10.58715        -0.47595        -5.19234
| 17>    F      -11.15793         0.53618        -5.86093
| 18>    C       -9.79762        -1.40659        -5.89602
| 19>    F       -9.63302        -1.26101        -7.21902
| 20>    C       -9.20307        -2.44864        -5.24127
| 21>    C       -9.37339        -2.60237        -3.85201
| 22>    C      -10.17136        -1.66190        -3.13901
| 23>    C      -10.35409        -1.79460        -1.74319
| 24>    C       -9.75536        -2.83405        -1.08145
| 25>    C       -8.95846        -3.76775        -1.80182
| 26>    C       -8.76658        -3.66729        -3.14854
| 27>    C       -8.41785        -4.77396        -0.86228
| 28>    O       -7.71471        -5.72346        -1.13263
| 29>    C       -8.91166        -4.36936         0.47370
| 30>    C       -9.75903        -3.21095         0.33145
| 31>    C      -10.46784        -2.57404         1.32056
| 32>    C      -10.49817        -2.95676         2.67323
| 33>    N      -10.59063        -3.19883         3.79334
| 34>    C      -11.28656        -1.44575         1.10889
| 35>    N      -11.96997        -0.52888         1.00471
| 36>    C       -8.53345        -5.01533         1.62111
| 37>    C       -7.69241        -6.10046         1.60341
| 38>    C       -6.93122        -7.05340         1.64592
| 39>    C       -6.04828        -8.10161         1.55710
| 40>    S       -5.56744        -8.71397        -0.00728
| 41>    C       -4.50881        -9.87026         0.75166
| 42>    C       -4.54167        -9.76319         2.13769
| 43>    C       -5.41023        -8.78097         2.58605
| 44>    C       -3.75640       -10.75608         0.01035
| 45>    C       -3.10479       -11.53179        -0.66827
| 46>    C       -2.31991       -12.43675        -1.35257
| 47>    C       -1.32559       -13.13325        -0.72353
| 48>    C       -0.48655       -14.07377        -1.33334
| 49>    C        0.53798       -14.70021        -0.66005
| 50>    C        1.43832       -15.67895        -1.14155
| 51>    C        2.35522       -16.09997        -0.22186
| 52>    C        2.23303       -15.46835         1.03299
| 53>    S        0.90653       -14.33143         1.01606
| 54>    C        2.98803       -15.62313         2.18270
| 55>    C        4.07439       -16.48589         2.44171
| 56>    C        4.58278       -16.37166         3.70339
| 57>    C        3.92667       -15.40537         4.50130
| 58>    S        2.62964       -14.65032         3.59123
| 59>    C        4.16929       -15.02402         5.80090
| 60>    C        3.39726       -14.02424         6.34452
| 61>    C        2.63092       -13.12468         6.65298
| 62>    C        1.73059       -12.10932         6.87629
| 63>    S        0.76755       -11.54313         5.53168
| 64>    C       -0.03409       -10.38554         6.56702
| 65>    C        0.43877       -10.46174         7.86865
| 66>    C        1.42744       -11.42003         8.04077
| 67>    C       -0.98846        -9.53237         6.05939
| 68>    C       -1.80987        -8.78851         5.55073
| 69>    C       -2.72695        -7.90412         5.02268
| 70>    C       -3.50078        -7.08863         5.79516
| 71>    C       -4.42679        -6.18430         5.24299
| 72>    C       -5.23592        -5.30535         5.90911
| 73>    C       -6.42633        -4.74825         5.22064
| 74>    O       -6.64878        -4.76069         4.02827
| 75>    C       -7.29548        -4.23631         6.29630
| 76>    C       -8.56323        -3.73870         6.21191
| 77>    C       -9.22336        -3.34121         7.39577
| 78>    C       -8.55590        -3.46708         8.64769
| 79>    C       -9.22834        -3.07299         9.82150
| 80>    C      -10.50048        -2.57805         9.75038
| 81>    C      -11.15849        -2.45555         8.50994
| 82>    C      -10.53427        -2.82868         7.35287
| 83>    F      -12.40769        -1.96923         8.48007
| 84>    F      -11.13818        -2.20401        10.86957
| 85>    C       -7.23843        -3.97924         8.70299
| 86>    C       -6.61564        -4.35488         7.54324
| 87>    C       -5.27605        -4.88372         7.29018
| 88>    C       -4.21539        -4.78546         8.15513
| 89>    C       -2.87186        -5.02788         7.80209
| 90>    N       -1.75724        -5.15960         7.55999
| 91>    C       -4.32673        -4.31914         9.48072
| 92>    N       -4.36152        -3.97233        10.57481
| 93>    H      -11.37922         0.12225        -3.32018
| 94>    H       -8.60111        -3.15271        -5.79417
| 95>    H      -10.96155        -1.06453        -1.23322
| 96>    H       -8.15694        -4.38931        -3.67027
| 97>    H       -8.85549        -4.67259         2.59452
| 98>    H       -3.95097       -10.39491         2.77766
| 99>    H       -5.58879        -8.55088         3.62189
|100>    H       -2.51112       -12.57255        -2.40900
|101>    H       -1.16257       -12.94081         0.33036
|102>    H       -0.63965       -14.32364        -2.37475
|103>    H        1.38091       -16.04443        -2.15185
|104>    H        3.11309       -16.83809        -0.41524
|105>    H        4.44890       -17.16684         1.69809
|106>    H        5.40887       -16.94797         4.08168
|107>    H        4.94848       -15.49566         6.38013
|108>    H        0.06813        -9.82283         8.65035
|109>    H        1.91945       -11.62540         8.97471
|110>    H       -2.80082        -7.86196         3.94218
|111>    H       -3.41326        -7.16614         6.86890
|112>    H       -4.59385        -6.23303         4.17092
|113>    H       -9.06979        -3.64472         5.26324
|114>    H       -8.74061        -3.15670        10.78019
|115>    H      -11.04066        -2.73503         6.40482
|116>    H       -6.75921        -4.07191         9.66464
|117> *
|118>
|119>                          ****END OF INPUT****

CARTESIAN COORDINATES (ANGSTROEM)
---------------------------------
  C    -10.771490   -0.599150   -3.843830
  C    -10.587150   -0.475950   -5.192340
  F    -11.157930    0.536180   -5.860930
  C     -9.797620   -1.406590   -5.896020
  F     -9.633020   -1.261010   -7.219020
  C     -9.203070   -2.448640   -5.241270
  C     -9.373390   -2.602370   -3.852010
  C    -10.171360   -1.661900   -3.139010
  C    -10.354090   -1.794600   -1.743190
  C     -9.755360   -2.834050   -1.081450
  C     -8.958460   -3.767750   -1.801820
  C     -8.766580   -3.667290   -3.148540
  C     -8.417850   -4.773960   -0.862280
  O     -7.714710   -5.723460   -1.132630
  C     -8.911660   -4.369360    0.473700
  C     -9.759030   -3.210950    0.331450
  C    -10.467840   -2.574040    1.320560
  C    -10.498170   -2.956760    2.673230
  N    -10.590630   -3.198830    3.793340
  C    -11.286560   -1.445750    1.108890
  N    -11.969970   -0.528880    1.004710
  C     -8.533450   -5.015330    1.621110
  C     -7.692410   -6.100460    1.603410
  C     -6.931220   -7.053400    1.645920
  C     -6.048280   -8.101610    1.557100
  S     -5.567440   -8.713970   -0.007280
  C     -4.508810   -9.870260    0.751660
  C     -4.541670   -9.763190    2.137690
  C     -5.410230   -8.780970    2.586050
  C     -3.756400  -10.756080    0.010350
  C     -3.104790  -11.531790   -0.668270
  C     -2.319910  -12.436750   -1.352570
  C     -1.325590  -13.133250   -0.723530
  C     -0.486550  -14.073770   -1.333340
  C      0.537980  -14.700210   -0.660050
  C      1.438320  -15.678950   -1.141550
  C      2.355220  -16.099970   -0.221860
  C      2.233030  -15.468350    1.032990
  S      0.906530  -14.331430    1.016060
  C      2.988030  -15.623130    2.182700
  C      4.074390  -16.485890    2.441710
  C      4.582780  -16.371660    3.703390
  C      3.926670  -15.405370    4.501300
  S      2.629640  -14.650320    3.591230
  C      4.169290  -15.024020    5.800900
  C      3.397260  -14.024240    6.344520
  C      2.630920  -13.124680    6.652980
  C      1.730590  -12.109320    6.876290
  S      0.767550  -11.543130    5.531680
  C     -0.034090  -10.385540    6.567020
  C      0.438770  -10.461740    7.868650
  C      1.427440  -11.420030    8.040770
  C     -0.988460   -9.532370    6.059390
  C     -1.809870   -8.788510    5.550730
  C     -2.726950   -7.904120    5.022680
  C     -3.500780   -7.088630    5.795160
  C     -4.426790   -6.184300    5.242990
  C     -5.235920   -5.305350    5.909110
  C     -6.426330   -4.748250    5.220640
  O     -6.648780   -4.760690    4.028270
  C     -7.295480   -4.236310    6.296300
  C     -8.563230   -3.738700    6.211910
  C     -9.223360   -3.341210    7.395770
  C     -8.555900   -3.467080    8.647690
  C     -9.228340   -3.072990    9.821500
  C    -10.500480   -2.578050    9.750380
  C    -11.158490   -2.455550    8.509940
  C    -10.534270   -2.828680    7.352870
  F    -12.407690   -1.969230    8.480070
  F    -11.138180   -2.204010   10.869570
  C     -7.238430   -3.979240    8.702990
  C     -6.615640   -4.354880    7.543240
  C     -5.276050   -4.883720    7.290180
  C     -4.215390   -4.785460    8.155130
  C     -2.871860   -5.027880    7.802090
  N     -1.757240   -5.159600    7.559990
  C     -4.326730   -4.319140    9.480720
  N     -4.361520   -3.972330   10.574810
  H    -11.379220    0.122250   -3.320180
  H     -8.601110   -3.152710   -5.794170
  H    -10.961550   -1.064530   -1.233220
  H     -8.156940   -4.389310   -3.670270
  H     -8.855490   -4.672590    2.594520
  H     -3.950970  -10.394910    2.777660
  H     -5.588790   -8.550880    3.621890
  H     -2.511120  -12.572550   -2.409000
  H     -1.162570  -12.940810    0.330360
  H     -0.639650  -14.323640   -2.374750
  H      1.380910  -16.044430   -2.151850
  H      3.113090  -16.838090   -0.415240
  H      4.448900  -17.166840    1.698090
  H      5.408870  -16.947970    4.081680
  H      4.948480  -15.495660    6.380130
  H      0.068130   -9.822830    8.650350
  H      1.919450  -11.625400    8.974710
  H     -2.800820   -7.861960    3.942180
  H     -3.413260   -7.166140    6.868900
  H     -4.593850   -6.233030    4.170920
  H     -9.069790   -3.644720    5.263240
  H     -8.740610   -3.156700   10.780190
  H    -11.040660   -2.735030    6.404820
  H     -6.759210   -4.071910    9.664640

 Total Charge           Charge          ....    0
 Multiplicity           Mult            ....    1
 Number of Electrons    NEL             ....  552
 Basis Dimension        Dim             .... 1228

ORBITAL ENERGIES
----------------

  NO   OCC          E(Eh)            E(eV)
   0   2.0000     -88.971499     -2421.0376
   1   2.0000     -88.969542     -2420.9843
   2   2.0000     -88.956984     -2420.6426
   3   2.0000     -88.954868     -2420.5850
   4   2.0000     -24.797206      -674.7663
   5   2.0000     -24.795859      -674.7296
   6   2.0000     -24.787378      -674.4988
   7   2.0000     -24.785418      -674.4455
   8   2.0000     -19.213554      -522.8274
   9   2.0000     -19.213242      -522.8189
  10   2.0000     -14.426794      -392.5730
  11   2.0000     -14.416059      -392.2809
  12   2.0000     -14.412522      -392.1847
  13   2.0000     -14.410035      -392.1170
  14   2.0000     -10.380501      -282.4678
  15   2.0000     -10.379400      -282.4378
  16   2.0000     -10.370306      -282.1904
  17   2.0000     -10.368218      -282.1335
  18   2.0000     -10.363475      -282.0045
  19   2.0000     -10.363074      -281.9936
  20   2.0000     -10.344357      -281.4843
  21   2.0000     -10.342991      -281.4471
  22   2.0000     -10.340330      -281.3747
  23   2.0000     -10.337880      -281.3080
  24   2.0000     -10.332292      -281.1560
  25   2.0000     -10.332258      -281.1550
  26   2.0000     -10.329415      -281.0777
  27   2.0000     -10.326299      -280.9929
  28   2.0000     -10.325385      -280.9680
  29   2.0000     -10.325007      -280.9577
  30   2.0000     -10.324383      -280.9407
  31   2.0000     -10.324303      -280.9386
  32   2.0000     -10.322791      -280.8974
  33   2.0000     -10.322747      -280.8962
  34   2.0000     -10.319471      -280.8071
  35   2.0000     -10.319061      -280.7959
  36   2.0000     -10.315043      -280.6866
  37   2.0000     -10.313340      -280.6402
  38   2.0000     -10.312314      -280.6123
  39   2.0000     -10.309323      -280.5310
  40   2.0000     -10.308925      -280.5201
  41   2.0000     -10.306547      -280.4554
  42   2.0000     -10.303468      -280.3716
  43   2.0000     -10.302870      -280.3554
  44   2.0000     -10.301901      -280.3290
  45   2.0000     -10.301865      -280.3280
  46   2.0000     -10.300122      -280.2806
  47   2.0000     -10.299952      -280.2759
  48   2.0000     -10.299751      -280.2705
  49   2.0000     -10.299665      -280.2681
  50   2.0000     -10.299454      -280.2624
  51   2.0000     -10.299307      -280.2584
  52   2.0000     -10.299276      -280.2576
  53   2.0000     -10.298296      -280.2309
  54   2.0000     -10.298073      -280.2248
  55   2.0000     -10.297271      -280.2030
  56   2.0000     -10.297166      -280.2001
  57   2.0000     -10.296836      -280.1912
  58   2.0000     -10.296087      -280.1708
  59   2.0000     -10.295995      -280.1683
  60   2.0000     -10.294979      -280.1406
  61   2.0000     -10.293893      -280.1111
  62   2.0000     -10.292959      -280.0857
  63   2.0000     -10.292900      -280.0841
  64   2.0000     -10.292464      -280.0722
  65   2.0000     -10.291476      -280.0453
  66   2.0000     -10.291158      -280.0366
  67   2.0000     -10.289410      -279.9891
  68   2.0000     -10.289041      -279.9790
  69   2.0000     -10.288965      -279.9770
  70   2.0000     -10.288679      -279.9692
  71   2.0000     -10.288449      -279.9629
  72   2.0000     -10.286491      -279.9097
  73   2.0000     -10.286102      -279.8991
  74   2.0000     -10.285682      -279.8876
  75   2.0000     -10.285492      -279.8825
  76   2.0000     -10.284330      -279.8509
  77   2.0000     -10.282880      -279.8114
  78   2.0000      -8.066772      -219.5080
  79   2.0000      -8.065005      -219.4599
  80   2.0000      -8.053441      -219.1453
  81   2.0000      -8.051202      -219.0843
  82   2.0000      -6.036038      -164.2490
  83   2.0000      -6.034400      -164.2044
  84   2.0000      -6.031809      -164.1339
  85   2.0000      -6.030142      -164.0885
  86   2.0000      -6.028916      -164.0551
  87   2.0000      -6.026917      -164.0008
  88   2.0000      -6.023119      -163.8974
  89   2.0000      -6.020975      -163.8390
  90   2.0000      -6.019137      -163.7890
  91   2.0000      -6.016884      -163.7277
  92   2.0000      -6.014366      -163.6592
  93   2.0000      -6.012015      -163.5952
  94   2.0000      -1.319035       -35.8928
  95   2.0000      -1.308945       -35.6182
  96   2.0000      -1.304175       -35.4884
  97   2.0000      -1.293917       -35.2093
  98   2.0000      -1.127305       -30.6755
  99   2.0000      -1.127162       -30.6716
 100   2.0000      -1.023620       -27.8541
 101   2.0000      -1.014449       -27.6046
 102   2.0000      -1.009563       -27.4716
 103   2.0000      -1.006632       -27.3918
 104   2.0000      -0.998676       -27.1754
 105   2.0000      -0.998273       -27.1644
 106   2.0000      -0.996550       -27.1175
 107   2.0000      -0.995787       -27.0967
 108   2.0000      -0.989648       -26.9297
 109   2.0000      -0.987464       -26.8703
 110   2.0000      -0.981392       -26.7050
 111   2.0000      -0.973246       -26.4834
 112   2.0000      -0.935671       -25.4609
 113   2.0000      -0.933520       -25.4024
 114   2.0000      -0.928295       -25.2602
 115   2.0000      -0.919066       -25.0090
 116   2.0000      -0.913771       -24.8650
 117   2.0000      -0.912089       -24.8192
 118   2.0000      -0.898004       -24.4359
 119   2.0000      -0.895582       -24.3700
 120   2.0000      -0.891942       -24.2710
 121   2.0000      -0.887974       -24.1630
 122   2.0000      -0.882788       -24.0219
 123   2.0000      -0.880763       -23.9668
 124   2.0000      -0.873741       -23.7757
 125   2.0000      -0.863762       -23.5042
 126   2.0000      -0.861045       -23.4302
 127   2.0000      -0.850598       -23.1460
 128   2.0000      -0.847790       -23.0695
 129   2.0000      -0.839677       -22.8488
 130   2.0000      -0.837023       -22.7766
 131   2.0000      -0.833888       -22.6912
 132   2.0000      -0.829654       -22.5760
 133   2.0000      -0.829279       -22.5658
 134   2.0000      -0.820722       -22.3330
 135   2.0000      -0.810328       -22.0501
 136   2.0000      -0.797795       -21.7091
 137   2.0000      -0.787640       -21.4328
 138   2.0000      -0.778748       -21.1908
 139   2.0000      -0.767213       -20.8769
 140   2.0000      -0.760152       -20.6848
 141   2.0000      -0.756144       -20.5757
 142   2.0000      -0.741694       -20.1825
 143   2.0000      -0.738247       -20.0887
 144   2.0000      -0.723383       -19.6842
 145   2.0000      -0.719259       -19.5720
 146   2.0000      -0.714922       -19.4540
 147   2.0000      -0.709170       -19.2975
 148   2.0000      -0.707403       -19.2494
 149   2.0000      -0.700437       -19.0598
 150   2.0000      -0.697188       -18.9715
 151   2.0000      -0.686060       -18.6686
 152   2.0000      -0.679548       -18.4914
 153   2.0000      -0.678718       -18.4688
 154   2.0000      -0.675920       -18.3927
 155   2.0000      -0.669799       -18.2262
 156   2.0000      -0.669548       -18.2193
 157   2.0000      -0.657711       -17.8972
 158   2.0000      -0.654067       -17.7981
 159   2.0000      -0.648248       -17.6397
 160   2.0000      -0.644913       -17.5490
 161   2.0000      -0.641114       -17.4456
 162   2.0000      -0.636387       -17.3170
 163   2.0000      -0.635399       -17.2901
 164   2.0000      -0.632069       -17.1995
 165   2.0000      -0.630218       -17.1491
 166   2.0000      -0.625734       -17.0271
 167   2.0000      -0.624313       -16.9884
 168   2.0000      -0.621171       -16.9029
 169   2.0000      -0.617211       -16.7952
 170   2.0000      -0.611597       -16.6424
 171   2.0000      -0.601454       -16.3664
 172   2.0000      -0.598444       -16.2845
 173   2.0000      -0.592760       -16.1298
 174   2.0000      -0.589207       -16.0331
 175   2.0000      -0.584556       -15.9066
 176   2.0000      -0.583904       -15.8888
 177   2.0000      -0.575997       -15.6737
 178   2.0000      -0.573680       -15.6106
 179   2.0000      -0.572671       -15.5832
 180   2.0000      -0.570653       -15.5283
 181   2.0000      -0.562942       -15.3184
 182   2.0000      -0.554203       -15.0806
 183   2.0000      -0.553134       -15.0515
 184   2.0000      -0.549515       -14.9531
 185   2.0000      -0.545955       -14.8562
 186   2.0000      -0.545509       -14.8441
 187   2.0000      -0.542386       -14.7591
 188   2.0000      -0.541904       -14.7460
 189   2.0000      -0.539673       -14.6852
 190   2.0000      -0.538053       -14.6412
 191   2.0000      -0.537112       -14.6156
 192   2.0000      -0.535384       -14.5685
 193   2.0000      -0.531030       -14.4501
 194   2.0000      -0.530455       -14.4344
 195   2.0000      -0.524994       -14.2858
 196   2.0000      -0.522575       -14.2200
 197   2.0000      -0.520751       -14.1703
 198   2.0000      -0.519915       -14.1476
 199   2.0000      -0.517304       -14.0765
 200   2.0000      -0.515152       -14.0180
 201   2.0000      -0.512191       -13.9374
 202   2.0000      -0.511131       -13.9086
 203   2.0000      -0.510596       -13.8940
 204   2.0000      -0.506735       -13.7890
 205   2.0000      -0.505901       -13.7663
 206   2.0000      -0.503499       -13.7009
 207   2.0000      -0.500635       -13.6230
 208   2.0000      -0.499516       -13.5925
 209   2.0000      -0.499345       -13.5879
 210   2.0000      -0.498605       -13.5677
 211   2.0000      -0.494877       -13.4663
 212   2.0000      -0.493693       -13.4341
 213   2.0000      -0.493194       -13.4205
 214   2.0000      -0.492790       -13.4095
 215   2.0000      -0.491244       -13.3674
 216   2.0000      -0.484275       -13.1778
 217   2.0000      -0.483142       -13.1470
 218   2.0000      -0.481165       -13.0932
 219   2.0000      -0.476585       -12.9685
 220   2.0000      -0.471098       -12.8192
 221   2.0000      -0.470347       -12.7988
 222   2.0000      -0.468095       -12.7375
 223   2.0000      -0.466798       -12.7022
 224   2.0000      -0.462402       -12.5826
 225   2.0000      -0.457324       -12.4444
 226   2.0000      -0.453917       -12.3517
 227   2.0000      -0.452315       -12.3081
 228   2.0000      -0.449012       -12.2183
 229   2.0000      -0.448155       -12.1949
 230   2.0000      -0.445890       -12.1333
 231   2.0000      -0.445313       -12.1176
 232   2.0000      -0.444608       -12.0984
 233   2.0000      -0.440533       -11.9875
 234   2.0000      -0.439492       -11.9592
 235   2.0000      -0.438261       -11.9257
 236   2.0000      -0.436901       -11.8887
 237   2.0000      -0.436794       -11.8858
 238   2.0000      -0.435920       -11.8620
 239   2.0000      -0.432762       -11.7760
 240   2.0000      -0.429651       -11.6914
 241   2.0000      -0.427663       -11.6373
 242   2.0000      -0.424047       -11.5389
 243   2.0000      -0.421443       -11.4680
 244   2.0000      -0.420418       -11.4402
 245   2.0000      -0.414505       -11.2793
 246   2.0000      -0.413183       -11.2433
 247   2.0000      -0.410741       -11.1768
 248   2.0000      -0.408928       -11.1275
 249   2.0000      -0.402888       -10.9631
 250   2.0000      -0.395549       -10.7634
 251   2.0000      -0.387667       -10.5490
 252   2.0000      -0.382211       -10.4005
 253   2.0000      -0.375935       -10.2297
 254   2.0000      -0.369903       -10.0656
 255   2.0000      -0.366272        -9.9668
 256   2.0000      -0.360671        -9.8144
 257   2.0000      -0.357967        -9.7408
 258   2.0000      -0.352234        -9.5848
 259   2.0000      -0.349265        -9.5040
 260   2.0000      -0.348179        -9.4744
 261   2.0000      -0.344416        -9.3720
 262   2.0000      -0.339270        -9.2320
 263   2.0000      -0.336982        -9.1697
 264   2.0000      -0.335436        -9.1277
 265   2.0000      -0.330672        -8.9980
 266   2.0000      -0.320845        -8.7306
 267   2.0000      -0.319974        -8.7069
 268   2.0000      -0.316429        -8.6105
 269   2.0000      -0.308011        -8.3814
 270   2.0000      -0.303328        -8.2540
 271   2.0000      -0.297136        -8.0855
 272   2.0000      -0.290264        -7.8985
 273   2.0000      -0.274169        -7.4605
 274   2.0000      -0.257792        -7.0149
 275   2.0000      -0.219297        -5.9674
 276   0.0000      -0.111065        -3.0222
 277   0.0000      -0.101181        -2.7533
 278   0.0000      -0.089152        -2.4259
 279   0.0000      -0.059733        -1.6254
 280   0.0000      -0.055817        -1.5188

MULLIKEN ATOMIC CHARGES
-----------------------
   0 C :   -0.109877
   1 C :    0.241973
   2 F :   -0.172891
   3 C :    0.242888
   4 F :   -0.173281
   5 C :   -0.108929
   6 C :    0.120182
   7 C :    0.114224
   8 C :   -0.086419
   9 C :    0.046616
  10 C :   -0.010008
  11 C :   -0.082355
  12 C :    0.148246
  13 O :   -0.137024
  14 C :   -0.109855
  15 C :    0.334614
  16 C :   -0.358502
  17 C :   -0.149772
  18 N :    0.143422
  19 C :   -0.190437
  20 N :    0.149665
  21 C :   -0.057006
  22 C :    0.035528
  23 C :    0.110811
  24 C :   -0.199458
  25 S :    0.232968
  26 C :   -0.142068
  27 C :    0.036770
  28 C :    0.061234
  29 C :    0.072737
  30 C :   -0.020210
  31 C :   -0.086880
  32 C :    0.016008
  33 C :   -0.006513
  34 C :   -0.016546
  35 C :    0.040248
  36 C :    0.029934
  37 C :   -0.044250
  38 S :    0.075442
  39 C :   -0.050518
  40 C :    0.032342
  41 C :    0.040719
  42 C :   -0.034881
  43 S :    0.100931
  44 C :   -0.060657
  45 C :   -0.073283
  46 C :    0.098513
  47 C :   -0.148322
  48 S :    0.195078
  49 C :   -0.169546
  50 C :    0.067426
  51 C :    0.052750
  52 C :    0.088146
  53 C :    0.002704
  54 C :   -0.080146
  55 C :    0.016136
  56 C :    0.017212
  57 C :   -0.110009
  58 C :    0.152255
  59 O :   -0.157315
  60 C :    0.023008
  61 C :   -0.055230
  62 C :    0.100830
  63 C :    0.114624
  64 C :   -0.115945
  65 C :    0.242597
  66 C :    0.245440
  67 C :   -0.102095
  68 F :   -0.173094
  69 F :   -0.174756
  70 C :   -0.087913
  71 C :    0.038896
  72 C :    0.283406
  73 C :   -0.330737
  74 C :   -0.220975
  75 N :    0.170509
  76 C :   -0.176356
  77 N :    0.148482
  78 H :    0.007833
  79 H :   -0.001045
  80 H :   -0.006026
  81 H :   -0.011927
  82 H :    0.040694
  83 H :    0.001267
  84 H :    0.000780
  85 H :    0.023447
  86 H :    0.020231
  87 H :   -0.009304
  88 H :   -0.007243
  89 H :   -0.007679
  90 H :   -0.008457
  91 H :   -0.005625
  92 H :    0.015133
  93 H :    0.005016
  94 H :   -0.002399
  95 H :    0.044821
  96 H :    0.029455
  97 H :    0.020785
  98 H :   -0.051367
  99 H :    0.001661
 100 H :    0.006803
 101 H :   -0.008306
Sum of atomic charges:   -0.0000000

LOEWDIN ATOMIC CHARGES
----------------------
   0 C :   -0.028711
   1 C :    0.066158
   2 F :   -0.050408
   3 C :    0.068606
   4 F :   -0.050722
   5 C :   -0.033798
   6 C :   -0.007475
   7 C :   -0.007786
   8 C :    0.018548
   9 C :   -0.023379
  10 C :   -0.049690
  11 C :    0.027350
  12 C :    0.080752
  13 O :   -0.135899
  14 C :   -0.089841
  15 C :    0.081181
  16 C :   -0.148142
  17 C :    0.009901
  18 N :   -0.063441
  19 C :   -0.018801
  20 N :   -0.054899
  21 C :    0.067204
  22 C :   -0.009984
  23 C :   -0.002378
  24 C :   -0.194812
  25 S :    0.495832
  26 C :   -0.166290
  27 C :   -0.046072
  28 C :   -0.020115
  29 C :   -0.066175
  30 C :   -0.007889
  31 C :   -0.047219
  32 C :    0.000301
  33 C :   -0.056886
  34 C :   -0.133895
  35 C :   -0.031020
  36 C :   -0.025438
  37 C :   -0.172331
  38 S :    0.382867
  39 C :   -0.177358
  40 C :   -0.024101
  41 C :   -0.034542
  42 C :   -0.121383
  43 S :    0.392438
  44 C :   -0.079561
  45 C :   -0.027779
  46 C :   -0.062538
  47 C :   -0.166453
  48 S :    0.470357
  49 C :   -0.193697
  50 C :   -0.016025
  51 C :   -0.039533
  52 C :   -0.021382
  53 C :   -0.032867
  54 C :    0.011162
  55 C :   -0.015514
  56 C :    0.058644
  57 C :   -0.088993
  58 C :    0.088276
  59 O :   -0.148860
  60 C :   -0.062007
  61 C :    0.037486
  62 C :   -0.008173
  63 C :   -0.006088
  64 C :   -0.035082
  65 C :    0.067895
  66 C :    0.064251
  67 C :   -0.023848
  68 F :   -0.051605
  69 F :   -0.052375
  70 C :    0.010076
  71 C :   -0.021737
  72 C :    0.070086
  73 C :   -0.138874
  74 C :   -0.026911
  75 N :   -0.047438
  76 C :   -0.018079
  77 N :   -0.052753
  78 H :    0.047780
  79 H :    0.044607
  80 H :    0.039976
  81 H :    0.039853
  82 H :    0.054543
  83 H :    0.037519
  84 H :    0.037429
  85 H :    0.042907
  86 H :    0.029065
  87 H :    0.034834
  88 H :    0.035780
  89 H :    0.034419
  90 H :    0.033788
  91 H :    0.036077
  92 H :    0.045296
  93 H :    0.041308
  94 H :    0.038300
  95 H :    0.049134
  96 H :    0.039023
  97 H :    0.043885
  98 H :    0.032299
  99 H :    0.045366
 100 H :    0.048246
 101 H :    0.038250

  Mayer bond orders larger than 0.100000
B(  0-C ,  1-C ) :   1.4401 B(  0-C ,  5-C ) :   0.1089 B(  0-C ,  7-C ) :   1.1872
B(  0-C , 78-H ) :   1.0073 B(  1-C ,  2-F ) :   1.1334 B(  1-C ,  3-C ) :   1.1923
B(  3-C ,  4-F ) :   1.1319 B(  3-C ,  5-C ) :   1.4403 B(  5-C ,  6-C ) :   1.1930
B(  5-C , 79-H ) :   1.0079 B(  6-C ,  7-C ) :   1.2590 B(  6-C , 11-C ) :   1.1838
B(  7-C ,  8-C ) :   1.2158 B(  8-C ,  9-C ) :   1.4490 B(  8-C , 80-H ) :   0.9899
B(  9-C , 10-C ) :   1.2206 B(  9-C , 15-C ) :   0.9934 B( 10-C , 11-C ) :   1.4845
B( 10-C , 12-C ) :   0.9253 B( 11-C , 81-H ) :   1.0161 B( 12-C , 13-O ) :   2.2610
B( 12-C , 14-C ) :   0.9418 B( 14-C , 15-C ) :   1.0722 B( 14-C , 21-C ) :   1.5641
B( 15-C , 16-C ) :   1.6112 B( 16-C , 17-C ) :   1.1714 B( 16-C , 19-C ) :   1.1424
B( 17-C , 18-N ) :   2.8957 B( 19-C , 20-N ) :   2.9630 B( 21-C , 22-C ) :   1.0788
B( 21-C , 82-H ) :   0.9380 B( 22-C , 23-C ) :   2.1034 B( 23-C , 24-C ) :   1.0431
B( 24-C , 25-S ) :   1.1023 B( 24-C , 26-C ) :   0.1039 B( 24-C , 28-C ) :   1.4236
B( 25-S , 26-C ) :   1.1345 B( 26-C , 27-C ) :   1.4410 B( 26-C , 29-C ) :   0.9942
B( 27-C , 28-C ) :   1.3078 B( 27-C , 83-H ) :   1.0011 B( 28-C , 84-H ) :   0.9978
B( 29-C , 30-C ) :   2.2406 B( 30-C , 31-C ) :   1.0476 B( 31-C , 32-C ) :   1.6284
B( 31-C , 85-H ) :   0.9600 B( 32-C , 33-C ) :   1.1816 B( 32-C , 86-H ) :   0.9708
B( 33-C , 34-C ) :   1.5434 B( 33-C , 87-H ) :   0.9818 B( 34-C , 35-C ) :   1.1556
B( 34-C , 38-S ) :   1.0431 B( 35-C , 36-C ) :   1.5745 B( 35-C , 88-H ) :   0.9990
B( 36-C , 37-C ) :   1.2025 B( 36-C , 89-H ) :   0.9953 B( 37-C , 38-S ) :   1.0554
B( 37-C , 39-C ) :   1.4869 B( 39-C , 40-C ) :   1.1990 B( 39-C , 43-S ) :   1.0504
B( 40-C , 41-C ) :   1.5836 B( 40-C , 90-H ) :   0.9945 B( 41-C , 42-C ) :   1.1581
B( 41-C , 91-H ) :   0.9967 B( 42-C , 43-S ) :   1.0553 B( 42-C , 44-C ) :   1.5744
B( 44-C , 45-C ) :   1.0977 B( 44-C , 92-H ) :   0.9658 B( 45-C , 46-C ) :   2.2402
B( 46-C , 47-C ) :   1.0310 B( 47-C , 48-S ) :   1.1229 B( 47-C , 49-C ) :   0.1067
B( 47-C , 51-C ) :   1.4468 B( 48-S , 49-C ) :   1.0955 B( 49-C , 50-C ) :   1.4556
B( 49-C , 52-C ) :   1.0124 B( 50-C , 51-C ) :   1.2992 B( 50-C , 93-H ) :   0.9999
B( 51-C , 94-H ) :   1.0024 B( 52-C , 53-C ) :   2.2122 B( 53-C , 54-C ) :   1.0160
B( 54-C , 55-C ) :   1.6321 B( 54-C , 95-H ) :   0.9574 B( 55-C , 56-C ) :   1.1556
B( 55-C , 96-H ) :   0.9683 B( 56-C , 57-C ) :   1.6019 B( 56-C , 97-H ) :   0.9486
B( 57-C , 58-C ) :   0.9592 B( 57-C , 72-C ) :   1.0385 B( 58-C , 59-O ) :   2.1947
B( 58-C , 60-C ) :   0.9290 B( 60-C , 61-C ) :   1.4514 B( 60-C , 71-C ) :   1.2074
B( 61-C , 62-C ) :   1.2176 B( 61-C , 98-H ) :   1.0061 B( 62-C , 63-C ) :   1.2475
B( 62-C , 67-C ) :   1.2009 B( 63-C , 64-C ) :   1.1887 B( 63-C , 70-C ) :   1.2081
B( 64-C , 65-C ) :   1.4392 B( 64-C , 67-C ) :   0.1114 B( 64-C , 99-H ) :   1.0082
B( 65-C , 66-C ) :   1.1904 B( 65-C , 69-F ) :   1.1310 B( 66-C , 67-C ) :   1.4256
B( 66-C , 68-F ) :   1.1351 B( 67-C ,100-H ) :   1.0079 B( 70-C , 71-C ) :   1.4573
B( 70-C ,101-H ) :   0.9944 B( 71-C , 72-C ) :   0.9983 B( 72-C , 73-C ) :   1.6415
B( 73-C , 74-C ) :   1.1558 B( 73-C , 76-C ) :   1.1333 B( 74-C , 75-N ) :   3.0138
B( 76-C , 77-N ) :   2.9797

-----------------------------------------------------------------------------
         ABSORPTION SPECTRUM VIA TRANSITION ELECTRIC DIPOLE MOMENTS
-----------------------------------------------------------------------------
State   Energy  Wavelength   fosc         T2         TX        TY        TZ
        (cm-1)    (nm)                  (au**2)     (au)      (au)      (au)
-----------------------------------------------------------------------------
   0   10537.5    949.0   0.433209580  13.53436   1.93822  -0.39747   3.10156
   1   14526.6    688.4   1.028422467  23.30691   3.29603  -3.52745   0.01418
   2   17477.7    572.2   0.313574463   5.90653  -0.46294   1.79528   1.57137
   3   18772.2    532.7   2.034597423  35.68113   4.10357  -4.34004  -0.07671
   4   20630.7    484.7   0.040389696   0.64451   0.75925  -0.24667  -0.08485
   5   22165.6    451.1   0.019661199   0.29202  -0.10746   0.52591   0.06232
   6   22992.1    434.9   0.138680829   1.98570  -1.00905   0.98168  -0.06182
   7   24078.7    415.3   0.024019697   0.32841   0.38229  -0.42369   0.05236
   8   24506.2    408.1   0.071595317   0.96180  -0.41277   0.86656  -0.20121
   9   24740.5    404.2   0.286971777   3.81862   1.29023  -1.41733  -0.38093
  10   25230.7    396.3   0.032562122   0.42487  -0.29389   0.20096   0.54600
  11   25708.6    389.0   0.268907461   3.44350   1.62918  -0.87750   0.13875
  12   26521.5    377.1   0.136284995   1.69171  -0.43173   0.81060   0.92101
  13   26935.1    371.3   0.041631127   0.50883  -0.00596   0.39050  -0.59691
  14   27502.2    363.6   0.069277078   0.82927  -0.01178   0.00910  -0.91052
  15   27703.1    361.0   0.009191019   0.10922  -0.25062  -0.04081   0.21153
  16   27848.3    359.1   0.099917477   1.18119  -0.63149   0.14670  -0.87228
  17   28416.4    351.9   0.002155311   0.02497  -0.14248   0.03363  -0.05949
  18   28848.5    346.6   0.008593349   0.09807   0.00959  -0.09225  -0.29911
  19   29118.2    343.4   0.128139403   1.44875   0.15254   0.05217  -1.19280
  20   29476.9    339.2   0.037554506   0.41943  -0.13192   0.09612   0.62673
  21   29904.0    334.4   0.354141867   3.89874   1.27959  -0.43366   1.43991
  22   30501.7    327.9   0.043534208   0.46987   0.57751  -0.34995   0.11788
  23   30765.8    325.0   0.140392154   1.50228  -0.15483  -0.05093   1.21479
  24   30978.4    322.8   0.056407588   0.59945   0.41951  -0.24198  -0.60408
  25   31052.4    322.0   0.008363745   0.08867  -0.08757   0.06858   0.27622
  26   31260.3    319.9   0.065415099   0.68891  -0.60007   0.48521   0.30561
  27   31748.3    315.0   0.068070513   0.70585  -0.21393   0.34418  -0.73595
  28   31999.0    312.5   0.024960351   0.25680  -0.41164   0.28284  -0.08573
  29   32409.7    308.5   0.026001707   0.26412   0.19725  -0.18633   0.43645
  30   32901.7    303.9   0.439806674   4.40067   1.98536  -0.56583   0.37259
  31   33049.2    302.6   0.062861034   0.62617  -0.38409  -0.13131   0.67927
  32   33481.5    298.7   0.056709009   0.55760   0.46088  -0.15503  -0.56671
  33   33645.3    297.2   0.093360258   0.91351   0.85105  -0.34380  -0.26651
  34   33666.7    297.0   0.016042628   0.15687   0.09782   0.03302  -0.38238
  35   33744.7    296.3   0.103248202   1.00728   0.15517   0.15322  -0.97966
  36   33948.6    294.6   0.402657649   3.90472   0.79463  -0.28957  -1.78590
  37   33973.8    294.3   0.077951888   0.75537  -0.14927  -0.15560   0.84195
  38   34310.7    291.5   0.059779371   0.57359  -0.32023  -0.01744   0.68610
  39   34378.2    290.9   0.095329157   0.91289   0.63241  -0.35123   0.62417
  40   34484.9    290.0   0.075765988   0.72330   0.53650  -0.54826  -0.36728
  41   34691.5    288.3   0.003438554   0.03263  -0.16957   0.02297  -0.05786
  42   34808.6    287.3   0.086706389   0.82005   0.02067   0.16929  -0.88936
  43   34908.7    286.5   0.001967370   0.01855  -0.01453   0.03401   0.13109
  44   35055.1    285.3   0.108739951   1.02121   0.22932  -0.30127   0.93694
  45   35227.1    283.9   0.064688614   0.60454  -0.02641   0.28897  -0.72134
  46   35323.8    283.1   0.050469588   0.47037  -0.19647  -0.09260  -0.65053
  47   35415.0    282.4   0.009180791   0.08534  -0.07777   0.15078  -0.23782
  48   35771.7    279.6   0.042103942   0.38749  -0.50174   0.35980  -0.07934
  49   35930.5    278.3   0.177410109   1.62551   0.01774  -0.06991  -1.27291
  50   36333.7    275.2   0.088850945   0.80506  -0.71810   0.48590  -0.23084
  51   36526.8    273.8   0.039545798   0.35642   0.31898  -0.30187  -0.40441
  52   36735.8    272.2   0.021582934   0.19342  -0.34802   0.22431  -0.14828
  53   36991.6    270.3   0.053199638   0.47346  -0.18833  -0.19924  -0.63110
  54   37321.5    267.9   0.020156435   0.17780  -0.35713   0.21554   0.06166
  55   37384.0    267.5   0.067507072   0.59448   0.69181   0.04878   0.33691
  56   37504.6    266.6   0.025399857   0.22296   0.38245  -0.09746   0.25921
  57   37703.9    265.2   0.007985693   0.06973   0.05180  -0.16221   0.20182
  58   37871.3    264.1   0.003204999   0.02786   0.07049   0.13687   0.06449
  59   38030.6    262.9   0.005255134   0.04549  -0.01804  -0.05122  -0.20626
  60   38233.6    261.6   0.032337980   0.27845   0.12687  -0.09959  -0.50243
  61   38639.4    258.8   0.003410119   0.02905  -0.09681  -0.04764   0.13195
  62   38727.9    258.2   0.035667378   0.30320  -0.49196   0.15991  -0.18868
  63   38847.6    257.4   0.203173344   1.72178  -0.44424   0.56826   1.09614
  64   39042.2    256.1   0.031421012   0.26495  -0.36698   0.31487  -0.17643
  65   39240.7    254.8   0.088298828   0.74079   0.04085   0.30393   0.80420
  66   39581.0    252.6   0.105791641   0.87991   0.77217  -0.52709   0.07639
  67   39819.2    251.1   0.048944917   0.40466  -0.10345   0.02147   0.62729
  68   39997.6    250.0   0.017485746   0.14392   0.15088  -0.33346   0.09980

FINAL SINGLE POINT ENERGY     -4809.967793900578

DIPOLE MOMENT
-------------
                                X             Y             Z
Electronic contribution:    -47.44690      50.44326      -2.86907
Nuclear contribution   :     50.46464     -55.44852       0.38762
                        -----------------------------------------
Total Dipole Moment    :      3.01775      -5.00526      -2.48144
                        -----------------------------------------
Magnitude (a.u.)       :      6.34957
Magnitude (Debye)      :     16.13931

Rotational constants in cm-1:     0.000745     0.000308     0.000226
Rotational constants in MHz :    22.328107     9.236355     6.775342

                             ****ORCA TERMINATED NORMALLY****
TOTAL RUN TIME: 0 days 0 hours 16 minutes 5 seconds 25 msec
