                         Program Version 4.2.0 -  RELEASE  -
|  1> # ORCA input file
|  2> # SCF done       -189.579957753795          0.000942852391
|  3> ! CAM-B3LYP def2-SVP def2/J RIJCOSX Grid4 TightSCF
|  4> %maxcore 5000
|  5> %tddft
|  6>     Mode sTDDFT
|  7>     Ethresh 5.0
|  8>     maxcore 5000
|  9> end
| 10>
| 11> %pal
| 12>   nprocs 6
| 13>   end
| 14> * xyz 0 1
| 15>    C        1.49440        -3.04169        -3.53854
| 16>    O        2.70185        -2.95111        -3.39878
| 17>    C        0.65632        -2.38619        -4.53096
| 18>    C       -0.67883        -2.73166        -4.36366
| 19>    C       -1.51901        -2.11541        -5.31042
| 20>    C       -0.79928        -1.32792        -6.16046
| 21>    S        0.89423        -1.31164        -5.83816
| 22>    C       -0.79203        -3.64137        -3.23902
| 23>    C       -1.97131        -4.17044        -2.78694
| 24>    C       -3.20245        -3.86522        -3.40632
| 25>    N       -4.21347        -3.63304        -3.89616
| 26>    C       -2.12525        -5.04704        -1.69418
| 27>    N       -2.32724        -5.75678        -0.81452
| 28>    C        0.55639        -3.84750        -2.73073
| 29>    C        0.89667        -4.67250        -1.69347
| 30>    C        2.15044        -4.97158        -1.13544
| 31>    C        2.29268        -5.89311        -0.09244
| 32>    C        3.60962        -6.05880         0.29277
| 33>    C        4.49245        -5.24600        -0.45607
| 34>    S        3.70425        -4.29625        -1.62747
| 35>    C        5.81075        -5.50306        -0.00099
| 36>    C        5.76612        -6.46832         1.01650
| 37>    C        4.38131        -6.84596         1.24294
| 38>    C        3.91096        -7.74978         2.14958
| 39>    C        2.53654        -8.03877         2.28472
| 40>    N        1.42209        -8.28107         2.39959
| 41>    C        4.77234        -8.45825         3.01340
| 42>    N        5.47464        -9.03375         3.71379
| 43>    C        7.03167        -6.80007         1.50887
| 44>    C        8.03762        -6.09488         0.88337
| 45>    S        7.40704        -4.99643        -0.33328
| 46>    C        9.46122        -6.18944         1.10581
| 47>    C       10.30668        -5.17095         0.66570
| 48>    C       11.66709        -5.30097         0.87910
| 49>    C       12.20172        -6.45515         1.50869
| 50>    C       11.34880        -7.46374         1.94459
| 51>    C        9.99547        -7.32363         1.74817
| 52>    C       13.61859        -6.27990         1.53506
| 53>    C       13.87741        -5.02086         0.93281
| 54>    N       12.68979        -4.44277         0.55876
| 55>    C       12.54421        -3.17161        -0.09247
| 56>    C       15.17062        -4.55107         0.79179
| 57>    C       16.22320        -5.34593         1.24586
| 58>    C       15.96092        -6.59509         1.84158
| 59>    C       14.67594        -7.06014         1.99115
| 60>    C       17.58530        -4.88674         1.11151
| 61>    C       18.74238        -5.63622         1.14908
| 62>    C       19.88850        -4.85127         0.99623
| 63>    C       19.59857        -3.48716         0.85006
| 64>    S       17.91973        -3.17901         0.88251
| 65>    C       20.81877        -2.77575         0.73079
| 66>    C       21.88285        -3.69609         0.78416
| 67>    C       21.33192        -5.03127         0.94939
| 68>    C       22.02012        -6.20500         1.03954
| 69>    C       21.36826        -7.44485         1.20866
| 70>    N       20.83202        -8.44966         1.34110
| 71>    C       23.42795        -6.26041         0.96016
| 72>    N       24.57057        -6.31339         0.88492
| 73>    C       23.12899        -3.08591         0.67734
| 74>    C       23.03419        -1.70698         0.59465
| 75>    S       21.35353        -1.16908         0.57513
| 76>    C       24.11630        -0.80458         0.45330
| 77>    C       24.17321         0.52149         0.74010
| 78>    C       25.24058         1.36306         0.10851
| 79>    O       26.21488         0.96719        -0.48638
| 80>    C       24.78226         2.72857         0.34363
| 81>    C       23.63803         2.74932         1.13433
| 82>    C       23.30627         1.39061         1.51689
| 83>    C       22.53518         1.05465         2.59841
| 84>    C       21.79604         2.01980         3.31227
| 85>    N       21.17031         2.78917         3.88923
| 86>    C       22.47484        -0.23735         3.15714
| 87>    N       22.43849        -1.26382         3.67014
| 88>    C       23.17943         4.05409         1.39388
| 89>    C       23.97755         4.97881         0.78704
| 90>    S       25.29865         4.29947        -0.08839
| 91>    H       -2.58426        -2.23901        -5.36956
| 92>    H       -1.17608        -0.74264        -6.97637
| 93>    H        0.08522        -5.20656        -1.21266
| 94>    H        1.45033        -6.40605         0.33726
| 95>    H        7.20606        -7.50798         2.29755
| 96>    H        9.89211        -4.30377         0.17331
| 97>    H       11.74573        -8.34429         2.42506
| 98>    H        9.32956        -8.10824         2.06849
| 99>    H       13.34251        -2.50296         0.22695
|100>    H       11.58917        -2.72629         0.18317
|101>    H       12.58418        -3.27548        -1.18120
|102>    H       15.37896        -3.59988         0.32457
|103>    H       16.78542        -7.18744         2.20362
|104>    H       14.48833        -8.01600         2.45470
|105>    H       18.75191        -6.70425         1.26261
|106>    H       24.07370        -3.59869         0.69633
|107>    H       25.00826        -1.21621        -0.01037
|108>    H       22.31463         4.30061         1.98156
|109>    H       23.86633         6.04530         0.81028
|110> *
|111>
|112>                          ****END OF INPUT****

CARTESIAN COORDINATES (ANGSTROEM)
---------------------------------
  C      1.494400   -3.041690   -3.538540
  O      2.701850   -2.951110   -3.398780
  C      0.656320   -2.386190   -4.530960
  C     -0.678830   -2.731660   -4.363660
  C     -1.519010   -2.115410   -5.310420
  C     -0.799280   -1.327920   -6.160460
  S      0.894230   -1.311640   -5.838160
  C     -0.792030   -3.641370   -3.239020
  C     -1.971310   -4.170440   -2.786940
  C     -3.202450   -3.865220   -3.406320
  N     -4.213470   -3.633040   -3.896160
  C     -2.125250   -5.047040   -1.694180
  N     -2.327240   -5.756780   -0.814520
  C      0.556390   -3.847500   -2.730730
  C      0.896670   -4.672500   -1.693470
  C      2.150440   -4.971580   -1.135440
  C      2.292680   -5.893110   -0.092440
  C      3.609620   -6.058800    0.292770
  C      4.492450   -5.246000   -0.456070
  S      3.704250   -4.296250   -1.627470
  C      5.810750   -5.503060   -0.000990
  C      5.766120   -6.468320    1.016500
  C      4.381310   -6.845960    1.242940
  C      3.910960   -7.749780    2.149580
  C      2.536540   -8.038770    2.284720
  N      1.422090   -8.281070    2.399590
  C      4.772340   -8.458250    3.013400
  N      5.474640   -9.033750    3.713790
  C      7.031670   -6.800070    1.508870
  C      8.037620   -6.094880    0.883370
  S      7.407040   -4.996430   -0.333280
  C      9.461220   -6.189440    1.105810
  C     10.306680   -5.170950    0.665700
  C     11.667090   -5.300970    0.879100
  C     12.201720   -6.455150    1.508690
  C     11.348800   -7.463740    1.944590
  C      9.995470   -7.323630    1.748170
  C     13.618590   -6.279900    1.535060
  C     13.877410   -5.020860    0.932810
  N     12.689790   -4.442770    0.558760
  C     12.544210   -3.171610   -0.092470
  C     15.170620   -4.551070    0.791790
  C     16.223200   -5.345930    1.245860
  C     15.960920   -6.595090    1.841580
  C     14.675940   -7.060140    1.991150
  C     17.585300   -4.886740    1.111510
  C     18.742380   -5.636220    1.149080
  C     19.888500   -4.851270    0.996230
  C     19.598570   -3.487160    0.850060
  S     17.919730   -3.179010    0.882510
  C     20.818770   -2.775750    0.730790
  C     21.882850   -3.696090    0.784160
  C     21.331920   -5.031270    0.949390
  C     22.020120   -6.205000    1.039540
  C     21.368260   -7.444850    1.208660
  N     20.832020   -8.449660    1.341100
  C     23.427950   -6.260410    0.960160
  N     24.570570   -6.313390    0.884920
  C     23.128990   -3.085910    0.677340
  C     23.034190   -1.706980    0.594650
  S     21.353530   -1.169080    0.575130
  C     24.116300   -0.804580    0.453300
  C     24.173210    0.521490    0.740100
  C     25.240580    1.363060    0.108510
  O     26.214880    0.967190   -0.486380
  C     24.782260    2.728570    0.343630
  C     23.638030    2.749320    1.134330
  C     23.306270    1.390610    1.516890
  C     22.535180    1.054650    2.598410
  C     21.796040    2.019800    3.312270
  N     21.170310    2.789170    3.889230
  C     22.474840   -0.237350    3.157140
  N     22.438490   -1.263820    3.670140
  C     23.179430    4.054090    1.393880
  C     23.977550    4.978810    0.787040
  S     25.298650    4.299470   -0.088390
  H     -2.584260   -2.239010   -5.369560
  H     -1.176080   -0.742640   -6.976370
  H      0.085220   -5.206560   -1.212660
  H      1.450330   -6.406050    0.337260
  H      7.206060   -7.507980    2.297550
  H      9.892110   -4.303770    0.173310
  H     11.745730   -8.344290    2.425060
  H      9.329560   -8.108240    2.068490
  H     13.342510   -2.502960    0.226950
  H     11.589170   -2.726290    0.183170
  H     12.584180   -3.275480   -1.181200
  H     15.378960   -3.599880    0.324570
  H     16.785420   -7.187440    2.203620
  H     14.488330   -8.016000    2.454700
  H     18.751910   -6.704250    1.262610
  H     24.073700   -3.598690    0.696330
  H     25.008260   -1.216210   -0.010370
  H     22.314630    4.300610    1.981560
  H     23.866330    6.045300    0.810280

 Total Charge           Charge          ....    0
 Multiplicity           Mult            ....    1
 Number of Electrons    NEL             ....  548
 Basis Dimension        Dim             .... 1183

ORBITAL ENERGIES
----------------

  NO   OCC          E(Eh)            E(eV)
   0   2.0000     -88.996886     -2421.7284
   1   2.0000     -88.993345     -2421.6320
   2   2.0000     -88.993240     -2421.6292
   3   2.0000     -88.993073     -2421.6246
   4   2.0000     -88.992518     -2421.6095
   5   2.0000     -88.990587     -2421.5570
   6   2.0000     -19.230175      -523.2797
   7   2.0000     -19.221913      -523.0548
   8   2.0000     -14.470258      -393.7557
   9   2.0000     -14.433563      -392.7572
  10   2.0000     -14.433008      -392.7421
  11   2.0000     -14.432184      -392.7197
  12   2.0000     -14.430775      -392.6814
  13   2.0000     -14.422612      -392.4592
  14   2.0000     -14.422476      -392.4555
  15   2.0000     -14.421378      -392.4256
  16   2.0000     -14.418664      -392.3518
  17   2.0000     -10.385832      -282.6129
  18   2.0000     -10.380666      -282.4723
  19   2.0000     -10.368574      -282.1433
  20   2.0000     -10.366518      -282.0873
  21   2.0000     -10.355828      -281.7964
  22   2.0000     -10.354574      -281.7623
  23   2.0000     -10.353149      -281.7235
  24   2.0000     -10.352034      -281.6932
  25   2.0000     -10.349776      -281.6317
  26   2.0000     -10.349199      -281.6160
  27   2.0000     -10.345024      -281.5024
  28   2.0000     -10.335695      -281.2486
  29   2.0000     -10.333828      -281.1977
  30   2.0000     -10.333566      -281.1906
  31   2.0000     -10.333027      -281.1760
  32   2.0000     -10.332580      -281.1638
  33   2.0000     -10.332487      -281.1613
  34   2.0000     -10.330570      -281.1091
  35   2.0000     -10.330462      -281.1062
  36   2.0000     -10.329173      -281.0711
  37   2.0000     -10.328929      -281.0644
  38   2.0000     -10.328848      -281.0623
  39   2.0000     -10.328819      -281.0615
  40   2.0000     -10.327471      -281.0248
  41   2.0000     -10.327357      -281.0217
  42   2.0000     -10.326616      -281.0015
  43   2.0000     -10.326035      -280.9857
  44   2.0000     -10.324745      -280.9506
  45   2.0000     -10.324442      -280.9424
  46   2.0000     -10.323494      -280.9166
  47   2.0000     -10.323228      -280.9093
  48   2.0000     -10.323149      -280.9072
  49   2.0000     -10.321387      -280.8592
  50   2.0000     -10.321236      -280.8551
  51   2.0000     -10.319821      -280.8166
  52   2.0000     -10.317597      -280.7561
  53   2.0000     -10.315338      -280.6946
  54   2.0000     -10.314009      -280.6585
  55   2.0000     -10.313685      -280.6496
  56   2.0000     -10.309815      -280.5443
  57   2.0000     -10.309704      -280.5413
  58   2.0000     -10.307627      -280.4848
  59   2.0000     -10.306030      -280.4413
  60   2.0000     -10.305010      -280.4136
  61   2.0000     -10.304477      -280.3991
  62   2.0000     -10.304455      -280.3985
  63   2.0000     -10.303185      -280.3639
  64   2.0000     -10.303094      -280.3614
  65   2.0000     -10.302716      -280.3512
  66   2.0000     -10.301704      -280.3236
  67   2.0000     -10.301286      -280.3122
  68   2.0000     -10.290473      -280.0180
  69   2.0000     -10.290283      -280.0128
  70   2.0000     -10.286935      -279.9217
  71   2.0000     -10.286736      -279.9163
  72   2.0000     -10.283419      -279.8261
  73   2.0000     -10.283174      -279.8194
  74   2.0000     -10.280381      -279.7434
  75   2.0000     -10.280137      -279.7368
  76   2.0000      -8.091173      -220.1720
  77   2.0000      -8.088238      -220.0921
  78   2.0000      -8.088023      -220.0863
  79   2.0000      -8.087858      -220.0818
  80   2.0000      -8.086969      -220.0576
  81   2.0000      -8.083016      -219.9500
  82   2.0000      -6.060436      -164.9129
  83   2.0000      -6.057405      -164.8304
  84   2.0000      -6.057188      -164.8245
  85   2.0000      -6.057060      -164.8210
  86   2.0000      -6.056214      -164.7980
  87   2.0000      -6.056124      -164.7955
  88   2.0000      -6.053547      -164.7254
  89   2.0000      -6.052957      -164.7093
  90   2.0000      -6.052891      -164.7075
  91   2.0000      -6.052753      -164.7038
  92   2.0000      -6.052476      -164.6962
  93   2.0000      -6.052012      -164.6836
  94   2.0000      -6.050986      -164.6557
  95   2.0000      -6.050768      -164.6498
  96   2.0000      -6.050337      -164.6380
  97   2.0000      -6.049515      -164.6157
  98   2.0000      -6.047657      -164.5651
  99   2.0000      -6.045573      -164.5084
 100   2.0000      -1.146979       -31.2109
 101   2.0000      -1.138991       -30.9935
 102   2.0000      -1.100928       -29.9578
 103   2.0000      -1.050229       -28.5782
 104   2.0000      -1.047410       -28.5015
 105   2.0000      -1.033787       -28.1308
 106   2.0000      -1.032300       -28.0903
 107   2.0000      -1.025352       -27.9012
 108   2.0000      -1.023474       -27.8501
 109   2.0000      -1.014707       -27.6116
 110   2.0000      -1.013848       -27.5882
 111   2.0000      -1.010948       -27.5093
 112   2.0000      -1.009180       -27.4612
 113   2.0000      -1.005469       -27.3602
 114   2.0000      -1.002226       -27.2720
 115   2.0000      -0.999257       -27.1912
 116   2.0000      -0.998924       -27.1821
 117   2.0000      -0.974257       -26.5109
 118   2.0000      -0.972592       -26.4656
 119   2.0000      -0.966418       -26.2976
 120   2.0000      -0.965826       -26.2815
 121   2.0000      -0.956628       -26.0312
 122   2.0000      -0.953992       -25.9595
 123   2.0000      -0.925321       -25.1793
 124   2.0000      -0.921449       -25.0739
 125   2.0000      -0.910567       -24.7778
 126   2.0000      -0.907546       -24.6956
 127   2.0000      -0.900809       -24.5123
 128   2.0000      -0.884827       -24.0774
 129   2.0000      -0.882968       -24.0268
 130   2.0000      -0.874032       -23.7836
 131   2.0000      -0.867654       -23.6101
 132   2.0000      -0.863515       -23.4975
 133   2.0000      -0.861229       -23.4352
 134   2.0000      -0.860330       -23.4108
 135   2.0000      -0.858559       -23.3626
 136   2.0000      -0.854050       -23.2399
 137   2.0000      -0.853100       -23.2140
 138   2.0000      -0.843552       -22.9542
 139   2.0000      -0.813825       -22.1453
 140   2.0000      -0.800010       -21.7694
 141   2.0000      -0.796317       -21.6689
 142   2.0000      -0.782973       -21.3058
 143   2.0000      -0.780647       -21.2425
 144   2.0000      -0.776619       -21.1329
 145   2.0000      -0.772953       -21.0331
 146   2.0000      -0.768666       -20.9165
 147   2.0000      -0.755135       -20.5483
 148   2.0000      -0.737719       -20.0744
 149   2.0000      -0.718853       -19.5610
 150   2.0000      -0.713098       -19.4044
 151   2.0000      -0.708800       -19.2874
 152   2.0000      -0.706928       -19.2365
 153   2.0000      -0.704741       -19.1770
 154   2.0000      -0.698196       -18.9989
 155   2.0000      -0.691283       -18.8108
 156   2.0000      -0.688880       -18.7454
 157   2.0000      -0.686055       -18.6685
 158   2.0000      -0.679566       -18.4919
 159   2.0000      -0.677801       -18.4439
 160   2.0000      -0.672583       -18.3019
 161   2.0000      -0.671484       -18.2720
 162   2.0000      -0.662491       -18.0273
 163   2.0000      -0.648036       -17.6340
 164   2.0000      -0.638722       -17.3805
 165   2.0000      -0.636056       -17.3080
 166   2.0000      -0.633398       -17.2356
 167   2.0000      -0.629208       -17.1216
 168   2.0000      -0.624789       -17.0014
 169   2.0000      -0.622505       -16.9392
 170   2.0000      -0.620750       -16.8915
 171   2.0000      -0.618806       -16.8386
 172   2.0000      -0.611896       -16.6505
 173   2.0000      -0.606977       -16.5167
 174   2.0000      -0.603546       -16.4233
 175   2.0000      -0.600432       -16.3386
 176   2.0000      -0.594118       -16.1668
 177   2.0000      -0.576535       -15.6883
 178   2.0000      -0.574792       -15.6409
 179   2.0000      -0.572058       -15.5665
 180   2.0000      -0.568391       -15.4667
 181   2.0000      -0.566738       -15.4217
 182   2.0000      -0.553858       -15.0712
 183   2.0000      -0.553351       -15.0574
 184   2.0000      -0.552282       -15.0284
 185   2.0000      -0.549953       -14.9650
 186   2.0000      -0.548033       -14.9127
 187   2.0000      -0.547229       -14.8909
 188   2.0000      -0.543880       -14.7997
 189   2.0000      -0.542698       -14.7676
 190   2.0000      -0.540260       -14.7012
 191   2.0000      -0.538193       -14.6450
 192   2.0000      -0.533957       -14.5297
 193   2.0000      -0.527637       -14.3577
 194   2.0000      -0.525175       -14.2907
 195   2.0000      -0.523630       -14.2487
 196   2.0000      -0.517309       -14.0767
 197   2.0000      -0.514197       -13.9920
 198   2.0000      -0.513488       -13.9727
 199   2.0000      -0.510170       -13.8824
 200   2.0000      -0.508308       -13.8318
 201   2.0000      -0.507098       -13.7988
 202   2.0000      -0.504656       -13.7324
 203   2.0000      -0.503978       -13.7140
 204   2.0000      -0.502829       -13.6827
 205   2.0000      -0.500066       -13.6075
 206   2.0000      -0.498061       -13.5529
 207   2.0000      -0.496766       -13.5177
 208   2.0000      -0.494568       -13.4579
 209   2.0000      -0.491715       -13.3802
 210   2.0000      -0.489741       -13.3265
 211   2.0000      -0.487155       -13.2562
 212   2.0000      -0.485243       -13.2041
 213   2.0000      -0.484117       -13.1735
 214   2.0000      -0.478879       -13.0310
 215   2.0000      -0.476802       -12.9744
 216   2.0000      -0.476332       -12.9617
 217   2.0000      -0.474748       -12.9185
 218   2.0000      -0.469150       -12.7662
 219   2.0000      -0.464138       -12.6298
 220   2.0000      -0.463204       -12.6044
 221   2.0000      -0.462402       -12.5826
 222   2.0000      -0.461604       -12.5609
 223   2.0000      -0.460249       -12.5240
 224   2.0000      -0.457856       -12.4589
 225   2.0000      -0.455982       -12.4079
 226   2.0000      -0.455763       -12.4019
 227   2.0000      -0.454815       -12.3761
 228   2.0000      -0.454206       -12.3596
 229   2.0000      -0.453365       -12.3367
 230   2.0000      -0.451429       -12.2840
 231   2.0000      -0.448503       -12.2044
 232   2.0000      -0.446070       -12.1382
 233   2.0000      -0.445838       -12.1319
 234   2.0000      -0.443431       -12.0664
 235   2.0000      -0.441800       -12.0220
 236   2.0000      -0.441679       -12.0187
 237   2.0000      -0.441217       -12.0061
 238   2.0000      -0.440254       -11.9799
 239   2.0000      -0.439961       -11.9719
 240   2.0000      -0.435926       -11.8621
 241   2.0000      -0.433010       -11.7828
 242   2.0000      -0.431962       -11.7543
 243   2.0000      -0.431418       -11.7395
 244   2.0000      -0.430786       -11.7223
 245   2.0000      -0.428653       -11.6642
 246   2.0000      -0.426679       -11.6105
 247   2.0000      -0.424980       -11.5643
 248   2.0000      -0.421964       -11.4822
 249   2.0000      -0.419740       -11.4217
 250   2.0000      -0.417968       -11.3735
 251   2.0000      -0.414085       -11.2678
 252   2.0000      -0.411138       -11.1876
 253   2.0000      -0.406037       -11.0488
 254   2.0000      -0.394173       -10.7260
 255   2.0000      -0.391109       -10.6426
 256   2.0000      -0.377938       -10.2842
 257   2.0000      -0.357480        -9.7275
 258   2.0000      -0.352669        -9.5966
 259   2.0000      -0.351651        -9.5689
 260   2.0000      -0.349682        -9.5153
 261   2.0000      -0.349533        -9.5113
 262   2.0000      -0.347332        -9.4514
 263   2.0000      -0.343869        -9.3571
 264   2.0000      -0.342778        -9.3275
 265   2.0000      -0.333604        -9.0778
 266   2.0000      -0.325758        -8.8643
 267   2.0000      -0.322796        -8.7837
 268   2.0000      -0.318420        -8.6646
 269   2.0000      -0.316381        -8.6092
 270   2.0000      -0.299507        -8.1500
 271   2.0000      -0.282982        -7.7003
 272   2.0000      -0.270369        -7.3571
 273   2.0000      -0.252669        -6.8755
 274   0.0000      -0.112997        -3.0748
 275   0.0000      -0.109402        -2.9770
 276   0.0000      -0.086577        -2.3559
 277   0.0000      -0.085152        -2.3171
 278   0.0000      -0.074424        -2.0252

MULLIKEN ATOMIC CHARGES
-----------------------
   0 C :    0.148320
   1 O :   -0.186367
   2 C :   -0.167865
   3 C :    0.000010
   4 C :    0.025226
   5 C :   -0.058906
   6 S :    0.210108
   7 C :    0.315349
   8 C :   -0.338748
   9 C :   -0.192357
  10 N :    0.158069
  11 C :   -0.184544
  12 N :    0.159113
  13 C :   -0.109477
  14 C :   -0.029460
  15 C :   -0.059591
  16 C :   -0.056667
  17 C :    0.041247
  18 C :   -0.067014
  19 S :    0.234896
  20 C :   -0.105611
  21 C :    0.014655
  22 C :    0.304970
  23 C :   -0.297555
  24 C :   -0.192921
  25 N :    0.182546
  26 C :   -0.187334
  27 N :    0.172553
  28 C :   -0.038469
  29 C :   -0.070112
  30 S :    0.174247
  31 C :    0.139965
  32 C :   -0.168378
  33 C :    0.173546
  34 C :    0.054822
  35 C :   -0.032156
  36 C :   -0.028552
  37 C :    0.056135
  38 C :    0.171564
  39 N :   -0.192768
  40 C :    0.122382
  41 C :   -0.166307
  42 C :    0.136829
  43 C :   -0.029785
  44 C :   -0.030787
  45 C :   -0.071132
  46 C :   -0.035721
  47 C :    0.011385
  48 C :   -0.100652
  49 S :    0.176171
  50 C :   -0.079785
  51 C :    0.021429
  52 C :    0.301262
  53 C :   -0.289032
  54 C :   -0.186277
  55 N :    0.171909
  56 C :   -0.190554
  57 N :    0.176528
  58 C :    0.011781
  59 C :   -0.103230
  60 S :    0.197760
  61 C :    0.044971
  62 C :   -0.151863
  63 C :    0.123061
  64 O :   -0.138533
  65 C :   -0.157664
  66 C :   -0.013781
  67 C :    0.258712
  68 C :   -0.321804
  69 C :   -0.179342
  70 N :    0.156087
  71 C :   -0.202238
  72 N :    0.177605
  73 C :    0.031650
  74 C :   -0.061906
  75 S :    0.213142
  76 H :    0.020598
  77 H :    0.043999
  78 H :    0.014334
  79 H :    0.026767
  80 H :    0.009807
  81 H :   -0.037033
  82 H :   -0.024436
  83 H :   -0.019286
  84 H :    0.041230
  85 H :    0.041248
  86 H :    0.042842
  87 H :   -0.037120
  88 H :   -0.018534
  89 H :   -0.024631
  90 H :    0.010357
  91 H :    0.016836
  92 H :    0.035299
  93 H :    0.017409
  94 H :    0.045555
Sum of atomic charges:   -0.0000000

LOEWDIN ATOMIC CHARGES
----------------------
   0 C :    0.069133
   1 O :   -0.174234
   2 C :   -0.211184
   3 C :   -0.037783
   4 C :   -0.043385
   5 C :   -0.149277
   6 S :    0.501652
   7 C :    0.076378
   8 C :   -0.135424
   9 C :   -0.016833
  10 N :   -0.050502
  11 C :   -0.024277
  12 N :   -0.041653
  13 C :   -0.111419
  14 C :    0.050873
  15 C :   -0.189017
  16 C :    0.011541
  17 C :   -0.081634
  18 C :   -0.163545
  19 S :    0.541500
  20 C :   -0.193225
  21 C :   -0.054867
  22 C :    0.079308
  23 C :   -0.101340
  24 C :   -0.020058
  25 N :   -0.025122
  26 C :   -0.015768
  27 N :   -0.033341
  28 C :   -0.035851
  29 C :   -0.137971
  30 S :    0.478834
  31 C :   -0.035908
  32 C :   -0.063964
  33 C :    0.036070
  34 C :   -0.039257
  35 C :   -0.001025
  36 C :   -0.030355
  37 C :   -0.039568
  38 C :    0.036070
  39 N :    0.014271
  40 C :    0.037921
  41 C :   -0.064457
  42 C :   -0.035465
  43 C :   -0.030529
  44 C :   -0.000728
  45 C :   -0.139201
  46 C :   -0.033880
  47 C :   -0.054876
  48 C :   -0.193085
  49 S :    0.479386
  50 C :   -0.150002
  51 C :   -0.074992
  52 C :    0.081931
  53 C :   -0.097742
  54 C :   -0.015448
  55 N :   -0.031439
  56 C :   -0.017259
  57 N :   -0.028263
  58 C :    0.012972
  59 C :   -0.183622
  60 S :    0.504230
  61 C :    0.046651
  62 C :   -0.098602
  63 C :    0.066550
  64 O :   -0.139123
  65 C :   -0.210660
  66 C :   -0.037727
  67 C :    0.061609
  68 C :   -0.142565
  69 C :   -0.019341
  70 N :   -0.050152
  71 C :   -0.038046
  72 N :   -0.044512
  73 C :   -0.046392
  74 C :   -0.148455
  75 S :    0.504758
  76 H :    0.044415
  77 H :    0.031622
  78 H :    0.053890
  79 H :    0.047547
  80 H :    0.040354
  81 H :    0.016262
  82 H :    0.032970
  83 H :    0.030338
  84 H :    0.034156
  85 H :    0.034238
  86 H :    0.029269
  87 H :    0.016144
  88 H :    0.030475
  89 H :    0.032943
  90 H :    0.040667
  91 H :    0.046838
  92 H :    0.055274
  93 H :    0.043497
  94 H :    0.031811

  Mayer bond orders larger than 0.100000
B(  0-C ,  1-O ) :   2.1000 B(  0-C ,  2-C ) :   1.0838 B(  0-C , 13-C ) :   0.9726
B(  2-C ,  3-C ) :   1.4613 B(  2-C ,  6-S ) :   1.1232 B(  3-C ,  4-C ) :   1.2734
B(  3-C ,  7-C ) :   0.9991 B(  4-C ,  5-C ) :   1.5380 B(  4-C , 76-H ) :   0.9953
B(  5-C ,  6-S ) :   1.1874 B(  5-C , 77-H ) :   0.9624 B(  7-C ,  8-C ) :   1.6483
B(  7-C , 13-C ) :   1.0736 B(  8-C ,  9-C ) :   1.1487 B(  8-C , 11-C ) :   1.1354
B(  9-C , 10-N ) :   2.9877 B( 11-C , 12-N ) :   2.9658 B( 13-C , 14-C ) :   1.5324
B( 14-C , 15-C ) :   1.2569 B( 14-C , 78-H ) :   0.9412 B( 15-C , 16-C ) :   1.3385
B( 15-C , 19-S ) :   1.0678 B( 16-C , 17-C ) :   1.3265 B( 16-C , 79-H ) :   1.0085
B( 17-C , 18-C ) :   1.3638 B( 17-C , 22-C ) :   0.9873 B( 18-C , 19-S ) :   1.1282
B( 18-C , 20-C ) :   1.1963 B( 20-C , 21-C ) :   1.4434 B( 20-C , 30-S ) :   1.1088
B( 21-C , 22-C ) :   1.0018 B( 21-C , 28-C ) :   1.2733 B( 22-C , 23-C ) :   1.7136
B( 23-C , 24-C ) :   1.1339 B( 23-C , 26-C ) :   1.1351 B( 24-C , 25-N ) :   2.9947
B( 26-C , 27-N ) :   2.9885 B( 28-C , 29-C ) :   1.4891 B( 28-C , 80-H ) :   0.9933
B( 29-C , 30-S ) :   1.1214 B( 29-C , 31-C ) :   1.0495 B( 31-C , 32-C ) :   1.3245
B( 31-C , 36-C ) :   1.3205 B( 32-C , 33-C ) :   1.3181 B( 32-C , 81-H ) :   0.9899
B( 33-C , 34-C ) :   1.2855 B( 33-C , 39-N ) :   1.1248 B( 34-C , 35-C ) :   1.3194
B( 34-C , 37-C ) :   1.1008 B( 35-C , 36-C ) :   1.4229 B( 35-C , 82-H ) :   0.9963
B( 36-C , 83-H ) :   0.9882 B( 37-C , 38-C ) :   1.2849 B( 37-C , 44-C ) :   1.3183
B( 38-C , 39-N ) :   1.1260 B( 38-C , 41-C ) :   1.3200 B( 39-N , 40-C ) :   0.9766
B( 40-C , 84-H ) :   0.9673 B( 40-C , 85-H ) :   0.9673 B( 40-C , 86-H ) :   0.9742
B( 41-C , 42-C ) :   1.3265 B( 41-C , 87-H ) :   0.9891 B( 42-C , 43-C ) :   1.3198
B( 42-C , 45-C ) :   1.0462 B( 43-C , 44-C ) :   1.4227 B( 43-C , 88-H ) :   0.9892
B( 44-C , 89-H ) :   0.9964 B( 45-C , 46-C ) :   1.4905 B( 45-C , 49-S ) :   1.1228
B( 46-C , 47-C ) :   1.2762 B( 46-C , 90-H ) :   0.9926 B( 47-C , 48-C ) :   1.4470
B( 47-C , 52-C ) :   1.0017 B( 48-C , 49-S ) :   1.1082 B( 48-C , 50-C ) :   1.1998
B( 50-C , 51-C ) :   1.4089 B( 50-C , 60-S ) :   1.1551 B( 51-C , 52-C ) :   0.9925
B( 51-C , 58-C ) :   1.3009 B( 52-C , 53-C ) :   1.7145 B( 53-C , 54-C ) :   1.1333
B( 53-C , 56-C ) :   1.1322 B( 54-C , 55-N ) :   2.9887 B( 56-C , 57-N ) :   2.9934
B( 58-C , 59-C ) :   1.4101 B( 58-C , 91-H ) :   1.0014 B( 59-C , 60-S ) :   1.0839
B( 59-C , 61-C ) :   1.1232 B( 61-C , 62-C ) :   1.6804 B( 61-C , 92-H ) :   0.9456
B( 62-C , 63-C ) :   0.9414 B( 62-C , 67-C ) :   1.0216 B( 63-C , 64-O ) :   2.2459
B( 63-C , 65-C ) :   1.0257 B( 65-C , 66-C ) :   1.4546 B( 65-C , 75-S ) :   1.1319
B( 66-C , 67-C ) :   1.0251 B( 66-C , 73-C ) :   1.2751 B( 67-C , 68-C ) :   1.6635
B( 68-C , 69-C ) :   1.1342 B( 68-C , 71-C ) :   1.1490 B( 69-C , 70-N ) :   3.0004
B( 71-C , 72-N ) :   3.0222 B( 73-C , 74-C ) :   1.5378 B( 73-C , 93-H ) :   0.9960
B( 74-C , 75-S ) :   1.1908 B( 74-C , 94-H ) :   0.9626

-----------------------------------------------------------------------------
         ABSORPTION SPECTRUM VIA TRANSITION ELECTRIC DIPOLE MOMENTS
-----------------------------------------------------------------------------
State   Energy  Wavelength   fosc         T2         TX        TY        TZ
        (cm-1)    (nm)                  (au**2)     (au)      (au)      (au)
-----------------------------------------------------------------------------
   0   13573.7    736.7   0.322820462   7.82960  -2.57391  -1.05973  -0.28555
   1   14335.7    697.6   0.189564274   4.35325  -1.84104   0.62868  -0.75406
   2   20714.8    482.7   0.649208049  10.31762  -2.51173  -1.85119  -0.76285
   3   21900.9    456.6   0.953993243  14.34030   3.52278  -0.95622   1.00796
   4   22843.8    437.8   0.075592272   1.08939  -1.02294   0.00025   0.20735
   5   23200.6    431.0   0.101067804   1.43413   1.12084  -0.20756   0.36711
   6   23672.3    422.4   0.004876254   0.06781  -0.04892   0.22711  -0.11766
   7   24481.9    408.5   0.418924911   5.63335  -1.74049   0.87914  -1.35321
   8   24642.0    405.8   0.198319826   2.64951   1.23370  -0.65348   0.83693
   9   25692.6    389.2   0.500852628   6.41766  -1.68588  -1.86933   0.28480
  10   27868.4    358.8   0.029354510   0.34677   0.29640   0.39067  -0.32602
  11   28792.1    347.3   0.105259679   1.20355  -1.08806  -0.08287   0.11317
  12   29486.6    339.1   0.148120619   1.65374  -0.62339  -0.83008   0.75901
  13   30065.8    332.6   0.042135096   0.46137  -0.39370  -0.54589   0.09147
  14   30365.9    329.3   0.534816116   5.79820   2.17755  -0.13804  -1.01854
  15   30757.7    325.1   0.013253022   0.14185  -0.31318   0.18962   0.08841
  16   30806.5    324.6   0.428202673   4.57596   1.74110  -1.22716   0.19649
  17   30831.5    324.3   0.133519955   1.42570  -0.97120   0.67834   0.14944
  18   30889.4    323.7   0.076464881   0.81495  -0.09814   0.88498  -0.14874
  19   31219.0    320.3   0.718920175   7.58119   1.95833   1.86105  -0.53162
  20   31608.1    316.4   0.141105491   1.46968   0.28499  -0.71436   0.93709
  21   31683.3    315.6   0.290183704   3.01521  -0.09065   1.38032  -1.04962
  22   32069.1    311.8   0.028663712   0.29425  -0.07786  -0.47697   0.24635
  23   32560.9    307.1   0.002067104   0.02090  -0.04854  -0.13326   0.02805
  24   32764.9    305.2   0.061298592   0.61591  -0.65508  -0.43218  -0.00295
  25   33131.0    301.8   0.056115185   0.55760   0.08390   0.66594  -0.32723
  26   33308.0    300.2   0.091009740   0.89953  -0.69398   0.37731  -0.52493
  27   33387.3    299.5   0.149913766   1.47821  -0.44066   0.39555  -1.06187
  28   33734.1    296.4   0.088014274   0.85893   0.01081   0.92025   0.10935
  29   34133.7    293.0   0.153206078   1.47764  -1.09441   0.32750  -0.41552
  30   34480.9    290.0   0.138740095   1.32464  -0.78214   0.80494   0.25488
  31   34828.9    287.1   0.084372085   0.79751   0.39219  -0.64444   0.47790
  32   34933.2    286.3   0.009549748   0.09000   0.15205   0.05909  -0.25177
  33   35127.6    284.7   0.544384381   5.10191   1.50172   1.36121  -0.99692
  34   35283.1    283.4   0.019308985   0.18016   0.28023   0.31669   0.03665
  35   35828.5    279.1   0.111406426   1.02366  -0.19961  -0.86970   0.47690
  36   35984.3    277.9   0.105336971   0.96370  -0.04839   0.62579  -0.75482
  37   36266.3    275.7   0.552906136   5.01907   1.76804   1.01948  -0.92399
  38   36504.4    273.9   0.125036169   1.12763   0.89905   0.40685  -0.39219
  39   36674.6    272.7   0.011912262   0.10693   0.01431   0.17921  -0.27315
  40   36856.8    271.3   0.128406159   1.14695   0.44134  -0.59022   0.77706
  41   36951.6    270.6   0.049624217   0.44212   0.39602   0.40899  -0.34353
  42   37174.9    269.0   0.305963228   2.70953  -1.08239  -0.32313   1.19731
  43   37322.2    267.9   0.025888297   0.22836  -0.47436   0.05754  -0.00539
  44   37463.9    266.9   0.055577387   0.48838  -0.44650  -0.36194   0.39752
  45   37990.4    263.2   0.004073593   0.03530   0.06645   0.11999  -0.12840
  46   38064.8    262.7   0.003530440   0.03053  -0.12833  -0.07949   0.08801
  47   38277.4    261.3   0.001952880   0.01680  -0.12620  -0.02871  -0.00667
  48   38452.4    260.1   0.043901696   0.37587  -0.32064  -0.17197   0.49344
  49   38659.0    258.7   0.055408780   0.47185  -0.00297   0.60046  -0.33359
  50   38885.9    257.2   0.045695884   0.38687  -0.09114   0.61348  -0.04689
  51   39205.2    255.1   0.025223611   0.21181   0.37173  -0.18338  -0.19998
  52   39384.6    253.9   0.013989804   0.11694  -0.26422   0.19477  -0.09589
  53   39555.3    252.8   0.027544870   0.22925   0.39265  -0.25613   0.09733
  54   39685.9    252.0   0.010264247   0.08515   0.14635   0.16894  -0.18758
  55   39889.5    250.7   0.009771096   0.08064  -0.19958  -0.18412   0.08311
  56   40116.6    249.3   0.010365662   0.08506  -0.28631   0.01637   0.05313

FINAL SINGLE POINT ENERGY     -5287.471015075624

DIPOLE MOMENT
-------------
                                X             Y             Z
Electronic contribution:      1.49240       8.47954      -4.77720
Nuclear contribution   :     -0.41493      -4.68176       1.62874
                        -----------------------------------------
Total Dipole Moment    :      1.07747       3.79778      -3.14847
                        -----------------------------------------
Magnitude (a.u.)       :      5.04945
Magnitude (Debye)      :     12.83467

Rotational constants in cm-1:     0.001296     0.000161     0.000148
Rotational constants in MHz :    38.840928     4.831011     4.447838

                             ****ORCA TERMINATED NORMALLY****
TOTAL RUN TIME: 0 days 0 hours 9 minutes 26 seconds 89 msec
