                         Program Version 4.2.0 -  RELEASE  -
|  1> # ORCA input file
|  2> # SCF done       -191.488264842895          0.000583202267
|  3> ! CAM-B3LYP def2-SVP def2/J RIJCOSX Grid4 TightSCF
|  4> %maxcore 5000
|  5> %tddft
|  6>     Mode sTDDFT
|  7>     Ethresh 5.0
|  8>     maxcore 5000
|  9> end
| 10>
| 11> %pal
| 12>   nprocs 6
| 13>   end
| 14> * xyz 0 1
| 15>    C       11.85487         4.36217         2.46247
| 16>    O       11.69320         3.19304         2.76496
| 17>    C       12.23439         5.46749         3.32708
| 18>    C       12.31351         6.65712         2.61259
| 19>    C       12.67904         7.74924         3.42218
| 20>    C       12.86470         7.35597         4.71527
| 21>    S       12.60374         5.67326         4.98251
| 22>    C       11.98568         6.39565         1.22421
| 23>    C       11.95219         7.34888         0.24264
| 24>    C       12.25056         8.70140         0.51749
| 25>    N       12.48926         9.80492         0.72003
| 26>    C       11.62798         7.13630        -1.11269
| 27>    N       11.37351         7.03726        -2.22768
| 28>    C       11.70733         4.96869         1.12174
| 29>    C       11.37832         4.30341        -0.02562
| 30>    C       11.08848         2.94375        -0.24425
| 31>    C       10.78039         2.45274        -1.51693
| 32>    C       10.52137         1.09379        -1.51158
| 33>    C       10.62888         0.53622        -0.21764
| 34>    S       11.05167         1.67351         0.97596
| 35>    C       10.34043        -0.84938        -0.31359
| 36>    C       10.05553        -1.16770        -1.65479
| 37>    C       10.15965         0.04357        -2.45293
| 38>    C        9.95751         0.17005        -3.79482
| 39>    C       10.08676         1.40822        -4.46061
| 40>    N       10.19158         2.40971        -5.00829
| 41>    C        9.60495        -0.92399        -4.61450
| 42>    N        9.31531        -1.80244        -5.29149
| 43>    C        9.75303        -2.51739        -1.83811
| 44>    C        9.80681        -3.20814        -0.64374
| 45>    S       10.23461        -2.20363         0.71915
| 46>    C        9.53500        -4.59145        -0.44901
| 47>    O        9.58575        -5.10733         0.81563
| 48>    C        9.25742        -6.41145         0.66232
| 49>    C        9.02325        -6.63204        -0.72679
| 50>    N        9.21632        -5.44123        -1.37478
| 51>    C        8.65456        -7.87125        -1.22317
| 52>    C        8.52413        -8.86304        -0.26401
| 53>    C        8.76118        -8.61391         1.12084
| 54>    C        9.13858        -7.38684         1.63120
| 55>    O        8.53175        -9.76727         1.78298
| 56>    C        8.16553       -10.66110         0.81200
| 57>    N        8.15486       -10.17302        -0.39023
| 58>    C        7.80636       -11.98693         1.20711
| 59>    C        7.40988       -12.92166         0.32392
| 60>    C        6.98015       -14.22858         0.70741
| 61>    O        6.95391       -14.58635         2.03072
| 62>    C        6.45771       -15.84219         2.03691
| 63>    C        6.20279       -16.20893         0.68228
| 64>    N        6.55639       -15.14820        -0.10387
| 65>    C        5.66949       -17.44220         0.34109
| 66>    C        5.40032       -18.27415         1.41494
| 67>    C        5.66519       -17.88213         2.76125
| 68>    C        6.20319       -16.66236         3.11911
| 69>    O        5.28163       -18.89879         3.56321
| 70>    C        4.80041       -19.85613         2.70500
| 71>    N        4.85802       -19.52904         1.45041
| 72>    C        4.27301       -21.07868         3.21392
| 73>    C        4.22063       -21.35576         4.53462
| 74>    C        3.67900       -22.54052         5.10346
| 75>    C        3.08673       -23.62622         4.48311
| 76>    C        2.66460       -24.58868         5.40057
| 77>    C        2.93863       -24.23555         6.73044
| 78>    S        3.71182       -22.72368         6.85200
| 79>    C        2.46767       -25.27749         7.58036
| 80>    C        1.89901       -26.27952         6.78629
| 81>    C        1.99976       -25.88666         5.39221
| 82>    C        1.56244       -26.57950         4.30178
| 83>    C        1.71686       -26.08898         2.98796
| 84>    N        1.83917       -25.69370         1.91859
| 85>    C        0.92500       -27.83314         4.41414
| 86>    N        0.40567       -28.85171         4.50097
| 87>    C        1.40307       -27.35348         7.55015
| 88>    C        1.60232       -27.14752         8.88143
| 89>    S        2.39417       -25.65009         9.24440
| 90>    H       12.80010         8.76115         3.08325
| 91>    H       13.14637         7.97398         5.54536
| 92>    H       11.32566         4.89454        -0.93259
| 93>    H       10.75479         3.08699        -2.38542
| 94>    H        9.50208        -2.99790        -2.76538
| 95>    H        8.47427        -8.04693        -2.26825
| 96>    H        9.31339        -7.20750         2.67771
| 97>    H        7.84784       -12.19397         2.26669
| 98>    H        7.37671       -12.70446        -0.73198
| 99>    H        5.47096       -17.72605        -0.67662
|100>    H        6.39604       -16.37557         4.13830
|101>    H        3.90756       -21.75937         2.46244
|102>    H        4.61142       -20.62765         5.23342
|103>    H        2.97034       -23.70163         3.41806
|104>    H        0.92679       -28.22787         7.14607
|105>    H        1.32987       -27.79149         9.69346
|106> *
|107>
|108>                          ****END OF INPUT****

CARTESIAN COORDINATES (ANGSTROEM)
---------------------------------
  C     11.854870    4.362170    2.462470
  O     11.693200    3.193040    2.764960
  C     12.234390    5.467490    3.327080
  C     12.313510    6.657120    2.612590
  C     12.679040    7.749240    3.422180
  C     12.864700    7.355970    4.715270
  S     12.603740    5.673260    4.982510
  C     11.985680    6.395650    1.224210
  C     11.952190    7.348880    0.242640
  C     12.250560    8.701400    0.517490
  N     12.489260    9.804920    0.720030
  C     11.627980    7.136300   -1.112690
  N     11.373510    7.037260   -2.227680
  C     11.707330    4.968690    1.121740
  C     11.378320    4.303410   -0.025620
  C     11.088480    2.943750   -0.244250
  C     10.780390    2.452740   -1.516930
  C     10.521370    1.093790   -1.511580
  C     10.628880    0.536220   -0.217640
  S     11.051670    1.673510    0.975960
  C     10.340430   -0.849380   -0.313590
  C     10.055530   -1.167700   -1.654790
  C     10.159650    0.043570   -2.452930
  C      9.957510    0.170050   -3.794820
  C     10.086760    1.408220   -4.460610
  N     10.191580    2.409710   -5.008290
  C      9.604950   -0.923990   -4.614500
  N      9.315310   -1.802440   -5.291490
  C      9.753030   -2.517390   -1.838110
  C      9.806810   -3.208140   -0.643740
  S     10.234610   -2.203630    0.719150
  C      9.535000   -4.591450   -0.449010
  O      9.585750   -5.107330    0.815630
  C      9.257420   -6.411450    0.662320
  C      9.023250   -6.632040   -0.726790
  N      9.216320   -5.441230   -1.374780
  C      8.654560   -7.871250   -1.223170
  C      8.524130   -8.863040   -0.264010
  C      8.761180   -8.613910    1.120840
  C      9.138580   -7.386840    1.631200
  O      8.531750   -9.767270    1.782980
  C      8.165530  -10.661100    0.812000
  N      8.154860  -10.173020   -0.390230
  C      7.806360  -11.986930    1.207110
  C      7.409880  -12.921660    0.323920
  C      6.980150  -14.228580    0.707410
  O      6.953910  -14.586350    2.030720
  C      6.457710  -15.842190    2.036910
  C      6.202790  -16.208930    0.682280
  N      6.556390  -15.148200   -0.103870
  C      5.669490  -17.442200    0.341090
  C      5.400320  -18.274150    1.414940
  C      5.665190  -17.882130    2.761250
  C      6.203190  -16.662360    3.119110
  O      5.281630  -18.898790    3.563210
  C      4.800410  -19.856130    2.705000
  N      4.858020  -19.529040    1.450410
  C      4.273010  -21.078680    3.213920
  C      4.220630  -21.355760    4.534620
  C      3.679000  -22.540520    5.103460
  C      3.086730  -23.626220    4.483110
  C      2.664600  -24.588680    5.400570
  C      2.938630  -24.235550    6.730440
  S      3.711820  -22.723680    6.852000
  C      2.467670  -25.277490    7.580360
  C      1.899010  -26.279520    6.786290
  C      1.999760  -25.886660    5.392210
  C      1.562440  -26.579500    4.301780
  C      1.716860  -26.088980    2.987960
  N      1.839170  -25.693700    1.918590
  C      0.925000  -27.833140    4.414140
  N      0.405670  -28.851710    4.500970
  C      1.403070  -27.353480    7.550150
  C      1.602320  -27.147520    8.881430
  S      2.394170  -25.650090    9.244400
  H     12.800100    8.761150    3.083250
  H     13.146370    7.973980    5.545360
  H     11.325660    4.894540   -0.932590
  H     10.754790    3.086990   -2.385420
  H      9.502080   -2.997900   -2.765380
  H      8.474270   -8.046930   -2.268250
  H      9.313390   -7.207500    2.677710
  H      7.847840  -12.193970    2.266690
  H      7.376710  -12.704460   -0.731980
  H      5.470960  -17.726050   -0.676620
  H      6.396040  -16.375570    4.138300
  H      3.907560  -21.759370    2.462440
  H      4.611420  -20.627650    5.233420
  H      2.970340  -23.701630    3.418060
  H      0.926790  -28.227870    7.146070
  H      1.329870  -27.791490    9.693460

 Total Charge           Charge          ....    0
 Multiplicity           Mult            ....    1
 Number of Electrons    NEL             ....  536
 Basis Dimension        Dim             .... 1150

ORBITAL ENERGIES
----------------

  NO   OCC          E(Eh)            E(eV)
   0   2.0000     -89.001314     -2421.8489
   1   2.0000     -88.995647     -2421.6947
   2   2.0000     -88.993899     -2421.6471
   3   2.0000     -88.991065     -2421.5700
   4   2.0000     -88.989388     -2421.5243
   5   2.0000     -19.311281      -525.4867
   6   2.0000     -19.303961      -525.2875
   7   2.0000     -19.300528      -525.1941
   8   2.0000     -19.298888      -525.1494
   9   2.0000     -19.233738      -523.3766
  10   2.0000     -14.432637      -392.7320
  11   2.0000     -14.432035      -392.7156
  12   2.0000     -14.429851      -392.6562
  13   2.0000     -14.429610      -392.6496
  14   2.0000     -14.425586      -392.5401
  15   2.0000     -14.421593      -392.4315
  16   2.0000     -14.417607      -392.3230
  17   2.0000     -14.412130      -392.1740
  18   2.0000     -14.411394      -392.1540
  19   2.0000     -14.406019      -392.0077
  20   2.0000     -10.389228      -282.7053
  21   2.0000     -10.387480      -282.6577
  22   2.0000     -10.375671      -282.3364
  23   2.0000     -10.371974      -282.2358
  24   2.0000     -10.370557      -282.1972
  25   2.0000     -10.369179      -282.1597
  26   2.0000     -10.364075      -282.0208
  27   2.0000     -10.356810      -281.8231
  28   2.0000     -10.353268      -281.7268
  29   2.0000     -10.352543      -281.7070
  30   2.0000     -10.351773      -281.6861
  31   2.0000     -10.349994      -281.6377
  32   2.0000     -10.347500      -281.5698
  33   2.0000     -10.344124      -281.4779
  34   2.0000     -10.343863      -281.4708
  35   2.0000     -10.340868      -281.3893
  36   2.0000     -10.337554      -281.2991
  37   2.0000     -10.335739      -281.2498
  38   2.0000     -10.333268      -281.1825
  39   2.0000     -10.332288      -281.1558
  40   2.0000     -10.332232      -281.1543
  41   2.0000     -10.331652      -281.1386
  42   2.0000     -10.331271      -281.1282
  43   2.0000     -10.331062      -281.1225
  44   2.0000     -10.330185      -281.0986
  45   2.0000     -10.329955      -281.0924
  46   2.0000     -10.328638      -281.0565
  47   2.0000     -10.327226      -281.0181
  48   2.0000     -10.323911      -280.9279
  49   2.0000     -10.323197      -280.9085
  50   2.0000     -10.322728      -280.8957
  51   2.0000     -10.318464      -280.7797
  52   2.0000     -10.316324      -280.7214
  53   2.0000     -10.314700      -280.6772
  54   2.0000     -10.313665      -280.6491
  55   2.0000     -10.313406      -280.6420
  56   2.0000     -10.311842      -280.5995
  57   2.0000     -10.311350      -280.5861
  58   2.0000     -10.309506      -280.5359
  59   2.0000     -10.309204      -280.5277
  60   2.0000     -10.306380      -280.4509
  61   2.0000     -10.306117      -280.4437
  62   2.0000     -10.305661      -280.4313
  63   2.0000     -10.305204      -280.4189
  64   2.0000     -10.303948      -280.3847
  65   2.0000     -10.302667      -280.3498
  66   2.0000     -10.302517      -280.3457
  67   2.0000     -10.301784      -280.3258
  68   2.0000     -10.301384      -280.3149
  69   2.0000     -10.299801      -280.2718
  70   2.0000     -10.299085      -280.2523
  71   2.0000     -10.294403      -280.1250
  72   2.0000     -10.293710      -280.1061
  73   2.0000     -10.286510      -279.9102
  74   2.0000     -10.282306      -279.7958
  75   2.0000      -8.095727      -220.2959
  76   2.0000      -8.090597      -220.1563
  77   2.0000      -8.086372      -220.0414
  78   2.0000      -8.085947      -220.0298
  79   2.0000      -8.084450      -219.9891
  80   2.0000      -6.064852      -165.0330
  81   2.0000      -6.060708      -164.9202
  82   2.0000      -6.059758      -164.8944
  83   2.0000      -6.058281      -164.8542
  84   2.0000      -6.055807      -164.7869
  85   2.0000      -6.055315      -164.7735
  86   2.0000      -6.055039      -164.7660
  87   2.0000      -6.053692      -164.7293
  88   2.0000      -6.053345      -164.7199
  89   2.0000      -6.051010      -164.6564
  90   2.0000      -6.050988      -164.6558
  91   2.0000      -6.049272      -164.6091
  92   2.0000      -6.048926      -164.5996
  93   2.0000      -6.048479      -164.5875
  94   2.0000      -6.047046      -164.5485
  95   2.0000      -1.239935       -33.7404
  96   2.0000      -1.232579       -33.5402
  97   2.0000      -1.229033       -33.4437
  98   2.0000      -1.226775       -33.3823
  99   2.0000      -1.150739       -31.3132
 100   2.0000      -1.051763       -28.6199
 101   2.0000      -1.044074       -28.4107
 102   2.0000      -1.035248       -28.1705
 103   2.0000      -1.032499       -28.0957
 104   2.0000      -1.025227       -27.8978
 105   2.0000      -1.024446       -27.8766
 106   2.0000      -1.024048       -27.8658
 107   2.0000      -1.021433       -27.7946
 108   2.0000      -1.018099       -27.7039
 109   2.0000      -1.016703       -27.6659
 110   2.0000      -1.009903       -27.4809
 111   2.0000      -1.007339       -27.4111
 112   2.0000      -1.006047       -27.3759
 113   2.0000      -1.001794       -27.2602
 114   2.0000      -0.996650       -27.1202
 115   2.0000      -0.974532       -26.5184
 116   2.0000      -0.966963       -26.3124
 117   2.0000      -0.961133       -26.1538
 118   2.0000      -0.958795       -26.0901
 119   2.0000      -0.956441       -26.0261
 120   2.0000      -0.926907       -25.2224
 121   2.0000      -0.923715       -25.1356
 122   2.0000      -0.915222       -24.9044
 123   2.0000      -0.910272       -24.7698
 124   2.0000      -0.896439       -24.3934
 125   2.0000      -0.889189       -24.1961
 126   2.0000      -0.878840       -23.9145
 127   2.0000      -0.867071       -23.5942
 128   2.0000      -0.864785       -23.5320
 129   2.0000      -0.862603       -23.4726
 130   2.0000      -0.859624       -23.3916
 131   2.0000      -0.855041       -23.2668
 132   2.0000      -0.853665       -23.2294
 133   2.0000      -0.850911       -23.1545
 134   2.0000      -0.841290       -22.8927
 135   2.0000      -0.821530       -22.3550
 136   2.0000      -0.804292       -21.8859
 137   2.0000      -0.789599       -21.4861
 138   2.0000      -0.782344       -21.2887
 139   2.0000      -0.778198       -21.1759
 140   2.0000      -0.775104       -21.0917
 141   2.0000      -0.765749       -20.8371
 142   2.0000      -0.751332       -20.4448
 143   2.0000      -0.736612       -20.0442
 144   2.0000      -0.730734       -19.8843
 145   2.0000      -0.722063       -19.6483
 146   2.0000      -0.714686       -19.4476
 147   2.0000      -0.709742       -19.3131
 148   2.0000      -0.707066       -19.2402
 149   2.0000      -0.703759       -19.1503
 150   2.0000      -0.703330       -19.1386
 151   2.0000      -0.695478       -18.9249
 152   2.0000      -0.694139       -18.8885
 153   2.0000      -0.686035       -18.6680
 154   2.0000      -0.679587       -18.4925
 155   2.0000      -0.677690       -18.4409
 156   2.0000      -0.676307       -18.4032
 157   2.0000      -0.672173       -18.2908
 158   2.0000      -0.662577       -18.0296
 159   2.0000      -0.656586       -17.8666
 160   2.0000      -0.650055       -17.6889
 161   2.0000      -0.647357       -17.6155
 162   2.0000      -0.640749       -17.4357
 163   2.0000      -0.631106       -17.1733
 164   2.0000      -0.630837       -17.1660
 165   2.0000      -0.624003       -16.9800
 166   2.0000      -0.622508       -16.9393
 167   2.0000      -0.618796       -16.8383
 168   2.0000      -0.614743       -16.7280
 169   2.0000      -0.609161       -16.5761
 170   2.0000      -0.605741       -16.4831
 171   2.0000      -0.602614       -16.3980
 172   2.0000      -0.592880       -16.1331
 173   2.0000      -0.586896       -15.9703
 174   2.0000      -0.583932       -15.8896
 175   2.0000      -0.581652       -15.8276
 176   2.0000      -0.577924       -15.7261
 177   2.0000      -0.572557       -15.5801
 178   2.0000      -0.571023       -15.5383
 179   2.0000      -0.570147       -15.5145
 180   2.0000      -0.570064       -15.5122
 181   2.0000      -0.556820       -15.1519
 182   2.0000      -0.556577       -15.1452
 183   2.0000      -0.555217       -15.1082
 184   2.0000      -0.550691       -14.9851
 185   2.0000      -0.549615       -14.9558
 186   2.0000      -0.547101       -14.8874
 187   2.0000      -0.546229       -14.8636
 188   2.0000      -0.545382       -14.8406
 189   2.0000      -0.543841       -14.7987
 190   2.0000      -0.537911       -14.6373
 191   2.0000      -0.534446       -14.5430
 192   2.0000      -0.532492       -14.4898
 193   2.0000      -0.521973       -14.2036
 194   2.0000      -0.514752       -14.0071
 195   2.0000      -0.513043       -13.9606
 196   2.0000      -0.509910       -13.8754
 197   2.0000      -0.509114       -13.8537
 198   2.0000      -0.506573       -13.7845
 199   2.0000      -0.504323       -13.7233
 200   2.0000      -0.503111       -13.6904
 201   2.0000      -0.499606       -13.5950
 202   2.0000      -0.498019       -13.5518
 203   2.0000      -0.495618       -13.4865
 204   2.0000      -0.492916       -13.4129
 205   2.0000      -0.492672       -13.4063
 206   2.0000      -0.492159       -13.3923
 207   2.0000      -0.487848       -13.2750
 208   2.0000      -0.484828       -13.1928
 209   2.0000      -0.484342       -13.1796
 210   2.0000      -0.481648       -13.1063
 211   2.0000      -0.479229       -13.0405
 212   2.0000      -0.473652       -12.8887
 213   2.0000      -0.469114       -12.7652
 214   2.0000      -0.465654       -12.6711
 215   2.0000      -0.462517       -12.5857
 216   2.0000      -0.460871       -12.5409
 217   2.0000      -0.460554       -12.5323
 218   2.0000      -0.458423       -12.4743
 219   2.0000      -0.457134       -12.4392
 220   2.0000      -0.456704       -12.4275
 221   2.0000      -0.454786       -12.3753
 222   2.0000      -0.453013       -12.3271
 223   2.0000      -0.450335       -12.2542
 224   2.0000      -0.450222       -12.2512
 225   2.0000      -0.448720       -12.2103
 226   2.0000      -0.448353       -12.2003
 227   2.0000      -0.444962       -12.1080
 228   2.0000      -0.444119       -12.0851
 229   2.0000      -0.442903       -12.0520
 230   2.0000      -0.442616       -12.0442
 231   2.0000      -0.441939       -12.0258
 232   2.0000      -0.441520       -12.0144
 233   2.0000      -0.440222       -11.9791
 234   2.0000      -0.439668       -11.9640
 235   2.0000      -0.438026       -11.9193
 236   2.0000      -0.435019       -11.8375
 237   2.0000      -0.433301       -11.7907
 238   2.0000      -0.430733       -11.7208
 239   2.0000      -0.425770       -11.5858
 240   2.0000      -0.425255       -11.5718
 241   2.0000      -0.425062       -11.5665
 242   2.0000      -0.417978       -11.3738
 243   2.0000      -0.417046       -11.3484
 244   2.0000      -0.413332       -11.2473
 245   2.0000      -0.412980       -11.2378
 246   2.0000      -0.394640       -10.7387
 247   2.0000      -0.393291       -10.7020
 248   2.0000      -0.378625       -10.3029
 249   2.0000      -0.376400       -10.2424
 250   2.0000      -0.371441       -10.1074
 251   2.0000      -0.370240       -10.0747
 252   2.0000      -0.364510        -9.9188
 253   2.0000      -0.358855        -9.7649
 254   2.0000      -0.354733        -9.6528
 255   2.0000      -0.352893        -9.6027
 256   2.0000      -0.350813        -9.5461
 257   2.0000      -0.348273        -9.4770
 258   2.0000      -0.344814        -9.3829
 259   2.0000      -0.327474        -8.9110
 260   2.0000      -0.322007        -8.7623
 261   2.0000      -0.321072        -8.7368
 262   2.0000      -0.311369        -8.4728
 263   2.0000      -0.307095        -8.3565
 264   2.0000      -0.303477        -8.2580
 265   2.0000      -0.281859        -7.6698
 266   2.0000      -0.265817        -7.2332
 267   2.0000      -0.256273        -6.9735
 268   0.0000      -0.113739        -3.0950
 269   0.0000      -0.102897        -2.8000
 270   0.0000      -0.088099        -2.3973
 271   0.0000      -0.078359        -2.1323
 272   0.0000      -0.066321        -1.8047

MULLIKEN ATOMIC CHARGES
-----------------------
   0 C :    0.150188
   1 O :   -0.185014
   2 C :   -0.168447
   3 C :    0.003577
   4 C :    0.023317
   5 C :   -0.056490
   6 S :    0.214936
   7 C :    0.313747
   8 C :   -0.333323
   9 C :   -0.190781
  10 N :    0.157994
  11 C :   -0.185037
  12 N :    0.161848
  13 C :   -0.104092
  14 C :   -0.035132
  15 C :   -0.054293
  16 C :   -0.060308
  17 C :    0.044524
  18 C :   -0.070121
  19 S :    0.240373
  20 C :   -0.100633
  21 C :    0.018976
  22 C :    0.303108
  23 C :   -0.294075
  24 C :   -0.193920
  25 N :    0.183490
  26 C :   -0.192618
  27 N :    0.186525
  28 C :   -0.032453
  29 C :   -0.116732
  30 S :    0.239398
  31 C :    0.120754
  32 O :   -0.213097
  33 C :    0.222144
  34 C :    0.033356
  35 N :   -0.039494
  36 C :   -0.089021
  37 C :    0.022996
  38 C :    0.213535
  39 C :   -0.164334
  40 O :   -0.202526
  41 C :    0.119577
  42 N :   -0.044631
  43 C :   -0.005515
  44 C :    0.006920
  45 C :    0.116322
  46 O :   -0.213682
  47 C :    0.219599
  48 C :    0.022581
  49 N :   -0.033667
  50 C :   -0.092100
  51 C :    0.022187
  52 C :    0.227898
  53 C :   -0.169948
  54 O :   -0.219606
  55 C :    0.107906
  56 N :   -0.039022
  57 C :   -0.025847
  58 C :    0.065719
  59 C :   -0.085177
  60 C :   -0.023917
  61 C :    0.001858
  62 C :   -0.102410
  63 S :    0.190758
  64 C :   -0.117227
  65 C :   -0.032817
  66 C :    0.301821
  67 C :   -0.296289
  68 C :   -0.185588
  69 N :    0.171136
  70 C :   -0.190059
  71 N :    0.174550
  72 C :    0.036767
  73 C :   -0.079778
  74 S :    0.182279
  75 H :    0.019362
  76 H :    0.045451
  77 H :    0.017747
  78 H :    0.028502
  79 H :    0.028597
  80 H :   -0.017440
  81 H :   -0.012516
  82 H :    0.020809
  83 H :    0.040090
  84 H :   -0.020829
  85 H :   -0.018406
  86 H :    0.020130
  87 H :    0.004097
  88 H :    0.010873
  89 H :    0.012834
  90 H :    0.037258
Sum of atomic charges:   -0.0000000

LOEWDIN ATOMIC CHARGES
----------------------
   0 C :    0.069625
   1 O :   -0.171823
   2 C :   -0.211310
   3 C :   -0.037035
   4 C :   -0.042797
   5 C :   -0.147721
   6 S :    0.504818
   7 C :    0.075617
   8 C :   -0.132595
   9 C :   -0.016690
  10 N :   -0.047974
  11 C :   -0.024464
  12 N :   -0.039042
  13 C :   -0.105707
  14 C :    0.050414
  15 C :   -0.184972
  16 C :    0.009196
  17 C :   -0.075786
  18 C :   -0.170601
  19 S :    0.545727
  20 C :   -0.181869
  21 C :   -0.058787
  22 C :    0.076005
  23 C :   -0.096122
  24 C :   -0.019221
  25 N :   -0.023399
  26 C :   -0.019851
  27 N :   -0.022903
  28 C :    0.003707
  29 C :   -0.188590
  30 S :    0.507551
  31 C :    0.041465
  32 O :   -0.020007
  33 C :    0.036307
  34 C :   -0.033777
  35 N :   -0.096520
  36 C :   -0.014738
  37 C :   -0.033773
  38 C :    0.036039
  39 C :   -0.063198
  40 O :   -0.009589
  41 C :    0.060690
  42 N :   -0.098076
  43 C :   -0.027827
  44 C :    0.009234
  45 C :    0.055704
  46 O :   -0.014780
  47 C :    0.037780
  48 C :   -0.039540
  49 N :   -0.087637
  50 C :   -0.012637
  51 C :   -0.036736
  52 C :    0.039286
  53 C :   -0.067407
  54 O :   -0.019361
  55 C :    0.063302
  56 N :   -0.100348
  57 C :   -0.039429
  58 C :   -0.016085
  59 C :   -0.172299
  60 C :   -0.017431
  61 C :   -0.069293
  62 C :   -0.180776
  63 S :    0.480972
  64 C :   -0.185387
  65 C :   -0.074764
  66 C :    0.082350
  67 C :   -0.102500
  68 C :   -0.016934
  69 N :   -0.032472
  70 C :   -0.016915
  71 N :   -0.032228
  72 C :   -0.033987
  73 C :   -0.176292
  74 S :    0.478014
  75 H :    0.044446
  76 H :    0.032288
  77 H :    0.054376
  78 H :    0.047888
  79 H :    0.051394
  80 H :    0.045382
  81 H :    0.044216
  82 H :    0.042412
  83 H :    0.055989
  84 H :    0.044315
  85 H :    0.042075
  86 H :    0.047133
  87 H :    0.033874
  88 H :    0.041376
  89 H :    0.042895
  90 H :    0.028143

  Mayer bond orders larger than 0.100000
B(  0-C ,  1-O ) :   2.0985 B(  0-C ,  2-C ) :   1.0868 B(  0-C , 13-C ) :   0.9700
B(  2-C ,  3-C ) :   1.4592 B(  2-C ,  6-S ) :   1.1246 B(  3-C ,  4-C ) :   1.2725
B(  3-C ,  7-C ) :   0.9987 B(  4-C ,  5-C ) :   1.5404 B(  4-C , 75-H ) :   0.9960
B(  5-C ,  6-S ) :   1.1880 B(  5-C , 76-H ) :   0.9612 B(  7-C ,  8-C ) :   1.6554
B(  7-C , 13-C ) :   1.0659 B(  8-C ,  9-C ) :   1.1461 B(  8-C , 11-C ) :   1.1333
B(  9-C , 10-N ) :   2.9878 B( 11-C , 12-N ) :   2.9670 B( 13-C , 14-C ) :   1.5498
B( 14-C , 15-C ) :   1.2396 B( 14-C , 77-H ) :   0.9422 B( 15-C , 16-C ) :   1.3465
B( 15-C , 19-S ) :   1.0782 B( 16-C , 17-C ) :   1.3174 B( 16-C , 78-H ) :   1.0086
B( 17-C , 18-C ) :   1.3738 B( 17-C , 22-C ) :   0.9882 B( 18-C , 19-S ) :   1.1227
B( 18-C , 20-C ) :   1.1955 B( 20-C , 21-C ) :   1.4279 B( 20-C , 30-S ) :   1.1285
B( 21-C , 22-C ) :   0.9903 B( 21-C , 28-C ) :   1.2702 B( 22-C , 23-C ) :   1.7234
B( 23-C , 24-C ) :   1.1336 B( 23-C , 26-C ) :   1.1337 B( 24-C , 25-N ) :   2.9933
B( 26-C , 27-N ) :   2.9986 B( 28-C , 29-C ) :   1.4846 B( 28-C , 79-H ) :   1.0087
B( 29-C , 30-S ) :   1.1119 B( 29-C , 31-C ) :   1.0523 B( 31-C , 32-O ) :   1.1735
B( 31-C , 35-N ) :   1.8004 B( 32-O , 33-C ) :   1.0902 B( 33-C , 34-C ) :   1.2479
B( 33-C , 39-C ) :   1.3193 B( 34-C , 35-N ) :   1.2748 B( 34-C , 36-C ) :   1.2850
B( 36-C , 37-C ) :   1.2799 B( 36-C , 39-C ) :   0.1481 B( 36-C , 80-H ) :   1.0529
B( 37-C , 38-C ) :   1.2512 B( 37-C , 42-N ) :   1.2933 B( 38-C , 39-C ) :   1.3112
B( 38-C , 40-O ) :   1.1158 B( 39-C , 81-H ) :   1.0464 B( 40-O , 41-C ) :   1.1190
B( 41-C , 42-N ) :   1.7568 B( 41-C , 43-C ) :   1.0825 B( 43-C , 44-C ) :   1.6863
B( 43-C , 82-H ) :   0.9612 B( 44-C , 45-C ) :   1.0933 B( 44-C , 83-H ) :   0.9699
B( 45-C , 46-O ) :   1.1228 B( 45-C , 49-N ) :   1.7332 B( 46-O , 47-C ) :   1.1101
B( 47-C , 48-C ) :   1.2571 B( 47-C , 53-C ) :   1.3066 B( 48-C , 49-N ) :   1.2910
B( 48-C , 50-C ) :   1.2740 B( 50-C , 51-C ) :   1.2857 B( 50-C , 53-C ) :   0.1499
B( 50-C , 84-H ) :   1.0554 B( 51-C , 52-C ) :   1.2499 B( 51-C , 56-N ) :   1.2868
B( 52-C , 53-C ) :   1.3182 B( 52-C , 54-O ) :   1.1077 B( 53-C , 85-H ) :   1.0482
B( 54-O , 55-C ) :   1.1159 B( 55-C , 56-N ) :   1.7409 B( 55-C , 57-C ) :   1.1172
B( 57-C , 58-C ) :   1.6841 B( 57-C , 86-H ) :   0.9628 B( 58-C , 59-C ) :   1.1023
B( 58-C , 87-H ) :   0.9625 B( 59-C , 60-C ) :   1.4659 B( 59-C , 63-S ) :   1.1030
B( 60-C , 61-C ) :   1.2985 B( 60-C , 88-H ) :   0.9925 B( 61-C , 62-C ) :   1.4471
B( 61-C , 66-C ) :   0.9946 B( 62-C , 63-S ) :   1.1368 B( 62-C , 64-C ) :   1.1823
B( 64-C , 65-C ) :   1.4590 B( 64-C , 74-S ) :   1.1367 B( 65-C , 66-C ) :   1.0168
B( 65-C , 72-C ) :   1.2788 B( 66-C , 67-C ) :   1.7114 B( 67-C , 68-C ) :   1.1322
B( 67-C , 70-C ) :   1.1292 B( 68-C , 69-N ) :   2.9902 B( 70-C , 71-N ) :   3.0020
B( 72-C , 73-C ) :   1.5492 B( 72-C , 89-H ) :   0.9955 B( 73-C , 74-S ) :   1.1509
B( 73-C , 90-H ) :   0.9638

-----------------------------------------------------------------------------
         ABSORPTION SPECTRUM VIA TRANSITION ELECTRIC DIPOLE MOMENTS
-----------------------------------------------------------------------------
State   Energy  Wavelength   fosc         T2         TX        TY        TZ
        (cm-1)    (nm)                  (au**2)     (au)      (au)      (au)
-----------------------------------------------------------------------------
   0   14974.9    667.8   0.122583144   2.69490  -0.53521  -1.37219   0.72495
   1   15343.2    651.8   0.325539721   6.98494   0.58680   2.56279   0.26971
   2   22543.1    443.6   1.557333458  22.74283  -1.16073  -4.62264  -0.16349
   3   23837.9    419.5   0.657353158   9.07836  -0.92245  -2.85323   0.29419
   4   24919.4    401.3   0.503191648   6.64770  -0.63057  -2.31158  -0.95220
   5   25687.3    389.3   1.456854117  18.67123   1.42738   3.51530  -2.06797
   6   26874.7    372.1   0.017535879   0.21481   0.06592   0.21571   0.40489
   7   27213.3    367.5   0.295454366   3.57425   0.59162   1.57391  -0.86431
   8   27925.7    358.1   0.001259438   0.01485   0.00590  -0.11817   0.02911
   9   29395.9    340.2   0.017408418   0.19496   0.34988  -0.26706  -0.03503
  10   29926.8    334.1   0.046102126   0.50715  -0.19199  -0.59304   0.34438
  11   30042.2    332.9   0.072368559   0.79304   0.16873   0.65351   0.58094
  12   30615.8    326.6   0.006641196   0.07141  -0.12062   0.02358  -0.23729
  13   30972.8    322.9   0.444808151   4.72789  -0.23113   0.44865  -2.11499
  14   31370.1    318.8   0.292465660   3.06927   0.62658   1.63162   0.12031
  15   31814.7    314.3   0.079301504   0.82060   0.16317   0.57788   0.67825
  16   31851.3    314.0   0.009912263   0.10245   0.17365   0.24503   0.11071
  17   32063.3    311.9   0.632158072   6.49073   0.47421   0.48869   2.45500
  18   32164.9    310.9   0.131701372   1.34798  -0.27745  -0.61059  -0.94772
  19   32751.7    305.3   0.049438919   0.49695  -0.13313  -0.68322  -0.11150
  20   33408.5    299.3   0.324575609   3.19842   0.66849   1.35000   0.96387
  21   33589.2    297.7   0.077648916   0.76105   0.13224   0.27224  -0.81820
  22   33727.1    296.5   0.012976044   0.12666  -0.17628  -0.27383   0.14352
  23   33823.0    295.7   0.102357770   0.99629   0.27921   0.67888  -0.67635
  24   34121.4    293.1   0.091906515   0.88674   0.05872   0.85131  -0.39820
  25   34869.9    286.8   0.012993981   0.12268   0.12870   0.25585   0.20164
  26   35014.1    285.6   0.462877950   4.35211   0.43288   1.76323  -1.02749
  27   35179.2    284.3   0.505196635   4.72771  -0.11104   1.53147  -1.53947
  28   35322.1    283.1   0.013342148   0.12435  -0.07279  -0.01908  -0.34451
  29   35525.9    281.5   0.030617163   0.28372   0.07078   0.09998   0.51838
  30   35849.6    278.9   0.281872893   2.58848  -0.31488  -0.08860  -1.57527
  31   36008.8    277.7   0.064819611   0.59262  -0.26051  -0.47873  -0.54366
  32   36112.0    276.9   0.011857690   0.10810  -0.15658  -0.28910   0.00075
  33   36437.3    274.4   0.010427716   0.09421  -0.05026  -0.13433  -0.27138
  34   37236.3    268.6   0.003063258   0.02708   0.01482   0.13116  -0.09829
  35   37516.5    266.5   0.110137643   0.96647   0.04522  -0.17118   0.96702
  36   37661.4    265.5   0.029932494   0.26165  -0.09209  -0.15730  -0.47794
  37   37847.1    264.2   0.078311721   0.68119  -0.03700  -0.55377   0.61087
  38   38097.1    262.5   0.000748947   0.00647   0.00171  -0.07226  -0.03532
  39   38238.8    261.5   0.035346983   0.30432   0.20648   0.22699   0.45843
  40   38621.1    258.9   0.003015088   0.02570   0.05669   0.04744   0.14226
  41   38883.0    257.2   0.017691152   0.14979   0.02750   0.05732   0.38176
  42   39461.1    253.4   0.012521456   0.10446  -0.13133  -0.24884  -0.15905
  43   39886.7    250.7   0.012922925   0.10666   0.09729   0.29528   0.10005
  44   40080.0    249.5   0.153833626   1.26357  -0.30032  -0.70218  -0.82481
  45   40292.5    248.2   0.001014166   0.00829  -0.04212  -0.08066   0.00247

FINAL SINGLE POINT ENERGY     -5015.543628514802

DIPOLE MOMENT
-------------
                                X             Y             Z
Electronic contribution:      8.36951      27.70293       0.80002
Nuclear contribution   :     -7.52177     -28.48113       5.70885
                        -----------------------------------------
Total Dipole Moment    :      0.84774      -0.77820       6.50887
                        -----------------------------------------
Magnitude (a.u.)       :      6.60981
Magnitude (Debye)      :     16.80080

Rotational constants in cm-1:     0.002311     0.000099     0.000095
Rotational constants in MHz :    69.286730     2.971839     2.861330

                             ****ORCA TERMINATED NORMALLY****
TOTAL RUN TIME: 0 days 0 hours 8 minutes 41 seconds 682 msec
