                         Program Version 4.2.0 -  RELEASE  -
|  1> # ORCA input file
|  2> # SCF done       -166.926001935922          0.000730034167
|  3> ! CAM-B3LYP def2-SVP def2/J RIJCOSX Grid4 TightSCF
|  4> %maxcore 5000
|  5> %tddft
|  6>     Mode sTDDFT
|  7>     Ethresh 5.0
|  8>     maxcore 5000
|  9> end
| 10>
| 11> %pal
| 12>   nprocs 6
| 13>   end
| 14> * xyz 0 1
| 15>    C        2.02166        -4.52640        -6.83503
| 16>    C        2.05252        -3.62773        -7.90718
| 17>    C        0.80026        -3.24009        -8.31130
| 18>    S        0.32013        -2.15066        -9.58465
| 19>    C        1.92943        -1.60010       -10.22040
| 20>    S       -0.43995        -3.98857        -7.36422
| 21>    C        0.75127        -4.83947        -6.40433
| 22>    C        0.31324        -5.69617        -5.36034
| 23>    C        1.12994        -6.40647        -4.54487
| 24>    C        0.68256        -7.26019        -3.50328
| 25>    C       -0.60909        -7.55108        -3.09345
| 26>    C       -0.63423        -8.44808        -2.02785
| 27>    C        0.64686        -8.85060        -1.61282
| 28>    S        1.87981        -8.11813        -2.54107
| 29>    C        0.50798        -9.76058        -0.53620
| 30>    C       -0.86153        -9.93605        -0.27010
| 31>    C       -1.62421        -9.11448        -1.19349
| 32>    C       -2.98088        -8.98845        -1.26100
| 33>    C       -3.61141        -8.15093        -2.20438
| 34>    N       -4.12780        -7.47086        -2.96993
| 35>    C       -3.84261        -9.68503        -0.38818
| 36>    N       -4.54691       -10.24915         0.31957
| 37>    C       -1.10287       -10.82601         0.77671
| 38>    C        0.06836       -11.32691         1.31190
| 39>    S        1.49671       -10.68604         0.50550
| 40>    C        0.20547       -12.24810         2.38004
| 41>    C        1.37388       -12.71623         2.95231
| 42>    C        1.12291       -13.61320         3.99109
| 43>    C       -0.24761       -13.83192         4.20668
| 44>    S       -1.22842       -12.93183         3.13581
| 45>    C       -0.39706       -14.74710         5.27854
| 46>    C        0.87887       -15.10467         5.74469
| 47>    C        1.87663       -14.40693         4.94972
| 48>    C        3.23291       -14.47968         5.07686
| 49>    C        4.10506       -13.75004         4.24229
| 50>    N        4.81753       -13.15762         3.56653
| 51>    C        3.85241       -15.28929         6.05175
| 52>    N        4.35961       -15.94593         6.84345
| 53>    C        0.83550       -16.00052         6.81401
| 54>    C       -0.46133       -16.32882         7.16099
| 55>    S       -1.64926       -15.51763         6.14813
| 56>    C       -0.89043       -17.19155         8.20125
| 57>    C       -2.18651       -17.54621         8.52336
| 58>    C       -2.23540       -18.40027         9.62595
| 59>    C       -0.96586       -18.69537        10.14641
| 60>    S        0.28946       -17.93082         9.27678
| 61>    C       -1.12510       -19.54934        11.27030
| 62>    C       -2.49354       -19.79169        11.45682
| 63>    C       -3.23768       -19.09023        10.42467
| 64>    C       -4.58835       -19.09398        10.23252
| 65>    C       -5.19940       -18.37513         9.18401
| 66>    N       -5.69422       -17.79255         8.32909
| 67>    C       -5.46237       -19.82588        11.06310
| 68>    N       -6.17561       -20.42521        11.73194
| 69>    C       -2.75673       -20.60874        12.56155
| 70>    C       -1.60472       -20.99415        13.20750
| 71>    S       -0.16695       -20.32800        12.44835
| 72>    C       -1.46282       -21.76462        14.41644
| 73>    C       -0.38434       -21.52896        15.30909
| 74>    C       -0.46442       -22.24656        16.46357
| 75>    S        0.68736       -22.18691        17.77363
| 76>    C       -0.10294       -23.28666        18.98104
| 77>    S       -1.87896       -23.25112        16.48400
| 78>    C       -2.35712       -22.70469        14.89960
| 79>    C       -3.51124       -23.34800        14.32248
| 80>    C       -3.72372       -23.56471        13.02763
| 81>    H        2.91249        -4.93285        -6.39212
| 82>    H        2.96397        -3.28388        -8.36001
| 83>    H        1.70769        -0.89294       -11.01328
| 84>    H        2.47650        -2.44795       -10.62129
| 85>    H        2.48740        -1.10863        -9.42925
| 86>    H       -0.75754        -5.76440        -5.23178
| 87>    H        2.20122        -6.34044        -4.67184
| 88>    H       -1.48213        -7.12742        -3.55345
| 89>    H       -2.07514       -11.10384         1.14254
| 90>    H        2.34883       -12.40734         2.62014
| 91>    H        1.69353       -16.40125         7.32339
| 92>    H       -3.04075       -17.19084         7.97539
| 93>    H       -3.73709       -20.89426        12.89541
| 94>    H        0.40927       -20.83163        15.10960
| 95>    H        0.54496       -23.29930        19.85144
| 96>    H       -0.19066       -24.28517        18.56216
| 97>    H       -1.08066       -22.89354        19.24490
| 98>    H       -4.21401       -23.73749        15.04915
| 99>    H       -3.02847       -23.24624        12.27028
|100>    H       -4.60590       -24.07750        12.68868
|101> *
|102>
|103>                          ****END OF INPUT****

CARTESIAN COORDINATES (ANGSTROEM)
---------------------------------
  C      2.021660   -4.526400   -6.835030
  C      2.052520   -3.627730   -7.907180
  C      0.800260   -3.240090   -8.311300
  S      0.320130   -2.150660   -9.584650
  C      1.929430   -1.600100  -10.220400
  S     -0.439950   -3.988570   -7.364220
  C      0.751270   -4.839470   -6.404330
  C      0.313240   -5.696170   -5.360340
  C      1.129940   -6.406470   -4.544870
  C      0.682560   -7.260190   -3.503280
  C     -0.609090   -7.551080   -3.093450
  C     -0.634230   -8.448080   -2.027850
  C      0.646860   -8.850600   -1.612820
  S      1.879810   -8.118130   -2.541070
  C      0.507980   -9.760580   -0.536200
  C     -0.861530   -9.936050   -0.270100
  C     -1.624210   -9.114480   -1.193490
  C     -2.980880   -8.988450   -1.261000
  C     -3.611410   -8.150930   -2.204380
  N     -4.127800   -7.470860   -2.969930
  C     -3.842610   -9.685030   -0.388180
  N     -4.546910  -10.249150    0.319570
  C     -1.102870  -10.826010    0.776710
  C      0.068360  -11.326910    1.311900
  S      1.496710  -10.686040    0.505500
  C      0.205470  -12.248100    2.380040
  C      1.373880  -12.716230    2.952310
  C      1.122910  -13.613200    3.991090
  C     -0.247610  -13.831920    4.206680
  S     -1.228420  -12.931830    3.135810
  C     -0.397060  -14.747100    5.278540
  C      0.878870  -15.104670    5.744690
  C      1.876630  -14.406930    4.949720
  C      3.232910  -14.479680    5.076860
  C      4.105060  -13.750040    4.242290
  N      4.817530  -13.157620    3.566530
  C      3.852410  -15.289290    6.051750
  N      4.359610  -15.945930    6.843450
  C      0.835500  -16.000520    6.814010
  C     -0.461330  -16.328820    7.160990
  S     -1.649260  -15.517630    6.148130
  C     -0.890430  -17.191550    8.201250
  C     -2.186510  -17.546210    8.523360
  C     -2.235400  -18.400270    9.625950
  C     -0.965860  -18.695370   10.146410
  S      0.289460  -17.930820    9.276780
  C     -1.125100  -19.549340   11.270300
  C     -2.493540  -19.791690   11.456820
  C     -3.237680  -19.090230   10.424670
  C     -4.588350  -19.093980   10.232520
  C     -5.199400  -18.375130    9.184010
  N     -5.694220  -17.792550    8.329090
  C     -5.462370  -19.825880   11.063100
  N     -6.175610  -20.425210   11.731940
  C     -2.756730  -20.608740   12.561550
  C     -1.604720  -20.994150   13.207500
  S     -0.166950  -20.328000   12.448350
  C     -1.462820  -21.764620   14.416440
  C     -0.384340  -21.528960   15.309090
  C     -0.464420  -22.246560   16.463570
  S      0.687360  -22.186910   17.773630
  C     -0.102940  -23.286660   18.981040
  S     -1.878960  -23.251120   16.484000
  C     -2.357120  -22.704690   14.899600
  C     -3.511240  -23.348000   14.322480
  C     -3.723720  -23.564710   13.027630
  H      2.912490   -4.932850   -6.392120
  H      2.963970   -3.283880   -8.360010
  H      1.707690   -0.892940  -11.013280
  H      2.476500   -2.447950  -10.621290
  H      2.487400   -1.108630   -9.429250
  H     -0.757540   -5.764400   -5.231780
  H      2.201220   -6.340440   -4.671840
  H     -1.482130   -7.127420   -3.553450
  H     -2.075140  -11.103840    1.142540
  H      2.348830  -12.407340    2.620140
  H      1.693530  -16.401250    7.323390
  H     -3.040750  -17.190840    7.975390
  H     -3.737090  -20.894260   12.895410
  H      0.409270  -20.831630   15.109600
  H      0.544960  -23.299300   19.851440
  H     -0.190660  -24.285170   18.562160
  H     -1.080660  -22.893540   19.244900
  H     -4.214010  -23.737490   15.049150
  H     -3.028470  -23.246240   12.270280
  H     -4.605900  -24.077500   12.688680

 Total Charge           Charge          ....    0
 Multiplicity           Mult            ....    1
 Number of Electrons    NEL             ....  522
 Basis Dimension        Dim             .... 1064

ORBITAL ENERGIES
----------------

  NO   OCC          E(Eh)            E(eV)
   0   2.0000     -88.989593     -2421.5299
   1   2.0000     -88.989356     -2421.5235
   2   2.0000     -88.988146     -2421.4905
   3   2.0000     -88.987996     -2421.4865
   4   2.0000     -88.982960     -2421.3494
   5   2.0000     -88.982358     -2421.3331
   6   2.0000     -88.962293     -2420.7871
   7   2.0000     -88.956614     -2420.6325
   8   2.0000     -88.938596     -2420.1422
   9   2.0000     -88.936505     -2420.0853
  10   2.0000     -14.430800      -392.6820
  11   2.0000     -14.430734      -392.6802
  12   2.0000     -14.427566      -392.5940
  13   2.0000     -14.427311      -392.5871
  14   2.0000     -14.427033      -392.5795
  15   2.0000     -14.426138      -392.5552
  16   2.0000     -10.364462      -282.0313
  17   2.0000     -10.360678      -281.9284
  18   2.0000     -10.360258      -281.9170
  19   2.0000     -10.351888      -281.6892
  20   2.0000     -10.348126      -281.5868
  21   2.0000     -10.347834      -281.5789
  22   2.0000     -10.331227      -281.1270
  23   2.0000     -10.331174      -281.1255
  24   2.0000     -10.330581      -281.1094
  25   2.0000     -10.329984      -281.0932
  26   2.0000     -10.329907      -281.0911
  27   2.0000     -10.329141      -281.0702
  28   2.0000     -10.328059      -281.0408
  29   2.0000     -10.328031      -281.0400
  30   2.0000     -10.327990      -281.0389
  31   2.0000     -10.327889      -281.0361
  32   2.0000     -10.327579      -281.0277
  33   2.0000     -10.326503      -280.9984
  34   2.0000     -10.325990      -280.9845
  35   2.0000     -10.325241      -280.9641
  36   2.0000     -10.323741      -280.9233
  37   2.0000     -10.322661      -280.8939
  38   2.0000     -10.322659      -280.8938
  39   2.0000     -10.320708      -280.8407
  40   2.0000     -10.317419      -280.7512
  41   2.0000     -10.316718      -280.7322
  42   2.0000     -10.302873      -280.3554
  43   2.0000     -10.302665      -280.3498
  44   2.0000     -10.302005      -280.3318
  45   2.0000     -10.301934      -280.3299
  46   2.0000     -10.301722      -280.3241
  47   2.0000     -10.300491      -280.2906
  48   2.0000     -10.300268      -280.2845
  49   2.0000     -10.299448      -280.2622
  50   2.0000     -10.299328      -280.2590
  51   2.0000     -10.298702      -280.2419
  52   2.0000     -10.298561      -280.2381
  53   2.0000     -10.298117      -280.2260
  54   2.0000     -10.297888      -280.2198
  55   2.0000     -10.295797      -280.1629
  56   2.0000     -10.292783      -280.0809
  57   2.0000     -10.291337      -280.0415
  58   2.0000     -10.290225      -280.0112
  59   2.0000     -10.289224      -279.9840
  60   2.0000     -10.286567      -279.9117
  61   2.0000     -10.282028      -279.7882
  62   2.0000     -10.276020      -279.6247
  63   2.0000     -10.274762      -279.5905
  64   2.0000     -10.273515      -279.5566
  65   2.0000     -10.265373      -279.3350
  66   2.0000      -8.083925      -219.9748
  67   2.0000      -8.083660      -219.9676
  68   2.0000      -8.082527      -219.9368
  69   2.0000      -8.082307      -219.9308
  70   2.0000      -8.077434      -219.7982
  71   2.0000      -8.077011      -219.7866
  72   2.0000      -8.057794      -219.2637
  73   2.0000      -8.052614      -219.1228
  74   2.0000      -8.034196      -218.6216
  75   2.0000      -8.032280      -218.5694
  76   2.0000      -6.053249      -164.7173
  77   2.0000      -6.052961      -164.7094
  78   2.0000      -6.051848      -164.6792
  79   2.0000      -6.051614      -164.6728
  80   2.0000      -6.049033      -164.6026
  81   2.0000      -6.048817      -164.5967
  82   2.0000      -6.047653      -164.5650
  83   2.0000      -6.047482      -164.5603
  84   2.0000      -6.046640      -164.5374
  85   2.0000      -6.046221      -164.5260
  86   2.0000      -6.046200      -164.5255
  87   2.0000      -6.045955      -164.5188
  88   2.0000      -6.044798      -164.4873
  89   2.0000      -6.044582      -164.4814
  90   2.0000      -6.042435      -164.4230
  91   2.0000      -6.042067      -164.4130
  92   2.0000      -6.039966      -164.3558
  93   2.0000      -6.039477      -164.3425
  94   2.0000      -6.027283      -164.0107
  95   2.0000      -6.022921      -163.8920
  96   2.0000      -6.022034      -163.8679
  97   2.0000      -6.019761      -163.8060
  98   2.0000      -6.017851      -163.7541
  99   2.0000      -6.014440      -163.6612
 100   2.0000      -6.004657      -163.3950
 101   2.0000      -6.002811      -163.3448
 102   2.0000      -6.000588      -163.2843
 103   2.0000      -5.998531      -163.2283
 104   2.0000      -5.993761      -163.0985
 105   2.0000      -5.991855      -163.0467
 106   2.0000      -1.044680       -28.4272
 107   2.0000      -1.039948       -28.2984
 108   2.0000      -1.038868       -28.2690
 109   2.0000      -1.022385       -27.8205
 110   2.0000      -1.018827       -27.7237
 111   2.0000      -1.018193       -27.7064
 112   2.0000      -1.008472       -27.4419
 113   2.0000      -1.005502       -27.3611
 114   2.0000      -1.004787       -27.3416
 115   2.0000      -1.003747       -27.3134
 116   2.0000      -0.997940       -27.1553
 117   2.0000      -0.990332       -26.9483
 118   2.0000      -0.986862       -26.8539
 119   2.0000      -0.981948       -26.7202
 120   2.0000      -0.961224       -26.1562
 121   2.0000      -0.953172       -25.9371
 122   2.0000      -0.950725       -25.8706
 123   2.0000      -0.921143       -25.0656
 124   2.0000      -0.916310       -24.9341
 125   2.0000      -0.911009       -24.7898
 126   2.0000      -0.904161       -24.6035
 127   2.0000      -0.898108       -24.4388
 128   2.0000      -0.880732       -23.9659
 129   2.0000      -0.872771       -23.7493
 130   2.0000      -0.869383       -23.6571
 131   2.0000      -0.867377       -23.6025
 132   2.0000      -0.863301       -23.4916
 133   2.0000      -0.855515       -23.2798
 134   2.0000      -0.850682       -23.1482
 135   2.0000      -0.847483       -23.0612
 136   2.0000      -0.845078       -22.9957
 137   2.0000      -0.833879       -22.6910
 138   2.0000      -0.830405       -22.5965
 139   2.0000      -0.816137       -22.2082
 140   2.0000      -0.807271       -21.9670
 141   2.0000      -0.793164       -21.5831
 142   2.0000      -0.777901       -21.1678
 143   2.0000      -0.773672       -21.0527
 144   2.0000      -0.769889       -20.9498
 145   2.0000      -0.763029       -20.7631
 146   2.0000      -0.748349       -20.3636
 147   2.0000      -0.737876       -20.0786
 148   2.0000      -0.728649       -19.8275
 149   2.0000      -0.717831       -19.5332
 150   2.0000      -0.707595       -19.2547
 151   2.0000      -0.702515       -19.1164
 152   2.0000      -0.695671       -18.9302
 153   2.0000      -0.689446       -18.7608
 154   2.0000      -0.686430       -18.6787
 155   2.0000      -0.681442       -18.5430
 156   2.0000      -0.676380       -18.4052
 157   2.0000      -0.671910       -18.2836
 158   2.0000      -0.660603       -17.9759
 159   2.0000      -0.645017       -17.5518
 160   2.0000      -0.634140       -17.2558
 161   2.0000      -0.632039       -17.1987
 162   2.0000      -0.628636       -17.1061
 163   2.0000      -0.626994       -17.0614
 164   2.0000      -0.623690       -16.9715
 165   2.0000      -0.618561       -16.8319
 166   2.0000      -0.617471       -16.8022
 167   2.0000      -0.611891       -16.6504
 168   2.0000      -0.609468       -16.5845
 169   2.0000      -0.606867       -16.5137
 170   2.0000      -0.595545       -16.2056
 171   2.0000      -0.593273       -16.1438
 172   2.0000      -0.590293       -16.0627
 173   2.0000      -0.580923       -15.8077
 174   2.0000      -0.566249       -15.4084
 175   2.0000      -0.561348       -15.2751
 176   2.0000      -0.548089       -14.9143
 177   2.0000      -0.545048       -14.8315
 178   2.0000      -0.543111       -14.7788
 179   2.0000      -0.541615       -14.7381
 180   2.0000      -0.540564       -14.7095
 181   2.0000      -0.536686       -14.6040
 182   2.0000      -0.529005       -14.3950
 183   2.0000      -0.527716       -14.3599
 184   2.0000      -0.523405       -14.2426
 185   2.0000      -0.522413       -14.2156
 186   2.0000      -0.517422       -14.0798
 187   2.0000      -0.512342       -13.9415
 188   2.0000      -0.511534       -13.9195
 189   2.0000      -0.508388       -13.8340
 190   2.0000      -0.507647       -13.8138
 191   2.0000      -0.505494       -13.7552
 192   2.0000      -0.500277       -13.6132
 193   2.0000      -0.498095       -13.5539
 194   2.0000      -0.497401       -13.5350
 195   2.0000      -0.496843       -13.5198
 196   2.0000      -0.495167       -13.4742
 197   2.0000      -0.493457       -13.4276
 198   2.0000      -0.490327       -13.3425
 199   2.0000      -0.487435       -13.2638
 200   2.0000      -0.485615       -13.2142
 201   2.0000      -0.484824       -13.1927
 202   2.0000      -0.481445       -13.1008
 203   2.0000      -0.479427       -13.0459
 204   2.0000      -0.478292       -13.0150
 205   2.0000      -0.475483       -12.9386
 206   2.0000      -0.472447       -12.8559
 207   2.0000      -0.467866       -12.7313
 208   2.0000      -0.464376       -12.6363
 209   2.0000      -0.462119       -12.5749
 210   2.0000      -0.460004       -12.5173
 211   2.0000      -0.458946       -12.4886
 212   2.0000      -0.458340       -12.4721
 213   2.0000      -0.458031       -12.4636
 214   2.0000      -0.456487       -12.4216
 215   2.0000      -0.455524       -12.3954
 216   2.0000      -0.453833       -12.3494
 217   2.0000      -0.453446       -12.3389
 218   2.0000      -0.447327       -12.1724
 219   2.0000      -0.441996       -12.0273
 220   2.0000      -0.441033       -12.0011
 221   2.0000      -0.440363       -11.9829
 222   2.0000      -0.439570       -11.9613
 223   2.0000      -0.437977       -11.9180
 224   2.0000      -0.437738       -11.9115
 225   2.0000      -0.437190       -11.8965
 226   2.0000      -0.436690       -11.8829
 227   2.0000      -0.435393       -11.8476
 228   2.0000      -0.434498       -11.8233
 229   2.0000      -0.433876       -11.8064
 230   2.0000      -0.432809       -11.7773
 231   2.0000      -0.428678       -11.6649
 232   2.0000      -0.426213       -11.5979
 233   2.0000      -0.425745       -11.5851
 234   2.0000      -0.422314       -11.4918
 235   2.0000      -0.421521       -11.4702
 236   2.0000      -0.418728       -11.3942
 237   2.0000      -0.413900       -11.2628
 238   2.0000      -0.405318       -11.0293
 239   2.0000      -0.401360       -10.9216
 240   2.0000      -0.399249       -10.8641
 241   2.0000      -0.398755       -10.8507
 242   2.0000      -0.389018       -10.5857
 243   2.0000      -0.387121       -10.5341
 244   2.0000      -0.376913       -10.2563
 245   2.0000      -0.361183        -9.8283
 246   2.0000      -0.350129        -9.5275
 247   2.0000      -0.345159        -9.3923
 248   2.0000      -0.345025        -9.3886
 249   2.0000      -0.339130        -9.2282
 250   2.0000      -0.331517        -9.0210
 251   2.0000      -0.326988        -8.8978
 252   2.0000      -0.324468        -8.8292
 253   2.0000      -0.319649        -8.6981
 254   2.0000      -0.318699        -8.6722
 255   2.0000      -0.315492        -8.5850
 256   2.0000      -0.296607        -8.0711
 257   2.0000      -0.274362        -7.4658
 258   2.0000      -0.258014        -7.0209
 259   2.0000      -0.241789        -6.5794
 260   2.0000      -0.225792        -6.1441
 261   0.0000      -0.106134        -2.8881
 262   0.0000      -0.099635        -2.7112
 263   0.0000      -0.099057        -2.6955
 264   0.0000      -0.050261        -1.3677
 265   0.0000      -0.038119        -1.0373

MULLIKEN ATOMIC CHARGES
-----------------------
   0 C :    0.022064
   1 C :    0.013210
   2 C :   -0.139051
   3 S :    0.006480
   4 C :   -0.094442
   5 S :    0.139832
   6 C :   -0.108736
   7 C :    0.072615
   8 C :    0.032802
   9 C :   -0.073753
  10 C :   -0.037018
  11 C :    0.004813
  12 C :   -0.107034
  13 S :    0.181248
  14 C :   -0.098050
  15 C :    0.008860
  16 C :    0.302820
  17 C :   -0.300453
  18 C :   -0.184591
  19 N :    0.168334
  20 C :   -0.187543
  21 N :    0.171562
  22 C :   -0.064661
  23 C :   -0.053901
  24 S :    0.188786
  25 C :   -0.049403
  26 C :   -0.067688
  27 C :    0.014492
  28 C :   -0.100856
  29 S :    0.194093
  30 C :   -0.097167
  31 C :    0.014607
  32 C :    0.298661
  33 C :   -0.298518
  34 C :   -0.186998
  35 N :    0.172842
  36 C :   -0.187961
  37 N :    0.170716
  38 C :   -0.065963
  39 C :   -0.050444
  40 S :    0.194499
  41 C :   -0.053271
  42 C :   -0.065638
  43 C :    0.014225
  44 C :   -0.099041
  45 S :    0.189700
  46 C :   -0.098922
  47 C :   -0.007154
  48 C :    0.301811
  49 C :   -0.300204
  50 C :   -0.189317
  51 N :    0.169703
  52 C :   -0.189044
  53 N :    0.174049
  54 C :   -0.026291
  55 C :   -0.123880
  56 S :    0.181218
  57 C :    0.142656
  58 C :   -0.017696
  59 C :   -0.129717
  60 S :    0.006853
  61 C :   -0.099373
  62 S :    0.104219
  63 C :   -0.161293
  64 C :    0.006523
  65 C :   -0.018414
  66 H :   -0.017842
  67 H :   -0.022621
  68 H :    0.068503
  69 H :    0.071482
  70 H :    0.071014
  71 H :   -0.009621
  72 H :   -0.022721
  73 H :    0.003978
  74 H :    0.010296
  75 H :    0.009016
  76 H :    0.009171
  77 H :    0.009610
  78 H :    0.016080
  79 H :   -0.012275
  80 H :    0.070222
  81 H :    0.073418
  82 H :    0.071900
  83 H :    0.001287
  84 H :    0.036798
  85 H :    0.031497
Sum of atomic charges:   -0.0000000

LOEWDIN ATOMIC CHARGES
----------------------
   0 C :   -0.046360
   1 C :   -0.105535
   2 C :   -0.318435
   3 S :    0.290803
   4 C :   -0.148912
   5 S :    0.423750
   6 C :   -0.182392
   7 C :   -0.023051
   8 C :   -0.057011
   9 C :   -0.154650
  10 C :   -0.035510
  11 C :   -0.064587
  12 C :   -0.195958
  13 S :    0.470673
  14 C :   -0.172234
  15 C :   -0.075391
  16 C :    0.084589
  17 C :   -0.104218
  18 C :   -0.015636
  19 N :   -0.035085
  20 C :   -0.016007
  21 N :   -0.035473
  22 C :   -0.038261
  23 C :   -0.185502
  24 S :    0.478402
  25 C :   -0.177274
  26 C :   -0.042378
  27 C :   -0.069647
  28 C :   -0.181736
  29 S :    0.484080
  30 C :   -0.179862
  31 C :   -0.070902
  32 C :    0.084618
  33 C :   -0.103091
  34 C :   -0.015924
  35 N :   -0.034491
  36 C :   -0.015990
  37 N :   -0.034275
  38 C :   -0.041416
  39 C :   -0.178502
  40 S :    0.484311
  41 C :   -0.183792
  42 C :   -0.039112
  43 C :   -0.072775
  44 C :   -0.175747
  45 S :    0.480436
  46 C :   -0.189854
  47 C :   -0.071821
  48 C :    0.084234
  49 C :   -0.104544
  50 C :   -0.016281
  51 N :   -0.036092
  52 C :   -0.016931
  53 N :   -0.033305
  54 C :   -0.027309
  55 C :   -0.154677
  56 S :    0.480126
  57 C :   -0.074736
  58 C :   -0.102065
  59 C :   -0.313108
  60 S :    0.296039
  61 C :   -0.160957
  62 S :    0.430991
  63 C :   -0.179183
  64 C :   -0.050601
  65 C :   -0.030986
  66 H :    0.027820
  67 H :    0.026077
  68 H :    0.036430
  69 H :    0.027879
  70 H :    0.028341
  71 H :    0.030866
  72 H :    0.025998
  73 H :    0.037677
  74 H :    0.034841
  75 H :    0.034857
  76 H :    0.034917
  77 H :    0.034895
  78 H :    0.042316
  79 H :    0.022599
  80 H :    0.036757
  81 H :    0.024678
  82 H :    0.025255
  83 H :    0.029841
  84 H :    0.025216
  85 H :    0.029257

  Mayer bond orders larger than 0.100000
B(  0-C ,  1-C ) :   1.2703 B(  0-C ,  6-C ) :   1.5174 B(  0-C , 66-H ) :   0.9899
B(  1-C ,  2-C ) :   1.5234 B(  1-C , 67-H ) :   0.9954 B(  2-C ,  3-S ) :   1.0180
B(  2-C ,  5-S ) :   1.1321 B(  3-S ,  4-C ) :   1.0254 B(  4-C , 68-H ) :   0.9712
B(  4-C , 69-H ) :   0.9663 B(  4-C , 70-H ) :   0.9663 B(  5-S ,  6-C ) :   1.1091
B(  6-C ,  7-C ) :   1.1329 B(  7-C ,  8-C ) :   1.7132 B(  7-C , 71-H ) :   0.9586
B(  8-C ,  9-C ) :   1.1253 B(  8-C , 72-H ) :   0.9588 B(  9-C , 10-C ) :   1.4526
B(  9-C , 13-S ) :   1.1106 B( 10-C , 11-C ) :   1.3065 B( 10-C , 73-H ) :   0.9902
B( 11-C , 12-C ) :   1.4377 B( 11-C , 16-C ) :   0.9971 B( 12-C , 13-S ) :   1.1101
B( 12-C , 14-C ) :   1.1954 B( 14-C , 15-C ) :   1.4441 B( 14-C , 24-S ) :   1.1224
B( 15-C , 16-C ) :   1.0000 B( 15-C , 22-C ) :   1.2966 B( 16-C , 17-C ) :   1.7104
B( 17-C , 18-C ) :   1.1339 B( 17-C , 20-C ) :   1.1328 B( 18-C , 19-N ) :   2.9887
B( 20-C , 21-N ) :   2.9923 B( 22-C , 23-C ) :   1.4640 B( 22-C , 74-H ) :   0.9864
B( 23-C , 24-S ) :   1.0983 B( 23-C , 25-C ) :   1.1691 B( 25-C , 26-C ) :   1.4598
B( 25-C , 29-S ) :   1.1087 B( 26-C , 27-C ) :   1.2977 B( 26-C , 75-H ) :   0.9879
B( 27-C , 28-C ) :   1.4497 B( 27-C , 32-C ) :   0.9945 B( 28-C , 29-S ) :   1.1167
B( 28-C , 30-C ) :   1.1865 B( 30-C , 31-C ) :   1.4474 B( 30-C , 40-S ) :   1.1193
B( 31-C , 32-C ) :   0.9962 B( 31-C , 38-C ) :   1.2967 B( 32-C , 33-C ) :   1.7134
B( 33-C , 34-C ) :   1.1334 B( 33-C , 36-C ) :   1.1330 B( 34-C , 35-N ) :   2.9930
B( 36-C , 37-N ) :   2.9919 B( 38-C , 39-C ) :   1.4633 B( 38-C , 76-H ) :   0.9872
B( 39-C , 40-S ) :   1.1067 B( 39-C , 41-C ) :   1.1669 B( 41-C , 42-C ) :   1.4652
B( 41-C , 45-S ) :   1.1025 B( 42-C , 43-C ) :   1.2960 B( 42-C , 77-H ) :   0.9865
B( 43-C , 44-C ) :   1.4534 B( 43-C , 48-C ) :   0.9934 B( 44-C , 45-S ) :   1.1222
B( 44-C , 46-C ) :   1.1803 B( 46-C , 47-C ) :   1.4500 B( 46-C , 56-S ) :   1.1172
B( 47-C , 48-C ) :   0.9952 B( 47-C , 54-C ) :   1.2740 B( 48-C , 49-C ) :   1.7122
B( 49-C , 50-C ) :   1.1318 B( 49-C , 52-C ) :   1.1344 B( 50-C , 51-N ) :   2.9925
B( 52-C , 53-N ) :   2.9938 B( 54-C , 55-C ) :   1.5009 B( 54-C , 78-H ) :   0.9959
B( 55-C , 56-S ) :   1.1162 B( 55-C , 57-C ) :   1.0479 B( 57-C , 58-C ) :   1.2404
B( 57-C , 63-C ) :   1.5342 B( 58-C , 59-C ) :   1.5756 B( 58-C , 79-H ) :   0.9871
B( 59-C , 60-S ) :   1.0222 B( 59-C , 62-S ) :   1.1203 B( 60-S , 61-C ) :   1.0135
B( 61-C , 80-H ) :   0.9726 B( 61-C , 81-H ) :   0.9646 B( 61-C , 82-H ) :   0.9658
B( 62-S , 63-C ) :   1.0987 B( 63-C , 64-C ) :   1.0722 B( 64-C , 65-C ) :   1.9599
B( 64-C , 83-H ) :   0.9466 B( 65-C , 84-H ) :   0.9578 B( 65-C , 85-H ) :   0.9474

-----------------------------------------------------------------------------
         ABSORPTION SPECTRUM VIA TRANSITION ELECTRIC DIPOLE MOMENTS
-----------------------------------------------------------------------------
State   Energy  Wavelength   fosc         T2         TX        TY        TZ
        (cm-1)    (nm)                  (au**2)     (au)      (au)      (au)
-----------------------------------------------------------------------------
   0    9946.3   1005.4   0.408004259  13.50457   0.32613   2.35048  -2.80597
   1   10470.1    955.1   0.001952731   0.06140  -0.05615  -0.15607   0.18409
   2   11569.1    864.4   0.070507247   2.00637   0.21565   0.86623  -1.09978
   3   17874.3    559.5   0.018932212   0.34870   0.07906  -0.37688   0.44767
   4   18940.7    528.0   0.005277415   0.09173  -0.07684  -0.15468   0.24879
   5   19462.8    513.8   0.013738623   0.23239  -0.05397  -0.32385   0.35298
   6   21434.8    466.5   0.774055476  11.88853  -0.31660  -2.25032   2.59314
   7   22277.3    448.9   0.662079151   9.78415  -0.32259  -1.97836   2.40128
   8   23537.2    424.9   1.099112363  15.37316   0.27968   2.51202  -2.99745
   9   24619.3    406.2   0.751445367  10.04839   0.27477   2.03626  -2.41382
  10   25725.0    388.7   0.025597560   0.32758   0.22513   0.40580  -0.33500
  11   26477.0    377.7   0.001558669   0.01938   0.12191   0.05917  -0.03188
  12   26754.4    373.8   0.078494367   0.96587  -0.46218  -0.59634   0.62979
  13   28265.4    353.8   0.001852537   0.02158   0.11181   0.07683  -0.05632
  14   29472.7    339.3   0.059449250   0.66405  -0.67740  -0.40646   0.19992
  15   29904.0    334.4   0.300108519   3.30389  -1.27774  -0.94246   0.88489
  16   30950.8    323.1   0.017952106   0.19095  -0.10214  -0.07527   0.41815
  17   31195.1    320.6   0.018497005   0.19520  -0.38404  -0.07247   0.20608
  18   31348.3    319.0   0.000679111   0.00713  -0.06774   0.00077  -0.05042
  19   31611.2    316.3   0.969595612  10.09777   3.16129  -0.32128   0.02787
  20   31865.7    313.8   0.178392089   1.84301  -1.34619   0.15355  -0.08483
  21   32506.8    307.6   0.154076818   1.56041  -1.12663  -0.09040   0.53192
  22   32768.7    305.2   0.179775057   1.80612   1.19017   0.57877  -0.23376
  23   33015.4    302.9   0.376728722   3.75653   0.85174  -0.85544   1.51634
  24   33114.1    302.0   0.325219605   3.23325  -0.67263   1.10538  -1.24858
  25   33386.9    299.5   0.660039684   6.50833   2.45773  -0.13161   0.67124
  26   33457.4    298.9   0.111658650   1.09869   0.34765   0.72069  -0.67708
  27   33779.3    296.0   0.049952467   0.48684   0.41849   0.44744  -0.33391
  28   34385.8    290.8   0.063493573   0.60789   0.20432  -0.10110   0.74560
  29   34652.9    288.6   0.022981642   0.21833  -0.02318   0.32502  -0.33489
  30   35240.5    283.8   0.008278361   0.07734   0.26770   0.01790  -0.07316
  31   35509.5    281.6   0.036284228   0.33639   0.55165  -0.04216   0.17406
  32   35807.4    279.3   0.003278885   0.03015  -0.04230  -0.07916   0.14863
  33   35984.3    277.9   0.012216679   0.11177  -0.22625  -0.23105   0.08484
  34   36135.1    276.7   0.050979011   0.46445   0.59105   0.09010   0.32709
  35   36567.9    273.5   0.000333875   0.00301   0.03218  -0.01923  -0.04000
  36   36814.1    271.6   0.075131580   0.67187  -0.19396  -0.55026   0.57573
  37   37141.6    269.2   0.022892060   0.20291   0.35568   0.25781   0.09968
  38   37807.1    264.5   0.146511288   1.27577   0.50287  -0.22864   0.98520
  39   38725.7    258.2   0.004596361   0.03907  -0.02048   0.18144  -0.07573
  40   38817.5    257.6   0.043939436   0.37265   0.39042  -0.07079   0.46391
  41   38991.0    256.5   0.045018647   0.38010  -0.59599  -0.14892  -0.05224
  42   39586.6    252.6   0.001942436   0.01615   0.09944  -0.07872   0.00836
  43   39789.9    251.3   0.007694761   0.06366  -0.24300  -0.06725  -0.00952
  44   39864.3    250.9   0.049419732   0.40812  -0.55647   0.01460  -0.31346
  45   39906.9    250.6   0.002003375   0.01653  -0.05157  -0.10611   0.05108
  46   40229.3    248.6   0.038548530   0.31546  -0.46103   0.11094  -0.30100

FINAL SINGLE POINT ENERGY     -6223.473910794378

DIPOLE MOMENT
-------------
                                X             Y             Z
Electronic contribution:     -3.79244      -5.41981       5.95642
Nuclear contribution   :      6.21881       5.59441      -5.93501
                        -----------------------------------------
Total Dipole Moment    :      2.42637       0.17460       0.02141
                        -----------------------------------------
Magnitude (a.u.)       :      2.43274
Magnitude (Debye)      :      6.18352

Rotational constants in cm-1:     0.003209     0.000161     0.000154
Rotational constants in MHz :    96.205944     4.827658     4.621136

                             ****ORCA TERMINATED NORMALLY****
TOTAL RUN TIME: 0 days 0 hours 7 minutes 40 seconds 964 msec
