                         Program Version 4.2.0 -  RELEASE  -
|  1> # ORCA input file
|  2> # SCF done       -213.929407894913          0.000946373975
|  3> ! CAM-B3LYP def2-SVP def2/J RIJCOSX Grid4 TightSCF
|  4> %maxcore 5000
|  5> %tddft
|  6>     Mode sTDDFT
|  7>     Ethresh 5.0
|  8>     maxcore 5000
|  9> end
| 10>
| 11> %pal
| 12>   nprocs 6
| 13>   end
| 14> * xyz 0 1
| 15>    C        1.66808        -1.83814        -4.21470
| 16>    O        0.68844        -2.52286        -4.39456
| 17>    C        2.36192        -1.01485        -5.22818
| 18>    C        3.32480        -0.20148        -4.60520
| 19>    C        4.08473         0.66930        -5.37029
| 20>    C        3.87450         0.70737        -6.74358
| 21>    C        2.91532        -0.10571        -7.35325
| 22>    C        2.14454        -0.97241        -6.58976
| 23>   Br        2.65290        -0.04209        -9.22287
| 24>   Br        4.91886         1.88995        -7.78414
| 25>    C        3.33038        -0.48133        -3.17188
| 26>    C        4.17319         0.08165        -2.25338
| 27>    C        5.12679         1.07737        -2.56022
| 28>    N        5.91135         1.89297        -2.74793
| 29>    C        4.22706        -0.25472        -0.88252
| 30>    N        4.34937        -0.48559         0.23475
| 31>    C        2.33895        -1.51561        -2.92549
| 32>    C        1.97022        -2.01957        -1.71958
| 33>    C        1.15814        -3.18530        -1.53040
| 34>    C        0.28218        -3.28822        -0.45463
| 35>    F        0.15884        -2.24366         0.37702
| 36>    C       -0.52756        -4.40325        -0.21614
| 37>    F       -1.36135        -4.32164         0.83618
| 38>    C       -0.51053        -5.54267        -1.01989
| 39>    C        0.41612        -5.48643        -2.10103
| 40>    C        1.24459        -4.33947        -2.35115
| 41>    N        2.08327        -4.54220        -3.36333
| 42>    S        1.81636        -6.00668        -3.96856
| 43>    N        0.66146        -6.46882        -2.96205
| 44>    C       -1.30178        -6.72226        -0.86065
| 45>    C       -2.07573        -7.03164         0.21254
| 46>    C       -2.81231        -8.23866         0.29953
| 47>    N       -3.54537        -8.59551         1.40644
| 48>    C       -3.74599        -7.81220         2.60257
| 49>    C       -4.77692        -6.70612         2.39251
| 50>    C       -4.16521        -9.84785         1.25028
| 51>    O       -4.85647       -10.36396         2.10368
| 52>    C       -3.76342       -10.28122        -0.07209
| 53>    C       -2.93971        -9.27479        -0.62855
| 54>    C       -2.55651        -9.69807        -1.96013
| 55>    O       -1.87039        -9.17955        -2.81546
| 56>    N       -3.19112       -10.94246        -2.12296
| 57>    C       -3.00453       -11.71885        -3.32567
| 58>    C       -1.97231       -12.82653        -3.13158
| 59>    C       -3.90307       -11.31047        -1.00672
| 60>    C       -4.62626       -12.52504        -0.91330
| 61>    C       -5.24176       -12.92117         0.23131
| 62>    C       -5.98067       -14.12930         0.42114
| 63>    C       -6.38007       -15.03609        -0.55914
| 64>    F       -6.08667       -14.81701        -1.85296
| 65>    C       -7.10730       -16.19423        -0.27364
| 66>    F       -7.43106       -16.98426        -1.31218
| 67>    C       -7.49706       -16.58115         1.00768
| 68>    C       -7.11615       -15.68213         2.04133
| 69>    C       -6.37954       -14.48319         1.74271
| 70>    N       -6.11385       -13.77873         2.83772
| 71>    S       -6.72770       -14.52828         4.10985
| 72>    N       -7.36356       -15.79369         3.34441
| 73>    C       -8.17745       -17.82038         1.20635
| 74>    C       -8.52939       -18.33403         2.41075
| 75>    C       -9.18915       -19.57478         2.59649
| 76>    C       -9.24907       -20.68012         1.80022
| 77>    C      -10.31999       -21.68049         2.07406
| 78>    O      -11.02048       -21.74174         3.05571
| 79>    C      -10.36791       -22.53620         0.86969
| 80>    C       -9.32506       -22.17335        -0.00179
| 81>    C       -8.52215       -21.12265         0.62702
| 82>    C       -7.23148       -20.82631         0.27843
| 83>    C       -6.38191       -19.96683         1.00384
| 84>    N       -5.63577       -19.29469         1.55919
| 85>    C       -6.56344       -21.40742        -0.82136
| 86>    N       -5.97676       -21.84705        -1.70372
| 87>    C       -9.19960       -22.80815        -1.22576
| 88>    C      -10.10956       -23.80749        -1.55249
| 89>    C      -11.12819       -24.17714        -0.67139
| 90>    C      -11.26514       -23.53483         0.55251
| 91>   Br      -12.33804       -25.55108        -1.13901
| 92>   Br       -9.95309       -24.66808        -3.22750
| 93>    H        4.82965         1.31569        -4.93537
| 94>    H        1.39762        -1.60206        -7.04771
| 95>    H        2.28960        -1.52449        -0.81074
| 96>    H       -1.22696        -7.41995        -1.68532
| 97>    H       -2.13675        -6.36729         1.05978
| 98>    H       -2.79105        -7.39634         2.93458
| 99>    H       -4.10851        -8.51150         3.36126
|100>    H       -4.45206        -6.00642         1.62608
|101>    H       -4.92324        -6.16156         3.32094
|102>    H       -5.72761        -7.13750         2.08881
|103>    H       -2.64983       -11.01611        -4.08473
|104>    H       -3.96345       -12.13239        -3.64889
|105>    H       -1.01587       -12.39672        -2.84426
|106>    H       -1.84240       -13.37324        -4.06112
|107>    H       -2.28641       -13.52329        -2.35776
|108>    H       -4.65334       -13.14121        -1.79805
|109>    H       -5.16992       -12.30292         1.11727
|110>    H       -8.43334       -18.35651         0.30129
|111>    H       -8.35638       -17.73456         3.29333
|112>    H       -9.79269       -19.65571         3.49675
|113>    H       -8.43043       -22.54403        -1.93351
|114>    H      -12.05244       -23.80728         1.23808
|115> *
|116>
|117>                          ****END OF INPUT****

CARTESIAN COORDINATES (ANGSTROEM)
---------------------------------
  C      1.668080   -1.838140   -4.214700
  O      0.688440   -2.522860   -4.394560
  C      2.361920   -1.014850   -5.228180
  C      3.324800   -0.201480   -4.605200
  C      4.084730    0.669300   -5.370290
  C      3.874500    0.707370   -6.743580
  C      2.915320   -0.105710   -7.353250
  C      2.144540   -0.972410   -6.589760
  Br     2.652900   -0.042090   -9.222870
  Br     4.918860    1.889950   -7.784140
  C      3.330380   -0.481330   -3.171880
  C      4.173190    0.081650   -2.253380
  C      5.126790    1.077370   -2.560220
  N      5.911350    1.892970   -2.747930
  C      4.227060   -0.254720   -0.882520
  N      4.349370   -0.485590    0.234750
  C      2.338950   -1.515610   -2.925490
  C      1.970220   -2.019570   -1.719580
  C      1.158140   -3.185300   -1.530400
  C      0.282180   -3.288220   -0.454630
  F      0.158840   -2.243660    0.377020
  C     -0.527560   -4.403250   -0.216140
  F     -1.361350   -4.321640    0.836180
  C     -0.510530   -5.542670   -1.019890
  C      0.416120   -5.486430   -2.101030
  C      1.244590   -4.339470   -2.351150
  N      2.083270   -4.542200   -3.363330
  S      1.816360   -6.006680   -3.968560
  N      0.661460   -6.468820   -2.962050
  C     -1.301780   -6.722260   -0.860650
  C     -2.075730   -7.031640    0.212540
  C     -2.812310   -8.238660    0.299530
  N     -3.545370   -8.595510    1.406440
  C     -3.745990   -7.812200    2.602570
  C     -4.776920   -6.706120    2.392510
  C     -4.165210   -9.847850    1.250280
  O     -4.856470  -10.363960    2.103680
  C     -3.763420  -10.281220   -0.072090
  C     -2.939710   -9.274790   -0.628550
  C     -2.556510   -9.698070   -1.960130
  O     -1.870390   -9.179550   -2.815460
  N     -3.191120  -10.942460   -2.122960
  C     -3.004530  -11.718850   -3.325670
  C     -1.972310  -12.826530   -3.131580
  C     -3.903070  -11.310470   -1.006720
  C     -4.626260  -12.525040   -0.913300
  C     -5.241760  -12.921170    0.231310
  C     -5.980670  -14.129300    0.421140
  C     -6.380070  -15.036090   -0.559140
  F     -6.086670  -14.817010   -1.852960
  C     -7.107300  -16.194230   -0.273640
  F     -7.431060  -16.984260   -1.312180
  C     -7.497060  -16.581150    1.007680
  C     -7.116150  -15.682130    2.041330
  C     -6.379540  -14.483190    1.742710
  N     -6.113850  -13.778730    2.837720
  S     -6.727700  -14.528280    4.109850
  N     -7.363560  -15.793690    3.344410
  C     -8.177450  -17.820380    1.206350
  C     -8.529390  -18.334030    2.410750
  C     -9.189150  -19.574780    2.596490
  C     -9.249070  -20.680120    1.800220
  C    -10.319990  -21.680490    2.074060
  O    -11.020480  -21.741740    3.055710
  C    -10.367910  -22.536200    0.869690
  C     -9.325060  -22.173350   -0.001790
  C     -8.522150  -21.122650    0.627020
  C     -7.231480  -20.826310    0.278430
  C     -6.381910  -19.966830    1.003840
  N     -5.635770  -19.294690    1.559190
  C     -6.563440  -21.407420   -0.821360
  N     -5.976760  -21.847050   -1.703720
  C     -9.199600  -22.808150   -1.225760
  C    -10.109560  -23.807490   -1.552490
  C    -11.128190  -24.177140   -0.671390
  C    -11.265140  -23.534830    0.552510
  Br   -12.338040  -25.551080   -1.139010
  Br    -9.953090  -24.668080   -3.227500
  H      4.829650    1.315690   -4.935370
  H      1.397620   -1.602060   -7.047710
  H      2.289600   -1.524490   -0.810740
  H     -1.226960   -7.419950   -1.685320
  H     -2.136750   -6.367290    1.059780
  H     -2.791050   -7.396340    2.934580
  H     -4.108510   -8.511500    3.361260
  H     -4.452060   -6.006420    1.626080
  H     -4.923240   -6.161560    3.320940
  H     -5.727610   -7.137500    2.088810
  H     -2.649830  -11.016110   -4.084730
  H     -3.963450  -12.132390   -3.648890
  H     -1.015870  -12.396720   -2.844260
  H     -1.842400  -13.373240   -4.061120
  H     -2.286410  -13.523290   -2.357760
  H     -4.653340  -13.141210   -1.798050
  H     -5.169920  -12.302920    1.117270
  H     -8.433340  -18.356510    0.301290
  H     -8.356380  -17.734560    3.293330
  H     -9.792690  -19.655710    3.496750
  H     -8.430430  -22.544030   -1.933510
  H    -12.052440  -23.807280    1.238080

 Total Charge           Charge          ....    0
 Multiplicity           Mult            ....    1
 Number of Electrons    NEL             ....  656
 Basis Dimension        Dim             .... 1282

ORBITAL ENERGIES
----------------

  NO   OCC          E(Eh)            E(eV)
   0   2.0000    -482.880575    -13139.8485
   1   2.0000    -482.879155    -13139.8098
   2   2.0000    -482.878644    -13139.7959
   3   2.0000    -482.878122    -13139.7817
   4   2.0000     -89.036227     -2422.7989
   5   2.0000     -89.032679     -2422.7024
   6   2.0000     -62.558173     -1702.2944
   7   2.0000     -62.556775     -1702.2564
   8   2.0000     -62.556242     -1702.2419
   9   2.0000     -62.555762     -1702.2288
  10   2.0000     -56.392126     -1534.5078
  11   2.0000     -56.390727     -1534.4697
  12   2.0000     -56.390206     -1534.4555
  13   2.0000     -56.389725     -1534.4424
  14   2.0000     -56.389473     -1534.4356
  15   2.0000     -56.389373     -1534.4329
  16   2.0000     -56.388069     -1534.3974
  17   2.0000     -56.387975     -1534.3948
  18   2.0000     -56.387535     -1534.3828
  19   2.0000     -56.387434     -1534.3801
  20   2.0000     -56.387053     -1534.3697
  21   2.0000     -56.386956     -1534.3671
  22   2.0000     -24.816390      -675.2883
  23   2.0000     -24.816005      -675.2778
  24   2.0000     -24.815993      -675.2775
  25   2.0000     -24.814719      -675.2428
  26   2.0000     -19.226081      -523.1683
  27   2.0000     -19.224806      -523.1336
  28   2.0000     -19.196653      -522.3675
  29   2.0000     -19.195069      -522.3244
  30   2.0000     -14.458280      -393.4298
  31   2.0000     -14.457799      -393.4167
  32   2.0000     -14.450511      -393.2184
  33   2.0000     -14.450426      -393.2161
  34   2.0000     -14.446490      -393.1090
  35   2.0000     -14.444471      -393.0540
  36   2.0000     -14.425950      -392.5500
  37   2.0000     -14.424828      -392.5195
  38   2.0000     -14.424814      -392.5192
  39   2.0000     -14.423103      -392.4726
  40   2.0000     -10.400383      -283.0088
  41   2.0000     -10.396724      -282.9092
  42   2.0000     -10.394679      -282.8536
  43   2.0000     -10.394060      -282.8367
  44   2.0000     -10.379054      -282.4284
  45   2.0000     -10.378060      -282.4014
  46   2.0000     -10.377536      -282.3871
  47   2.0000     -10.375466      -282.3308
  48   2.0000     -10.357885      -281.8524
  49   2.0000     -10.357401      -281.8392
  50   2.0000     -10.357018      -281.8288
  51   2.0000     -10.356444      -281.8132
  52   2.0000     -10.356315      -281.8096
  53   2.0000     -10.353898      -281.7439
  54   2.0000     -10.352661      -281.7102
  55   2.0000     -10.352608      -281.7088
  56   2.0000     -10.344593      -281.4907
  57   2.0000     -10.343575      -281.4630
  58   2.0000     -10.342970      -281.4465
  59   2.0000     -10.341097      -281.3956
  60   2.0000     -10.338998      -281.3384
  61   2.0000     -10.338050      -281.3126
  62   2.0000     -10.329350      -281.0759
  63   2.0000     -10.327614      -281.0287
  64   2.0000     -10.326644      -281.0023
  65   2.0000     -10.326006      -280.9849
  66   2.0000     -10.325511      -280.9714
  67   2.0000     -10.325261      -280.9646
  68   2.0000     -10.323429      -280.9148
  69   2.0000     -10.322290      -280.8838
  70   2.0000     -10.322010      -280.8762
  71   2.0000     -10.321635      -280.8660
  72   2.0000     -10.320933      -280.8469
  73   2.0000     -10.320315      -280.8301
  74   2.0000     -10.315316      -280.6940
  75   2.0000     -10.315137      -280.6891
  76   2.0000     -10.314998      -280.6854
  77   2.0000     -10.314847      -280.6813
  78   2.0000     -10.312376      -280.6140
  79   2.0000     -10.312153      -280.6079
  80   2.0000     -10.312098      -280.6064
  81   2.0000     -10.311872      -280.6003
  82   2.0000     -10.307505      -280.4815
  83   2.0000     -10.307018      -280.4682
  84   2.0000     -10.305798      -280.4350
  85   2.0000     -10.301428      -280.3161
  86   2.0000     -10.300725      -280.2970
  87   2.0000     -10.300015      -280.2777
  88   2.0000     -10.299707      -280.2693
  89   2.0000     -10.291814      -280.0545
  90   2.0000     -10.269101      -279.4364
  91   2.0000     -10.268212      -279.4123
  92   2.0000     -10.267063      -279.3810
  93   2.0000     -10.266631      -279.3692
  94   2.0000      -8.787479      -239.1195
  95   2.0000      -8.786103      -239.0820
  96   2.0000      -8.785556      -239.0671
  97   2.0000      -8.785097      -239.0547
  98   2.0000      -8.127935      -221.1724
  99   2.0000      -8.124404      -221.0763
 100   2.0000      -6.623604      -180.2374
 101   2.0000      -6.622247      -180.2005
 102   2.0000      -6.621707      -180.1858
 103   2.0000      -6.621282      -180.1742
 104   2.0000      -6.609609      -179.8566
 105   2.0000      -6.608819      -179.8351
 106   2.0000      -6.608230      -179.8191
 107   2.0000      -6.607660      -179.8036
 108   2.0000      -6.607428      -179.7973
 109   2.0000      -6.607202      -179.7911
 110   2.0000      -6.606883      -179.7824
 111   2.0000      -6.606401      -179.7693
 112   2.0000      -6.099222      -165.9683
 113   2.0000      -6.095596      -165.8696
 114   2.0000      -6.091343      -165.7539
 115   2.0000      -6.090287      -165.7251
 116   2.0000      -6.087798      -165.6574
 117   2.0000      -6.086868      -165.6321
 118   2.0000      -2.739506       -74.5457
 119   2.0000      -2.738110       -74.5078
 120   2.0000      -2.737655       -74.4954
 121   2.0000      -2.737145       -74.4815
 122   2.0000      -2.735763       -74.4439
 123   2.0000      -2.735134       -74.4268
 124   2.0000      -2.734372       -74.4060
 125   2.0000      -2.733818       -74.3910
 126   2.0000      -2.733817       -74.3909
 127   2.0000      -2.733377       -74.3790
 128   2.0000      -2.733202       -74.3742
 129   2.0000      -2.732821       -74.3638
 130   2.0000      -2.724003       -74.1239
 131   2.0000      -2.723991       -74.1236
 132   2.0000      -2.722624       -74.0864
 133   2.0000      -2.722603       -74.0858
 134   2.0000      -2.722037       -74.0704
 135   2.0000      -2.722027       -74.0701
 136   2.0000      -2.721582       -74.0580
 137   2.0000      -2.721568       -74.0576
 138   2.0000      -1.339338       -36.4452
 139   2.0000      -1.338235       -36.4152
 140   2.0000      -1.321514       -35.9602
 141   2.0000      -1.320256       -35.9260
 142   2.0000      -1.143403       -31.1136
 143   2.0000      -1.140662       -31.0390
 144   2.0000      -1.139290       -31.0017
 145   2.0000      -1.139133       -30.9974
 146   2.0000      -1.134126       -30.8611
 147   2.0000      -1.132506       -30.8170
 148   2.0000      -1.069325       -29.0978
 149   2.0000      -1.060886       -28.8682
 150   2.0000      -1.030920       -28.0528
 151   2.0000      -1.029809       -28.0225
 152   2.0000      -1.014555       -27.6074
 153   2.0000      -1.013452       -27.5774
 154   2.0000      -1.003644       -27.3105
 155   2.0000      -1.002456       -27.2782
 156   2.0000      -0.995745       -27.0956
 157   2.0000      -0.993326       -27.0298
 158   2.0000      -0.991125       -26.9699
 159   2.0000      -0.990345       -26.9487
 160   2.0000      -0.981131       -26.6979
 161   2.0000      -0.980399       -26.6780
 162   2.0000      -0.935849       -25.4657
 163   2.0000      -0.933478       -25.4012
 164   2.0000      -0.929048       -25.2807
 165   2.0000      -0.924902       -25.1679
 166   2.0000      -0.924113       -25.1464
 167   2.0000      -0.917962       -24.9790
 168   2.0000      -0.916304       -24.9339
 169   2.0000      -0.913591       -24.8601
 170   2.0000      -0.906592       -24.6696
 171   2.0000      -0.894273       -24.3344
 172   2.0000      -0.882665       -24.0185
 173   2.0000      -0.876375       -23.8474
 174   2.0000      -0.874591       -23.7988
 175   2.0000      -0.873025       -23.7562
 176   2.0000      -0.869573       -23.6623
 177   2.0000      -0.857287       -23.3280
 178   2.0000      -0.856386       -23.3034
 179   2.0000      -0.848371       -23.0854
 180   2.0000      -0.838332       -22.8122
 181   2.0000      -0.824904       -22.4468
 182   2.0000      -0.812040       -22.0967
 183   2.0000      -0.804984       -21.9047
 184   2.0000      -0.782254       -21.2862
 185   2.0000      -0.777834       -21.1659
 186   2.0000      -0.771989       -21.0069
 187   2.0000      -0.766677       -20.8623
 188   2.0000      -0.764713       -20.8089
 189   2.0000      -0.760540       -20.6953
 190   2.0000      -0.757303       -20.6073
 191   2.0000      -0.739427       -20.1208
 192   2.0000      -0.735192       -20.0056
 193   2.0000      -0.729217       -19.8430
 194   2.0000      -0.724698       -19.7200
 195   2.0000      -0.717810       -19.5326
 196   2.0000      -0.713802       -19.4235
 197   2.0000      -0.708920       -19.2907
 198   2.0000      -0.701233       -19.0815
 199   2.0000      -0.698467       -19.0063
 200   2.0000      -0.692066       -18.8321
 201   2.0000      -0.691936       -18.8285
 202   2.0000      -0.683525       -18.5997
 203   2.0000      -0.678594       -18.4655
 204   2.0000      -0.673120       -18.3165
 205   2.0000      -0.662323       -18.0227
 206   2.0000      -0.657049       -17.8792
 207   2.0000      -0.653409       -17.7802
 208   2.0000      -0.652051       -17.7432
 209   2.0000      -0.649168       -17.6648
 210   2.0000      -0.647602       -17.6222
 211   2.0000      -0.635074       -17.2812
 212   2.0000      -0.631720       -17.1900
 213   2.0000      -0.629994       -17.1430
 214   2.0000      -0.625417       -17.0185
 215   2.0000      -0.621467       -16.9110
 216   2.0000      -0.618713       -16.8360
 217   2.0000      -0.608910       -16.5693
 218   2.0000      -0.604053       -16.4371
 219   2.0000      -0.603418       -16.4198
 220   2.0000      -0.598707       -16.2916
 221   2.0000      -0.594572       -16.1791
 222   2.0000      -0.594035       -16.1645
 223   2.0000      -0.591855       -16.1052
 224   2.0000      -0.582663       -15.8551
 225   2.0000      -0.578534       -15.7427
 226   2.0000      -0.575394       -15.6573
 227   2.0000      -0.571112       -15.5408
 228   2.0000      -0.566327       -15.4105
 229   2.0000      -0.563701       -15.3391
 230   2.0000      -0.562691       -15.3116
 231   2.0000      -0.561027       -15.2663
 232   2.0000      -0.560800       -15.2602
 233   2.0000      -0.558797       -15.2056
 234   2.0000      -0.557394       -15.1675
 235   2.0000      -0.552464       -15.0333
 236   2.0000      -0.552149       -15.0248
 237   2.0000      -0.550030       -14.9671
 238   2.0000      -0.548261       -14.9189
 239   2.0000      -0.547649       -14.9023
 240   2.0000      -0.543098       -14.7785
 241   2.0000      -0.540590       -14.7102
 242   2.0000      -0.540263       -14.7013
 243   2.0000      -0.536830       -14.6079
 244   2.0000      -0.534368       -14.5409
 245   2.0000      -0.533063       -14.5054
 246   2.0000      -0.530131       -14.4256
 247   2.0000      -0.529036       -14.3958
 248   2.0000      -0.524270       -14.2661
 249   2.0000      -0.521785       -14.1985
 250   2.0000      -0.515600       -14.0302
 251   2.0000      -0.514745       -14.0069
 252   2.0000      -0.514172       -13.9913
 253   2.0000      -0.508760       -13.8441
 254   2.0000      -0.508491       -13.8368
 255   2.0000      -0.507113       -13.7993
 256   2.0000      -0.506240       -13.7755
 257   2.0000      -0.503321       -13.6961
 258   2.0000      -0.499930       -13.6038
 259   2.0000      -0.495481       -13.4827
 260   2.0000      -0.494949       -13.4682
 261   2.0000      -0.494014       -13.4428
 262   2.0000      -0.485506       -13.2113
 263   2.0000      -0.481554       -13.1038
 264   2.0000      -0.478616       -13.0238
 265   2.0000      -0.475090       -12.9279
 266   2.0000      -0.473876       -12.8948
 267   2.0000      -0.471677       -12.8350
 268   2.0000      -0.469208       -12.7678
 269   2.0000      -0.467595       -12.7239
 270   2.0000      -0.466654       -12.6983
 271   2.0000      -0.466060       -12.6821
 272   2.0000      -0.464484       -12.6393
 273   2.0000      -0.462951       -12.5975
 274   2.0000      -0.462202       -12.5772
 275   2.0000      -0.460539       -12.5319
 276   2.0000      -0.457168       -12.4402
 277   2.0000      -0.457162       -12.4400
 278   2.0000      -0.456679       -12.4269
 279   2.0000      -0.455841       -12.4041
 280   2.0000      -0.452516       -12.3136
 281   2.0000      -0.448852       -12.2139
 282   2.0000      -0.446701       -12.1553
 283   2.0000      -0.445950       -12.1349
 284   2.0000      -0.444474       -12.0947
 285   2.0000      -0.437892       -11.9157
 286   2.0000      -0.437019       -11.8919
 287   2.0000      -0.436489       -11.8775
 288   2.0000      -0.435535       -11.8515
 289   2.0000      -0.434486       -11.8230
 290   2.0000      -0.432049       -11.7567
 291   2.0000      -0.431073       -11.7301
 292   2.0000      -0.430115       -11.7040
 293   2.0000      -0.424681       -11.5562
 294   2.0000      -0.422271       -11.4906
 295   2.0000      -0.421358       -11.4657
 296   2.0000      -0.419364       -11.4115
 297   2.0000      -0.411281       -11.1915
 298   2.0000      -0.410455       -11.1690
 299   2.0000      -0.405229       -11.0268
 300   2.0000      -0.403805       -10.9881
 301   2.0000      -0.401691       -10.9306
 302   2.0000      -0.394395       -10.7320
 303   2.0000      -0.392891       -10.6911
 304   2.0000      -0.392793       -10.6885
 305   2.0000      -0.378731       -10.3058
 306   2.0000      -0.377074       -10.2607
 307   2.0000      -0.375065       -10.2060
 308   2.0000      -0.371041       -10.0965
 309   2.0000      -0.365641        -9.9496
 310   2.0000      -0.354647        -9.6504
 311   2.0000      -0.352717        -9.5979
 312   2.0000      -0.351019        -9.5517
 313   2.0000      -0.350632        -9.5412
 314   2.0000      -0.345957        -9.4140
 315   2.0000      -0.345282        -9.3956
 316   2.0000      -0.342544        -9.3211
 317   2.0000      -0.339788        -9.2461
 318   2.0000      -0.338063        -9.1992
 319   2.0000      -0.336549        -9.1580
 320   2.0000      -0.334311        -9.0971
 321   2.0000      -0.330389        -8.9903
 322   2.0000      -0.321295        -8.7429
 323   2.0000      -0.315739        -8.5917
 324   2.0000      -0.315386        -8.5821
 325   2.0000      -0.299984        -8.1630
 326   2.0000      -0.286830        -7.8050
 327   2.0000      -0.240177        -6.5356
 328   0.0000      -0.121921        -3.3176
 329   0.0000      -0.106592        -2.9005
 330   0.0000      -0.085858        -2.3363
 331   0.0000      -0.079046        -2.1510
 332   0.0000      -0.065276        -1.7763

MULLIKEN ATOMIC CHARGES
-----------------------
   0 C :    0.159153
   1 O :   -0.134360
   2 C :   -0.018858
   3 C :    0.038696
   4 C :   -0.010391
   5 C :   -0.025287
   6 C :   -0.014323
   7 C :   -0.018900
   8 Br:    0.017238
   9 Br:    0.024208
  10 C :    0.296283
  11 C :   -0.327991
  12 C :   -0.188070
  13 N :    0.161635
  14 C :   -0.193746
  15 N :    0.167104
  16 C :   -0.057279
  17 C :   -0.052936
  18 C :   -0.012746
  19 C :    0.198461
  20 F :   -0.157907
  21 C :    0.158226
  22 F :   -0.171927
  23 C :    0.049466
  24 C :    0.002338
  25 C :    0.052706
  26 N :   -0.280651
  27 S :    0.528765
  28 N :   -0.255935
  29 C :   -0.049149
  30 C :    0.001914
  31 C :    0.130025
  32 N :   -0.261141
  33 C :    0.097628
  34 C :    0.008148
  35 C :    0.158485
  36 O :   -0.197804
  37 C :   -0.059840
  38 C :   -0.060265
  39 C :    0.160504
  40 O :   -0.193276
  41 N :   -0.259829
  42 C :    0.096060
  43 C :    0.007884
  44 C :    0.131159
  45 C :   -0.000228
  46 C :   -0.047274
  47 C :    0.048773
  48 C :    0.156500
  49 F :   -0.170166
  50 C :    0.203265
  51 F :   -0.169544
  52 C :   -0.003500
  53 C :    0.052048
  54 C :   -0.003602
  55 N :   -0.254361
  56 S :    0.533045
  57 N :   -0.294229
  58 C :   -0.034515
  59 C :    0.042099
  60 C :    0.050810
  61 C :   -0.119413
  62 C :    0.131612
  63 O :   -0.133534
  64 C :    0.009270
  65 C :    0.012511
  66 C :    0.267547
  67 C :   -0.329066
  68 C :   -0.196850
  69 N :    0.178204
  70 C :   -0.181136
  71 N :    0.165182
  72 C :   -0.008369
  73 C :   -0.024252
  74 C :   -0.017229
  75 C :   -0.021372
  76 Br:    0.016177
  77 Br:    0.022636
  78 H :    0.009141
  79 H :    0.006218
  80 H :    0.040272
  81 H :    0.038308
  82 H :   -0.009852
  83 H :    0.025650
  84 H :    0.043383
  85 H :    0.017283
  86 H :    0.024413
  87 H :    0.027642
  88 H :    0.043886
  89 H :    0.027453
  90 H :    0.028517
  91 H :    0.025039
  92 H :    0.017309
  93 H :   -0.010799
  94 H :    0.037695
  95 H :    0.006024
  96 H :    0.026982
  97 H :    0.031758
  98 H :    0.010994
  99 H :    0.008174
Sum of atomic charges:   -0.0000000

LOEWDIN ATOMIC CHARGES
----------------------
   0 C :    0.084766
   1 O :   -0.127463
   2 C :   -0.038300
   3 C :   -0.012488
   4 C :   -0.006553
   5 C :   -0.118639
   6 C :   -0.121346
   7 C :    0.006239
   8 Br:    0.140187
   9 Br:    0.143365
  10 C :    0.072943
  11 C :   -0.123476
  12 C :   -0.019190
  13 N :   -0.039337
  14 C :   -0.022102
  15 N :   -0.037774
  16 C :   -0.069426
  17 C :    0.076463
  18 C :   -0.065282
  19 C :    0.092880
  20 F :   -0.037849
  21 C :    0.065845
  22 F :   -0.043524
  23 C :   -0.033473
  24 C :   -0.045205
  25 C :   -0.037639
  26 N :   -0.281346
  27 S :    0.663856
  28 N :   -0.265423
  29 C :    0.025161
  30 C :   -0.025095
  31 C :    0.071521
  32 N :    0.000292
  33 C :    0.036399
  34 C :   -0.060016
  35 C :    0.078571
  36 O :   -0.189999
  37 C :   -0.115657
  38 C :   -0.112130
  39 C :    0.079725
  40 O :   -0.185355
  41 N :    0.000635
  42 C :    0.036497
  43 C :   -0.059843
  44 C :    0.075854
  45 C :   -0.030155
  46 C :    0.029060
  47 C :   -0.044038
  48 C :    0.071707
  49 F :   -0.041968
  50 C :    0.085393
  51 F :   -0.044680
  52 C :   -0.054187
  53 C :   -0.035828
  54 C :   -0.043201
  55 N :   -0.261487
  56 S :    0.661049
  57 N :   -0.281776
  58 C :    0.032265
  59 C :   -0.024429
  60 C :    0.071154
  61 C :   -0.090590
  62 C :    0.083674
  63 O :   -0.132609
  64 C :   -0.044010
  65 C :   -0.009485
  66 C :    0.064172
  67 C :   -0.132076
  68 C :   -0.015409
  69 N :   -0.036856
  70 C :   -0.021820
  71 N :   -0.042523
  72 C :   -0.008741
  73 C :   -0.118179
  74 C :   -0.123572
  75 C :    0.007759
  76 Br:    0.138625
  77 Br:    0.142692
  78 H :    0.044882
  79 H :    0.046208
  80 H :    0.048290
  81 H :    0.044882
  82 H :    0.027407
  83 H :    0.024007
  84 H :    0.037879
  85 H :    0.022708
  86 H :    0.031611
  87 H :    0.031800
  88 H :    0.038070
  89 H :    0.024508
  90 H :    0.032041
  91 H :    0.031818
  92 H :    0.022844
  93 H :    0.027319
  94 H :    0.044743
  95 H :    0.033294
  96 H :    0.037103
  97 H :    0.049572
  98 H :    0.044761
  99 H :    0.047056

  Mayer bond orders larger than 0.100000
B(  0-C ,  1-O ) :   2.2430 B(  0-C ,  2-C ) :   0.9421 B(  0-C , 16-C ) :   0.9310
B(  2-C ,  3-C ) :   1.3293 B(  2-C ,  7-C ) :   1.3710 B(  3-C ,  4-C ) :   1.3591
B(  3-C , 10-C ) :   0.9992 B(  4-C ,  5-C ) :   1.3768 B(  4-C , 78-H ) :   0.9785
B(  5-C ,  6-C ) :   1.4169 B(  5-C ,  9-Br) :   1.0588 B(  6-C ,  7-C ) :   1.3546
B(  6-C ,  8-Br) :   1.0349 B(  7-C , 79-H ) :   1.0081 B( 10-C , 11-C ) :   1.6605
B( 10-C , 16-C ) :   1.0604 B( 11-C , 12-C ) :   1.1360 B( 11-C , 14-C ) :   1.1396
B( 12-C , 13-N ) :   2.9722 B( 14-C , 15-N ) :   2.9790 B( 16-C , 17-C ) :   1.6718
B( 17-C , 18-C ) :   1.0887 B( 17-C , 80-H ) :   0.9371 B( 18-C , 19-C ) :   1.3797
B( 18-C , 23-C ) :   0.1235 B( 18-C , 25-C ) :   1.1802 B( 19-C , 20-F ) :   1.1773
B( 19-C , 21-C ) :   1.1713 B( 21-C , 22-F ) :   1.1230 B( 21-C , 23-C ) :   1.3319
B( 23-C , 24-C ) :   1.1460 B( 23-C , 29-C ) :   1.1649 B( 24-C , 25-C ) :   1.1502
B( 24-C , 28-N ) :   1.5710 B( 25-C , 26-N ) :   1.5377 B( 26-N , 27-S ) :   1.2609
B( 26-N , 28-N ) :   0.1447 B( 27-S , 28-N ) :   1.2818 B( 29-C , 30-C ) :   1.5558
B( 29-C , 81-H ) :   0.9577 B( 30-C , 31-C ) :   1.1577 B( 30-C , 82-H ) :   0.9592
B( 31-C , 32-N ) :   1.1591 B( 31-C , 38-C ) :   1.3348 B( 32-N , 33-C ) :   0.9445
B( 32-N , 35-C ) :   1.0554 B( 33-C , 34-C ) :   1.1221 B( 33-C , 83-H ) :   0.9492
B( 33-C , 84-H ) :   0.9271 B( 34-C , 85-H ) :   0.9679 B( 34-C , 86-H ) :   0.9677
B( 34-C , 87-H ) :   0.9630 B( 35-C , 36-O ) :   2.0495 B( 35-C , 37-C ) :   0.9799
B( 37-C , 38-C ) :   1.2674 B( 37-C , 44-C ) :   1.3300 B( 38-C , 39-C ) :   0.9772
B( 39-C , 40-O ) :   2.0509 B( 39-C , 41-N ) :   1.0543 B( 41-N , 42-C ) :   0.9446
B( 41-N , 44-C ) :   1.1627 B( 42-C , 43-C ) :   1.1216 B( 42-C , 88-H ) :   0.9273
B( 42-C , 89-H ) :   0.9494 B( 43-C , 90-H ) :   0.9634 B( 43-C , 91-H ) :   0.9677
B( 43-C , 92-H ) :   0.9679 B( 44-C , 45-C ) :   1.1584 B( 45-C , 46-C ) :   1.5558
B( 45-C , 93-H ) :   0.9582 B( 46-C , 47-C ) :   1.1644 B( 46-C , 94-H ) :   0.9581
B( 47-C , 48-C ) :   1.3314 B( 47-C , 52-C ) :   0.1294 B( 47-C , 54-C ) :   1.1417
B( 48-C , 49-F ) :   1.1263 B( 48-C , 50-C ) :   1.1783 B( 50-C , 51-F ) :   1.1482
B( 50-C , 52-C ) :   1.3690 B( 52-C , 53-C ) :   1.1562 B( 52-C , 58-C ) :   1.1843
B( 53-C , 54-C ) :   1.1464 B( 53-C , 57-N ) :   1.5320 B( 54-C , 55-N ) :   1.5753
B( 55-N , 56-S ) :   1.2802 B( 55-N , 57-N ) :   0.1432 B( 56-S , 57-N ) :   1.2485
B( 58-C , 59-C ) :   1.6227 B( 58-C , 95-H ) :   0.9575 B( 59-C , 60-C ) :   1.1455
B( 59-C , 96-H ) :   0.9350 B( 60-C , 61-C ) :   1.6599 B( 60-C , 97-H ) :   0.9293
B( 61-C , 62-C ) :   0.9470 B( 61-C , 66-C ) :   1.0343 B( 62-C , 63-O ) :   2.2691
B( 62-C , 64-C ) :   0.9191 B( 64-C , 65-C ) :   1.3306 B( 64-C , 75-C ) :   1.3718
B( 65-C , 66-C ) :   1.0002 B( 65-C , 72-C ) :   1.3675 B( 66-C , 67-C ) :   1.6589
B( 67-C , 68-C ) :   1.1718 B( 67-C , 70-C ) :   1.1229 B( 68-C , 69-N ) :   2.9872
B( 70-C , 71-N ) :   2.9939 B( 72-C , 73-C ) :   1.3711 B( 72-C , 98-H ) :   0.9830
B( 73-C , 74-C ) :   1.4219 B( 73-C , 77-Br) :   1.0533 B( 74-C , 75-C ) :   1.3553
B( 74-C , 76-Br) :   1.0348 B( 75-C , 99-H ) :   1.0086

-----------------------------------------------------------------------------
         ABSORPTION SPECTRUM VIA TRANSITION ELECTRIC DIPOLE MOMENTS
-----------------------------------------------------------------------------
State   Energy  Wavelength   fosc         T2         TX        TY        TZ
        (cm-1)    (nm)                  (au**2)     (au)      (au)      (au)
-----------------------------------------------------------------------------
   0   11648.2    858.5   1.279811629  36.17126  -2.94423  -5.21049   0.59465
   1   16368.4    610.9   0.018939901   0.38093  -0.23584   0.49530   0.28282
   2   20738.1    482.2   0.284012569   4.50862   0.54819   2.03283  -0.27519
   3   22362.9    447.2   0.034561894   0.50880   0.14761  -0.53890  -0.44339
   4   23160.9    431.8   0.561057513   7.97493  -1.54849  -2.16182   0.95061
   5   23945.9    417.6   0.247233305   3.39901   1.00516   1.47400  -0.46475
   6   25062.9    399.0   0.090194074   1.18474   0.41798   0.21656  -0.98140
   7   25446.6    393.0   0.002797495   0.03619   0.14153   0.11402  -0.05621
   8   26828.5    372.7   0.090542687   1.11105  -0.64431  -0.53189   0.64265
   9   27031.7    369.9   0.119854040   1.45967  -0.57939  -0.37512   0.99159
  10   27367.0    365.4   0.009633408   0.11589   0.22749   0.09447  -0.23497
  11   27563.9    362.8   0.034129606   0.40763   0.37724   0.08078  -0.50872
  12   27709.9    360.9   0.040537632   0.48161   0.57264  -0.25263  -0.29980
  13   28044.6    356.6   0.096456648   1.13229   0.09465  -0.20043   1.04075
  14   28068.4    356.3   0.217675638   2.55310   1.22414   1.02347   0.08414
  15   29931.8    334.1   0.041367649   0.45499  -0.38596  -0.25744  -0.48964
  16   30180.7    331.3   0.043501548   0.47452  -0.43019  -0.53794  -0.00900
  17   30200.4    331.1   0.025095962   0.27357  -0.11387  -0.21241  -0.46420
  18   30448.0    328.4   0.002847337   0.03079  -0.01844  -0.06294  -0.16274
  19   30868.1    324.0   0.084095757   0.89689   0.32865  -0.64070  -0.61513
  20   31205.5    320.5   0.044548157   0.46997  -0.13703  -0.20573  -0.63943
  21   31611.2    316.3   0.008790591   0.09155  -0.24980   0.15149   0.07873
  22   32042.4    312.1   0.113088146   1.16190   0.13932  -0.13030  -1.06090
  23   32221.9    310.3   0.068870422   0.70365   0.62681   0.19143  -0.52356
  24   32462.1    308.1   0.032239624   0.32696   0.45588   0.06965  -0.33805
  25   32712.3    305.7   0.037826590   0.38068   0.49256   0.15793   0.33634
  26   32793.7    304.9   0.061872071   0.62113  -0.14206  -0.22380   0.74220
  27   33234.6    300.9   0.003650584   0.03616  -0.13618  -0.08885   0.09861
  28   33281.9    300.5   0.012811082   0.12672  -0.19753   0.08741   0.28295
  29   33820.0    295.7   0.034213696   0.33304   0.28153  -0.22053  -0.45294
  30   33849.4    295.4   0.043004523   0.41825   0.16158  -0.19222  -0.59599
  31   34431.2    290.4   0.027146540   0.25956  -0.28083  -0.16960  -0.38978
  32   34480.9    290.0   0.147688092   1.41007  -0.11177  -0.02117  -1.18200
  33   35103.6    284.9   0.610891222   5.72912  -1.93319  -1.41045  -0.05019
  34   35423.8    282.3   0.163232016   1.51700  -0.38953   0.12424  -1.16182
  35   35705.0    280.1   0.490863401   4.52592  -1.19385  -0.91493  -1.50451
  36   35980.9    277.9   0.008166231   0.07472  -0.14619  -0.08846  -0.21336
  37   36251.3    275.9   0.013023320   0.11827  -0.18219  -0.09055  -0.27727
  38   36677.3    272.6   0.064562586   0.57951   0.58828   0.48275  -0.01957
  39   36820.8    271.6   0.032769238   0.29299  -0.12256  -0.08023   0.52109
  40   37192.6    268.9   0.000549490   0.00486   0.02803   0.02262   0.05972
  41   37276.6    268.3   0.006300833   0.05565   0.23192  -0.00942   0.04210
  42   37427.7    267.2   0.004574290   0.04024  -0.17947   0.06410   0.06259
  43   37773.3    264.7   0.010594719   0.09234  -0.01188   0.17360  -0.24911
  44   37863.1    264.1   0.001686423   0.01466  -0.10535  -0.05293   0.02761
  45   38016.9    263.0   0.003462274   0.02998   0.01819   0.08966  -0.14701
  46   38248.9    261.4   0.021050872   0.18119   0.27432   0.20169  -0.25545
  47   38536.2    259.5   0.056734587   0.48468  -0.14048  -0.68159  -0.01957
  48   38669.9    258.6   0.063894742   0.54396   0.13062   0.30380  -0.65925
  49   38737.8    258.1   0.031335347   0.26630  -0.26400  -0.43654   0.07774
  50   39018.7    256.3   0.097715944   0.82446   0.50784   0.71663  -0.23021
  51   39070.8    255.9   0.028449067   0.23971  -0.30653  -0.36952   0.09594
  52   39191.6    255.2   0.032002148   0.26882  -0.14425   0.38770   0.31257
  53   39470.2    253.4   0.019151244   0.15974   0.37247  -0.01519  -0.14413
  54   39795.8    251.3   0.066881298   0.55328  -0.49372  -0.29073   0.47433
  55   39925.3    250.5   0.123415565   1.01765  -0.38219   0.08004   0.93015

FINAL SINGLE POINT ENERGY    -14406.575264460651

DIPOLE MOMENT
-------------
                                X             Y             Z
Electronic contribution:     -5.60589     -38.49868    -152.77297
Nuclear contribution   :      3.60822      38.02762     152.30048
                        -----------------------------------------
Total Dipole Moment    :     -1.99767      -0.47106      -0.47249
                        -----------------------------------------
Magnitude (a.u.)       :      2.10614
Magnitude (Debye)      :      5.35339

Rotational constants in cm-1:     0.001438     0.000106     0.000100
Rotational constants in MHz :    43.119666     3.175163     3.000653

                             ****ORCA TERMINATED NORMALLY****
TOTAL RUN TIME: 0 days 0 hours 11 minutes 35 seconds 388 msec
