                         Program Version 4.2.0 -  RELEASE  -
|  1> # ORCA input file
|  2> # SCF done       -163.712882143455          0.000585768279
|  3> ! CAM-B3LYP def2-SVP def2/J RIJCOSX Grid4 TightSCF
|  4> %maxcore 5000
|  5> %tddft
|  6>     Mode sTDDFT
|  7>     Ethresh 5.0
|  8>     maxcore 5000
|  9> end
| 10>
| 11> %pal
| 12>   nprocs 6
| 13>   end
| 14> * xyz 0 1
| 15>    C        2.66975         2.64317        -2.13326
| 16>    C        2.04168         3.69526        -2.72551
| 17>    S        2.06665         3.54978        -4.44441
| 18>    C        2.93966         2.03726        -4.36799
| 19>   Cl        3.37768         1.19987        -5.77388
| 20>    C        3.18613         1.69380        -3.07232
| 21>    C        3.84988         0.59237        -2.36540
| 22>    O        4.35316        -0.39284        -2.85255
| 23>    C        3.69075         0.92525        -0.91234
| 24>    C        2.97871         2.19470        -0.79164
| 25>    C        2.67830         2.88992         0.34774
| 26>    C        1.99117         4.12197         0.29339
| 27>    N        1.43198         5.12326         0.26657
| 28>    C        3.00204         2.50612         1.66508
| 29>    N        3.23734         2.26176         2.76180
| 30>    C        3.99613         0.10307         0.12228
| 31>    C        4.74505        -1.12808         0.06925
| 32>    C        5.86556        -1.29690        -0.75100
| 33>    C        6.52650        -2.50283        -0.79520
| 34>    C        6.09137        -3.58653        -0.02540
| 35>    C        5.02208        -3.39347         0.85878
| 36>    C        4.37028        -2.18402         0.91151
| 37>    C        6.73437        -4.88394        -0.05819
| 38>    N        7.27111        -5.49260        -1.16622
| 39>    C        7.14126        -5.10987        -2.55487
| 40>    C        5.68625        -4.99441        -2.99536
| 41>    C        7.83297        -6.74791        -0.84349
| 42>    O        8.34820        -7.47834        -1.66783
| 43>    C        7.63372        -6.88050         0.57765
| 44>    C        6.93430        -5.72488         1.02421
| 45>    C        6.74453        -5.84662         2.45560
| 46>    O        6.19315        -5.13958         3.27132
| 47>    N        7.34760        -7.07813         2.77803
| 48>    C        7.39686        -7.55124         4.14042
| 49>    C        8.76184        -7.30655         4.77862
| 50>    C        7.87952        -7.70079         1.67357
| 51>    C        8.52903        -8.96199         1.71786
| 52>    C        9.00963        -9.57732         0.60981
| 53>    C        9.64283       -10.84618         0.67738
| 54>    S       10.16744       -11.71200        -0.75828
| 55>    C       10.70343       -12.96370         0.35507
| 56>    N       10.47736       -12.65258         1.60233
| 57>    N        9.90012       -11.50527         1.77783
| 58>    C       11.28430       -14.17936        -0.09701
| 59>    C       11.64802       -15.16918         0.75097
| 60>    C       12.26531       -16.39090         0.36894
| 61>    C       12.21352       -17.09136        -0.79611
| 62>    C       13.27033       -18.13254        -1.02706
| 63>    O       14.04922       -18.55173        -0.20605
| 64>    C       13.15881       -18.46278        -2.45080
| 65>    C       13.82386       -19.23373        -3.35679
| 66>    S       13.07276       -19.11280        -4.93054
| 67>    C       11.86381       -18.03057        -4.34144
| 68>    C       12.03543       -17.77549        -3.01690
| 69>    C       11.36622       -17.01672        -1.97400
| 70>    C       10.09016       -16.53186        -2.08877
| 71>    C        9.38196       -16.61127        -3.30691
| 72>    N        8.79938       -16.65129        -4.29445
| 73>    C        9.32643       -15.97557        -1.04589
| 74>    N        8.64449       -15.53113        -0.23683
| 75>   Cl       15.18766       -20.20506        -3.10245
| 76>    H        1.56367         4.54338        -2.27711
| 77>    H        3.60865         0.35548         1.10251
| 78>    H        6.23426        -0.46750        -1.33203
| 79>    H        7.40736        -2.59498        -1.40962
| 80>    H        4.71166        -4.20217         1.49995
| 81>    H        3.53738        -2.05264         1.58603
| 82>    H        7.63789        -5.90934        -3.11426
| 83>    H        7.67552        -4.17714        -2.75074
| 84>    H        5.15186        -5.91532        -2.77270
| 85>    H        5.64709        -4.82157        -4.06709
| 86>    H        5.18645        -4.16788        -2.49604
| 87>    H        7.13924        -8.61339         4.16846
| 88>    H        6.63260        -6.98662         4.68215
| 89>    H        9.54633        -7.83030         4.23716
| 90>    H        8.75332        -7.65704         5.80681
| 91>    H        8.98770        -6.24295         4.77580
| 92>    H        8.63472        -9.46085         2.66986
| 93>    H        8.91630        -9.12022        -0.36537
| 94>    H       11.45213       -14.26258        -1.16195
| 95>    H       11.53487       -14.98598         1.81074
| 96>    H       12.93774       -16.82224         1.10651
| 97>    H       11.12070       -17.65616        -5.01710
| 98> *
| 99>
|100>                          ****END OF INPUT****

CARTESIAN COORDINATES (ANGSTROEM)
---------------------------------
  C      2.669750    2.643170   -2.133260
  C      2.041680    3.695260   -2.725510
  S      2.066650    3.549780   -4.444410
  C      2.939660    2.037260   -4.367990
  Cl     3.377680    1.199870   -5.773880
  C      3.186130    1.693800   -3.072320
  C      3.849880    0.592370   -2.365400
  O      4.353160   -0.392840   -2.852550
  C      3.690750    0.925250   -0.912340
  C      2.978710    2.194700   -0.791640
  C      2.678300    2.889920    0.347740
  C      1.991170    4.121970    0.293390
  N      1.431980    5.123260    0.266570
  C      3.002040    2.506120    1.665080
  N      3.237340    2.261760    2.761800
  C      3.996130    0.103070    0.122280
  C      4.745050   -1.128080    0.069250
  C      5.865560   -1.296900   -0.751000
  C      6.526500   -2.502830   -0.795200
  C      6.091370   -3.586530   -0.025400
  C      5.022080   -3.393470    0.858780
  C      4.370280   -2.184020    0.911510
  C      6.734370   -4.883940   -0.058190
  N      7.271110   -5.492600   -1.166220
  C      7.141260   -5.109870   -2.554870
  C      5.686250   -4.994410   -2.995360
  C      7.832970   -6.747910   -0.843490
  O      8.348200   -7.478340   -1.667830
  C      7.633720   -6.880500    0.577650
  C      6.934300   -5.724880    1.024210
  C      6.744530   -5.846620    2.455600
  O      6.193150   -5.139580    3.271320
  N      7.347600   -7.078130    2.778030
  C      7.396860   -7.551240    4.140420
  C      8.761840   -7.306550    4.778620
  C      7.879520   -7.700790    1.673570
  C      8.529030   -8.961990    1.717860
  C      9.009630   -9.577320    0.609810
  C      9.642830  -10.846180    0.677380
  S     10.167440  -11.712000   -0.758280
  C     10.703430  -12.963700    0.355070
  N     10.477360  -12.652580    1.602330
  N      9.900120  -11.505270    1.777830
  C     11.284300  -14.179360   -0.097010
  C     11.648020  -15.169180    0.750970
  C     12.265310  -16.390900    0.368940
  C     12.213520  -17.091360   -0.796110
  C     13.270330  -18.132540   -1.027060
  O     14.049220  -18.551730   -0.206050
  C     13.158810  -18.462780   -2.450800
  C     13.823860  -19.233730   -3.356790
  S     13.072760  -19.112800   -4.930540
  C     11.863810  -18.030570   -4.341440
  C     12.035430  -17.775490   -3.016900
  C     11.366220  -17.016720   -1.974000
  C     10.090160  -16.531860   -2.088770
  C      9.381960  -16.611270   -3.306910
  N      8.799380  -16.651290   -4.294450
  C      9.326430  -15.975570   -1.045890
  N      8.644490  -15.531130   -0.236830
  Cl    15.187660  -20.205060   -3.102450
  H      1.563670    4.543380   -2.277110
  H      3.608650    0.355480    1.102510
  H      6.234260   -0.467500   -1.332030
  H      7.407360   -2.594980   -1.409620
  H      4.711660   -4.202170    1.499950
  H      3.537380   -2.052640    1.586030
  H      7.637890   -5.909340   -3.114260
  H      7.675520   -4.177140   -2.750740
  H      5.151860   -5.915320   -2.772700
  H      5.647090   -4.821570   -4.067090
  H      5.186450   -4.167880   -2.496040
  H      7.139240   -8.613390    4.168460
  H      6.632600   -6.986620    4.682150
  H      9.546330   -7.830300    4.237160
  H      8.753320   -7.657040    5.806810
  H      8.987700   -6.242950    4.775800
  H      8.634720   -9.460850    2.669860
  H      8.916300   -9.120220   -0.365370
  H     11.452130  -14.262580   -1.161950
  H     11.534870  -14.985980    1.810740
  H     12.937740  -16.822240    1.106510
  H     11.120700  -17.656160   -5.017100

 Total Charge           Charge          ....    0
 Multiplicity           Mult            ....    1
 Number of Electrons    NEL             ....  456
 Basis Dimension        Dim             ....  984

ORBITAL ENERGIES
----------------

  NO   OCC          E(Eh)            E(eV)
   0   2.0000    -101.621146     -2765.2520
   1   2.0000    -101.619742     -2765.2138
   2   2.0000     -88.997426     -2421.7431
   3   2.0000     -88.995878     -2421.7010
   4   2.0000     -88.980998     -2421.2960
   5   2.0000     -19.225172      -523.1435
   6   2.0000     -19.222256      -523.0642
   7   2.0000     -19.197766      -522.3978
   8   2.0000     -19.191297      -522.2217
   9   2.0000     -14.458847      -393.4452
  10   2.0000     -14.455456      -393.3530
  11   2.0000     -14.447323      -393.1316
  12   2.0000     -14.445588      -393.0844
  13   2.0000     -14.424807      -392.5190
  14   2.0000     -14.424735      -392.5170
  15   2.0000     -14.423466      -392.4825
  16   2.0000     -14.422861      -392.4660
  17   2.0000     -10.383103      -282.5386
  18   2.0000     -10.379850      -282.4501
  19   2.0000     -10.378955      -282.4257
  20   2.0000     -10.378594      -282.4159
  21   2.0000     -10.378354      -282.4094
  22   2.0000     -10.376716      -282.3648
  23   2.0000     -10.354905      -281.7713
  24   2.0000     -10.353318      -281.7281
  25   2.0000     -10.352063      -281.6940
  26   2.0000     -10.351253      -281.6719
  27   2.0000     -10.348985      -281.6102
  28   2.0000     -10.348806      -281.6053
  29   2.0000     -10.344271      -281.4819
  30   2.0000     -10.343475      -281.4603
  31   2.0000     -10.333213      -281.1810
  32   2.0000     -10.332137      -281.1518
  33   2.0000     -10.326744      -281.0050
  34   2.0000     -10.325362      -280.9674
  35   2.0000     -10.325202      -280.9630
  36   2.0000     -10.325018      -280.9580
  37   2.0000     -10.324870      -280.9540
  38   2.0000     -10.323230      -280.9094
  39   2.0000     -10.317410      -280.7510
  40   2.0000     -10.316420      -280.7241
  41   2.0000     -10.316135      -280.7163
  42   2.0000     -10.311094      -280.5791
  43   2.0000     -10.310361      -280.5592
  44   2.0000     -10.308170      -280.4996
  45   2.0000     -10.307386      -280.4782
  46   2.0000     -10.304220      -280.3921
  47   2.0000     -10.303522      -280.3731
  48   2.0000     -10.303074      -280.3609
  49   2.0000     -10.302288      -280.3395
  50   2.0000     -10.301137      -280.3082
  51   2.0000     -10.299621      -280.2669
  52   2.0000     -10.298769      -280.2438
  53   2.0000     -10.289898      -280.0024
  54   2.0000     -10.289797      -279.9996
  55   2.0000     -10.288350      -279.9602
  56   2.0000     -10.283922      -279.8397
  57   2.0000     -10.265517      -279.3389
  58   2.0000     -10.265224      -279.3309
  59   2.0000     -10.262772      -279.2642
  60   2.0000     -10.261619      -279.2329
  61   2.0000      -9.575922      -260.5741
  62   2.0000      -9.574515      -260.5358
  63   2.0000      -8.093154      -220.2259
  64   2.0000      -8.091713      -220.1867
  65   2.0000      -8.077370      -219.7964
  66   2.0000      -7.346558      -199.9100
  67   2.0000      -7.345162      -199.8720
  68   2.0000      -7.335959      -199.6216
  69   2.0000      -7.335421      -199.6070
  70   2.0000      -7.334551      -199.5833
  71   2.0000      -7.333998      -199.5682
  72   2.0000      -6.062521      -164.9696
  73   2.0000      -6.061082      -164.9304
  74   2.0000      -6.057919      -164.8444
  75   2.0000      -6.056493      -164.8056
  76   2.0000      -6.055429      -164.7766
  77   2.0000      -6.053926      -164.7357
  78   2.0000      -6.045891      -164.5171
  79   2.0000      -6.042629      -164.4283
  80   2.0000      -6.039881      -164.3535
  81   2.0000      -1.150971       -31.3195
  82   2.0000      -1.142692       -31.0942
  83   2.0000      -1.139522       -31.0080
  84   2.0000      -1.137726       -30.9591
  85   2.0000      -1.130216       -30.7547
  86   2.0000      -1.067452       -29.0468
  87   2.0000      -1.058696       -28.8086
  88   2.0000      -1.041842       -28.3500
  89   2.0000      -1.041255       -28.3340
  90   2.0000      -1.021782       -27.8041
  91   2.0000      -1.020614       -27.7723
  92   2.0000      -1.003254       -27.2999
  93   2.0000      -1.001639       -27.2560
  94   2.0000      -0.992178       -26.9985
  95   2.0000      -0.991522       -26.9807
  96   2.0000      -0.975035       -26.5321
  97   2.0000      -0.961922       -26.1752
  98   2.0000      -0.957027       -26.0420
  99   2.0000      -0.954792       -25.9812
 100   2.0000      -0.938485       -25.5375
 101   2.0000      -0.929814       -25.3015
 102   2.0000      -0.915565       -24.9138
 103   2.0000      -0.915307       -24.9068
 104   2.0000      -0.904270       -24.6064
 105   2.0000      -0.903313       -24.5804
 106   2.0000      -0.890674       -24.2365
 107   2.0000      -0.872610       -23.7449
 108   2.0000      -0.858930       -23.3727
 109   2.0000      -0.851700       -23.1759
 110   2.0000      -0.850520       -23.1438
 111   2.0000      -0.836261       -22.7558
 112   2.0000      -0.835809       -22.7435
 113   2.0000      -0.821285       -22.3483
 114   2.0000      -0.813181       -22.1278
 115   2.0000      -0.801241       -21.8029
 116   2.0000      -0.792990       -21.5784
 117   2.0000      -0.767680       -20.8896
 118   2.0000      -0.761341       -20.7171
 119   2.0000      -0.760459       -20.6931
 120   2.0000      -0.757724       -20.6187
 121   2.0000      -0.731984       -19.9183
 122   2.0000      -0.727707       -19.8019
 123   2.0000      -0.715628       -19.4732
 124   2.0000      -0.713231       -19.4080
 125   2.0000      -0.705619       -19.2009
 126   2.0000      -0.702094       -19.1049
 127   2.0000      -0.693341       -18.8668
 128   2.0000      -0.685790       -18.6613
 129   2.0000      -0.680451       -18.5160
 130   2.0000      -0.679585       -18.4924
 131   2.0000      -0.678520       -18.4635
 132   2.0000      -0.654826       -17.8187
 133   2.0000      -0.653099       -17.7717
 134   2.0000      -0.647257       -17.6128
 135   2.0000      -0.629772       -17.1370
 136   2.0000      -0.626613       -17.0510
 137   2.0000      -0.618529       -16.8310
 138   2.0000      -0.616497       -16.7757
 139   2.0000      -0.614497       -16.7213
 140   2.0000      -0.609481       -16.5848
 141   2.0000      -0.606581       -16.5059
 142   2.0000      -0.594178       -16.1684
 143   2.0000      -0.586605       -15.9623
 144   2.0000      -0.583642       -15.8817
 145   2.0000      -0.573832       -15.6148
 146   2.0000      -0.570504       -15.5242
 147   2.0000      -0.564522       -15.3614
 148   2.0000      -0.561472       -15.2784
 149   2.0000      -0.556998       -15.1567
 150   2.0000      -0.554786       -15.0965
 151   2.0000      -0.551180       -14.9984
 152   2.0000      -0.549112       -14.9421
 153   2.0000      -0.544319       -14.8117
 154   2.0000      -0.541341       -14.7306
 155   2.0000      -0.536525       -14.5996
 156   2.0000      -0.534532       -14.5454
 157   2.0000      -0.532803       -14.4983
 158   2.0000      -0.531753       -14.4697
 159   2.0000      -0.529208       -14.4005
 160   2.0000      -0.527129       -14.3439
 161   2.0000      -0.525393       -14.2967
 162   2.0000      -0.522505       -14.2181
 163   2.0000      -0.518143       -14.0994
 164   2.0000      -0.515439       -14.0258
 165   2.0000      -0.512691       -13.9510
 166   2.0000      -0.510805       -13.8997
 167   2.0000      -0.508809       -13.8454
 168   2.0000      -0.508656       -13.8412
 169   2.0000      -0.506651       -13.7867
 170   2.0000      -0.502856       -13.6834
 171   2.0000      -0.498033       -13.5522
 172   2.0000      -0.496917       -13.5218
 173   2.0000      -0.490775       -13.3547
 174   2.0000      -0.489603       -13.3228
 175   2.0000      -0.482742       -13.1361
 176   2.0000      -0.479619       -13.0511
 177   2.0000      -0.478371       -13.0171
 178   2.0000      -0.476242       -12.9592
 179   2.0000      -0.470960       -12.8155
 180   2.0000      -0.467059       -12.7093
 181   2.0000      -0.466896       -12.7049
 182   2.0000      -0.462595       -12.5878
 183   2.0000      -0.457994       -12.4627
 184   2.0000      -0.457811       -12.4577
 185   2.0000      -0.457008       -12.4358
 186   2.0000      -0.455652       -12.3989
 187   2.0000      -0.453391       -12.3374
 188   2.0000      -0.450983       -12.2719
 189   2.0000      -0.449916       -12.2428
 190   2.0000      -0.449400       -12.2288
 191   2.0000      -0.448809       -12.2127
 192   2.0000      -0.447728       -12.1833
 193   2.0000      -0.445370       -12.1191
 194   2.0000      -0.440951       -11.9989
 195   2.0000      -0.440194       -11.9783
 196   2.0000      -0.436768       -11.8851
 197   2.0000      -0.434368       -11.8197
 198   2.0000      -0.434082       -11.8120
 199   2.0000      -0.430979       -11.7275
 200   2.0000      -0.429656       -11.6915
 201   2.0000      -0.425567       -11.5803
 202   2.0000      -0.419252       -11.4084
 203   2.0000      -0.416515       -11.3339
 204   2.0000      -0.413651       -11.2560
 205   2.0000      -0.409046       -11.1307
 206   2.0000      -0.407077       -11.0771
 207   2.0000      -0.406392       -11.0585
 208   2.0000      -0.404358       -11.0031
 209   2.0000      -0.399026       -10.8581
 210   2.0000      -0.387627       -10.5479
 211   2.0000      -0.376131       -10.2351
 212   2.0000      -0.371248       -10.1022
 213   2.0000      -0.354662        -9.6508
 214   2.0000      -0.351301        -9.5594
 215   2.0000      -0.347194        -9.4476
 216   2.0000      -0.343554        -9.3486
 217   2.0000      -0.340421        -9.2633
 218   2.0000      -0.336508        -9.1569
 219   2.0000      -0.335904        -9.1404
 220   2.0000      -0.332434        -9.0460
 221   2.0000      -0.330406        -8.9908
 222   2.0000      -0.321777        -8.7560
 223   2.0000      -0.318779        -8.6744
 224   2.0000      -0.317380        -8.6363
 225   2.0000      -0.305236        -8.3059
 226   2.0000      -0.294901        -8.0247
 227   2.0000      -0.246719        -6.7136
 228   0.0000      -0.109565        -2.9814
 229   0.0000      -0.098416        -2.6780
 230   0.0000      -0.078082        -2.1247
 231   0.0000      -0.056383        -1.5343
 232   0.0000      -0.053210        -1.4479

MULLIKEN ATOMIC CHARGES
-----------------------
   0 C :    0.032419
   1 C :   -0.128601
   2 S :    0.189088
   3 C :   -0.170801
   4 Cl:   -0.001057
   5 C :    0.075598
   6 C :    0.140688
   7 O :   -0.128268
   8 C :   -0.090449
   9 C :    0.288112
  10 C :   -0.325530
  11 C :   -0.193207
  12 N :    0.156100
  13 C :   -0.191527
  14 N :    0.164467
  15 C :   -0.029338
  16 C :    0.063581
  17 C :    0.078070
  18 C :   -0.024199
  19 C :    0.010365
  20 C :    0.024840
  21 C :   -0.002422
  22 C :    0.111413
  23 N :   -0.258220
  24 C :    0.097762
  25 C :   -0.006037
  26 C :    0.168159
  27 O :   -0.208886
  28 C :   -0.073892
  29 C :   -0.034804
  30 C :    0.141654
  31 O :   -0.191128
  32 N :   -0.261367
  33 C :    0.095815
  34 C :    0.003788
  35 C :    0.148603
  36 C :   -0.024467
  37 C :    0.075929
  38 C :   -0.103360
  39 S :    0.135977
  40 C :   -0.118122
  41 N :   -0.031482
  42 N :   -0.045470
  43 C :    0.083338
  44 C :    0.027729
  45 C :    0.039453
  46 C :   -0.126052
  47 C :    0.127491
  48 O :   -0.128268
  49 C :    0.095950
  50 C :   -0.171624
  51 S :    0.186661
  52 C :   -0.130525
  53 C :    0.011726
  54 C :    0.273356
  55 C :   -0.330108
  56 C :   -0.182210
  57 N :    0.155039
  58 C :   -0.203552
  59 N :    0.188278
  60 Cl:    0.001878
  61 H :    0.055269
  62 H :    0.035139
  63 H :   -0.014185
  64 H :   -0.019133
  65 H :    0.001930
  66 H :   -0.006588
  67 H :    0.046250
  68 H :    0.022506
  69 H :    0.021364
  70 H :    0.026414
  71 H :    0.041914
  72 H :    0.028747
  73 H :    0.044467
  74 H :    0.019166
  75 H :    0.026128
  76 H :    0.028939
  77 H :    0.006242
  78 H :    0.013623
  79 H :    0.010522
  80 H :    0.038496
  81 H :    0.039795
  82 H :    0.054643
Sum of atomic charges:   -0.0000000

LOEWDIN ATOMIC CHARGES
----------------------
   0 C :   -0.060050
   1 C :   -0.148423
   2 S :    0.478392
   3 C :   -0.272598
   4 Cl:    0.191210
   5 C :   -0.117287
   6 C :    0.080202
   7 O :   -0.126525
   8 C :   -0.087094
   9 C :    0.074379
  10 C :   -0.133486
  11 C :   -0.014827
  12 N :   -0.049630
  13 C :   -0.025714
  14 N :   -0.041002
  15 C :    0.085120
  16 C :   -0.035321
  17 C :    0.023970
  18 C :   -0.013202
  19 C :   -0.022189
  20 C :    0.010620
  21 C :    0.007591
  22 C :    0.082404
  23 N :    0.000059
  24 C :    0.035827
  25 C :   -0.061524
  26 C :    0.082733
  27 O :   -0.196774
  28 C :   -0.120596
  29 C :   -0.119702
  30 C :    0.079734
  31 O :   -0.192095
  32 N :   -0.001198
  33 C :    0.036287
  34 C :   -0.060311
  35 C :    0.077491
  36 C :   -0.009183
  37 C :   -0.008280
  38 C :   -0.145288
  39 S :    0.417098
  40 C :   -0.151471
  41 N :   -0.058868
  42 N :   -0.070291
  43 C :   -0.002139
  44 C :   -0.002839
  45 C :    0.067707
  46 C :   -0.083146
  47 C :    0.080763
  48 O :   -0.130439
  49 C :   -0.118632
  50 C :   -0.271944
  51 S :    0.475740
  52 C :   -0.152104
  53 C :   -0.058187
  54 C :    0.064315
  55 C :   -0.137018
  56 C :   -0.016743
  57 N :   -0.049121
  58 C :   -0.021868
  59 N :   -0.031112
  60 Cl:    0.193405
  61 H :    0.038118
  62 H :    0.048245
  63 H :    0.032304
  64 H :    0.031438
  65 H :    0.039292
  66 H :    0.035978
  67 H :    0.036704
  68 H :    0.019781
  69 H :    0.028868
  70 H :    0.033504
  71 H :    0.028659
  72 H :    0.025656
  73 H :    0.037951
  74 H :    0.023623
  75 H :    0.032215
  76 H :    0.031814
  77 H :    0.038579
  78 H :    0.038023
  79 H :    0.035168
  80 H :    0.047825
  81 H :    0.051869
  82 H :    0.037561

  Mayer bond orders larger than 0.100000
B(  0-C ,  1-C ) :   1.5417 B(  0-C ,  5-C ) :   1.2201 B(  0-C ,  9-C ) :   1.0028
B(  1-C ,  2-S ) :   1.1639 B(  1-C , 61-H ) :   0.9537 B(  2-S ,  3-C ) :   1.1521
B(  3-C ,  4-Cl) :   1.1269 B(  3-C ,  5-C ) :   1.4769 B(  5-C ,  6-C ) :   0.9518
B(  6-C ,  7-O ) :   2.2429 B(  6-C ,  8-C ) :   0.9219 B(  8-C ,  9-C ) :   1.0506
B(  8-C , 15-C ) :   1.6805 B(  9-C , 10-C ) :   1.6675 B( 10-C , 11-C ) :   1.1442
B( 10-C , 13-C ) :   1.1326 B( 11-C , 12-N ) :   2.9910 B( 13-C , 14-N ) :   2.9818
B( 15-C , 16-C ) :   1.0638 B( 15-C , 62-H ) :   0.9472 B( 16-C , 17-C ) :   1.3409
B( 16-C , 21-C ) :   1.3091 B( 17-C , 18-C ) :   1.4126 B( 17-C , 63-H ) :   0.9825
B( 18-C , 19-C ) :   1.3163 B( 18-C , 64-H ) :   1.0015 B( 19-C , 20-C ) :   1.3591
B( 19-C , 22-C ) :   1.0163 B( 20-C , 21-C ) :   1.3967 B( 20-C , 65-H ) :   0.9918
B( 21-C , 66-H ) :   1.0016 B( 22-C , 23-N ) :   1.2026 B( 22-C , 29-C ) :   1.4222
B( 23-N , 24-C ) :   0.9424 B( 23-N , 26-C ) :   1.0475 B( 24-C , 25-C ) :   1.1166
B( 24-C , 67-H ) :   0.9262 B( 24-C , 68-H ) :   0.9500 B( 25-C , 69-H ) :   0.9640
B( 25-C , 70-H ) :   0.9658 B( 25-C , 71-H ) :   0.9646 B( 26-C , 27-O ) :   2.0206
B( 26-C , 28-C ) :   0.9972 B( 27-O , 78-H ) :   0.1096 B( 28-C , 29-C ) :   1.2192
B( 28-C , 35-C ) :   1.3541 B( 29-C , 30-C ) :   0.9612 B( 30-C , 31-O ) :   2.1267
B( 30-C , 32-N ) :   1.0400 B( 32-N , 33-C ) :   0.9427 B( 32-N , 35-C ) :   1.1636
B( 33-C , 34-C ) :   1.1217 B( 33-C , 72-H ) :   0.9500 B( 33-C , 73-H ) :   0.9275
B( 34-C , 74-H ) :   0.9689 B( 34-C , 75-H ) :   0.9679 B( 34-C , 76-H ) :   0.9636
B( 35-C , 36-C ) :   1.1277 B( 36-C , 37-C ) :   1.6599 B( 36-C , 77-H ) :   0.9719
B( 37-C , 38-C ) :   1.1084 B( 37-C , 78-H ) :   0.9255 B( 38-C , 39-S ) :   1.1138
B( 38-C , 42-N ) :   1.6433 B( 39-S , 40-C ) :   1.1014 B( 40-C , 41-N ) :   1.6648
B( 40-C , 43-C ) :   1.1348 B( 41-N , 42-N ) :   1.2524 B( 43-C , 44-C ) :   1.7033
B( 43-C , 79-H ) :   0.9395 B( 44-C , 45-C ) :   1.1227 B( 44-C , 80-H ) :   0.9555
B( 45-C , 46-C ) :   1.6923 B( 45-C , 81-H ) :   0.9258 B( 46-C , 47-C ) :   0.9362
B( 46-C , 54-C ) :   1.0318 B( 47-C , 48-O ) :   2.2726 B( 47-C , 49-C ) :   0.9277
B( 49-C , 50-C ) :   1.4818 B( 49-C , 53-C ) :   1.2212 B( 50-C , 51-S ) :   1.1513
B( 50-C , 60-Cl) :   1.1306 B( 51-S , 52-C ) :   1.1600 B( 52-C , 53-C ) :   1.5503
B( 52-C , 82-H ) :   0.9557 B( 53-C , 54-C ) :   1.0092 B( 54-C , 55-C ) :   1.6589
B( 55-C , 56-C ) :   1.1279 B( 55-C , 58-C ) :   1.1666 B( 56-C , 57-N ) :   2.9972
B( 58-C , 59-N ) :   2.9933

-----------------------------------------------------------------------------
         ABSORPTION SPECTRUM VIA TRANSITION ELECTRIC DIPOLE MOMENTS
-----------------------------------------------------------------------------
State   Energy  Wavelength   fosc         T2         TX        TY        TZ
        (cm-1)    (nm)                  (au**2)     (au)      (au)      (au)
-----------------------------------------------------------------------------
   0   15725.8    635.9   1.034163627  21.64969   1.77074  -4.27495   0.48885
   1   19490.8    513.1   0.087546847   1.47872  -0.48100   0.29695  -1.07665
   2   22553.5    443.4   0.150849176   2.20193   0.03639  -0.71119  -1.30185
   3   24433.2    409.3   0.303958857   4.09553   0.20193  -1.89439  -0.68267
   4   26086.1    383.3   0.099186582   1.25175  -0.56336   0.94706   0.19353
   5   26100.8    383.1   0.072587999   0.91556   0.43749  -0.83768  -0.14986
   6   27086.3    369.2   0.002507787   0.03048  -0.05850  -0.00861  -0.16427
   7   27724.2    360.7   0.020384410   0.24206   0.40401  -0.21762  -0.17740
   8   28877.3    346.3   0.051265725   0.58445  -0.43959   0.61222   0.12802
   9   28983.6    345.0   0.063977053   0.72669   0.24792  -0.59373  -0.55920
  10   29108.4    343.5   0.058752783   0.66449  -0.45430   0.62249   0.26572
  11   29423.4    339.9   0.108866681   1.21809   0.41394  -0.97193  -0.31951
  12   29847.1    335.0   0.389453359   4.29565  -1.33201   1.55952   0.29881
  13   30454.5    328.4   0.038581715   0.41707   0.05752  -0.06110   0.64033
  14   31546.8    317.0   0.310136884   3.23649  -0.74658   1.57065  -0.46061
  15   32131.3    311.2   0.013401145   0.13731  -0.29658   0.14575   0.16764
  16   32486.6    307.8   0.144612550   1.46547   0.90245  -0.69727  -0.40606
  17   32725.2    305.6   0.001165499   0.01172  -0.10301   0.00481  -0.03302
  18   33062.4    302.5   0.001059066   0.01055  -0.10144  -0.01558  -0.00352
  19   33418.5    299.2   0.045328862   0.44654  -0.23480   0.00622   0.62560
  20   33538.6    298.2   0.008438342   0.08283  -0.16043   0.03575   0.23625
  21   33901.4    295.0   0.094279533   0.91554   0.35265  -0.53194   0.71289
  22   35112.8    284.8   0.038297708   0.35907   0.52526  -0.24741   0.14819
  23   35188.3    284.2   0.087276858   0.81654  -0.51887   0.61664  -0.40873
  24   35272.5    283.5   0.069339676   0.64717   0.56611  -0.56959  -0.04760
  25   35548.3    281.3   0.028204052   0.26120  -0.42497   0.10967   0.26186
  26   35918.8    278.4   0.091884228   0.84216   0.48557  -0.63409  -0.45202
  27   36501.6    274.0   0.002999192   0.02705  -0.06751  -0.09090  -0.11929
  28   37353.7    267.7   0.374670222   3.30210  -0.10485   0.11853  -1.81027
  29   37528.4    266.5   0.179269618   1.57261  -0.57064   0.62136   0.92784
  30   37709.5    265.2   0.310321657   2.70918   1.26229  -1.05525  -0.04727
  31   37829.1    264.3   0.102113874   0.88866   0.00124  -0.03709   0.94196
  32   38075.9    262.6   0.064074011   0.55400  -0.35547  -0.15119   0.63623
  33   38462.4    260.0   0.234531176   2.00743   0.04828  -0.44793  -1.34330
  34   38867.7    257.3   0.055232972   0.46783   0.29992  -0.35740  -0.50014
  35   39066.0    256.0   0.102656832   0.86510  -0.55685   0.56553   0.48496
  36   39167.9    255.3   0.022364508   0.18798   0.36080  -0.23705   0.04005
  37   39765.2    251.5   0.011423607   0.09457  -0.07038  -0.29698  -0.03775
  38   40063.0    249.6   0.009809201   0.08061   0.16271   0.03520  -0.22998

FINAL SINGLE POINT ENERGY     -4539.984737902548

DIPOLE MOMENT
-------------
                                X             Y             Z
Electronic contribution:     10.90808     -23.89707     -39.07098
Nuclear contribution   :     -9.74272      23.70287      36.59954
                        -----------------------------------------
Total Dipole Moment    :      1.16537      -0.19420      -2.47144
                        -----------------------------------------
Magnitude (a.u.)       :      2.73931
Magnitude (Debye)      :      6.96277

Rotational constants in cm-1:     0.002784     0.000241     0.000226
Rotational constants in MHz :    83.462134     7.235190     6.761101

                             ****ORCA TERMINATED NORMALLY****
TOTAL RUN TIME: 0 days 0 hours 7 minutes 4 seconds 859 msec
