                         Program Version 4.2.0 -  RELEASE  -
|  1> # ORCA input file
|  2> # SCF done       -179.048673658450          0.000575193646
|  3> ! CAM-B3LYP def2-SVP def2/J RIJCOSX Grid4 TightSCF
|  4> %maxcore 5000
|  5> %tddft
|  6>     Mode sTDDFT
|  7>     Ethresh 5.0
|  8>     maxcore 5000
|  9> end
| 10>
| 11> %pal
| 12>   nprocs 6
| 13>   end
| 14> * xyz 0 1
| 15>    C        2.84421         3.24866        -4.85472
| 16>    C        2.34912         4.37763        -5.43006
| 17>    S        3.20799         4.76984        -6.87462
| 18>    C        4.25843         3.38254        -6.70465
| 19>   Cl        5.47820         3.05428        -7.83288
| 20>    C        3.93862         2.67834        -5.58232
| 21>    C        4.40466         1.45986        -4.91267
| 22>    O        5.25719         0.68723        -5.28425
| 23>    C        3.52375         1.32842        -3.71017
| 24>    C        2.58090         2.43590        -3.68438
| 25>    C        1.65008         2.72674        -2.72291
| 26>    C        0.81484         3.85894        -2.83098
| 27>    N        0.12784         4.77443        -2.90747
| 28>    C        1.43037         1.98679        -1.54375
| 29>    N        1.21620         1.43802        -0.55863
| 30>    C        3.51989         0.24895        -2.87963
| 31>    C        4.50712        -0.77152        -2.81168
| 32>    C        4.26578        -2.07787        -2.44721
| 33>    C        5.48531        -2.81779        -2.52956
| 34>    C        6.52824        -1.84456        -2.88583
| 35>    C        5.93931        -0.63143        -3.05339
| 36>    C        7.91080        -2.07206        -2.92713
| 37>    N        9.05139        -2.20225        -2.92144
| 38>    C        5.65917        -4.16886        -2.33105
| 39>    C        6.84868        -4.92079        -2.52540
| 40>    C        6.62472        -6.23584        -2.16055
| 41>    C        5.23643        -6.34341        -1.72982
| 42>    C        4.64643        -5.12584        -1.85044
| 43>    C        3.30607        -4.85800        -1.54904
| 44>    N        2.20030        -4.67825        -1.29566
| 45>    C        7.61699        -7.24674        -2.24752
| 46>    N        7.63181        -8.47214        -1.62668
| 47>    C        6.71042        -8.99157        -0.64273
| 48>    C        6.72812        -8.18101         0.64914
| 49>    C        8.80470        -9.20078        -1.93079
| 50>    O        9.04886       -10.29974        -1.48376
| 51>    C        9.52912        -8.34095        -2.83787
| 52>    C        8.78991        -7.15463        -3.00764
| 53>    C        9.50702        -6.33172        -3.96018
| 54>    O        9.26288        -5.25873        -4.46135
| 55>    N       10.67696        -7.07611        -4.26335
| 56>    C       11.59829        -6.56016        -5.24796
| 57>    C       11.50336        -7.31336        -6.57186
| 58>    C       10.69539        -8.27731        -3.60468
| 59>    C       11.66042        -9.32159        -3.59811
| 60>    C       12.90289        -9.34882        -4.13188
| 61>    C       13.79759       -10.46749        -4.02766
| 62>    C       13.41572       -11.77950        -3.69056
| 63>    N       14.27621       -12.76287        -3.60034
| 64>    C       15.55415       -12.51148        -3.89359
| 65>    N       16.02297       -11.30827        -4.23897
| 66>    C       15.17032       -10.31429        -4.28791
| 67>    C       16.46721       -13.61927        -3.75400
| 68>    C       17.75415       -13.70889        -4.15073
| 69>    C       18.62402       -14.78249        -3.55048
| 70>    O       18.24676       -15.76392        -2.96296
| 71>    C       19.99078       -14.31470        -3.79933
| 72>    C       21.25588       -14.69999        -3.46492
| 73>    S       22.42977       -13.59983        -4.14582
| 74>    C       21.20005       -12.63954        -4.88421
| 75>    C       19.96246       -13.13385        -4.61419
| 76>    C       18.58724       -12.83156        -4.96278
| 77>    C       18.20356       -12.03135        -5.99975
| 78>    C       19.14322       -11.26274        -6.71979
| 79>    N       19.89638       -10.61773        -7.29635
| 80>    C       16.89537       -11.95459        -6.52177
| 81>    N       15.88233       -11.90839        -7.05959
| 82>   Cl       21.72929       -16.03110        -2.53196
| 83>    H        1.53950         5.00450        -5.11289
| 84>    H        2.67401         0.11246        -2.21571
| 85>    H        3.30637        -2.49792        -2.21377
| 86>    H        6.44393         0.29035        -3.26638
| 87>    H        7.76824        -4.52114        -2.90413
| 88>    H        4.73705        -7.23808        -1.41240
| 89>    H        7.05095       -10.01201        -0.44121
| 90>    H        5.70342        -9.04754        -1.06357
| 91>    H        7.73015        -8.17555         1.07152
| 92>    H        6.05042        -8.62908         1.37035
| 93>    H        6.42040        -7.15199         0.47605
| 94>    H       12.61560        -6.57449        -4.84892
| 95>    H       11.30549        -5.51665        -5.40062
| 96>    H       11.72523        -8.37067        -6.44605
| 97>    H       12.20677        -6.89116        -7.28394
| 98>    H       10.50004        -7.21729        -6.97938
| 99>    H       11.31770       -10.17876        -3.03214
|100>    H       13.31084        -8.49346        -4.64915
|101>    H       12.38312       -12.04103        -3.50117
|102>    H       15.58634        -9.34697        -4.54394
|103>    H       16.07228       -14.45405        -3.18610
|104>    H       21.47726       -11.77580        -5.45532
|105> *
|106>
|107>                          ****END OF INPUT****

CARTESIAN COORDINATES (ANGSTROEM)
---------------------------------
  C      2.844210    3.248660   -4.854720
  C      2.349120    4.377630   -5.430060
  S      3.207990    4.769840   -6.874620
  C      4.258430    3.382540   -6.704650
  Cl     5.478200    3.054280   -7.832880
  C      3.938620    2.678340   -5.582320
  C      4.404660    1.459860   -4.912670
  O      5.257190    0.687230   -5.284250
  C      3.523750    1.328420   -3.710170
  C      2.580900    2.435900   -3.684380
  C      1.650080    2.726740   -2.722910
  C      0.814840    3.858940   -2.830980
  N      0.127840    4.774430   -2.907470
  C      1.430370    1.986790   -1.543750
  N      1.216200    1.438020   -0.558630
  C      3.519890    0.248950   -2.879630
  C      4.507120   -0.771520   -2.811680
  C      4.265780   -2.077870   -2.447210
  C      5.485310   -2.817790   -2.529560
  C      6.528240   -1.844560   -2.885830
  C      5.939310   -0.631430   -3.053390
  C      7.910800   -2.072060   -2.927130
  N      9.051390   -2.202250   -2.921440
  C      5.659170   -4.168860   -2.331050
  C      6.848680   -4.920790   -2.525400
  C      6.624720   -6.235840   -2.160550
  C      5.236430   -6.343410   -1.729820
  C      4.646430   -5.125840   -1.850440
  C      3.306070   -4.858000   -1.549040
  N      2.200300   -4.678250   -1.295660
  C      7.616990   -7.246740   -2.247520
  N      7.631810   -8.472140   -1.626680
  C      6.710420   -8.991570   -0.642730
  C      6.728120   -8.181010    0.649140
  C      8.804700   -9.200780   -1.930790
  O      9.048860  -10.299740   -1.483760
  C      9.529120   -8.340950   -2.837870
  C      8.789910   -7.154630   -3.007640
  C      9.507020   -6.331720   -3.960180
  O      9.262880   -5.258730   -4.461350
  N     10.676960   -7.076110   -4.263350
  C     11.598290   -6.560160   -5.247960
  C     11.503360   -7.313360   -6.571860
  C     10.695390   -8.277310   -3.604680
  C     11.660420   -9.321590   -3.598110
  C     12.902890   -9.348820   -4.131880
  C     13.797590  -10.467490   -4.027660
  C     13.415720  -11.779500   -3.690560
  N     14.276210  -12.762870   -3.600340
  C     15.554150  -12.511480   -3.893590
  N     16.022970  -11.308270   -4.238970
  C     15.170320  -10.314290   -4.287910
  C     16.467210  -13.619270   -3.754000
  C     17.754150  -13.708890   -4.150730
  C     18.624020  -14.782490   -3.550480
  O     18.246760  -15.763920   -2.962960
  C     19.990780  -14.314700   -3.799330
  C     21.255880  -14.699990   -3.464920
  S     22.429770  -13.599830   -4.145820
  C     21.200050  -12.639540   -4.884210
  C     19.962460  -13.133850   -4.614190
  C     18.587240  -12.831560   -4.962780
  C     18.203560  -12.031350   -5.999750
  C     19.143220  -11.262740   -6.719790
  N     19.896380  -10.617730   -7.296350
  C     16.895370  -11.954590   -6.521770
  N     15.882330  -11.908390   -7.059590
  Cl    21.729290  -16.031100   -2.531960
  H      1.539500    5.004500   -5.112890
  H      2.674010    0.112460   -2.215710
  H      3.306370   -2.497920   -2.213770
  H      6.443930    0.290350   -3.266380
  H      7.768240   -4.521140   -2.904130
  H      4.737050   -7.238080   -1.412400
  H      7.050950  -10.012010   -0.441210
  H      5.703420   -9.047540   -1.063570
  H      7.730150   -8.175550    1.071520
  H      6.050420   -8.629080    1.370350
  H      6.420400   -7.151990    0.476050
  H     12.615600   -6.574490   -4.848920
  H     11.305490   -5.516650   -5.400620
  H     11.725230   -8.370670   -6.446050
  H     12.206770   -6.891160   -7.283940
  H     10.500040   -7.217290   -6.979380
  H     11.317700  -10.178760   -3.032140
  H     13.310840   -8.493460   -4.649150
  H     12.383120  -12.041030   -3.501170
  H     15.586340   -9.346970   -4.543940
  H     16.072280  -14.454050   -3.186100
  H     21.477260  -11.775800   -5.455320

 Total Charge           Charge          ....    0
 Multiplicity           Mult            ....    1
 Number of Electrons    NEL             ....  490
 Basis Dimension        Dim             .... 1078

ORBITAL ENERGIES
----------------

  NO   OCC          E(Eh)            E(eV)
   0   2.0000    -101.624111     -2765.3326
   1   2.0000    -101.619350     -2765.2031
   2   2.0000     -89.001165     -2421.8448
   3   2.0000     -88.995423     -2421.6886
   4   2.0000     -19.233804      -523.3784
   5   2.0000     -19.223934      -523.1098
   6   2.0000     -19.206075      -522.6239
   7   2.0000     -19.203230      -522.5465
   8   2.0000     -14.467907      -393.6918
   9   2.0000     -14.466977      -393.6665
  10   2.0000     -14.434482      -392.7822
  11   2.0000     -14.430838      -392.6831
  12   2.0000     -14.428142      -392.6097
  13   2.0000     -14.427609      -392.5952
  14   2.0000     -14.424174      -392.5017
  15   2.0000     -14.418653      -392.3515
  16   2.0000     -14.418349      -392.3432
  17   2.0000     -14.404515      -391.9668
  18   2.0000     -10.389494      -282.7125
  19   2.0000     -10.387987      -282.6715
  20   2.0000     -10.386768      -282.6383
  21   2.0000     -10.384181      -282.5679
  22   2.0000     -10.379842      -282.4499
  23   2.0000     -10.378575      -282.4154
  24   2.0000     -10.363906      -282.0162
  25   2.0000     -10.357985      -281.8551
  26   2.0000     -10.357766      -281.8491
  27   2.0000     -10.356942      -281.8267
  28   2.0000     -10.355535      -281.7884
  29   2.0000     -10.351705      -281.6842
  30   2.0000     -10.348884      -281.6075
  31   2.0000     -10.341371      -281.4030
  32   2.0000     -10.339917      -281.3634
  33   2.0000     -10.336995      -281.2839
  34   2.0000     -10.334969      -281.2288
  35   2.0000     -10.333842      -281.1982
  36   2.0000     -10.332984      -281.1748
  37   2.0000     -10.330422      -281.1051
  38   2.0000     -10.329517      -281.0804
  39   2.0000     -10.329160      -281.0707
  40   2.0000     -10.327367      -281.0219
  41   2.0000     -10.325408      -280.9686
  42   2.0000     -10.323314      -280.9117
  43   2.0000     -10.322809      -280.8979
  44   2.0000     -10.320679      -280.8400
  45   2.0000     -10.320404      -280.8325
  46   2.0000     -10.319916      -280.8192
  47   2.0000     -10.319252      -280.8011
  48   2.0000     -10.319037      -280.7953
  49   2.0000     -10.316917      -280.7376
  50   2.0000     -10.316103      -280.7154
  51   2.0000     -10.315900      -280.7099
  52   2.0000     -10.315682      -280.7040
  53   2.0000     -10.315526      -280.6997
  54   2.0000     -10.315477      -280.6984
  55   2.0000     -10.315376      -280.6957
  56   2.0000     -10.314607      -280.6747
  57   2.0000     -10.313674      -280.6493
  58   2.0000     -10.310474      -280.5623
  59   2.0000     -10.308264      -280.5021
  60   2.0000     -10.307832      -280.4904
  61   2.0000     -10.306008      -280.4407
  62   2.0000     -10.302887      -280.3558
  63   2.0000     -10.295485      -280.1544
  64   2.0000     -10.279415      -279.7171
  65   2.0000     -10.276280      -279.6318
  66   2.0000     -10.274464      -279.5824
  67   2.0000     -10.269822      -279.4561
  68   2.0000      -9.578832      -260.6533
  69   2.0000      -9.574149      -260.5258
  70   2.0000      -8.096837      -220.3261
  71   2.0000      -8.091150      -220.1714
  72   2.0000      -7.349486      -199.9897
  73   2.0000      -7.344803      -199.8623
  74   2.0000      -7.338877      -199.7010
  75   2.0000      -7.338307      -199.6855
  76   2.0000      -7.334176      -199.5731
  77   2.0000      -7.333628      -199.5582
  78   2.0000      -6.066207      -165.0699
  79   2.0000      -6.061581      -164.9440
  80   2.0000      -6.060531      -164.9154
  81   2.0000      -6.059126      -164.8772
  82   2.0000      -6.055901      -164.7895
  83   2.0000      -6.053417      -164.7219
  84   2.0000      -1.151073       -31.3223
  85   2.0000      -1.147931       -31.2368
  86   2.0000      -1.141420       -31.0596
  87   2.0000      -1.141109       -31.0512
  88   2.0000      -1.105686       -30.0872
  89   2.0000      -1.077605       -29.3231
  90   2.0000      -1.068603       -29.0782
  91   2.0000      -1.046185       -28.4681
  92   2.0000      -1.040184       -28.3049
  93   2.0000      -1.025884       -27.9157
  94   2.0000      -1.024504       -27.8782
  95   2.0000      -1.019445       -27.7405
  96   2.0000      -1.007766       -27.4227
  97   2.0000      -1.006025       -27.3753
  98   2.0000      -1.003301       -27.3012
  99   2.0000      -0.996306       -27.1109
 100   2.0000      -0.995993       -27.1023
 101   2.0000      -0.992528       -27.0081
 102   2.0000      -0.990289       -26.9471
 103   2.0000      -0.983455       -26.7612
 104   2.0000      -0.962179       -26.1822
 105   2.0000      -0.958054       -26.0700
 106   2.0000      -0.947497       -25.7827
 107   2.0000      -0.941680       -25.6244
 108   2.0000      -0.920327       -25.0434
 109   2.0000      -0.912445       -24.8289
 110   2.0000      -0.907314       -24.6893
 111   2.0000      -0.902520       -24.5588
 112   2.0000      -0.891960       -24.2715
 113   2.0000      -0.880243       -23.9526
 114   2.0000      -0.868050       -23.6208
 115   2.0000      -0.865124       -23.5412
 116   2.0000      -0.851973       -23.1834
 117   2.0000      -0.840522       -22.8718
 118   2.0000      -0.834619       -22.7111
 119   2.0000      -0.831908       -22.6374
 120   2.0000      -0.826518       -22.4907
 121   2.0000      -0.817574       -22.2473
 122   2.0000      -0.797370       -21.6975
 123   2.0000      -0.784358       -21.3435
 124   2.0000      -0.771511       -20.9939
 125   2.0000      -0.770329       -20.9617
 126   2.0000      -0.768593       -20.9145
 127   2.0000      -0.763319       -20.7710
 128   2.0000      -0.758547       -20.6411
 129   2.0000      -0.740084       -20.1387
 130   2.0000      -0.729432       -19.8489
 131   2.0000      -0.723446       -19.6860
 132   2.0000      -0.717360       -19.5203
 133   2.0000      -0.702438       -19.1143
 134   2.0000      -0.699310       -19.0292
 135   2.0000      -0.695481       -18.9250
 136   2.0000      -0.690369       -18.7859
 137   2.0000      -0.684941       -18.6382
 138   2.0000      -0.681007       -18.5311
 139   2.0000      -0.677908       -18.4468
 140   2.0000      -0.675183       -18.3727
 141   2.0000      -0.670050       -18.2330
 142   2.0000      -0.660931       -17.9848
 143   2.0000      -0.654263       -17.8034
 144   2.0000      -0.643538       -17.5116
 145   2.0000      -0.641364       -17.4524
 146   2.0000      -0.624323       -16.9887
 147   2.0000      -0.622923       -16.9506
 148   2.0000      -0.613988       -16.7074
 149   2.0000      -0.612597       -16.6696
 150   2.0000      -0.608211       -16.5503
 151   2.0000      -0.596902       -16.2425
 152   2.0000      -0.590668       -16.0729
 153   2.0000      -0.588790       -16.0218
 154   2.0000      -0.583125       -15.8676
 155   2.0000      -0.580611       -15.7992
 156   2.0000      -0.571581       -15.5535
 157   2.0000      -0.567461       -15.4414
 158   2.0000      -0.561583       -15.2814
 159   2.0000      -0.560708       -15.2576
 160   2.0000      -0.558676       -15.2024
 161   2.0000      -0.554081       -15.0773
 162   2.0000      -0.551327       -15.0024
 163   2.0000      -0.547336       -14.8938
 164   2.0000      -0.546192       -14.8627
 165   2.0000      -0.543958       -14.8018
 166   2.0000      -0.542417       -14.7599
 167   2.0000      -0.537185       -14.6175
 168   2.0000      -0.534836       -14.5536
 169   2.0000      -0.532185       -14.4815
 170   2.0000      -0.530989       -14.4489
 171   2.0000      -0.529537       -14.4094
 172   2.0000      -0.529133       -14.3984
 173   2.0000      -0.525336       -14.2951
 174   2.0000      -0.523533       -14.2461
 175   2.0000      -0.523183       -14.2365
 176   2.0000      -0.519386       -14.1332
 177   2.0000      -0.517284       -14.0760
 178   2.0000      -0.514797       -14.0083
 179   2.0000      -0.512362       -13.9421
 180   2.0000      -0.509717       -13.8701
 181   2.0000      -0.507555       -13.8113
 182   2.0000      -0.504309       -13.7229
 183   2.0000      -0.499742       -13.5987
 184   2.0000      -0.499184       -13.5835
 185   2.0000      -0.494120       -13.4457
 186   2.0000      -0.491910       -13.3855
 187   2.0000      -0.489295       -13.3144
 188   2.0000      -0.489056       -13.3079
 189   2.0000      -0.485084       -13.1998
 190   2.0000      -0.482769       -13.1368
 191   2.0000      -0.481138       -13.0924
 192   2.0000      -0.480117       -13.0646
 193   2.0000      -0.477526       -12.9941
 194   2.0000      -0.467803       -12.7296
 195   2.0000      -0.465108       -12.6562
 196   2.0000      -0.462654       -12.5895
 197   2.0000      -0.461045       -12.5457
 198   2.0000      -0.460182       -12.5222
 199   2.0000      -0.459461       -12.5026
 200   2.0000      -0.457122       -12.4389
 201   2.0000      -0.454542       -12.3687
 202   2.0000      -0.454194       -12.3593
 203   2.0000      -0.451855       -12.2956
 204   2.0000      -0.450361       -12.2549
 205   2.0000      -0.448831       -12.2133
 206   2.0000      -0.447058       -12.1651
 207   2.0000      -0.445849       -12.1322
 208   2.0000      -0.440791       -11.9945
 209   2.0000      -0.439875       -11.9696
 210   2.0000      -0.439482       -11.9589
 211   2.0000      -0.437202       -11.8969
 212   2.0000      -0.436390       -11.8748
 213   2.0000      -0.435551       -11.8519
 214   2.0000      -0.433573       -11.7981
 215   2.0000      -0.431537       -11.7427
 216   2.0000      -0.426712       -11.6114
 217   2.0000      -0.424731       -11.5575
 218   2.0000      -0.422205       -11.4888
 219   2.0000      -0.420532       -11.4433
 220   2.0000      -0.417274       -11.3546
 221   2.0000      -0.411958       -11.2099
 222   2.0000      -0.410221       -11.1627
 223   2.0000      -0.409816       -11.1517
 224   2.0000      -0.405615       -11.0373
 225   2.0000      -0.401060       -10.9134
 226   2.0000      -0.399163       -10.8618
 227   2.0000      -0.393318       -10.7027
 228   2.0000      -0.375813       -10.2264
 229   2.0000      -0.365556        -9.9473
 230   2.0000      -0.361372        -9.8334
 231   2.0000      -0.359746        -9.7892
 232   2.0000      -0.347853        -9.4656
 233   2.0000      -0.345798        -9.4096
 234   2.0000      -0.345216        -9.3938
 235   2.0000      -0.339782        -9.2459
 236   2.0000      -0.335951        -9.1417
 237   2.0000      -0.331223        -9.0130
 238   2.0000      -0.330720        -8.9993
 239   2.0000      -0.324092        -8.8190
 240   2.0000      -0.322365        -8.7720
 241   2.0000      -0.321116        -8.7380
 242   2.0000      -0.307958        -8.3800
 243   2.0000      -0.302949        -8.2437
 244   2.0000      -0.250705        -6.8220
 245   0.0000      -0.143902        -3.9158
 246   0.0000      -0.106377        -2.8947
 247   0.0000      -0.090160        -2.4534
 248   0.0000      -0.074649        -2.0313
 249   0.0000      -0.059636        -1.6228

MULLIKEN ATOMIC CHARGES
-----------------------
   0 C :    0.034476
   1 C :   -0.130137
   2 S :    0.193816
   3 C :   -0.170713
   4 Cl:    0.005588
   5 C :    0.076981
   6 C :    0.142195
   7 O :   -0.125980
   8 C :   -0.099613
   9 C :    0.288729
  10 C :   -0.316977
  11 C :   -0.193816
  12 N :    0.161347
  13 C :   -0.192619
  14 N :    0.171744
  15 C :   -0.026898
  16 C :    0.083509
  17 C :   -0.073139
  18 C :    0.095448
  19 C :   -0.110547
  20 C :    0.076609
  21 C :   -0.184926
  22 N :    0.143314
  23 C :    0.130286
  24 C :   -0.106490
  25 C :    0.037762
  26 C :   -0.025344
  27 C :   -0.098028
  28 C :   -0.178555
  29 N :    0.147869
  30 C :    0.161536
  31 N :   -0.267103
  32 C :    0.098288
  33 C :   -0.009216
  34 C :    0.150391
  35 O :   -0.185785
  36 C :   -0.052614
  37 C :   -0.045237
  38 C :    0.149840
  39 O :   -0.173328
  40 N :   -0.266991
  41 C :    0.095788
  42 C :   -0.003377
  43 C :    0.123493
  44 C :   -0.021045
  45 C :    0.024018
  46 C :    0.025459
  47 C :    0.045831
  48 N :   -0.034535
  49 C :   -0.071010
  50 N :   -0.080564
  51 C :    0.051264
  52 C :    0.081503
  53 C :   -0.098208
  54 C :    0.133084
  55 O :   -0.116581
  56 C :    0.083419
  57 C :   -0.167793
  58 S :    0.187007
  59 C :   -0.130792
  60 C :    0.021793
  61 C :    0.279830
  62 C :   -0.281828
  63 C :   -0.199496
  64 N :    0.158468
  65 C :   -0.180443
  66 N :    0.160203
  67 Cl:    0.002225
  68 H :    0.056536
  69 H :    0.040353
  70 H :    0.016152
  71 H :    0.005426
  72 H :    0.030991
  73 H :   -0.009235
  74 H :    0.050268
  75 H :    0.025423
  76 H :    0.030661
  77 H :    0.030776
  78 H :    0.028997
  79 H :    0.026395
  80 H :    0.055361
  81 H :    0.024467
  82 H :    0.028860
  83 H :    0.029035
  84 H :    0.015095
  85 H :   -0.007104
  86 H :    0.025070
  87 H :    0.009251
  88 H :    0.030580
  89 H :    0.053253
Sum of atomic charges:   -0.0000000

LOEWDIN ATOMIC CHARGES
----------------------
   0 C :   -0.059134
   1 C :   -0.147380
   2 S :    0.481655
   3 C :   -0.270193
   4 Cl:    0.196590
   5 C :   -0.118349
   6 C :    0.081616
   7 O :   -0.119537
   8 C :   -0.076467
   9 C :    0.070649
  10 C :   -0.127239
  11 C :   -0.015284
  12 N :   -0.044734
  13 C :   -0.025812
  14 N :   -0.035762
  15 C :    0.073548
  16 C :   -0.024064
  17 C :    0.019728
  18 C :    0.044098
  19 C :   -0.089462
  20 C :    0.078630
  21 C :   -0.033080
  22 N :   -0.051969
  23 C :    0.036106
  24 C :    0.017961
  25 C :   -0.034013
  26 C :    0.048251
  27 C :   -0.078218
  28 C :   -0.033517
  29 N :   -0.055650
  30 C :    0.077481
  31 N :   -0.005032
  32 C :    0.035121
  33 C :   -0.060971
  34 C :    0.080065
  35 O :   -0.189389
  36 C :   -0.111855
  37 C :   -0.104451
  38 C :    0.086777
  39 O :   -0.164602
  40 N :   -0.001438
  41 C :    0.035470
  42 C :   -0.062003
  43 C :    0.078471
  44 C :   -0.019195
  45 C :    0.001909
  46 C :   -0.058710
  47 C :    0.065666
  48 N :   -0.058239
  49 C :    0.018850
  50 N :   -0.056965
  51 C :    0.063085
  52 C :    0.056144
  53 C :   -0.052340
  54 C :    0.082078
  55 O :   -0.121655
  56 C :   -0.119953
  57 C :   -0.271753
  58 S :    0.476834
  59 C :   -0.154097
  60 C :   -0.054817
  61 C :    0.068453
  62 C :   -0.112126
  63 C :   -0.015354
  64 N :   -0.047798
  65 C :   -0.017788
  66 N :   -0.054058
  67 Cl:    0.194210
  68 H :    0.038826
  69 H :    0.053931
  70 H :    0.040278
  71 H :    0.038280
  72 H :    0.040499
  73 H :    0.036235
  74 H :    0.040396
  75 H :    0.019752
  76 H :    0.033678
  77 H :    0.034802
  78 H :    0.023841
  79 H :    0.020442
  80 H :    0.042028
  81 H :    0.022723
  82 H :    0.033802
  83 H :    0.033095
  84 H :    0.046637
  85 H :    0.033207
  86 H :    0.032298
  87 H :    0.028248
  88 H :    0.054394
  89 H :    0.037617

  Mayer bond orders larger than 0.100000
B(  0-C ,  1-C ) :   1.5424 B(  0-C ,  5-C ) :   1.2225 B(  0-C ,  9-C ) :   1.0019
B(  1-C ,  2-S ) :   1.1638 B(  1-C , 68-H ) :   0.9546 B(  2-S ,  3-C ) :   1.1551
B(  3-C ,  4-Cl) :   1.1341 B(  3-C ,  5-C ) :   1.4702 B(  5-C ,  6-C ) :   0.9526
B(  6-C ,  7-O ) :   2.2285 B(  6-C ,  8-C ) :   0.9328 B(  8-C ,  9-C ) :   1.0530
B(  8-C , 15-C ) :   1.6384 B(  9-C , 10-C ) :   1.6680 B( 10-C , 11-C ) :   1.1454
B( 10-C , 13-C ) :   1.1356 B( 11-C , 12-N ) :   2.9914 B( 13-C , 14-N ) :   2.9828
B( 15-C , 16-C ) :   1.0982 B( 15-C , 69-H ) :   0.9481 B( 16-C , 17-C ) :   1.5255
B( 16-C , 20-C ) :   1.0454 B( 17-C , 18-C ) :   1.0981 B( 17-C , 70-H ) :   1.0078
B( 18-C , 19-C ) :   1.1170 B( 18-C , 23-C ) :   1.4052 B( 19-C , 20-C ) :   1.6753
B( 19-C , 21-C ) :   1.0896 B( 20-C , 71-H ) :   1.0065 B( 21-C , 22-N ) :   2.9876
B( 23-C , 24-C ) :   1.1151 B( 23-C , 27-C ) :   1.0981 B( 24-C , 25-C ) :   1.5445
B( 24-C , 72-H ) :   0.9901 B( 25-C , 26-C ) :   1.0185 B( 25-C , 30-C ) :   1.0484
B( 26-C , 27-C ) :   1.6741 B( 26-C , 73-H ) :   1.0277 B( 27-C , 28-C ) :   1.0820
B( 28-C , 29-N ) :   2.9726 B( 30-C , 31-N ) :   1.2009 B( 30-C , 37-C ) :   1.3710
B( 31-N , 32-C ) :   0.9402 B( 31-N , 34-C ) :   1.0250 B( 32-C , 33-C ) :   1.1168
B( 32-C , 74-H ) :   0.9214 B( 32-C , 75-H ) :   0.9513 B( 33-C , 76-H ) :   0.9614
B( 33-C , 77-H ) :   0.9662 B( 33-C , 78-H ) :   0.9665 B( 34-C , 35-O ) :   2.1268
B( 34-C , 36-C ) :   0.9818 B( 36-C , 37-C ) :   1.2433 B( 36-C , 43-C ) :   1.3288
B( 37-C , 38-C ) :   0.9680 B( 38-C , 39-O ) :   2.0941 B( 38-C , 40-N ) :   1.0327
B( 40-N , 41-C ) :   0.9377 B( 40-N , 43-C ) :   1.1863 B( 41-C , 42-C ) :   1.1153
B( 41-C , 79-H ) :   0.9505 B( 41-C , 80-H ) :   0.9225 B( 42-C , 81-H ) :   0.9689
B( 42-C , 82-H ) :   0.9677 B( 42-C , 83-H ) :   0.9618 B( 43-C , 44-C ) :   1.1801
B( 44-C , 45-C ) :   1.6114 B( 44-C , 84-H ) :   0.9418 B( 45-C , 46-C ) :   1.0751
B( 45-C , 85-H ) :   0.9835 B( 46-C , 47-C ) :   1.3004 B( 46-C , 51-C ) :   1.2934
B( 47-C , 48-N ) :   1.5848 B( 47-C , 86-H ) :   0.9817 B( 48-N , 49-C ) :   1.5104
B( 49-C , 50-N ) :   1.4628 B( 49-C , 52-C ) :   1.0270 B( 50-N , 51-C ) :   1.5566
B( 51-C , 87-H ) :   0.9889 B( 52-C , 53-C ) :   1.6989 B( 52-C , 88-H ) :   0.9494
B( 53-C , 54-C ) :   0.9211 B( 53-C , 61-C ) :   1.0090 B( 54-C , 55-O ) :   2.2933
B( 54-C , 56-C ) :   0.9253 B( 56-C , 57-C ) :   1.4784 B( 56-C , 60-C ) :   1.2215
B( 57-C , 58-S ) :   1.1567 B( 57-C , 67-Cl) :   1.1316 B( 58-S , 59-C ) :   1.1577
B( 59-C , 60-C ) :   1.5497 B( 59-C , 89-H ) :   0.9569 B( 60-C , 61-C ) :   1.0126
B( 61-C , 62-C ) :   1.7096 B( 62-C , 63-C ) :   1.1383 B( 62-C , 65-C ) :   1.1501
B( 63-C , 64-N ) :   3.0004 B( 65-C , 66-N ) :   2.9790

-----------------------------------------------------------------------------
         ABSORPTION SPECTRUM VIA TRANSITION ELECTRIC DIPOLE MOMENTS
-----------------------------------------------------------------------------
State   Energy  Wavelength   fosc         T2         TX        TY        TZ
        (cm-1)    (nm)                  (au**2)     (au)      (au)      (au)
-----------------------------------------------------------------------------
   0    8447.3   1183.8   0.441554919  17.20838  -2.77080   3.06386   0.37926
   1   16385.0    610.3   0.044615343   0.89642   0.22141  -0.89033   0.23390
   2   18044.2    554.2   0.568370314  10.36975  -2.87111   1.04999   1.01194
   3   19774.0    505.7   0.001002622   0.01669  -0.12332   0.00943   0.03736
   4   22479.7    444.8   0.442739200   6.48386  -0.93074   2.34840  -0.32036
   5   23027.7    434.3   0.012529306   0.17912  -0.12210  -0.32116   0.24713
   6   23288.1    429.4   0.071645878   1.01282  -0.54629   0.79710  -0.28110
   7   24034.8    416.1   0.026372956   0.36124   0.58701  -0.04748  -0.12004
   8   24689.8    405.0   0.059882669   0.79847   0.47300  -0.75349  -0.08360
   9   24762.1    403.8   0.041441051   0.55096   0.61146  -0.07873  -0.41337
  10   24851.6    402.4   0.081770609   1.08322   0.67068   0.46690  -0.64453
  11   26272.8    380.6   0.223798705   2.80431   1.30724  -1.02940  -0.18914
  12   27201.0    367.6   0.167315562   2.02501   0.44298  -1.32436   0.27361
  13   27435.8    364.5   0.072522103   0.87022  -0.68834   0.48689  -0.39919
  14   28271.5    353.7   0.383069697   4.46072  -0.88837   1.88154  -0.36239
  15   28475.3    351.2   0.008335232   0.09637  -0.18439  -0.24926   0.01539
  16   29426.3    339.8   0.174838699   1.95604   0.07739   1.28329  -0.55065
  17   29588.2    338.0   0.000858975   0.00956  -0.06096   0.07628   0.00475
  18   29874.1    334.7   0.135876576   1.49736   1.04375  -0.05534  -0.63630
  19   30253.4    330.5   0.106874793   1.16299  -0.45057  -0.62601   0.75372
  20   31272.2    319.8   0.028697410   0.30211   0.38281   0.11306  -0.37786
  21   31704.5    315.4   0.006372725   0.06617  -0.16459  -0.17897   0.08399
  22   31927.6    313.2   0.029327730   0.30240  -0.01914  -0.51849   0.18223
  23   32864.0    304.3   0.188279386   1.88607   0.53527  -1.12513   0.57762
  24   32875.3    304.2   0.282476179   2.82870   1.46131  -0.82373   0.12144
  25   33239.0    300.9   0.019011357   0.18830   0.35270  -0.11371   0.22576
  26   33371.3    299.7   0.009216777   0.09092  -0.06619   0.27460   0.10553
  27   33487.5    298.6   0.088071512   0.86582  -0.55904   0.68099  -0.29924
  28   33871.0    295.2   0.030046091   0.29204   0.34173  -0.40336   0.11207
  29   34177.3    292.6   0.178990113   1.72412   0.74604   0.46172  -0.97691
  30   34233.9    292.1   0.066152804   0.63616  -0.36710   0.52843  -0.47134
  31   34596.2    289.0   0.096829668   0.92141   0.09955  -0.84185   0.45032
  32   34701.2    288.2   0.007248630   0.06877  -0.04919   0.24784  -0.07016
  33   34820.8    287.2   0.015631777   0.14779   0.23925   0.16485  -0.25174
  34   34905.1    286.5   0.034169200   0.32227   0.09896  -0.18685  -0.52684
  35   35239.4    283.8   0.142936098   1.33533  -0.66806   0.75164  -0.56926
  36   35562.6    281.2   0.221354923   2.04914   1.02559  -0.84919   0.52553
  37   35798.0    279.3   0.026238058   0.24130   0.30052  -0.35506   0.15785
  38   36139.9    276.7   0.114949299   1.04712  -0.90845   0.46784  -0.05443
  39   36339.5    275.2   0.015504193   0.14046   0.13604  -0.13148   0.32352
  40   37127.2    269.3   0.018902386   0.16761   0.01321  -0.26785   0.30934
  41   37750.9    264.9   0.021904188   0.19102  -0.42297  -0.06932   0.08551
  42   37807.7    264.5   0.144819612   1.26102   0.46797  -0.62809   0.80470
  43   37876.6    264.0   0.022171692   0.19271   0.10283  -0.42085  -0.07084
  44   37987.1    263.2   0.307613078   2.66590  -1.13482   0.32152   1.12903
  45   38060.6    262.7   0.116956045   1.01163   0.70537  -0.54321   0.46798
  46   38288.7    261.2   0.246481620   2.11928   0.56869   0.69270  -1.14719
  47   38571.2    259.3   0.058350963   0.49804  -0.16124  -0.06508  -0.68396
  48   38672.1    258.6   0.012649480   0.10768   0.04462  -0.16205   0.28184
  49   38703.9    258.4   0.151068601   1.28498  -0.81512   0.55398  -0.56005
  50   39318.7    254.3   0.031821207   0.26644  -0.38810   0.10268   0.32446
  51   39635.2    252.3   0.012376125   0.10280  -0.00805  -0.24443  -0.20734
  52   39728.4    251.7   0.006979201   0.05783   0.16729   0.15998   0.06524
  53   40060.5    249.6   0.070874729   0.58244  -0.09768   0.26245  -0.70994
  54   40147.8    249.1   0.009172148   0.07521  -0.03116   0.03374  -0.27037
  55   40235.8    248.5   0.008749202   0.07159   0.04062   0.14026  -0.22419

FINAL SINGLE POINT ENERGY     -4479.559597344086

DIPOLE MOMENT
-------------
                                X             Y             Z
Electronic contribution:     25.73104      16.73796     -16.37993
Nuclear contribution   :    -24.42805     -16.37424      15.93738
                        -----------------------------------------
Total Dipole Moment    :      1.30299       0.36371      -0.44255
                        -----------------------------------------
Magnitude (a.u.)       :      1.42335
Magnitude (Debye)      :      3.61786

Rotational constants in cm-1:     0.002209     0.000214     0.000199
Rotational constants in MHz :    66.229815     6.407868     5.969825

                             ****ORCA TERMINATED NORMALLY****
TOTAL RUN TIME: 0 days 0 hours 15 minutes 20 seconds 960 msec
