                         Program Version 4.2.0 -  RELEASE  -
|  1> # ORCA input file
|  2> # SCF done       -183.913246361760          0.000719230636
|  3> ! CAM-B3LYP def2-SVP def2/J RIJCOSX Grid4 TightSCF
|  4> %maxcore 5000
|  5> %tddft
|  6>     Mode sTDDFT
|  7>     Ethresh 5.0
|  8>     maxcore 5000
|  9> end
| 10>
| 11> %pal
| 12>   nprocs 6
| 13>   end
| 14> * xyz 0 1
| 15>    C        1.14236         1.71115        -2.99907
| 16>    C        0.39943         2.65195        -3.64382
| 17>    S        0.22404         2.26923        -5.31665
| 18>    C        1.17090         0.80937        -5.15003
| 19>   Cl        1.47730        -0.20183        -6.47313
| 20>    C        1.58545         0.65636        -3.86007
| 21>    C        2.37885        -0.31661        -3.10307
| 22>    O        2.87543        -1.33865        -3.51292
| 23>    C        2.37241         0.20343        -1.69485
| 24>    C        1.63464         1.46505        -1.66048
| 25>    C        1.46350         2.31210        -0.60031
| 26>    C        0.72832         3.51042        -0.73217
| 27>    N        0.12835         4.48387        -0.82157
| 28>    C        1.98581         2.13302         0.69705
| 29>    N        2.39225         2.05852         1.76802
| 30>    C        2.81020        -0.46421        -0.59994
| 31>    C        3.58248        -1.68296        -0.55004
| 32>    C        3.34819        -2.57431         0.49658
| 33>    C        4.03236        -3.77523         0.58070
| 34>    N        3.63511        -4.66572         1.63958
| 35>    O        3.07778        -4.17727         2.59928
| 36>    O        3.86215        -5.85274         1.51230
| 37>    C        5.03233        -4.12098        -0.35343
| 38>    C        5.29345        -3.18135        -1.36321
| 39>    C        4.59187        -2.00464        -1.46982
| 40>    C        5.80997        -5.33208        -0.25197
| 41>    C        6.34035        -5.95186        -1.32956
| 42>    C        7.10765        -7.14736        -1.40466
| 43>    N        7.60432        -7.96406        -0.41542
| 44>    C        7.47034        -7.85157         1.01848
| 45>    C        6.14203        -8.41116         1.52167
| 46>    C        8.30087        -9.06540        -0.95404
| 47>    O        8.84069        -9.91427        -0.27094
| 48>    C        8.21965        -8.89039        -2.38540
| 49>    C        7.49501        -7.69970        -2.62250
| 50>    C        7.42496        -7.48715        -4.05179
| 51>    O        6.93786        -6.59978        -4.71876
| 52>    N        8.11838        -8.58904        -4.59397
| 53>    C        8.22533        -8.77305        -6.02217
| 54>    C        7.27232        -9.84498        -6.54519
| 55>    C        8.58564        -9.43329        -3.61647
| 56>    C        9.28859       -10.63445        -3.89507
| 57>    C        9.67008       -11.48516        -2.91211
| 58>    C       10.30906       -12.74738        -3.07562
| 59>    C       10.58363       -13.52708        -4.18841
| 60>    C       10.24701       -13.18615        -5.59189
| 61>    O        9.16428       -12.83514        -5.97498
| 62>    O       11.26582       -13.30511        -6.46785
| 63>    C       11.26833       -14.73834        -3.85551
| 64>    C       11.53170       -14.82371        -2.50896
| 65>    S       10.90544       -13.51293        -1.62850
| 66>    C       11.63008       -15.78167        -4.78679
| 67>    C       10.92596       -16.22760        -5.84847
| 68>    C       11.63030       -17.02671        -6.90975
| 69>    O       12.71985       -17.53529        -6.80947
| 70>    C       10.73155       -16.96069        -8.06334
| 71>    C       10.75266       -17.34250        -9.37310
| 72>    S        9.27156       -16.87288       -10.17103
| 73>    C        8.63362       -16.17843        -8.72622
| 74>    C        9.51370       -16.29584        -7.69733
| 75>    C        9.55990       -15.96298        -6.28862
| 76>    C        8.47244       -15.67216        -5.51567
| 77>    C        7.18882       -15.51425        -6.08234
| 78>    N        6.14222       -15.39782        -6.53522
| 79>    C        8.49541       -15.58440        -4.11020
| 80>    N        8.46616       -15.56359        -2.96335
| 81>   Cl       11.98402       -18.15563       -10.20360
| 82>    H       -0.06081         3.53904        -3.25624
| 83>    H        2.52361        -0.07963         0.37201
| 84>    H        2.59198        -2.36137         1.23877
| 85>    H        6.08684        -3.38425        -2.06468
| 86>    H        4.84524        -1.30868        -2.25155
| 87>    H        5.91541        -5.75761         0.73190
| 88>    H        6.13649        -5.55092        -2.31519
| 89>    H        7.61169        -6.81069         1.31835
| 90>    H        8.28821        -8.44735         1.43663
| 91>    H        5.29209        -7.86438         1.12204
| 92>    H        6.11049        -8.35035         2.60595
| 93>    H        6.05243        -9.45502         1.23140
| 94>    H        9.25954        -9.01448        -6.28474
| 95>    H        7.96732        -7.80508        -6.46210
| 96>    H        7.53366       -10.83093        -6.16877
| 97>    H        7.31825        -9.86951        -7.63037
| 98>    H        6.25280        -9.61423        -6.24627
| 99>    H        9.48542       -10.85735        -4.92961
|100>    H        9.47841       -11.20631        -1.88267
|101>    H       12.09636       -13.57207        -6.05063
|102>    H       12.00875       -15.64151        -2.00574
|103>    H       12.60445       -16.23802        -4.64159
|104>    H        7.66525       -15.71910        -8.73986
|105> *
|106>
|107>                          ****END OF INPUT****

CARTESIAN COORDINATES (ANGSTROEM)
---------------------------------
  C      1.142360    1.711150   -2.999070
  C      0.399430    2.651950   -3.643820
  S      0.224040    2.269230   -5.316650
  C      1.170900    0.809370   -5.150030
  Cl     1.477300   -0.201830   -6.473130
  C      1.585450    0.656360   -3.860070
  C      2.378850   -0.316610   -3.103070
  O      2.875430   -1.338650   -3.512920
  C      2.372410    0.203430   -1.694850
  C      1.634640    1.465050   -1.660480
  C      1.463500    2.312100   -0.600310
  C      0.728320    3.510420   -0.732170
  N      0.128350    4.483870   -0.821570
  C      1.985810    2.133020    0.697050
  N      2.392250    2.058520    1.768020
  C      2.810200   -0.464210   -0.599940
  C      3.582480   -1.682960   -0.550040
  C      3.348190   -2.574310    0.496580
  C      4.032360   -3.775230    0.580700
  N      3.635110   -4.665720    1.639580
  O      3.077780   -4.177270    2.599280
  O      3.862150   -5.852740    1.512300
  C      5.032330   -4.120980   -0.353430
  C      5.293450   -3.181350   -1.363210
  C      4.591870   -2.004640   -1.469820
  C      5.809970   -5.332080   -0.251970
  C      6.340350   -5.951860   -1.329560
  C      7.107650   -7.147360   -1.404660
  N      7.604320   -7.964060   -0.415420
  C      7.470340   -7.851570    1.018480
  C      6.142030   -8.411160    1.521670
  C      8.300870   -9.065400   -0.954040
  O      8.840690   -9.914270   -0.270940
  C      8.219650   -8.890390   -2.385400
  C      7.495010   -7.699700   -2.622500
  C      7.424960   -7.487150   -4.051790
  O      6.937860   -6.599780   -4.718760
  N      8.118380   -8.589040   -4.593970
  C      8.225330   -8.773050   -6.022170
  C      7.272320   -9.844980   -6.545190
  C      8.585640   -9.433290   -3.616470
  C      9.288590  -10.634450   -3.895070
  C      9.670080  -11.485160   -2.912110
  C     10.309060  -12.747380   -3.075620
  C     10.583630  -13.527080   -4.188410
  C     10.247010  -13.186150   -5.591890
  O      9.164280  -12.835140   -5.974980
  O     11.265820  -13.305110   -6.467850
  C     11.268330  -14.738340   -3.855510
  C     11.531700  -14.823710   -2.508960
  S     10.905440  -13.512930   -1.628500
  C     11.630080  -15.781670   -4.786790
  C     10.925960  -16.227600   -5.848470
  C     11.630300  -17.026710   -6.909750
  O     12.719850  -17.535290   -6.809470
  C     10.731550  -16.960690   -8.063340
  C     10.752660  -17.342500   -9.373100
  S      9.271560  -16.872880  -10.171030
  C      8.633620  -16.178430   -8.726220
  C      9.513700  -16.295840   -7.697330
  C      9.559900  -15.962980   -6.288620
  C      8.472440  -15.672160   -5.515670
  C      7.188820  -15.514250   -6.082340
  N      6.142220  -15.397820   -6.535220
  C      8.495410  -15.584400   -4.110200
  N      8.466160  -15.563590   -2.963350
  Cl    11.984020  -18.155630  -10.203600
  H     -0.060810    3.539040   -3.256240
  H      2.523610   -0.079630    0.372010
  H      2.591980   -2.361370    1.238770
  H      6.086840   -3.384250   -2.064680
  H      4.845240   -1.308680   -2.251550
  H      5.915410   -5.757610    0.731900
  H      6.136490   -5.550920   -2.315190
  H      7.611690   -6.810690    1.318350
  H      8.288210   -8.447350    1.436630
  H      5.292090   -7.864380    1.122040
  H      6.110490   -8.350350    2.605950
  H      6.052430   -9.455020    1.231400
  H      9.259540   -9.014480   -6.284740
  H      7.967320   -7.805080   -6.462100
  H      7.533660  -10.830930   -6.168770
  H      7.318250   -9.869510   -7.630370
  H      6.252800   -9.614230   -6.246270
  H      9.485420  -10.857350   -4.929610
  H      9.478410  -11.206310   -1.882670
  H     12.096360  -13.572070   -6.050630
  H     12.008750  -15.641510   -2.005740
  H     12.604450  -16.238020   -4.641590
  H      7.665250  -15.719100   -8.739860

 Total Charge           Charge          ....    0
 Multiplicity           Mult            ....    1
 Number of Electrons    NEL             ....  500
 Basis Dimension        Dim             .... 1073

ORBITAL ENERGIES
----------------

  NO   OCC          E(Eh)            E(eV)
   0   2.0000    -101.621743     -2765.2682
   1   2.0000    -101.621369     -2765.2580
   2   2.0000     -88.999019     -2421.7864
   3   2.0000     -88.996890     -2421.7285
   4   2.0000     -88.985913     -2421.4298
   5   2.0000     -19.281750      -524.6831
   6   2.0000     -19.250703      -523.8382
   7   2.0000     -19.249213      -523.7977
   8   2.0000     -19.228483      -523.2336
   9   2.0000     -19.227772      -523.2143
  10   2.0000     -19.224384      -523.1221
  11   2.0000     -19.191392      -522.2243
  12   2.0000     -19.190330      -522.1954
  13   2.0000     -14.656025      -398.8107
  14   2.0000     -14.452513      -393.2729
  15   2.0000     -14.452341      -393.2682
  16   2.0000     -14.426372      -392.5616
  17   2.0000     -14.425308      -392.5326
  18   2.0000     -14.422446      -392.4547
  19   2.0000     -14.422212      -392.4483
  20   2.0000     -10.429075      -283.7895
  21   2.0000     -10.386124      -282.6208
  22   2.0000     -10.384041      -282.5641
  23   2.0000     -10.381599      -282.4977
  24   2.0000     -10.380501      -282.4678
  25   2.0000     -10.374353      -282.3005
  26   2.0000     -10.372576      -282.2521
  27   2.0000     -10.355027      -281.7746
  28   2.0000     -10.354903      -281.7712
  29   2.0000     -10.354435      -281.7585
  30   2.0000     -10.351636      -281.6823
  31   2.0000     -10.342460      -281.4327
  32   2.0000     -10.339146      -281.3425
  33   2.0000     -10.336402      -281.2678
  34   2.0000     -10.334990      -281.2294
  35   2.0000     -10.334376      -281.2127
  36   2.0000     -10.331007      -281.1210
  37   2.0000     -10.330403      -281.1045
  38   2.0000     -10.330214      -281.0994
  39   2.0000     -10.328142      -281.0430
  40   2.0000     -10.327101      -281.0147
  41   2.0000     -10.325882      -280.9815
  42   2.0000     -10.323829      -280.9257
  43   2.0000     -10.323178      -280.9080
  44   2.0000     -10.323172      -280.9078
  45   2.0000     -10.318193      -280.7723
  46   2.0000     -10.318062      -280.7687
  47   2.0000     -10.317000      -280.7398
  48   2.0000     -10.316106      -280.7155
  49   2.0000     -10.316038      -280.7137
  50   2.0000     -10.313978      -280.6576
  51   2.0000     -10.311072      -280.5785
  52   2.0000     -10.310687      -280.5681
  53   2.0000     -10.305420      -280.4247
  54   2.0000     -10.305006      -280.4135
  55   2.0000     -10.303981      -280.3856
  56   2.0000     -10.303670      -280.3771
  57   2.0000     -10.302565      -280.3470
  58   2.0000     -10.301964      -280.3307
  59   2.0000     -10.296825      -280.1909
  60   2.0000     -10.296149      -280.1725
  61   2.0000     -10.296040      -280.1695
  62   2.0000     -10.294247      -280.1207
  63   2.0000     -10.262344      -279.2526
  64   2.0000     -10.259718      -279.1811
  65   2.0000     -10.252764      -278.9919
  66   2.0000     -10.251506      -278.9577
  67   2.0000      -9.576493      -260.5896
  68   2.0000      -9.576174      -260.5809
  69   2.0000      -8.094774      -220.2700
  70   2.0000      -8.092531      -220.2090
  71   2.0000      -8.081720      -219.9148
  72   2.0000      -7.347148      -199.9261
  73   2.0000      -7.346809      -199.9168
  74   2.0000      -7.336525      -199.6370
  75   2.0000      -7.336211      -199.6284
  76   2.0000      -7.335974      -199.6220
  77   2.0000      -7.335661      -199.6135
  78   2.0000      -6.064137      -165.0135
  79   2.0000      -6.061903      -164.9528
  80   2.0000      -6.059521      -164.8879
  81   2.0000      -6.057285      -164.8271
  82   2.0000      -6.057043      -164.8205
  83   2.0000      -6.054831      -164.7603
  84   2.0000      -6.050761      -164.6496
  85   2.0000      -6.046368      -164.5300
  86   2.0000      -6.044425      -164.4772
  87   2.0000      -1.331051       -36.2197
  88   2.0000      -1.205602       -32.8061
  89   2.0000      -1.149126       -31.2693
  90   2.0000      -1.146445       -31.1963
  91   2.0000      -1.144808       -31.1518
  92   2.0000      -1.132885       -30.8274
  93   2.0000      -1.126198       -30.6454
  94   2.0000      -1.120517       -30.4908
  95   2.0000      -1.062944       -28.9242
  96   2.0000      -1.053324       -28.6624
  97   2.0000      -1.043738       -28.4016
  98   2.0000      -1.042352       -28.3638
  99   2.0000      -1.023119       -27.8405
 100   2.0000      -1.023068       -27.8391
 101   2.0000      -1.014191       -27.5976
 102   2.0000      -1.004295       -27.3283
 103   2.0000      -1.000877       -27.2353
 104   2.0000      -0.999739       -27.2043
 105   2.0000      -0.992751       -27.0141
 106   2.0000      -0.992428       -27.0053
 107   2.0000      -0.960739       -26.1430
 108   2.0000      -0.959453       -26.1081
 109   2.0000      -0.933406       -25.3993
 110   2.0000      -0.928738       -25.2722
 111   2.0000      -0.923481       -25.1292
 112   2.0000      -0.913386       -24.8545
 113   2.0000      -0.911412       -24.8008
 114   2.0000      -0.910135       -24.7660
 115   2.0000      -0.901198       -24.5228
 116   2.0000      -0.886280       -24.1169
 117   2.0000      -0.871411       -23.7123
 118   2.0000      -0.864261       -23.5177
 119   2.0000      -0.854579       -23.2543
 120   2.0000      -0.848577       -23.0909
 121   2.0000      -0.838166       -22.8077
 122   2.0000      -0.836161       -22.7531
 123   2.0000      -0.815823       -22.1997
 124   2.0000      -0.814383       -22.1605
 125   2.0000      -0.800709       -21.7884
 126   2.0000      -0.795620       -21.6499
 127   2.0000      -0.777940       -21.1688
 128   2.0000      -0.766954       -20.8699
 129   2.0000      -0.760504       -20.6944
 130   2.0000      -0.755856       -20.5679
 131   2.0000      -0.754303       -20.5256
 132   2.0000      -0.738830       -20.1046
 133   2.0000      -0.731901       -19.9160
 134   2.0000      -0.715690       -19.4749
 135   2.0000      -0.706010       -19.2115
 136   2.0000      -0.704930       -19.1821
 137   2.0000      -0.699186       -19.0258
 138   2.0000      -0.692717       -18.8498
 139   2.0000      -0.690234       -18.7822
 140   2.0000      -0.688046       -18.7227
 141   2.0000      -0.683197       -18.5907
 142   2.0000      -0.682630       -18.5753
 143   2.0000      -0.679641       -18.4940
 144   2.0000      -0.677792       -18.4437
 145   2.0000      -0.655989       -17.8504
 146   2.0000      -0.646958       -17.6046
 147   2.0000      -0.646685       -17.5972
 148   2.0000      -0.639875       -17.4119
 149   2.0000      -0.634690       -17.2708
 150   2.0000      -0.624604       -16.9963
 151   2.0000      -0.620455       -16.8834
 152   2.0000      -0.617662       -16.8074
 153   2.0000      -0.611026       -16.6269
 154   2.0000      -0.606232       -16.4964
 155   2.0000      -0.603638       -16.4258
 156   2.0000      -0.597801       -16.2670
 157   2.0000      -0.591968       -16.1083
 158   2.0000      -0.586673       -15.9642
 159   2.0000      -0.583360       -15.8740
 160   2.0000      -0.581221       -15.8158
 161   2.0000      -0.575554       -15.6616
 162   2.0000      -0.567741       -15.4490
 163   2.0000      -0.564711       -15.3666
 164   2.0000      -0.560722       -15.2580
 165   2.0000      -0.558235       -15.1903
 166   2.0000      -0.556582       -15.1454
 167   2.0000      -0.549182       -14.9440
 168   2.0000      -0.547030       -14.8854
 169   2.0000      -0.544631       -14.8202
 170   2.0000      -0.542188       -14.7537
 171   2.0000      -0.540931       -14.7195
 172   2.0000      -0.539736       -14.6870
 173   2.0000      -0.539021       -14.6675
 174   2.0000      -0.535689       -14.5768
 175   2.0000      -0.533208       -14.5093
 176   2.0000      -0.531439       -14.4612
 177   2.0000      -0.527353       -14.3500
 178   2.0000      -0.525678       -14.3044
 179   2.0000      -0.521630       -14.1943
 180   2.0000      -0.520260       -14.1570
 181   2.0000      -0.514977       -14.0132
 182   2.0000      -0.511685       -13.9237
 183   2.0000      -0.510614       -13.8945
 184   2.0000      -0.505807       -13.7637
 185   2.0000      -0.503710       -13.7066
 186   2.0000      -0.502641       -13.6776
 187   2.0000      -0.500543       -13.6205
 188   2.0000      -0.499900       -13.6030
 189   2.0000      -0.496398       -13.5077
 190   2.0000      -0.495186       -13.4747
 191   2.0000      -0.491666       -13.3789
 192   2.0000      -0.489080       -13.3086
 193   2.0000      -0.486207       -13.2304
 194   2.0000      -0.484463       -13.1829
 195   2.0000      -0.484035       -13.1713
 196   2.0000      -0.469189       -12.7673
 197   2.0000      -0.464752       -12.6465
 198   2.0000      -0.464079       -12.6282
 199   2.0000      -0.459947       -12.5158
 200   2.0000      -0.459087       -12.4924
 201   2.0000      -0.458308       -12.4712
 202   2.0000      -0.457103       -12.4384
 203   2.0000      -0.456515       -12.4224
 204   2.0000      -0.456180       -12.4133
 205   2.0000      -0.452422       -12.3110
 206   2.0000      -0.450332       -12.2542
 207   2.0000      -0.449094       -12.2205
 208   2.0000      -0.448081       -12.1929
 209   2.0000      -0.447248       -12.1702
 210   2.0000      -0.446657       -12.1542
 211   2.0000      -0.445684       -12.1277
 212   2.0000      -0.442657       -12.0453
 213   2.0000      -0.440027       -11.9737
 214   2.0000      -0.438081       -11.9208
 215   2.0000      -0.437656       -11.9092
 216   2.0000      -0.435094       -11.8395
 217   2.0000      -0.433384       -11.7930
 218   2.0000      -0.431281       -11.7358
 219   2.0000      -0.422654       -11.5010
 220   2.0000      -0.422310       -11.4916
 221   2.0000      -0.420311       -11.4373
 222   2.0000      -0.418648       -11.3920
 223   2.0000      -0.417330       -11.3561
 224   2.0000      -0.414691       -11.2843
 225   2.0000      -0.409160       -11.1338
 226   2.0000      -0.407684       -11.0936
 227   2.0000      -0.406875       -11.0716
 228   2.0000      -0.401026       -10.9125
 229   2.0000      -0.390888       -10.6366
 230   2.0000      -0.389506       -10.5990
 231   2.0000      -0.387512       -10.5447
 232   2.0000      -0.376788       -10.2529
 233   2.0000      -0.374603       -10.1935
 234   2.0000      -0.367050        -9.9879
 235   2.0000      -0.359475        -9.7818
 236   2.0000      -0.357485        -9.7277
 237   2.0000      -0.350957        -9.5500
 238   2.0000      -0.348027        -9.4703
 239   2.0000      -0.342574        -9.3219
 240   2.0000      -0.339600        -9.2410
 241   2.0000      -0.339343        -9.2340
 242   2.0000      -0.332956        -9.0602
 243   2.0000      -0.331679        -9.0254
 244   2.0000      -0.321969        -8.7612
 245   2.0000      -0.316086        -8.6011
 246   2.0000      -0.314261        -8.5515
 247   2.0000      -0.306089        -8.3291
 248   2.0000      -0.301530        -8.2050
 249   2.0000      -0.239113        -6.5066
 250   0.0000      -0.106107        -2.8873
 251   0.0000      -0.096243        -2.6189
 252   0.0000      -0.085483        -2.3261
 253   0.0000      -0.058888        -1.6024
 254   0.0000      -0.054373        -1.4796

MULLIKEN ATOMIC CHARGES
-----------------------
   0 C :    0.032470
   1 C :   -0.127594
   2 S :    0.192537
   3 C :   -0.167961
   4 Cl:    0.004707
   5 C :    0.072935
   6 C :    0.143185
   7 O :   -0.124709
   8 C :   -0.081565
   9 C :    0.285777
  10 C :   -0.324827
  11 C :   -0.191158
  12 N :    0.157961
  13 C :   -0.193190
  14 N :    0.167721
  15 C :   -0.038022
  16 C :    0.066331
  17 C :   -0.061143
  18 C :    0.141524
  19 N :    0.250760
  20 O :   -0.227002
  21 O :   -0.237403
  22 C :    0.075925
  23 C :   -0.054009
  24 C :    0.107874
  25 C :   -0.000601
  26 C :   -0.032651
  27 C :    0.108310
  28 N :   -0.262171
  29 C :    0.096434
  30 C :    0.000498
  31 C :    0.164637
  32 O :   -0.217664
  33 C :   -0.060838
  34 C :   -0.043139
  35 C :    0.154061
  36 O :   -0.190198
  37 N :   -0.265219
  38 C :    0.097694
  39 C :   -0.003839
  40 C :    0.128540
  41 C :   -0.015418
  42 C :    0.077401
  43 C :   -0.142028
  44 C :   -0.002648
  45 C :    0.155757
  46 O :   -0.179696
  47 O :   -0.152452
  48 C :    0.037990
  49 C :   -0.072731
  50 S :    0.219798
  51 C :   -0.054254
  52 C :   -0.144415
  53 C :    0.133511
  54 O :   -0.126435
  55 C :    0.096173
  56 C :   -0.173724
  57 S :    0.189528
  58 C :   -0.118482
  59 C :    0.018252
  60 C :    0.289462
  61 C :   -0.304310
  62 C :   -0.184074
  63 N :    0.167552
  64 C :   -0.176530
  65 N :    0.175333
  66 Cl:    0.001319
  67 H :    0.055684
  68 H :    0.036423
  69 H :    0.012388
  70 H :    0.005096
  71 H :   -0.002643
  72 H :    0.007573
  73 H :    0.015880
  74 H :    0.021335
  75 H :    0.038127
  76 H :    0.039134
  77 H :    0.023269
  78 H :    0.023203
  79 H :    0.022482
  80 H :    0.039985
  81 H :    0.037700
  82 H :    0.021855
  83 H :    0.022819
  84 H :   -0.009508
  85 H :    0.009257
  86 H :    0.193185
  87 H :    0.038493
  88 H :    0.032376
  89 H :    0.056028
Sum of atomic charges:    0.0000000

LOEWDIN ATOMIC CHARGES
----------------------
   0 C :   -0.060187
   1 C :   -0.147945
   2 S :    0.481318
   3 C :   -0.271101
   4 Cl:    0.196179
   5 C :   -0.118153
   6 C :    0.080209
   7 O :   -0.121625
   8 C :   -0.081733
   9 C :    0.073790
  10 C :   -0.131191
  11 C :   -0.014866
  12 N :   -0.047004
  13 C :   -0.026273
  14 N :   -0.039332
  15 C :    0.078501
  16 C :   -0.041568
  17 C :    0.027125
  18 C :   -0.033956
  19 N :    0.287347
  20 O :   -0.195421
  21 O :   -0.194828
  22 C :    0.014545
  23 C :   -0.006399
  24 C :    0.046410
  25 C :   -0.011714
  26 C :   -0.012453
  27 C :    0.065143
  28 N :    0.000468
  29 C :    0.034344
  30 C :   -0.063347
  31 C :    0.081784
  32 O :   -0.204389
  33 C :   -0.127470
  34 C :   -0.106539
  35 C :    0.081324
  36 O :   -0.191395
  37 N :   -0.001672
  38 C :    0.035201
  39 C :   -0.061899
  40 C :    0.086756
  41 C :   -0.028464
  42 C :    0.002492
  43 C :   -0.138965
  44 C :   -0.111376
  45 C :    0.083026
  46 O :   -0.147894
  47 O :   -0.023137
  48 C :   -0.083258
  49 C :   -0.149703
  50 S :    0.529739
  51 C :    0.042864
  52 C :   -0.072434
  53 C :    0.081467
  54 O :   -0.131244
  55 C :   -0.119805
  56 C :   -0.271344
  57 S :    0.480553
  58 C :   -0.146709
  59 C :   -0.051902
  60 C :    0.057709
  61 C :   -0.112188
  62 C :   -0.010155
  63 N :   -0.039444
  64 C :   -0.016354
  65 N :   -0.039991
  66 Cl:    0.193391
  67 H :    0.038362
  68 H :    0.049040
  69 H :    0.044193
  70 H :    0.040768
  71 H :    0.037552
  72 H :    0.028284
  73 H :    0.046132
  74 H :    0.021067
  75 H :    0.035656
  76 H :    0.025297
  77 H :    0.031958
  78 H :    0.030959
  79 H :    0.022689
  80 H :    0.036362
  81 H :    0.027324
  82 H :    0.031401
  83 H :    0.029897
  84 H :    0.030598
  85 H :    0.037480
  86 H :    0.097592
  87 H :    0.033538
  88 H :    0.049047
  89 H :    0.039942

  Mayer bond orders larger than 0.100000
B(  0-C ,  1-C ) :   1.5407 B(  0-C ,  5-C ) :   1.2203 B(  0-C ,  9-C ) :   1.0037
B(  1-C ,  2-S ) :   1.1654 B(  1-C , 67-H ) :   0.9541 B(  2-S ,  3-C ) :   1.1541
B(  3-C ,  4-Cl) :   1.1319 B(  3-C ,  5-C ) :   1.4744 B(  5-C ,  6-C ) :   0.9531
B(  6-C ,  7-O ) :   2.2445 B(  6-C ,  8-C ) :   0.9200 B(  8-C ,  9-C ) :   1.0471
B(  8-C , 15-C ) :   1.6829 B(  9-C , 10-C ) :   1.6705 B( 10-C , 11-C ) :   1.1439
B( 10-C , 13-C ) :   1.1323 B( 11-C , 12-N ) :   2.9917 B( 13-C , 14-N ) :   2.9841
B( 15-C , 16-C ) :   1.0615 B( 15-C , 68-H ) :   0.9496 B( 16-C , 17-C ) :   1.2837
B( 16-C , 24-C ) :   1.3177 B( 17-C , 18-C ) :   1.3732 B( 17-C , 69-H ) :   0.9989
B( 18-C , 19-N ) :   0.8849 B( 18-C , 22-C ) :   1.3253 B( 19-N , 20-O ) :   1.5623
B( 19-N , 21-O ) :   1.4999 B( 20-O , 21-O ) :   0.2618 B( 22-C , 23-C ) :   1.3267
B( 22-C , 25-C ) :   1.0757 B( 23-C , 24-C ) :   1.4240 B( 23-C , 70-H ) :   0.9917
B( 24-C , 71-H ) :   0.9826 B( 25-C , 26-C ) :   1.6351 B( 25-C , 72-H ) :   0.9522
B( 26-C , 27-C ) :   1.1736 B( 26-C , 73-H ) :   0.9448 B( 27-C , 28-N ) :   1.1654
B( 27-C , 34-C ) :   1.3595 B( 28-N , 29-C ) :   0.9390 B( 28-N , 31-C ) :   1.0668
B( 29-C , 30-C ) :   1.1199 B( 29-C , 74-H ) :   0.9499 B( 29-C , 75-H ) :   0.9237
B( 30-C , 76-H ) :   0.9653 B( 30-C , 77-H ) :   0.9672 B( 30-C , 78-H ) :   0.9589
B( 31-C , 32-O ) :   2.0081 B( 31-C , 33-C ) :   0.9919 B( 32-O , 85-H ) :   0.1177
B( 33-C , 34-C ) :   1.2439 B( 33-C , 40-C ) :   1.3215 B( 34-C , 35-C ) :   0.9719
B( 35-C , 36-O ) :   2.1283 B( 35-C , 37-N ) :   1.0352 B( 37-N , 38-C ) :   0.9403
B( 37-N , 40-C ) :   1.1730 B( 38-C , 39-C ) :   1.1184 B( 38-C , 79-H ) :   0.9492
B( 38-C , 80-H ) :   0.9273 B( 39-C , 81-H ) :   0.9643 B( 39-C , 82-H ) :   0.9662
B( 39-C , 83-H ) :   0.9617 B( 40-C , 41-C ) :   1.1733 B( 41-C , 42-C ) :   1.6306
B( 41-C , 84-H ) :   0.9536 B( 42-C , 43-C ) :   1.1352 B( 42-C , 85-H ) :   0.9207
B( 43-C , 44-C ) :   1.4882 B( 43-C , 50-S ) :   1.1854 B( 44-C , 45-C ) :   0.9087
B( 44-C , 48-C ) :   1.2526 B( 45-C , 46-O ) :   2.1062 B( 45-C , 47-O ) :   1.2365
B( 47-O , 86-H ) :   0.9453 B( 48-C , 49-C ) :   1.4933 B( 48-C , 51-C ) :   1.0076
B( 49-C , 50-S ) :   1.2068 B( 49-C , 87-H ) :   0.9722 B( 51-C , 52-C ) :   1.7697
B( 51-C , 88-H ) :   0.9497 B( 52-C , 53-C ) :   0.9257 B( 52-C , 60-C ) :   0.9916
B( 53-C , 54-O ) :   2.2849 B( 53-C , 55-C ) :   0.9285 B( 55-C , 56-C ) :   1.4689
B( 55-C , 59-C ) :   1.2250 B( 56-C , 57-S ) :   1.1595 B( 56-C , 66-Cl) :   1.1308
B( 57-S , 58-C ) :   1.1568 B( 58-C , 59-C ) :   1.5572 B( 58-C , 89-H ) :   0.9553
B( 59-C , 60-C ) :   1.0186 B( 60-C , 61-C ) :   1.7007 B( 61-C , 62-C ) :   1.1363
B( 61-C , 64-C ) :   1.1583 B( 62-C , 63-N ) :   3.0059 B( 64-C , 65-N ) :   3.0010

-----------------------------------------------------------------------------
         ABSORPTION SPECTRUM VIA TRANSITION ELECTRIC DIPOLE MOMENTS
-----------------------------------------------------------------------------
State   Energy  Wavelength   fosc         T2         TX        TY        TZ
        (cm-1)    (nm)                  (au**2)     (au)      (au)      (au)
-----------------------------------------------------------------------------
   0   15012.1    666.1   0.958182347  21.01267  -2.13713   3.64519   1.77706
   1   18145.1    551.1   0.020608043   0.37390  -0.48789   0.06470  -0.36287
   2   19965.0    500.9   0.063066747   1.03993  -0.14206   0.14912  -0.99876
   3   24071.5    415.4   0.021197708   0.28991   0.14520   0.38157  -0.35104
   4   26079.0    383.5   0.169545792   2.14029   0.77430  -1.23634   0.11048
   5   26244.5    381.0   0.146076783   1.83239  -0.40807   1.27936   0.17059
   6   26588.8    376.1   0.123860813   1.53360  -0.54662  -1.00969  -0.46403
   7   28027.3    356.8   0.005422342   0.06369  -0.03840   0.24931   0.00778
   8   28392.4    352.2   0.017567369   0.20370  -0.23500   0.38144   0.05450
   9   28551.9    350.2   0.003040116   0.03505  -0.05895   0.13123   0.11982
  10   28916.3    345.8   0.220391751   2.50916   0.89703  -1.10769  -0.69103
  11   29058.4    344.1   0.085051326   0.96357  -0.36380   0.88260   0.22856
  12   29229.2    342.1   0.015473267   0.17428  -0.16358   0.32297  -0.20787
  13   30032.7    333.0   0.068419388   0.75000  -0.45331   0.72991  -0.10833
  14   30182.3    331.3   0.491905669   5.36543   1.22736  -1.69281   0.99669
  15   30628.0    326.5   0.062403649   0.67076  -0.48295   0.65565   0.08743
  16   31515.3    317.3   0.070954792   0.74120  -0.51961  -0.41180  -0.54921
  17   32059.8    311.9   0.000963512   0.00989  -0.00883  -0.09029   0.04079
  18   32895.7    304.0   0.019418041   0.19433  -0.12997  -0.30137   0.29430
  19   33354.9    299.8   0.038820916   0.38316  -0.39851   0.43979  -0.17586
  20   33514.5    298.4   0.064160448   0.63025   0.04893  -0.38197  -0.69423
  21   34149.4    292.8   0.091063251   0.87788  -0.28084   0.86937   0.20785
  22   34699.7    288.2   0.056806546   0.53895   0.35825  -0.00220  -0.64078
  23   34996.3    285.7   0.142043604   1.33621   0.58624  -0.52619   0.84596
  24   35140.7    284.6   0.020744626   0.19434   0.23595  -0.35647  -0.10770
  25   35445.5    282.1   0.066097974   0.61391   0.47566  -0.62031  -0.05361
  26   35706.7    280.1   0.080042844   0.73799   0.53713  -0.15256  -0.65284
  27   35839.6    279.0   0.023261276   0.21367  -0.08289   0.29033   0.35001
  28   36172.8    276.5   0.120865159   1.10000  -0.50482   0.80449  -0.44492
  29   36379.7    274.9   0.124843945   1.12975   0.55857  -0.84528  -0.32132
  30   36945.3    270.7   0.608632653   5.42340  -0.58359   0.55655   2.18474
  31   37097.4    269.6   0.416988242   3.70046   0.25205   0.50794   1.83819
  32   37421.1    267.2   0.038799178   0.34134  -0.09960   0.29339   0.49531
  33   37864.1    264.1   0.100211987   0.87130   0.32087  -0.22647  -0.84679
  34   38182.6    261.9   0.169277843   1.45952  -0.44096   0.21671   1.10368
  35   38280.6    261.2   0.017474054   0.15028  -0.12394  -0.36717   0.01012
  36   38437.5    260.2   0.178998123   1.53309   0.15307   0.37667   1.16952
  37   38660.6    258.7   0.080381080   0.68448   0.11006   0.17333  -0.80145
  38   38891.3    257.1   0.013252637   0.11218  -0.25739  -0.01062  -0.21406
  39   38985.6    256.5   0.044369057   0.37467  -0.20880   0.05484  -0.57277
  40   39337.0    254.2   0.010977554   0.09187   0.09583   0.19562  -0.21076
  41   39385.2    253.9   0.009109535   0.07614  -0.04059  -0.06345   0.26546
  42   40046.9    249.7   0.003854951   0.03169   0.08405  -0.04831   0.14931

FINAL SINGLE POINT ENERGY     -4900.584467330191

DIPOLE MOMENT
-------------
                                X             Y             Z
Electronic contribution:     -7.58696      -3.67931     -36.96863
Nuclear contribution   :      9.74832       3.10620      34.44018
                        -----------------------------------------
Total Dipole Moment    :      2.16136      -0.57310      -2.52846
                        -----------------------------------------
Magnitude (a.u.)       :      3.37535
Magnitude (Debye)      :      8.57947

Rotational constants in cm-1:     0.001994     0.000262     0.000239
Rotational constants in MHz :    59.766462     7.854307     7.155513

                             ****ORCA TERMINATED NORMALLY****
TOTAL RUN TIME: 0 days 0 hours 8 minutes 24 seconds 153 msec
