                         Program Version 4.2.0 -  RELEASE  -
|  1> # ORCA input file
|  2> # SCF done       -200.083368805196          0.000546720836
|  3> ! CAM-B3LYP def2-SVP def2/J RIJCOSX Grid4 TightSCF
|  4> %maxcore 5000
|  5> %tddft
|  6>     Mode sTDDFT
|  7>     Ethresh 5.0
|  8>     maxcore 5000
|  9> end
| 10>
| 11> %pal
| 12>   nprocs 6
| 13>   end
| 14> * xyz 0 1
| 15>    C        1.85137         6.32989         3.15653
| 16>    C        0.80532         6.96867         2.55861
| 17>    C        0.36610         8.26135         2.92215
| 18>    N       -0.03875         9.30915         3.15834
| 19>    C        0.01700         6.49196         1.49166
| 20>    N       -0.72580         6.19124         0.66953
| 21>    C        2.67509         6.89109         4.22512
| 22>    C        3.84296         6.08931         4.39471
| 23>    C        4.78605         6.37091         5.34280
| 24>    C        4.59966         7.48816         6.18470
| 25>    C        3.43495         8.29349         6.02692
| 26>    C        2.47703         7.97696         5.03649
| 27>    C        3.25550         9.39887         6.88377
| 28>    C        4.17831         9.69345         7.84997
| 29>    C        5.32371         8.89761         8.00550
| 30>    C        5.53045         7.81908         7.18972
| 31>    C        3.79252         4.96861         3.45644
| 32>    O        4.63157         4.11998         3.23576
| 33>    C        2.44919         5.05303         2.79814
| 34>    C        2.07395         3.98299         2.07673
| 35>    C        0.85330         3.63291         1.38124
| 36>    C       -0.41974         3.66997         1.93980
| 37>    C       -0.88226         4.14297         3.26249
| 38>    O       -0.24627         4.60216         4.17154
| 39>    O       -2.22138         3.97409         3.31734
| 40>    C       -2.73097         3.43623         2.10739
| 41>    C       -1.53451         3.21681         1.24008
| 42>    C       -1.42076         2.70026        -0.03442
| 43>    C       -0.15836         2.65045        -0.60641
| 44>    C        0.96397         3.10502         0.07828
| 45>    C        2.30283         3.14621        -0.49965
| 46>    N        3.00146         2.06111        -0.95591
| 47>    C        2.51669         0.70893        -1.08655
| 48>    C        2.19330         0.37256        -2.54005
| 49>    C        4.34564         2.39343        -1.24051
| 50>    O        5.17044         1.56574        -1.58527
| 51>    C        4.42618         3.80804        -0.98928
| 52>    C        3.14489         4.23683        -0.52572
| 53>    C        3.22203         5.65922        -0.27515
| 54>    O        2.41653         6.46157         0.14941
| 55>    N        4.53936         6.00278        -0.62479
| 56>    C        4.96730         7.37968        -0.53722
| 57>    C        5.30618         7.77710         0.89657
| 58>    C        5.27245         4.90890        -1.00493
| 59>    C        6.67390         4.93562        -1.29221
| 60>    C        7.35793         3.80158        -1.49865
| 61>    C        8.79675         3.71546        -1.73256
| 62>    C        9.36185         4.15520        -2.92054
| 63>    C        8.74136         4.83618        -4.07953
| 64>    O        7.60910         5.19305        -4.23873
| 65>    O        9.71218         5.03424        -5.00635
| 66>    C       10.96569         4.53547        -4.56853
| 67>    C       10.71355         3.97455        -3.20688
| 68>    C       11.55270         3.35768        -2.29992
| 69>    C       11.01942         2.95116        -1.08906
| 70>    C        9.66262         3.12103        -0.77885
| 71>    C        9.08780         2.86802         0.51763
| 72>    C        9.55196         2.30391         1.66297
| 73>    C        8.81163         2.38670         2.92354
| 74>    C        7.87818         3.33380         3.24750
| 75>    C        7.32228         3.47799         4.53688
| 76>    N        6.89727         3.67700         5.58419
| 77>    C        7.45972         4.37941         2.39889
| 78>    N        7.14189         5.29258         1.77945
| 79>    C        9.37289         1.40861         3.84141
| 80>    C       10.52697         0.83817         3.23506
| 81>    C       10.72683         1.41639         1.89569
| 82>    O       11.65501         1.17577         1.15362
| 83>    C       11.28713        -0.10002         3.87321
| 84>    C       10.91565        -0.52015         5.16944
| 85>    C        9.75151         0.03498         5.77667
| 86>    C        8.98461         1.00447         5.09163
| 87>    C        9.38945        -0.39644         7.06927
| 88>    C       10.14111        -1.32713         7.73308
| 89>    C       11.28742        -1.87200         7.13489
| 90>    C       11.66608        -1.47742         5.88055
| 91>    H        5.65017         5.73431         5.46344
| 92>    H        1.59602         8.59357         4.95836
| 93>    H        2.37249        10.00877         6.76128
| 94>    H        4.03033        10.54130         8.50226
| 95>    H        6.03939         9.14359         8.77603
| 96>    H        6.40740         7.19863         7.30291
| 97>    H        2.85567         3.22737         2.00043
| 98>    H       -3.42524         4.16065         1.66699
| 99>    H       -3.27779         2.51491         2.33539
|100>    H       -2.28685         2.35906        -0.57898
|101>    H       -0.04684         2.28151        -1.61448
|102>    H        1.63608         0.58918        -0.45054
|103>    H        3.31067         0.04276        -0.73488
|104>    H        1.44216         1.05023        -2.93931
|105>    H        1.82139        -0.64585        -2.61062
|106>    H        3.09320         0.45963        -3.14330
|107>    H        4.13105         7.99040        -0.89323
|108>    H        5.81987         7.53212        -1.20016
|109>    H        4.41671         7.70424         1.51837
|110>    H        5.66141         8.80377         0.91995
|111>    H        6.07082         7.12248         1.30363
|112>    H        7.18307         5.88714        -1.27550
|113>    H        6.83865         2.84849        -1.49042
|114>    H       11.68920         5.35860        -4.56002
|115>    H       11.31205         3.77587        -5.27852
|116>    H       12.59778         3.20478        -2.51853
|117>    H       11.66388         2.48281        -0.36326
|118>    H        8.07845         3.26136         0.58546
|119>    H       12.16223        -0.51475         3.39521
|120>    H        8.10207         1.40002         5.56925
|121>    H        8.50772         0.02784         7.52658
|122>    H        9.85709        -1.64869         8.72386
|123>    H       11.86843        -2.60591         7.67301
|124>    H       12.54746        -1.89357         5.41489
|125> *
|126>
|127>                          ****END OF INPUT****

CARTESIAN COORDINATES (ANGSTROEM)
---------------------------------
  C      1.851370    6.329890    3.156530
  C      0.805320    6.968670    2.558610
  C      0.366100    8.261350    2.922150
  N     -0.038750    9.309150    3.158340
  C      0.017000    6.491960    1.491660
  N     -0.725800    6.191240    0.669530
  C      2.675090    6.891090    4.225120
  C      3.842960    6.089310    4.394710
  C      4.786050    6.370910    5.342800
  C      4.599660    7.488160    6.184700
  C      3.434950    8.293490    6.026920
  C      2.477030    7.976960    5.036490
  C      3.255500    9.398870    6.883770
  C      4.178310    9.693450    7.849970
  C      5.323710    8.897610    8.005500
  C      5.530450    7.819080    7.189720
  C      3.792520    4.968610    3.456440
  O      4.631570    4.119980    3.235760
  C      2.449190    5.053030    2.798140
  C      2.073950    3.982990    2.076730
  C      0.853300    3.632910    1.381240
  C     -0.419740    3.669970    1.939800
  C     -0.882260    4.142970    3.262490
  O     -0.246270    4.602160    4.171540
  O     -2.221380    3.974090    3.317340
  C     -2.730970    3.436230    2.107390
  C     -1.534510    3.216810    1.240080
  C     -1.420760    2.700260   -0.034420
  C     -0.158360    2.650450   -0.606410
  C      0.963970    3.105020    0.078280
  C      2.302830    3.146210   -0.499650
  N      3.001460    2.061110   -0.955910
  C      2.516690    0.708930   -1.086550
  C      2.193300    0.372560   -2.540050
  C      4.345640    2.393430   -1.240510
  O      5.170440    1.565740   -1.585270
  C      4.426180    3.808040   -0.989280
  C      3.144890    4.236830   -0.525720
  C      3.222030    5.659220   -0.275150
  O      2.416530    6.461570    0.149410
  N      4.539360    6.002780   -0.624790
  C      4.967300    7.379680   -0.537220
  C      5.306180    7.777100    0.896570
  C      5.272450    4.908900   -1.004930
  C      6.673900    4.935620   -1.292210
  C      7.357930    3.801580   -1.498650
  C      8.796750    3.715460   -1.732560
  C      9.361850    4.155200   -2.920540
  C      8.741360    4.836180   -4.079530
  O      7.609100    5.193050   -4.238730
  O      9.712180    5.034240   -5.006350
  C     10.965690    4.535470   -4.568530
  C     10.713550    3.974550   -3.206880
  C     11.552700    3.357680   -2.299920
  C     11.019420    2.951160   -1.089060
  C      9.662620    3.121030   -0.778850
  C      9.087800    2.868020    0.517630
  C      9.551960    2.303910    1.662970
  C      8.811630    2.386700    2.923540
  C      7.878180    3.333800    3.247500
  C      7.322280    3.477990    4.536880
  N      6.897270    3.677000    5.584190
  C      7.459720    4.379410    2.398890
  N      7.141890    5.292580    1.779450
  C      9.372890    1.408610    3.841410
  C     10.526970    0.838170    3.235060
  C     10.726830    1.416390    1.895690
  O     11.655010    1.175770    1.153620
  C     11.287130   -0.100020    3.873210
  C     10.915650   -0.520150    5.169440
  C      9.751510    0.034980    5.776670
  C      8.984610    1.004470    5.091630
  C      9.389450   -0.396440    7.069270
  C     10.141110   -1.327130    7.733080
  C     11.287420   -1.872000    7.134890
  C     11.666080   -1.477420    5.880550
  H      5.650170    5.734310    5.463440
  H      1.596020    8.593570    4.958360
  H      2.372490   10.008770    6.761280
  H      4.030330   10.541300    8.502260
  H      6.039390    9.143590    8.776030
  H      6.407400    7.198630    7.302910
  H      2.855670    3.227370    2.000430
  H     -3.425240    4.160650    1.666990
  H     -3.277790    2.514910    2.335390
  H     -2.286850    2.359060   -0.578980
  H     -0.046840    2.281510   -1.614480
  H      1.636080    0.589180   -0.450540
  H      3.310670    0.042760   -0.734880
  H      1.442160    1.050230   -2.939310
  H      1.821390   -0.645850   -2.610620
  H      3.093200    0.459630   -3.143300
  H      4.131050    7.990400   -0.893230
  H      5.819870    7.532120   -1.200160
  H      4.416710    7.704240    1.518370
  H      5.661410    8.803770    0.919950
  H      6.070820    7.122480    1.303630
  H      7.183070    5.887140   -1.275500
  H      6.838650    2.848490   -1.490420
  H     11.689200    5.358600   -4.560020
  H     11.312050    3.775870   -5.278520
  H     12.597780    3.204780   -2.518530
  H     11.663880    2.482810   -0.363260
  H      8.078450    3.261360    0.585460
  H     12.162230   -0.514750    3.395210
  H      8.102070    1.400020    5.569250
  H      8.507720    0.027840    7.526580
  H      9.857090   -1.648690    8.723860
  H     11.868430   -2.605910    7.673010
  H     12.547460   -1.893570    5.414890

 Total Charge           Charge          ....    0
 Multiplicity           Mult            ....    1
 Number of Electrons    NEL             ....  512
 Basis Dimension        Dim             .... 1234

ORBITAL ENERGIES
----------------

  NO   OCC          E(Eh)            E(eV)
   0   2.0000     -19.260694      -524.1101
   1   2.0000     -19.253656      -523.9186
   2   2.0000     -19.224528      -523.1260
   3   2.0000     -19.203600      -522.5565
   4   2.0000     -19.198551      -522.4191
   5   2.0000     -19.193494      -522.2815
   6   2.0000     -19.187458      -522.1173
   7   2.0000     -19.186532      -522.0921
   8   2.0000     -14.454147      -393.3173
   9   2.0000     -14.447714      -393.1423
  10   2.0000     -14.417553      -392.3216
  11   2.0000     -14.415764      -392.2729
  12   2.0000     -14.394573      -391.6962
  13   2.0000     -14.392207      -391.6319
  14   2.0000     -10.400087      -283.0008
  15   2.0000     -10.393665      -282.8260
  16   2.0000     -10.376374      -282.3555
  17   2.0000     -10.369807      -282.1768
  18   2.0000     -10.368568      -282.1431
  19   2.0000     -10.350462      -281.6504
  20   2.0000     -10.348748      -281.6038
  21   2.0000     -10.344462      -281.4871
  22   2.0000     -10.342834      -281.4428
  23   2.0000     -10.337874      -281.3079
  24   2.0000     -10.337688      -281.3028
  25   2.0000     -10.335346      -281.2391
  26   2.0000     -10.323145      -280.9070
  27   2.0000     -10.320828      -280.8440
  28   2.0000     -10.320499      -280.8350
  29   2.0000     -10.319794      -280.8159
  30   2.0000     -10.317675      -280.7582
  31   2.0000     -10.314928      -280.6835
  32   2.0000     -10.309809      -280.5442
  33   2.0000     -10.308200      -280.5004
  34   2.0000     -10.306444      -280.4526
  35   2.0000     -10.305847      -280.4364
  36   2.0000     -10.305652      -280.4311
  37   2.0000     -10.305162      -280.4177
  38   2.0000     -10.301330      -280.3134
  39   2.0000     -10.301127      -280.3079
  40   2.0000     -10.301106      -280.3073
  41   2.0000     -10.300662      -280.2953
  42   2.0000     -10.300171      -280.2819
  43   2.0000     -10.297683      -280.2142
  44   2.0000     -10.297505      -280.2094
  45   2.0000     -10.296436      -280.1803
  46   2.0000     -10.296397      -280.1792
  47   2.0000     -10.296389      -280.1790
  48   2.0000     -10.295325      -280.1500
  49   2.0000     -10.294921      -280.1390
  50   2.0000     -10.294653      -280.1317
  51   2.0000     -10.294017      -280.1144
  52   2.0000     -10.292717      -280.0791
  53   2.0000     -10.291011      -280.0326
  54   2.0000     -10.289820      -280.0002
  55   2.0000     -10.289596      -279.9941
  56   2.0000     -10.289347      -279.9874
  57   2.0000     -10.289042      -279.9791
  58   2.0000     -10.288476      -279.9637
  59   2.0000     -10.288471      -279.9635
  60   2.0000     -10.286847      -279.9193
  61   2.0000     -10.284053      -279.8433
  62   2.0000     -10.281912      -279.7850
  63   2.0000     -10.280342      -279.7423
  64   2.0000     -10.279027      -279.7065
  65   2.0000     -10.276521      -279.6383
  66   2.0000     -10.276219      -279.6301
  67   2.0000     -10.270874      -279.4847
  68   2.0000     -10.270544      -279.4757
  69   2.0000     -10.270288      -279.4688
  70   2.0000     -10.269898      -279.4581
  71   2.0000     -10.269273      -279.4411
  72   2.0000     -10.261032      -279.2169
  73   2.0000     -10.257366      -279.1171
  74   2.0000     -10.252255      -278.9780
  75   2.0000     -10.233773      -278.4751
  76   2.0000      -1.194787       -32.5118
  77   2.0000      -1.188748       -32.3475
  78   2.0000      -1.139713       -31.0132
  79   2.0000      -1.129820       -30.7440
  80   2.0000      -1.123016       -30.5588
  81   2.0000      -1.116301       -30.3761
  82   2.0000      -1.105731       -30.0885
  83   2.0000      -1.099492       -29.9187
  84   2.0000      -1.060804       -28.8659
  85   2.0000      -1.051725       -28.6189
  86   2.0000      -1.021177       -27.7876
  87   2.0000      -1.001635       -27.2559
  88   2.0000      -0.997409       -27.1409
  89   2.0000      -0.996093       -27.1051
  90   2.0000      -0.989436       -26.9239
  91   2.0000      -0.981244       -26.7010
  92   2.0000      -0.978815       -26.6349
  93   2.0000      -0.974026       -26.5046
  94   2.0000      -0.970778       -26.4162
  95   2.0000      -0.952117       -25.9084
  96   2.0000      -0.929868       -25.3030
  97   2.0000      -0.924903       -25.1679
  98   2.0000      -0.918414       -24.9913
  99   2.0000      -0.908884       -24.7320
 100   2.0000      -0.905668       -24.6445
 101   2.0000      -0.897818       -24.4309
 102   2.0000      -0.890212       -24.2239
 103   2.0000      -0.884983       -24.0816
 104   2.0000      -0.883886       -24.0517
 105   2.0000      -0.870594       -23.6901
 106   2.0000      -0.869485       -23.6599
 107   2.0000      -0.862305       -23.4645
 108   2.0000      -0.859162       -23.3790
 109   2.0000      -0.855424       -23.2773
 110   2.0000      -0.835769       -22.7424
 111   2.0000      -0.831653       -22.6304
 112   2.0000      -0.823907       -22.4196
 113   2.0000      -0.821087       -22.3429
 114   2.0000      -0.811318       -22.0771
 115   2.0000      -0.810640       -22.0586
 116   2.0000      -0.799603       -21.7583
 117   2.0000      -0.789745       -21.4901
 118   2.0000      -0.777970       -21.1696
 119   2.0000      -0.766261       -20.8510
 120   2.0000      -0.764889       -20.8137
 121   2.0000      -0.751205       -20.4413
 122   2.0000      -0.744355       -20.2549
 123   2.0000      -0.737784       -20.0761
 124   2.0000      -0.732804       -19.9406
 125   2.0000      -0.730078       -19.8664
 126   2.0000      -0.707076       -19.2405
 127   2.0000      -0.704890       -19.1810
 128   2.0000      -0.702154       -19.1066
 129   2.0000      -0.699646       -19.0383
 130   2.0000      -0.695045       -18.9131
 131   2.0000      -0.693178       -18.8623
 132   2.0000      -0.686722       -18.6867
 133   2.0000      -0.684822       -18.6349
 134   2.0000      -0.677939       -18.4477
 135   2.0000      -0.676624       -18.4119
 136   2.0000      -0.669160       -18.2088
 137   2.0000      -0.653379       -17.7794
 138   2.0000      -0.647833       -17.6284
 139   2.0000      -0.643936       -17.5224
 140   2.0000      -0.643195       -17.5022
 141   2.0000      -0.632872       -17.2213
 142   2.0000      -0.626109       -17.0373
 143   2.0000      -0.617263       -16.7966
 144   2.0000      -0.615959       -16.7611
 145   2.0000      -0.610382       -16.6093
 146   2.0000      -0.605025       -16.4636
 147   2.0000      -0.603418       -16.4198
 148   2.0000      -0.597980       -16.2719
 149   2.0000      -0.592708       -16.1284
 150   2.0000      -0.592150       -16.1132
 151   2.0000      -0.589600       -16.0438
 152   2.0000      -0.587619       -15.9899
 153   2.0000      -0.584939       -15.9170
 154   2.0000      -0.580611       -15.7992
 155   2.0000      -0.574774       -15.6404
 156   2.0000      -0.574392       -15.6300
 157   2.0000      -0.571916       -15.5626
 158   2.0000      -0.569563       -15.4986
 159   2.0000      -0.565278       -15.3820
 160   2.0000      -0.556420       -15.1410
 161   2.0000      -0.552479       -15.0337
 162   2.0000      -0.549667       -14.9572
 163   2.0000      -0.547785       -14.9060
 164   2.0000      -0.546022       -14.8580
 165   2.0000      -0.540580       -14.7099
 166   2.0000      -0.537227       -14.6187
 167   2.0000      -0.535117       -14.5613
 168   2.0000      -0.534272       -14.5383
 169   2.0000      -0.529687       -14.4135
 170   2.0000      -0.528414       -14.3789
 171   2.0000      -0.527164       -14.3449
 172   2.0000      -0.525454       -14.2983
 173   2.0000      -0.523968       -14.2579
 174   2.0000      -0.521769       -14.1980
 175   2.0000      -0.519877       -14.1466
 176   2.0000      -0.516428       -14.0527
 177   2.0000      -0.516205       -14.0467
 178   2.0000      -0.512767       -13.9531
 179   2.0000      -0.510614       -13.8945
 180   2.0000      -0.508294       -13.8314
 181   2.0000      -0.505011       -13.7420
 182   2.0000      -0.504082       -13.7168
 183   2.0000      -0.502202       -13.6656
 184   2.0000      -0.499972       -13.6049
 185   2.0000      -0.498678       -13.5697
 186   2.0000      -0.497837       -13.5468
 187   2.0000      -0.494784       -13.4638
 188   2.0000      -0.492742       -13.4082
 189   2.0000      -0.492226       -13.3942
 190   2.0000      -0.490039       -13.3346
 191   2.0000      -0.488876       -13.3030
 192   2.0000      -0.485585       -13.2134
 193   2.0000      -0.481480       -13.1017
 194   2.0000      -0.472699       -12.8628
 195   2.0000      -0.471827       -12.8391
 196   2.0000      -0.469265       -12.7693
 197   2.0000      -0.467741       -12.7279
 198   2.0000      -0.466556       -12.6956
 199   2.0000      -0.466144       -12.6844
 200   2.0000      -0.463912       -12.6237
 201   2.0000      -0.461509       -12.5583
 202   2.0000      -0.460127       -12.5207
 203   2.0000      -0.456123       -12.4117
 204   2.0000      -0.454255       -12.3609
 205   2.0000      -0.451751       -12.2928
 206   2.0000      -0.451268       -12.2796
 207   2.0000      -0.448633       -12.2079
 208   2.0000      -0.444842       -12.1048
 209   2.0000      -0.443227       -12.0608
 210   2.0000      -0.442839       -12.0503
 211   2.0000      -0.441863       -12.0237
 212   2.0000      -0.435984       -11.8637
 213   2.0000      -0.434540       -11.8244
 214   2.0000      -0.433942       -11.8082
 215   2.0000      -0.430534       -11.7154
 216   2.0000      -0.429171       -11.6783
 217   2.0000      -0.428590       -11.6625
 218   2.0000      -0.428232       -11.6528
 219   2.0000      -0.425839       -11.5877
 220   2.0000      -0.422599       -11.4995
 221   2.0000      -0.420441       -11.4408
 222   2.0000      -0.417377       -11.3574
 223   2.0000      -0.415597       -11.3090
 224   2.0000      -0.413008       -11.2385
 225   2.0000      -0.412018       -11.2116
 226   2.0000      -0.407440       -11.0870
 227   2.0000      -0.403978       -10.9928
 228   2.0000      -0.402107       -10.9419
 229   2.0000      -0.399077       -10.8594
 230   2.0000      -0.394255       -10.7282
 231   2.0000      -0.389024       -10.5859
 232   2.0000      -0.385662       -10.4944
 233   2.0000      -0.383132       -10.4256
 234   2.0000      -0.376699       -10.2505
 235   2.0000      -0.369398       -10.0518
 236   2.0000      -0.363348        -9.8872
 237   2.0000      -0.360658        -9.8140
 238   2.0000      -0.359514        -9.7829
 239   2.0000      -0.348241        -9.4761
 240   2.0000      -0.345967        -9.4142
 241   2.0000      -0.345081        -9.3901
 242   2.0000      -0.341032        -9.2800
 243   2.0000      -0.340175        -9.2566
 244   2.0000      -0.330936        -9.0052
 245   2.0000      -0.327074        -8.9001
 246   2.0000      -0.325354        -8.8533
 247   2.0000      -0.323274        -8.7967
 248   2.0000      -0.321331        -8.7439
 249   2.0000      -0.310746        -8.4558
 250   2.0000      -0.307528        -8.3683
 251   2.0000      -0.302451        -8.2301
 252   2.0000      -0.295604        -8.0438
 253   2.0000      -0.293804        -7.9948
 254   2.0000      -0.274795        -7.4775
 255   2.0000      -0.243593        -6.6285
 256   0.0000      -0.095739        -2.6052
 257   0.0000      -0.071056        -1.9335
 258   0.0000      -0.062081        -1.6893
 259   0.0000      -0.058060        -1.5799
 260   0.0000      -0.037475        -1.0197

MULLIKEN ATOMIC CHARGES
-----------------------
   0 C :    0.383984
   1 C :   -0.317952
   2 C :   -0.209454
   3 N :    0.150006
   4 C :   -0.186083
   5 N :    0.157060
   6 C :    0.023887
   7 C :    0.028441
   8 C :   -0.068059
   9 C :    0.091207
  10 C :    0.095534
  11 C :   -0.086515
  12 C :   -0.019383
  13 C :    0.034983
  14 C :    0.031769
  15 C :   -0.014861
  16 C :    0.137142
  17 O :   -0.168637
  18 C :   -0.052260
  19 C :   -0.080909
  20 C :    0.085072
  21 C :   -0.112050
  22 C :    0.210776
  23 O :   -0.160480
  24 O :   -0.282479
  25 C :    0.328716
  26 C :   -0.047356
  27 C :   -0.023652
  28 C :    0.008805
  29 C :    0.020502
  30 C :    0.026762
  31 N :   -0.251478
  32 C :    0.115753
  33 C :   -0.003523
  34 C :    0.165927
  35 O :   -0.222425
  36 C :   -0.076065
  37 C :   -0.008722
  38 C :    0.168188
  39 O :   -0.192906
  40 N :   -0.254168
  41 C :    0.113832
  42 C :   -0.001289
  43 C :    0.142374
  44 C :    0.075770
  45 C :   -0.082117
  46 C :    0.001358
  47 C :   -0.066881
  48 C :    0.201568
  49 O :   -0.147582
  50 O :   -0.289966
  51 C :    0.326625
  52 C :   -0.076074
  53 C :   -0.029838
  54 C :   -0.015422
  55 C :    0.083173
  56 C :   -0.053469
  57 C :   -0.056762
  58 C :    0.279562
  59 C :   -0.327694
  60 C :   -0.120038
  61 N :    0.111260
  62 C :   -0.176352
  63 N :    0.166971
  64 C :    0.044294
  65 C :    0.000800
  66 C :    0.166764
  67 O :   -0.151617
  68 C :   -0.078294
  69 C :    0.096179
  70 C :    0.093462
  71 C :   -0.075668
  72 C :   -0.016495
  73 C :    0.037761
  74 C :    0.033391
  75 C :   -0.013807
  76 H :   -0.034131
  77 H :   -0.009084
  78 H :   -0.012404
  79 H :   -0.009968
  80 H :   -0.011305
  81 H :   -0.015770
  82 H :    0.038519
  83 H :    0.054264
  84 H :    0.039042
  85 H :   -0.019703
  86 H :   -0.021248
  87 H :    0.028408
  88 H :    0.031935
  89 H :    0.014245
  90 H :    0.019784
  91 H :    0.041224
  92 H :    0.031808
  93 H :    0.024173
  94 H :    0.025440
  95 H :    0.008126
  96 H :    0.019892
  97 H :   -0.016862
  98 H :    0.064004
  99 H :    0.048027
 100 H :    0.048112
 101 H :   -0.016477
 102 H :    0.010107
 103 H :    0.048305
 104 H :   -0.012880
 105 H :   -0.003108
 106 H :   -0.009115
 107 H :   -0.003647
 108 H :   -0.003228
 109 H :   -0.017364
Sum of atomic charges:   -0.0000000

LOEWDIN ATOMIC CHARGES
----------------------
   0 C :    0.081120
   1 C :   -0.114370
   2 C :   -0.010770
   3 N :   -0.060027
   4 C :   -0.005634
   5 N :   -0.064293
   6 C :   -0.013939
   7 C :   -0.058436
   8 C :    0.038187
   9 C :   -0.010435
  10 C :   -0.003741
  11 C :    0.016286
  12 C :   -0.007848
  13 C :   -0.016255
  14 C :   -0.019049
  15 C :   -0.007273
  16 C :    0.097224
  17 O :   -0.150951
  18 C :   -0.060775
  19 C :    0.060715
  20 C :    0.013339
  21 C :   -0.061256
  22 C :    0.084368
  23 O :   -0.154053
  24 O :   -0.079372
  25 C :    0.104898
  26 C :   -0.006017
  27 C :   -0.014042
  28 C :    0.013078
  29 C :   -0.024201
  30 C :    0.072942
  31 N :    0.008093
  32 C :    0.038115
  33 C :   -0.060626
  34 C :    0.081686
  35 O :   -0.209225
  36 C :   -0.133486
  37 C :   -0.113131
  38 C :    0.091351
  39 O :   -0.178246
  40 N :    0.011732
  41 C :    0.042114
  42 C :   -0.070549
  43 C :    0.101835
  44 C :   -0.004275
  45 C :    0.017117
  46 C :    0.034022
  47 C :   -0.078587
  48 C :    0.083940
  49 O :   -0.148339
  50 O :   -0.088876
  51 C :    0.101700
  52 C :   -0.002263
  53 C :   -0.029342
  54 C :    0.038979
  55 C :   -0.038886
  56 C :    0.081739
  57 C :   -0.085557
  58 C :    0.078457
  59 C :   -0.128532
  60 C :   -0.000815
  61 N :   -0.060414
  62 C :   -0.000085
  63 N :   -0.045106
  64 C :   -0.026177
  65 C :   -0.055833
  66 C :    0.089944
  67 O :   -0.138527
  68 C :    0.033808
  69 C :   -0.008442
  70 C :   -0.005363
  71 C :    0.021209
  72 C :   -0.005025
  73 C :   -0.011964
  74 C :   -0.012046
  75 C :   -0.008936
  76 H :    0.036237
  77 H :    0.038428
  78 H :    0.033506
  79 H :    0.030832
  80 H :    0.030107
  81 H :    0.032719
  82 H :    0.047591
  83 H :    0.042770
  84 H :    0.035162
  85 H :    0.033303
  86 H :    0.033880
  87 H :    0.026593
  88 H :    0.033855
  89 H :    0.019473
  90 H :    0.029255
  91 H :    0.034621
  92 H :    0.034548
  93 H :    0.025622
  94 H :    0.025151
  95 H :    0.025668
  96 H :    0.018574
  97 H :    0.033325
  98 H :    0.043495
  99 H :    0.039200
 100 H :    0.039558
 101 H :    0.033814
 102 H :    0.033572
 103 H :    0.049991
 104 H :    0.038866
 105 H :    0.039668
 106 H :    0.035033
 107 H :    0.033680
 108 H :    0.033325
 109 H :    0.031969

  Mayer bond orders larger than 0.100000
B(  0-C ,  1-C ) :   1.6768 B(  0-C ,  6-C ) :   1.0020 B(  0-C , 18-C ) :   0.9934
B(  1-C ,  2-C ) :   1.1408 B(  1-C ,  4-C ) :   1.1666 B(  2-C ,  3-N ) :   2.9778
B(  4-C ,  5-N ) :   2.9784 B(  6-C ,  7-C ) :   1.2046 B(  6-C , 11-C ) :   1.4496
B(  7-C ,  8-C ) :   1.4564 B(  7-C , 16-C ) :   0.9365 B(  8-C ,  9-C ) :   1.1949
B(  8-C , 76-H ) :   1.0105 B(  9-C , 10-C ) :   1.2478 B(  9-C , 15-C ) :   1.2451
B( 10-C , 11-C ) :   1.2106 B( 10-C , 12-C ) :   1.2389 B( 11-C , 77-H ) :   0.9912
B( 12-C , 13-C ) :   1.4920 B( 12-C , 78-H ) :   0.9972 B( 13-C , 14-C ) :   1.2560
B( 13-C , 79-H ) :   0.9885 B( 14-C , 15-C ) :   1.4886 B( 14-C , 80-H ) :   0.9888
B( 15-C , 81-H ) :   0.9974 B( 16-C , 17-O ) :   2.1687 B( 16-C , 18-C ) :   0.9505
B( 18-C , 19-C ) :   1.8047 B( 19-C , 20-C ) :   0.9870 B( 19-C , 82-H ) :   0.8867
B( 20-C , 21-C ) :   1.3460 B( 20-C , 29-C ) :   1.4113 B( 21-C , 22-C ) :   0.8947
B( 21-C , 26-C ) :   1.4170 B( 22-C , 23-O ) :   2.1875 B( 22-C , 24-O ) :   1.1420
B( 24-O , 25-C ) :   0.9718 B( 25-C , 26-C ) :   1.0114 B( 25-C , 83-H ) :   0.9202
B( 25-C , 84-H ) :   0.9276 B( 26-C , 27-C ) :   1.3587 B( 27-C , 28-C ) :   1.3523
B( 27-C , 85-H ) :   1.0063 B( 28-C , 29-C ) :   1.3526 B( 28-C , 86-H ) :   0.9946
B( 29-C , 30-C ) :   0.9734 B( 30-C , 31-N ) :   1.2154 B( 30-C , 37-C ) :   1.4309
B( 31-N , 32-C ) :   0.9463 B( 31-N , 34-C ) :   1.0414 B( 32-C , 33-C ) :   1.1141
B( 32-C , 87-H ) :   0.9471 B( 32-C , 88-H ) :   0.9348 B( 33-C , 89-H ) :   0.9660
B( 33-C , 90-H ) :   0.9669 B( 33-C , 91-H ) :   0.9640 B( 34-C , 35-O ) :   2.0007
B( 34-C , 36-C ) :   1.0064 B( 35-O , 98-H ) :   0.1184 B( 36-C , 37-C ) :   1.2124
B( 36-C , 43-C ) :   1.3535 B( 37-C , 38-C ) :   0.9628 B( 38-C , 39-O ) :   2.0671
B( 38-C , 40-N ) :   1.0520 B( 40-N , 41-C ) :   0.9397 B( 40-N , 43-C ) :   1.1814
B( 41-C , 42-C ) :   1.1157 B( 41-C , 92-H ) :   0.9350 B( 41-C , 93-H ) :   0.9505
B( 42-C , 94-H ) :   0.9645 B( 42-C , 95-H ) :   0.9588 B( 42-C , 96-H ) :   0.9458
B( 43-C , 44-C ) :   1.1313 B( 44-C , 45-C ) :   1.7653 B( 44-C , 97-H ) :   0.9594
B( 45-C , 46-C ) :   0.9925 B( 45-C , 98-H ) :   0.8986 B( 46-C , 47-C ) :   1.4120
B( 46-C , 55-C ) :   1.3252 B( 47-C , 48-C ) :   0.8961 B( 47-C , 52-C ) :   1.3918
B( 48-C , 49-O ) :   2.2232 B( 48-C , 50-O ) :   1.1196 B( 50-O , 51-C ) :   0.9778
B( 51-C , 52-C ) :   1.0083 B( 51-C , 99-H ) :   0.9245 B( 51-C ,100-H ) :   0.9249
B( 52-C , 53-C ) :   1.3455 B( 53-C , 54-C ) :   1.3778 B( 53-C ,101-H ) :   1.0113
B( 54-C , 55-C ) :   1.3198 B( 54-C ,102-H ) :   0.9680 B( 55-C , 56-C ) :   1.1215
B( 56-C , 57-C ) :   1.6134 B( 56-C ,103-H ) :   0.9333 B( 57-C , 58-C ) :   1.0538
B( 57-C , 66-C ) :   0.9223 B( 58-C , 59-C ) :   1.6417 B( 58-C , 64-C ) :   0.9883
B( 59-C , 60-C ) :   1.1622 B( 59-C , 62-C ) :   1.1498 B( 60-C , 61-N ) :   2.8687
B( 62-C , 63-N ) :   2.9186 B( 64-C , 65-C ) :   1.2181 B( 64-C , 71-C ) :   1.4446
B( 65-C , 66-C ) :   0.9560 B( 65-C , 68-C ) :   1.4648 B( 66-C , 67-O ) :   2.1754
B( 68-C , 69-C ) :   1.1807 B( 68-C ,104-H ) :   1.0169 B( 69-C , 70-C ) :   1.2574
B( 69-C , 75-C ) :   1.2429 B( 70-C , 71-C ) :   1.2098 B( 70-C , 72-C ) :   1.2366
B( 71-C ,105-H ) :   0.9932 B( 72-C , 73-C ) :   1.4910 B( 72-C ,106-H ) :   0.9981
B( 73-C , 74-C ) :   1.2592 B( 73-C ,107-H ) :   0.9884 B( 74-C , 75-C ) :   1.4890
B( 74-C ,108-H ) :   0.9892 B( 75-C ,109-H ) :   0.9983

-----------------------------------------------------------------------------
         ABSORPTION SPECTRUM VIA TRANSITION ELECTRIC DIPOLE MOMENTS
-----------------------------------------------------------------------------
State   Energy  Wavelength   fosc         T2         TX        TY        TZ
        (cm-1)    (nm)                  (au**2)     (au)      (au)      (au)
-----------------------------------------------------------------------------
   0   16370.6    610.8   0.051490967   1.03548   1.01037   0.03334   0.11631
   1   19436.0    514.5   0.108947562   1.84538   0.92019  -0.15634  -0.98701
   2   23368.4    427.9   0.212315216   2.99108  -1.02957  -1.36348  -0.26829
   3   25790.0    387.7   0.052985166   0.67636   0.19130   0.22772  -0.76675
   4   26036.1    384.1   0.113973096   1.44113  -0.52680   0.17041   1.06516
   5   26626.1    375.6   0.010352852   0.12801   0.16442   0.21129  -0.23733
   6   27291.6    366.4   0.009352280   0.11281   0.32698   0.07071   0.03000
   7   27753.3    360.3   0.051784982   0.61428  -0.29248   0.31283  -0.65641
   8   27886.6    358.6   0.298032823   3.51839   0.28390   0.84587  -1.64994
   9   28126.7    355.5   0.117849806   1.37938   0.26633   0.22165   1.12219
  10   29125.4    343.3   0.088349028   0.99863  -0.04486  -0.26443   0.96265
  11   29275.0    341.6   0.012243725   0.13769   0.09367   0.15746  -0.32267
  12   29304.2    341.2   0.020702135   0.23257   0.03766  -0.29390   0.38050
  13   30390.5    329.1   0.010169643   0.11017  -0.26163  -0.17501   0.10528
  14   30477.7    328.1   0.010240134   0.11061  -0.14913  -0.05049  -0.29295
  15   30568.8    327.1   0.006508927   0.07010  -0.22669  -0.13640   0.01018
  16   31245.2    320.0   0.102686397   1.08194   0.44738   0.72968   0.59107
  17   31425.0    318.2   0.022940990   0.24033  -0.09680  -0.29210  -0.38163
  18   31795.5    314.5   0.046830011   0.48488   0.23495   0.44601   0.48037
  19   32075.7    311.8   0.019553780   0.20069  -0.39826  -0.03852  -0.20148
  20   32285.8    309.7   0.137645516   1.40354   0.05530  -1.08632  -0.46947
  21   32403.6    308.6   0.002901515   0.02948  -0.03944   0.10619   0.12902
  22   32743.0    305.4   0.087310012   0.87785  -0.53287   0.07824   0.76667
  23   33265.5    300.6   0.343495131   3.39940  -0.77662   1.61352  -0.43909
  24   33423.7    299.2   0.498648041   4.91151   1.15251  -1.31991   1.35686
  25   33683.3    296.9   0.626073246   6.11908  -1.11870   0.79392  -2.05847
  26   33770.8    296.1   0.288637796   2.81376   0.52814   1.56033  -0.31654
  27   33854.5    295.4   0.280769158   2.73029   0.82820   0.17242   1.41938
  28   34035.4    293.8   0.135918873   1.31469   0.54489  -0.41434   0.91984
  29   34189.3    292.5   0.116477667   1.12157   0.78599   0.43209   0.56311
  30   34663.6    288.5   0.119780618   1.13760  -0.81265   0.61811   0.30846
  31   35021.9    285.5   0.010336965   0.09717  -0.08974   0.05241   0.29389
  32   35197.5    284.1   0.041775265   0.39074   0.21368  -0.08743   0.58089
  33   35357.5    282.8   0.039063232   0.36372   0.25360   0.18384   0.51537
  34   35528.7    281.5   0.012315086   0.11411   0.20692   0.15854   0.21485
  35   35675.8    280.3   0.015887757   0.14661   0.33651  -0.12670   0.13160
  36   35733.5    279.8   0.004115492   0.03792  -0.16200  -0.01229   0.10734
  37   35924.0    278.4   0.040775202   0.37367  -0.33641  -0.26767  -0.43457
  38   36080.4    277.2   0.026779961   0.24435   0.03659  -0.49267   0.01690
  39   36272.5    275.7   0.315148799   2.86032   0.63932   0.55429   1.46436
  40   36858.9    271.3   0.032667388   0.29178  -0.02346  -0.53586  -0.06383
  41   37138.5    269.3   0.119142331   1.05613   1.02259  -0.06416   0.07956
  42   37237.6    268.5   0.002278958   0.02015   0.13362  -0.00669  -0.04743
  43   38117.2    262.3   0.104689388   0.90418   0.75815   0.50947   0.26428
  44   38247.2    261.5   0.170150226   1.46456  -1.17274  -0.18064  -0.23793
  45   38524.6    259.6   0.132452248   1.13187  -0.29312   0.80694   0.62833
  46   38824.5    257.6   0.011622037   0.09855  -0.02880   0.14148   0.27875
  47   39061.6    256.0   0.116670817   0.98330   0.95287  -0.20030  -0.18770
  48   39247.9    254.8   0.033223852   0.27868  -0.51675  -0.02433   0.10514
  49   39321.8    254.3   0.062501122   0.52327  -0.66620  -0.03638   0.27952
  50   39581.0    252.6   0.042716922   0.35529   0.41737   0.15402   0.39671
  51   39761.8    251.5   0.052416068   0.43398   0.37578  -0.17200  -0.51302
  52   39972.2    250.2   0.014002504   0.11533   0.27715   0.19516  -0.02063
  53   40210.8    248.7   0.017801621   0.14574   0.04893  -0.36853  -0.08680
  54   40308.2    248.1   0.102147549   0.83428  -0.07336   0.88430   0.21659

FINAL SINGLE POINT ENERGY     -3309.229643344825

DIPOLE MOMENT
-------------
                                X             Y             Z
Electronic contribution:     -6.55431       6.65153       0.78623
Nuclear contribution   :      9.85902      -9.98973      -0.26931
                        -----------------------------------------
Total Dipole Moment    :      3.30471      -3.33819       0.51692
                        -----------------------------------------
Magnitude (a.u.)       :      4.72566
Magnitude (Debye)      :     12.01166

Rotational constants in cm-1:     0.001077     0.000710     0.000579
Rotational constants in MHz :    32.274605    21.291900    17.344987

                             ****ORCA TERMINATED NORMALLY****
TOTAL RUN TIME: 0 days 0 hours 12 minutes 28 seconds 689 msec
