                         Program Version 4.2.0 -  RELEASE  -
|  1> # ORCA input file
|  2> # SCF done       -203.385451395034          0.000355244277
|  3> ! CAM-B3LYP def2-SVP def2/J RIJCOSX Grid4 TightSCF
|  4> %maxcore 5000
|  5> %tddft
|  6>     Mode sTDDFT
|  7>     Ethresh 5.0
|  8>     maxcore 5000
|  9> end
| 10>
| 11> %pal
| 12>   nprocs 6
| 13>   end
| 14> * xyz 0 1
| 15>    C        4.00618         4.04766         0.35198
| 16>    C        3.95659         5.25096         1.00384
| 17>    C        4.96780         6.22948         0.91761
| 18>    N        5.75454         7.06299         0.86100
| 19>    C        2.93236         5.60154         1.90845
| 20>    N        2.14128         5.90217         2.68378
| 21>    C        5.16830         3.50534        -0.34008
| 22>    C        5.03464         2.08659        -0.40446
| 23>    C        6.00843         1.30013        -0.95002
| 24>    C        7.17333         1.90684        -1.47108
| 25>    C        7.30292         3.32573        -1.42743
| 26>    C        6.28113         4.11566        -0.85294
| 27>    C        8.46825         3.91788        -1.95536
| 28>    C        9.46167         3.14752        -2.49555
| 29>    C        9.33463         1.75084        -2.53573
| 30>    C        8.21500         1.14386        -2.03491
| 31>    C        3.74414         1.68620         0.18400
| 32>    O        3.30687         0.57267         0.34450
| 33>    C        3.04021         2.97305         0.48027
| 34>    C        1.70360         2.97964         0.70153
| 35>    C        0.79549         4.06869         0.62135
| 36>    S        1.01713         5.46937        -0.41331
| 37>    C       -0.42096         4.17859         1.25242
| 38>    C       -1.20033         3.36506         2.20536
| 39>    O       -0.95174         2.29317         2.69334
| 40>    N       -2.35031         4.10780         2.43273
| 41>    C       -3.42456         3.65839         3.29297
| 42>    C       -4.46601         2.86735         2.50934
| 43>    C       -2.40661         5.30231         1.72304
| 44>    O       -3.33747         6.06702         1.74429
| 45>    C       -1.13555         5.36108         0.97562
| 46>    C       -0.50298         6.19638         0.07586
| 47>    C       -0.86767         7.45445        -0.46956
| 48>    C       -1.86835         8.22016         0.03269
| 49>    C       -2.30611         9.49627        -0.41173
| 50>    N       -2.14502        10.10137        -1.64042
| 51>    C       -1.60466         9.54186        -2.85729
| 52>    C       -2.43041         8.36700        -3.37171
| 53>    C       -2.75285        11.37277        -1.67524
| 54>    O       -2.76312        12.08094        -2.66326
| 55>    C       -3.28854        11.55948        -0.34728
| 56>    C       -3.00937        10.38765         0.39352
| 57>    C       -3.50537        10.57507         1.74305
| 58>    O       -3.48389         9.87659         2.72883
| 59>    N       -4.08393        11.86499         1.71308
| 60>    C       -4.65927        12.44998         2.90009
| 61>    C       -3.70256        13.43489         3.56754
| 62>    C       -3.95718        12.46012         0.48368
| 63>    C       -4.45803        13.75086         0.17857
| 64>    C       -4.37080        14.30024        -1.05868
| 65>    C       -4.89610        15.58998        -1.33481
| 66>    S       -4.93970        16.26436        -2.95486
| 67>    C       -5.69518        17.66854        -2.20537
| 68>    N       -5.83189        17.52791        -0.91265
| 69>    N       -5.40435        16.40025        -0.43956
| 70>    C       -6.12333        18.81973        -2.91425
| 71>    C       -6.08940        18.93676        -4.26385
| 72>    C       -6.55119        20.10283        -4.92456
| 73>    C       -6.61562        20.25259        -6.27813
| 74>    C       -7.08600        21.42044        -7.00538
| 75>    C       -7.42204        22.63864        -6.47533
| 76>    C       -7.85841        23.74100        -7.24116
| 77>    N       -8.21986        24.67525        -7.80175
| 78>    C       -7.36886        22.98611        -5.10885
| 79>    N       -7.34941        23.35247        -4.02062
| 80>    C       -7.10993        21.08110        -8.42357
| 81>    C       -6.61687        19.75482        -8.58487
| 82>    C       -6.26689        19.19548        -7.26937
| 83>    O       -5.80127        18.09749        -7.05085
| 84>    C       -6.52508        19.16136        -9.81100
| 85>    C       -6.93231        19.88033       -10.95646
| 86>    C       -7.42830        21.20762       -10.80474
| 87>    C       -7.51068        21.79589        -9.52209
| 88>    C       -7.83346        21.91624       -11.95438
| 89>    C       -7.75375        21.34290       -13.19420
| 90>    C       -7.26633        20.03557       -13.34208
| 91>    C       -6.86413        19.31990       -12.24714
| 92>    H        5.89383         0.22681        -0.97983
| 93>    H        6.39894         5.18808        -0.83857
| 94>    H        8.56322         4.99313        -1.91820
| 95>    H       10.35207         3.61024        -2.89391
| 96>    H       10.12849         1.15841        -2.96523
| 97>    H        8.11196         0.06904        -2.06289
| 98>    H        1.24832         2.01921         0.92775
| 99>    H       -3.87842         4.54598         3.73977
|100>    H       -2.97759         3.03549         4.07100
|101>    H       -4.89862         3.48787         1.72788
|102>    H       -5.25907         2.54328         3.17693
|103>    H       -4.01029         1.99005         2.05578
|104>    H       -0.24783         7.79721        -1.28487
|105>    H       -2.39274         7.87701         0.91621
|106>    H       -0.55974         9.25604        -2.71091
|107>    H       -1.63408        10.35856        -3.58565
|108>    H       -2.44706         7.55202        -2.65211
|109>    H       -2.00606         8.00303        -4.30338
|110>    H       -3.45324         8.68547        -3.55741
|111>    H       -4.85929        11.61614         3.57890
|112>    H       -5.60509        12.93648         2.64741
|113>    H       -2.78230        12.92718         3.84590
|114>    H       -4.16092        13.83980         4.46528
|115>    H       -3.45789        14.25689         2.89867
|116>    H       -4.94358        14.31888         0.95846
|117>    H       -3.90437        13.76571        -1.87463
|118>    H       -6.51038        19.61934        -2.29591
|119>    H       -5.71529        18.12345        -4.87043
|120>    H       -6.88614        20.91170        -4.28767
|121>    H       -6.14777        18.15376        -9.90410
|122>    H       -7.89487        22.80025        -9.44235
|123>    H       -8.20781        22.92241       -11.83558
|124>    H       -8.06615        21.89383       -14.06860
|125>    H       -7.21140        19.59853       -14.32790
|126>    H       -6.48817        18.31296       -12.35449
|127> *
|128>
|129>                          ****END OF INPUT****

CARTESIAN COORDINATES (ANGSTROEM)
---------------------------------
  C      4.006180    4.047660    0.351980
  C      3.956590    5.250960    1.003840
  C      4.967800    6.229480    0.917610
  N      5.754540    7.062990    0.861000
  C      2.932360    5.601540    1.908450
  N      2.141280    5.902170    2.683780
  C      5.168300    3.505340   -0.340080
  C      5.034640    2.086590   -0.404460
  C      6.008430    1.300130   -0.950020
  C      7.173330    1.906840   -1.471080
  C      7.302920    3.325730   -1.427430
  C      6.281130    4.115660   -0.852940
  C      8.468250    3.917880   -1.955360
  C      9.461670    3.147520   -2.495550
  C      9.334630    1.750840   -2.535730
  C      8.215000    1.143860   -2.034910
  C      3.744140    1.686200    0.184000
  O      3.306870    0.572670    0.344500
  C      3.040210    2.973050    0.480270
  C      1.703600    2.979640    0.701530
  C      0.795490    4.068690    0.621350
  S      1.017130    5.469370   -0.413310
  C     -0.420960    4.178590    1.252420
  C     -1.200330    3.365060    2.205360
  O     -0.951740    2.293170    2.693340
  N     -2.350310    4.107800    2.432730
  C     -3.424560    3.658390    3.292970
  C     -4.466010    2.867350    2.509340
  C     -2.406610    5.302310    1.723040
  O     -3.337470    6.067020    1.744290
  C     -1.135550    5.361080    0.975620
  C     -0.502980    6.196380    0.075860
  C     -0.867670    7.454450   -0.469560
  C     -1.868350    8.220160    0.032690
  C     -2.306110    9.496270   -0.411730
  N     -2.145020   10.101370   -1.640420
  C     -1.604660    9.541860   -2.857290
  C     -2.430410    8.367000   -3.371710
  C     -2.752850   11.372770   -1.675240
  O     -2.763120   12.080940   -2.663260
  C     -3.288540   11.559480   -0.347280
  C     -3.009370   10.387650    0.393520
  C     -3.505370   10.575070    1.743050
  O     -3.483890    9.876590    2.728830
  N     -4.083930   11.864990    1.713080
  C     -4.659270   12.449980    2.900090
  C     -3.702560   13.434890    3.567540
  C     -3.957180   12.460120    0.483680
  C     -4.458030   13.750860    0.178570
  C     -4.370800   14.300240   -1.058680
  C     -4.896100   15.589980   -1.334810
  S     -4.939700   16.264360   -2.954860
  C     -5.695180   17.668540   -2.205370
  N     -5.831890   17.527910   -0.912650
  N     -5.404350   16.400250   -0.439560
  C     -6.123330   18.819730   -2.914250
  C     -6.089400   18.936760   -4.263850
  C     -6.551190   20.102830   -4.924560
  C     -6.615620   20.252590   -6.278130
  C     -7.086000   21.420440   -7.005380
  C     -7.422040   22.638640   -6.475330
  C     -7.858410   23.741000   -7.241160
  N     -8.219860   24.675250   -7.801750
  C     -7.368860   22.986110   -5.108850
  N     -7.349410   23.352470   -4.020620
  C     -7.109930   21.081100   -8.423570
  C     -6.616870   19.754820   -8.584870
  C     -6.266890   19.195480   -7.269370
  O     -5.801270   18.097490   -7.050850
  C     -6.525080   19.161360   -9.811000
  C     -6.932310   19.880330  -10.956460
  C     -7.428300   21.207620  -10.804740
  C     -7.510680   21.795890   -9.522090
  C     -7.833460   21.916240  -11.954380
  C     -7.753750   21.342900  -13.194200
  C     -7.266330   20.035570  -13.342080
  C     -6.864130   19.319900  -12.247140
  H      5.893830    0.226810   -0.979830
  H      6.398940    5.188080   -0.838570
  H      8.563220    4.993130   -1.918200
  H     10.352070    3.610240   -2.893910
  H     10.128490    1.158410   -2.965230
  H      8.111960    0.069040   -2.062890
  H      1.248320    2.019210    0.927750
  H     -3.878420    4.545980    3.739770
  H     -2.977590    3.035490    4.071000
  H     -4.898620    3.487870    1.727880
  H     -5.259070    2.543280    3.176930
  H     -4.010290    1.990050    2.055780
  H     -0.247830    7.797210   -1.284870
  H     -2.392740    7.877010    0.916210
  H     -0.559740    9.256040   -2.710910
  H     -1.634080   10.358560   -3.585650
  H     -2.447060    7.552020   -2.652110
  H     -2.006060    8.003030   -4.303380
  H     -3.453240    8.685470   -3.557410
  H     -4.859290   11.616140    3.578900
  H     -5.605090   12.936480    2.647410
  H     -2.782300   12.927180    3.845900
  H     -4.160920   13.839800    4.465280
  H     -3.457890   14.256890    2.898670
  H     -4.943580   14.318880    0.958460
  H     -3.904370   13.765710   -1.874630
  H     -6.510380   19.619340   -2.295910
  H     -5.715290   18.123450   -4.870430
  H     -6.886140   20.911700   -4.287670
  H     -6.147770   18.153760   -9.904100
  H     -7.894870   22.800250   -9.442350
  H     -8.207810   22.922410  -11.835580
  H     -8.066150   21.893830  -14.068600
  H     -7.211400   19.598530  -14.327900
  H     -6.488170   18.312960  -12.354490

 Total Charge           Charge          ....    0
 Multiplicity           Mult            ....    1
 Number of Electrons    NEL             ....  538
 Basis Dimension        Dim             .... 1261

ORBITAL ENERGIES
----------------

  NO   OCC          E(Eh)            E(eV)
   0   2.0000     -88.985044     -2421.4061
   1   2.0000     -88.982096     -2421.3259
   2   2.0000     -19.221425      -523.0416
   3   2.0000     -19.218694      -522.9673
   4   2.0000     -19.215329      -522.8757
   5   2.0000     -19.215307      -522.8751
   6   2.0000     -19.197101      -522.3797
   7   2.0000     -19.195130      -522.3260
   8   2.0000     -14.458249      -393.4290
   9   2.0000     -14.457290      -393.4029
  10   2.0000     -14.456750      -393.3882
  11   2.0000     -14.449909      -393.2020
  12   2.0000     -14.446675      -393.1140
  13   2.0000     -14.420730      -392.4080
  14   2.0000     -14.419551      -392.3759
  15   2.0000     -14.417852      -392.3297
  16   2.0000     -14.417517      -392.3206
  17   2.0000     -10.398240      -282.9505
  18   2.0000     -10.397720      -282.9363
  19   2.0000     -10.379301      -282.4351
  20   2.0000     -10.378509      -282.4136
  21   2.0000     -10.371937      -282.2347
  22   2.0000     -10.370170      -282.1867
  23   2.0000     -10.351583      -281.6809
  24   2.0000     -10.349695      -281.6295
  25   2.0000     -10.349595      -281.6268
  26   2.0000     -10.348991      -281.6104
  27   2.0000     -10.346479      -281.5420
  28   2.0000     -10.346090      -281.5314
  29   2.0000     -10.343953      -281.4733
  30   2.0000     -10.343066      -281.4491
  31   2.0000     -10.341170      -281.3975
  32   2.0000     -10.337404      -281.2951
  33   2.0000     -10.325942      -280.9832
  34   2.0000     -10.322692      -280.8947
  35   2.0000     -10.321860      -280.8721
  36   2.0000     -10.320163      -280.8259
  37   2.0000     -10.320047      -280.8228
  38   2.0000     -10.319662      -280.8123
  39   2.0000     -10.314560      -280.6735
  40   2.0000     -10.311043      -280.5778
  41   2.0000     -10.308929      -280.5202
  42   2.0000     -10.308063      -280.4967
  43   2.0000     -10.307262      -280.4749
  44   2.0000     -10.306558      -280.4557
  45   2.0000     -10.306362      -280.4504
  46   2.0000     -10.305926      -280.4385
  47   2.0000     -10.305182      -280.4183
  48   2.0000     -10.305001      -280.4133
  49   2.0000     -10.304849      -280.4092
  50   2.0000     -10.302977      -280.3583
  51   2.0000     -10.301787      -280.3259
  52   2.0000     -10.301357      -280.3142
  53   2.0000     -10.301006      -280.3046
  54   2.0000     -10.300875      -280.3011
  55   2.0000     -10.300667      -280.2954
  56   2.0000     -10.300654      -280.2950
  57   2.0000     -10.300417      -280.2886
  58   2.0000     -10.299911      -280.2748
  59   2.0000     -10.299703      -280.2692
  60   2.0000     -10.299475      -280.2630
  61   2.0000     -10.298059      -280.2244
  62   2.0000     -10.293625      -280.1038
  63   2.0000     -10.291448      -280.0445
  64   2.0000     -10.289780      -279.9991
  65   2.0000     -10.289485      -279.9911
  66   2.0000     -10.289340      -279.9872
  67   2.0000     -10.289189      -279.9831
  68   2.0000     -10.288820      -279.9730
  69   2.0000     -10.288783      -279.9720
  70   2.0000     -10.288481      -279.9638
  71   2.0000     -10.287960      -279.9496
  72   2.0000     -10.270141      -279.4647
  73   2.0000     -10.267737      -279.3993
  74   2.0000     -10.266497      -279.3656
  75   2.0000     -10.262738      -279.2633
  76   2.0000     -10.258139      -279.1382
  77   2.0000      -8.079816      -219.8630
  78   2.0000      -8.078123      -219.8169
  79   2.0000      -6.049233      -164.6080
  80   2.0000      -6.046699      -164.5390
  81   2.0000      -6.044977      -164.4922
  82   2.0000      -6.043370      -164.4485
  83   2.0000      -6.041812      -164.4061
  84   2.0000      -6.040602      -164.3731
  85   2.0000      -1.162004       -31.6197
  86   2.0000      -1.152761       -31.3682
  87   2.0000      -1.138809       -30.9886
  88   2.0000      -1.138603       -30.9830
  89   2.0000      -1.136171       -30.9168
  90   2.0000      -1.134507       -30.8715
  91   2.0000      -1.132069       -30.8052
  92   2.0000      -1.068552       -29.0768
  93   2.0000      -1.059198       -28.8222
  94   2.0000      -1.053918       -28.6786
  95   2.0000      -1.024542       -27.8792
  96   2.0000      -1.021223       -27.7889
  97   2.0000      -1.009763       -27.4770
  98   2.0000      -1.002295       -27.2738
  99   2.0000      -1.001598       -27.2549
 100   2.0000      -0.996749       -27.1229
 101   2.0000      -0.996648       -27.1202
 102   2.0000      -0.975624       -26.5481
 103   2.0000      -0.974872       -26.5276
 104   2.0000      -0.958956       -26.0945
 105   2.0000      -0.943481       -25.6734
 106   2.0000      -0.933717       -25.4077
 107   2.0000      -0.931973       -25.3603
 108   2.0000      -0.927251       -25.2318
 109   2.0000      -0.923887       -25.1402
 110   2.0000      -0.911408       -24.8007
 111   2.0000      -0.910233       -24.7687
 112   2.0000      -0.898544       -24.4506
 113   2.0000      -0.894760       -24.3477
 114   2.0000      -0.887827       -24.1590
 115   2.0000      -0.885451       -24.0943
 116   2.0000      -0.883272       -24.0351
 117   2.0000      -0.880001       -23.9461
 118   2.0000      -0.872473       -23.7412
 119   2.0000      -0.848435       -23.0871
 120   2.0000      -0.845596       -23.0098
 121   2.0000      -0.832173       -22.6446
 122   2.0000      -0.831382       -22.6231
 123   2.0000      -0.831087       -22.6150
 124   2.0000      -0.823648       -22.4126
 125   2.0000      -0.815486       -22.1905
 126   2.0000      -0.804264       -21.8851
 127   2.0000      -0.794980       -21.6325
 128   2.0000      -0.784802       -21.3556
 129   2.0000      -0.765085       -20.8190
 130   2.0000      -0.765030       -20.8175
 131   2.0000      -0.763359       -20.7720
 132   2.0000      -0.751011       -20.4360
 133   2.0000      -0.747321       -20.3356
 134   2.0000      -0.743510       -20.2319
 135   2.0000      -0.728966       -19.8362
 136   2.0000      -0.720164       -19.5966
 137   2.0000      -0.713908       -19.4264
 138   2.0000      -0.709412       -19.3041
 139   2.0000      -0.707311       -19.2469
 140   2.0000      -0.706395       -19.2220
 141   2.0000      -0.704475       -19.1697
 142   2.0000      -0.700793       -19.0696
 143   2.0000      -0.697217       -18.9722
 144   2.0000      -0.686272       -18.6744
 145   2.0000      -0.681282       -18.5386
 146   2.0000      -0.680211       -18.5095
 147   2.0000      -0.670422       -18.2431
 148   2.0000      -0.662048       -18.0152
 149   2.0000      -0.661240       -17.9932
 150   2.0000      -0.654354       -17.8059
 151   2.0000      -0.650743       -17.7076
 152   2.0000      -0.643318       -17.5056
 153   2.0000      -0.635384       -17.2897
 154   2.0000      -0.634389       -17.2626
 155   2.0000      -0.616285       -16.7700
 156   2.0000      -0.611502       -16.6398
 157   2.0000      -0.610102       -16.6017
 158   2.0000      -0.609494       -16.5852
 159   2.0000      -0.608656       -16.5624
 160   2.0000      -0.599953       -16.3255
 161   2.0000      -0.591864       -16.1054
 162   2.0000      -0.589259       -16.0346
 163   2.0000      -0.588811       -16.0224
 164   2.0000      -0.581090       -15.8123
 165   2.0000      -0.579940       -15.7810
 166   2.0000      -0.575832       -15.6692
 167   2.0000      -0.570773       -15.5315
 168   2.0000      -0.566743       -15.4219
 169   2.0000      -0.560135       -15.2420
 170   2.0000      -0.559130       -15.2147
 171   2.0000      -0.555659       -15.1202
 172   2.0000      -0.550789       -14.9877
 173   2.0000      -0.550574       -14.9819
 174   2.0000      -0.549592       -14.9552
 175   2.0000      -0.548762       -14.9326
 176   2.0000      -0.544789       -14.8245
 177   2.0000      -0.543621       -14.7927
 178   2.0000      -0.541493       -14.7348
 179   2.0000      -0.539442       -14.6790
 180   2.0000      -0.538932       -14.6651
 181   2.0000      -0.537016       -14.6129
 182   2.0000      -0.532478       -14.4895
 183   2.0000      -0.531513       -14.4632
 184   2.0000      -0.528261       -14.3747
 185   2.0000      -0.524557       -14.2739
 186   2.0000      -0.524207       -14.2644
 187   2.0000      -0.521699       -14.1961
 188   2.0000      -0.518445       -14.1076
 189   2.0000      -0.516349       -14.0506
 190   2.0000      -0.515457       -14.0263
 191   2.0000      -0.515100       -14.0166
 192   2.0000      -0.514746       -14.0070
 193   2.0000      -0.512441       -13.9442
 194   2.0000      -0.510909       -13.9025
 195   2.0000      -0.510059       -13.8794
 196   2.0000      -0.508055       -13.8249
 197   2.0000      -0.505859       -13.7651
 198   2.0000      -0.500180       -13.6106
 199   2.0000      -0.499148       -13.5825
 200   2.0000      -0.498666       -13.5694
 201   2.0000      -0.497327       -13.5330
 202   2.0000      -0.490978       -13.3602
 203   2.0000      -0.488949       -13.3050
 204   2.0000      -0.488689       -13.2979
 205   2.0000      -0.486752       -13.2452
 206   2.0000      -0.482850       -13.1390
 207   2.0000      -0.478490       -13.0204
 208   2.0000      -0.474238       -12.9047
 209   2.0000      -0.472734       -12.8638
 210   2.0000      -0.471346       -12.8260
 211   2.0000      -0.469348       -12.7716
 212   2.0000      -0.468190       -12.7401
 213   2.0000      -0.466330       -12.6895
 214   2.0000      -0.466115       -12.6836
 215   2.0000      -0.459002       -12.4901
 216   2.0000      -0.457621       -12.4525
 217   2.0000      -0.454359       -12.3637
 218   2.0000      -0.453327       -12.3357
 219   2.0000      -0.452210       -12.3053
 220   2.0000      -0.451586       -12.2883
 221   2.0000      -0.450501       -12.2588
 222   2.0000      -0.447914       -12.1884
 223   2.0000      -0.447473       -12.1764
 224   2.0000      -0.447125       -12.1669
 225   2.0000      -0.443767       -12.0755
 226   2.0000      -0.443165       -12.0591
 227   2.0000      -0.442906       -12.0521
 228   2.0000      -0.438247       -11.9253
 229   2.0000      -0.436834       -11.8869
 230   2.0000      -0.436491       -11.8775
 231   2.0000      -0.435515       -11.8510
 232   2.0000      -0.433789       -11.8040
 233   2.0000      -0.430094       -11.7035
 234   2.0000      -0.429284       -11.6814
 235   2.0000      -0.427148       -11.6233
 236   2.0000      -0.425708       -11.5841
 237   2.0000      -0.424989       -11.5645
 238   2.0000      -0.422512       -11.4971
 239   2.0000      -0.420972       -11.4552
 240   2.0000      -0.416955       -11.3459
 241   2.0000      -0.409484       -11.1426
 242   2.0000      -0.407817       -11.0973
 243   2.0000      -0.406535       -11.0624
 244   2.0000      -0.399254       -10.8643
 245   2.0000      -0.391332       -10.6487
 246   2.0000      -0.387858       -10.5541
 247   2.0000      -0.380825       -10.3628
 248   2.0000      -0.377390       -10.2693
 249   2.0000      -0.368902       -10.0383
 250   2.0000      -0.365463        -9.9448
 251   2.0000      -0.358637        -9.7590
 252   2.0000      -0.353473        -9.6185
 253   2.0000      -0.351974        -9.5777
 254   2.0000      -0.346444        -9.4272
 255   2.0000      -0.340688        -9.2706
 256   2.0000      -0.338883        -9.2215
 257   2.0000      -0.337843        -9.1932
 258   2.0000      -0.336381        -9.1534
 259   2.0000      -0.335437        -9.1277
 260   2.0000      -0.332096        -9.0368
 261   2.0000      -0.321286        -8.7426
 262   2.0000      -0.320204        -8.7132
 263   2.0000      -0.320080        -8.7098
 264   2.0000      -0.302647        -8.2355
 265   2.0000      -0.300666        -8.1815
 266   2.0000      -0.294808        -8.0221
 267   2.0000      -0.289340        -7.8733
 268   2.0000      -0.243526        -6.6267
 269   0.0000      -0.115878        -3.1532
 270   0.0000      -0.103334        -2.8119
 271   0.0000      -0.085965        -2.3392
 272   0.0000      -0.062453        -1.6994
 273   0.0000      -0.059596        -1.6217

MULLIKEN ATOMIC CHARGES
-----------------------
   0 C :    0.250236
   1 C :   -0.322614
   2 C :   -0.174483
   3 N :    0.159612
   4 C :   -0.199355
   5 N :    0.175775
   6 C :    0.039627
   7 C :    0.009721
   8 C :   -0.082548
   9 C :    0.096929
  10 C :    0.097694
  11 C :   -0.083362
  12 C :   -0.021437
  13 C :    0.038029
  14 C :    0.037022
  15 C :   -0.017049
  16 C :    0.141598
  17 O :   -0.131323
  18 C :   -0.120439
  19 C :    0.038794
  20 C :   -0.213043
  21 S :    0.172672
  22 C :    0.089912
  23 C :    0.189614
  24 O :   -0.152233
  25 N :   -0.308220
  26 C :    0.132696
  27 C :   -0.007316
  28 C :    0.201868
  29 O :   -0.161082
  30 C :    0.025103
  31 C :   -0.139898
  32 C :    0.052635
  33 C :   -0.022551
  34 C :    0.095458
  35 N :   -0.267000
  36 C :    0.093282
  37 C :   -0.000975
  38 C :    0.167157
  39 O :   -0.213143
  40 C :   -0.069373
  41 C :   -0.019551
  42 C :    0.155135
  43 O :   -0.168028
  44 N :   -0.266334
  45 C :    0.095088
  46 C :    0.004685
  47 C :    0.157316
  48 C :   -0.025841
  49 C :    0.075068
  50 C :   -0.094476
  51 S :    0.139427
  52 C :   -0.086745
  53 N :   -0.029010
  54 N :   -0.052798
  55 C :    0.079692
  56 C :   -0.010002
  57 C :   -0.040195
  58 C :   -0.062689
  59 C :    0.334925
  60 C :   -0.350256
  61 C :   -0.182808
  62 N :    0.152600
  63 C :   -0.192791
  64 N :    0.152073
  65 C :    0.046946
  66 C :   -0.009187
  67 C :    0.149905
  68 O :   -0.147945
  69 C :   -0.073985
  70 C :    0.095715
  71 C :    0.092938
  72 C :   -0.078489
  73 C :   -0.016563
  74 C :    0.037309
  75 C :    0.035274
  76 C :   -0.012260
  77 H :   -0.008489
  78 H :   -0.003990
  79 H :   -0.008961
  80 H :   -0.004033
  81 H :   -0.003633
  82 H :   -0.014733
  83 H :    0.047761
  84 H :    0.037379
  85 H :    0.035661
  86 H :    0.027218
  87 H :    0.024130
  88 H :    0.025436
  89 H :   -0.028578
  90 H :    0.041682
  91 H :    0.025828
  92 H :    0.048573
  93 H :    0.028505
  94 H :    0.021982
  95 H :    0.025821
  96 H :    0.046414
  97 H :    0.027398
  98 H :    0.029806
  99 H :    0.026652
 100 H :    0.019867
 101 H :    0.009024
 102 H :    0.016791
 103 H :    0.028833
 104 H :    0.036464
 105 H :    0.016354
 106 H :   -0.013419
 107 H :   -0.009297
 108 H :   -0.008887
 109 H :   -0.004069
 110 H :   -0.004266
 111 H :   -0.017359
Sum of atomic charges:   -0.0000000

LOEWDIN ATOMIC CHARGES
----------------------
   0 C :    0.060513
   1 C :   -0.135178
   2 C :   -0.018621
   3 N :   -0.046847
   4 C :   -0.034159
   5 N :   -0.043283
   6 C :   -0.023665
   7 C :   -0.057833
   8 C :    0.034343
   9 C :   -0.008516
  10 C :   -0.004895
  11 C :    0.016055
  12 C :   -0.006515
  13 C :   -0.011601
  14 C :   -0.011863
  15 C :   -0.008574
  16 C :    0.084039
  17 O :   -0.131892
  18 C :   -0.080617
  19 C :    0.053824
  20 C :   -0.154827
  21 S :    0.474119
  22 C :   -0.051892
  23 C :    0.089477
  24 O :   -0.152665
  25 N :   -0.028487
  26 C :    0.045063
  27 C :   -0.059672
  28 C :    0.094653
  29 O :   -0.149374
  30 C :   -0.090910
  31 C :   -0.112183
  32 C :   -0.043961
  33 C :    0.010810
  34 C :    0.063117
  35 N :   -0.004305
  36 C :    0.034983
  37 C :   -0.062469
  38 C :    0.081962
  39 O :   -0.200696
  40 C :   -0.122341
  41 C :   -0.096508
  42 C :    0.083488
  43 O :   -0.171219
  44 N :   -0.001964
  45 C :    0.036435
  46 C :   -0.059733
  47 C :    0.083288
  48 C :   -0.008186
  49 C :   -0.004056
  50 C :   -0.144384
  51 S :    0.424563
  52 C :   -0.155107
  53 N :   -0.057015
  54 N :   -0.074924
  55 C :    0.008102
  56 C :   -0.021320
  57 C :    0.066400
  58 C :   -0.082318
  59 C :    0.074238
  60 C :   -0.134081
  61 C :   -0.016872
  62 N :   -0.050409
  63 C :   -0.021332
  64 N :   -0.047735
  65 C :   -0.025814
  66 C :   -0.056746
  67 C :    0.085711
  68 O :   -0.142457
  69 C :    0.033759
  70 C :   -0.007988
  71 C :   -0.005656
  72 C :    0.020475
  73 C :   -0.004711
  74 C :   -0.012249
  75 C :   -0.011339
  76 C :   -0.009046
  77 H :    0.040525
  78 H :    0.038948
  79 H :    0.034722
  80 H :    0.033596
  81 H :    0.033415
  82 H :    0.032709
  83 H :    0.060214
  84 H :    0.034985
  85 H :    0.034223
  86 H :    0.028108
  87 H :    0.031178
  88 H :    0.027694
  89 H :    0.027809
  90 H :    0.051350
  91 H :    0.018726
  92 H :    0.038228
  93 H :    0.023417
  94 H :    0.030959
  95 H :    0.031363
  96 H :    0.038905
  97 H :    0.025363
  98 H :    0.032397
  99 H :    0.032527
 100 H :    0.023867
 101 H :    0.039364
 102 H :    0.039137
 103 H :    0.051472
 104 H :    0.029875
 105 H :    0.044316
 106 H :    0.039135
 107 H :    0.039112
 108 H :    0.035054
 109 H :    0.033644
 110 H :    0.033179
 111 H :    0.032076

  Mayer bond orders larger than 0.100000
B(  0-C ,  1-C ) :   1.6685 B(  0-C ,  6-C ) :   1.0069 B(  0-C , 18-C ) :   1.0210
B(  1-C ,  2-C ) :   1.1334 B(  1-C ,  4-C ) :   1.1541 B(  2-C ,  3-N ) :   2.9912
B(  4-C ,  5-N ) :   3.0193 B(  6-C ,  7-C ) :   1.2127 B(  6-C , 11-C ) :   1.4527
B(  7-C ,  8-C ) :   1.4726 B(  7-C , 16-C ) :   0.9206 B(  8-C ,  9-C ) :   1.1852
B(  8-C , 77-H ) :   1.0169 B(  9-C , 10-C ) :   1.2554 B(  9-C , 15-C ) :   1.2436
B( 10-C , 11-C ) :   1.2044 B( 10-C , 12-C ) :   1.2386 B( 11-C , 78-H ) :   0.9948
B( 12-C , 13-C ) :   1.4913 B( 12-C , 79-H ) :   0.9983 B( 13-C , 14-C ) :   1.2596
B( 13-C , 80-H ) :   0.9879 B( 14-C , 15-C ) :   1.4893 B( 14-C , 81-H ) :   0.9886
B( 15-C , 82-H ) :   0.9985 B( 16-C , 17-O ) :   2.2856 B( 16-C , 18-C ) :   0.9247
B( 18-C , 19-C ) :   1.6854 B( 19-C , 20-C ) :   1.1032 B( 19-C , 83-H ) :   0.9421
B( 20-C , 21-S ) :   1.1124 B( 20-C , 22-C ) :   1.5084 B( 21-S , 31-C ) :   1.1393
B( 22-C , 23-C ) :   0.8799 B( 22-C , 30-C ) :   1.2850 B( 23-C , 24-O ) :   2.1968
B( 23-C , 25-N ) :   1.0789 B( 25-N , 26-C ) :   0.9162 B( 25-N , 28-C ) :   1.0777
B( 26-C , 27-C ) :   1.1286 B( 26-C , 84-H ) :   0.9417 B( 26-C , 85-H ) :   0.9406
B( 27-C , 86-H ) :   0.9687 B( 27-C , 87-H ) :   0.9701 B( 27-C , 88-H ) :   0.9682
B( 28-C , 29-O ) :   2.1310 B( 28-C , 30-C ) :   0.8913 B( 30-C , 31-C ) :   1.4724
B( 31-C , 32-C ) :   1.1423 B( 32-C , 33-C ) :   1.5974 B( 32-C , 89-H ) :   0.9592
B( 33-C , 34-C ) :   1.1789 B( 33-C , 90-H ) :   0.9307 B( 34-C , 35-N ) :   1.1612
B( 34-C , 41-C ) :   1.3667 B( 35-N , 36-C ) :   0.9445 B( 35-N , 38-C ) :   1.0609
B( 36-C , 37-C ) :   1.1161 B( 36-C , 91-H ) :   0.9505 B( 36-C , 92-H ) :   0.9240
B( 37-C , 93-H ) :   0.9659 B( 37-C , 94-H ) :   0.9667 B( 37-C , 95-H ) :   0.9626
B( 38-C , 39-O ) :   2.0202 B( 38-C , 40-C ) :   0.9935 B( 39-O ,102-H ) :   0.1087
B( 40-C , 41-C ) :   1.2498 B( 40-C , 47-C ) :   1.3235 B( 41-C , 42-C ) :   0.9609
B( 42-C , 43-O ) :   2.1577 B( 42-C , 44-N ) :   1.0210 B( 44-N , 45-C ) :   0.9429
B( 44-N , 47-C ) :   1.1790 B( 45-C , 46-C ) :   1.1209 B( 45-C , 96-H ) :   0.9282
B( 45-C , 97-H ) :   0.9501 B( 46-C , 98-H ) :   0.9637 B( 46-C , 99-H ) :   0.9678
B( 46-C ,100-H ) :   0.9687 B( 47-C , 48-C ) :   1.1320 B( 48-C , 49-C ) :   1.6524
B( 48-C ,101-H ) :   0.9708 B( 49-C , 50-C ) :   1.1113 B( 49-C ,102-H ) :   0.9268
B( 50-C , 51-S ) :   1.1145 B( 50-C , 54-N ) :   1.6353 B( 51-S , 52-C ) :   1.0973
B( 52-C , 53-N ) :   1.6299 B( 52-C , 55-C ) :   1.1103 B( 53-N , 54-N ) :   1.2568
B( 55-C , 56-C ) :   1.5714 B( 55-C ,103-H ) :   0.9886 B( 56-C , 57-C ) :   1.1520
B( 56-C ,104-H ) :   0.9733 B( 57-C , 58-C ) :   1.5737 B( 57-C ,105-H ) :   0.9616
B( 58-C , 59-C ) :   1.0523 B( 58-C , 67-C ) :   0.9355 B( 59-C , 60-C ) :   1.6356
B( 59-C , 65-C ) :   0.9904 B( 60-C , 61-C ) :   1.1464 B( 60-C , 63-C ) :   1.1444
B( 61-C , 62-N ) :   2.9638 B( 63-C , 64-N ) :   2.9656 B( 65-C , 66-C ) :   1.2140
B( 65-C , 72-C ) :   1.4474 B( 66-C , 67-C ) :   0.9468 B( 66-C , 69-C ) :   1.4716
B( 67-C , 68-O ) :   2.2025 B( 69-C , 70-C ) :   1.1816 B( 69-C ,106-H ) :   1.0146
B( 70-C , 71-C ) :   1.2538 B( 70-C , 76-C ) :   1.2437 B( 71-C , 72-C ) :   1.2099
B( 71-C , 73-C ) :   1.2401 B( 72-C ,107-H ) :   0.9877 B( 73-C , 74-C ) :   1.4909
B( 73-C ,108-H ) :   0.9963 B( 74-C , 75-C ) :   1.2580 B( 74-C ,109-H ) :   0.9887
B( 75-C , 76-C ) :   1.4894 B( 75-C ,110-H ) :   0.9891 B( 76-C ,111-H ) :   0.9970

-----------------------------------------------------------------------------
         ABSORPTION SPECTRUM VIA TRANSITION ELECTRIC DIPOLE MOMENTS
-----------------------------------------------------------------------------
State   Energy  Wavelength   fosc         T2         TX        TY        TZ
        (cm-1)    (nm)                  (au**2)     (au)      (au)      (au)
-----------------------------------------------------------------------------
   0   13544.4    738.3   1.180949228  28.70434   2.89264  -4.44700   0.74910
   1   18084.8    553.0   0.116331374   2.11768  -0.96280  -0.55798   0.93774
   2   21288.4    469.7   0.154799795   2.39388  -0.34396  -0.09316  -1.50562
   3   23801.4    420.1   0.583672148   8.07314   0.23771  -2.07491   1.92649
   4   24345.7    410.8   0.295820442   4.00020   1.39251  -1.06182   0.96626
   5   25361.1    394.3   0.099424948   1.29063   0.19197   0.27299  -1.08594
   6   25654.4    389.8   0.331504259   4.25404   1.06450  -1.21889   1.27875
   7   25767.9    388.1   0.093790534   1.19827  -0.95065   0.54232   0.02047
   8   25819.3    387.3   0.112133843   1.42977  -0.39432  -0.34831   1.07376
   9   26848.4    372.5   0.007690376   0.09430  -0.10599   0.21504  -0.19189
  10   27060.1    369.5   0.005839734   0.07105   0.18517  -0.10418  -0.16095
  11   27495.4    363.7   0.013285275   0.15907   0.15395  -0.36505  -0.04594
  12   27515.3    363.4   0.008442484   0.10101   0.14650  -0.24566  -0.13856
  13   28285.5    353.5   0.097962214   1.14017  -0.52671   0.91759   0.14414
  14   28438.7    351.6   0.023207046   0.26865  -0.07725   0.08961   0.50463
  15   28785.2    347.4   0.093921323   1.07417   0.41661   0.90722  -0.27849
  16   29253.4    341.8   0.100662436   1.13284  -0.72851   0.63015   0.45279
  17   29530.3    338.6   0.053257441   0.59373  -0.02106   0.20160   0.74340
  18   30228.8    330.8   0.144532358   1.57406   0.11262  -0.15317   1.24013
  19   31039.6    322.2   0.000040214   0.00043   0.01145  -0.00325   0.01688
  20   31788.9    314.6   0.126541322   1.31049  -1.03945  -0.29941   0.37469
  21   32251.2    310.1   0.007135641   0.07284   0.14899   0.22471  -0.01197
  22   32776.7    305.1   0.574287067   5.76819   0.34467   0.52478   2.31819
  23   33092.0    302.2   0.091223519   0.90753   0.68480   0.15940  -0.64278
  24   33243.5    300.8   0.008712931   0.08628   0.21013   0.05681  -0.19724
  25   33370.9    299.7   0.876841877   8.65025  -1.73579   1.53306   1.81301
  26   33496.7    298.5   0.113716646   1.11763  -0.39625   0.70196  -0.68401
  27   33612.1    297.5   0.004097779   0.04014   0.00120   0.19217  -0.05662
  28   34062.8    293.6   0.013617213   0.13161  -0.01016  -0.29544   0.21028
  29   34141.0    292.9   0.016818825   0.16218   0.23661   0.14090  -0.29384
  30   34335.2    291.2   0.036539179   0.35034  -0.13568   0.28890   0.49847
  31   34500.4    289.9   0.072844821   0.69511   0.75855  -0.20198  -0.28091
  32   34619.6    288.9   0.082772166   0.78712   0.00165   0.85416  -0.23985
  33   34851.0    286.9   0.015987702   0.15102   0.13596   0.36191  -0.03947
  34   35119.9    284.7   0.024007348   0.22504   0.28638   0.19526   0.32389
  35   35374.7    282.7   0.031447070   0.29266   0.34325  -0.27712  -0.31312
  36   35466.9    282.0   0.101252422   0.93985   0.19410  -0.12512  -0.94155
  37   35741.5    279.8   0.134324701   1.23725   0.05125  -1.03655   0.40024
  38   36030.5    277.5   0.119101198   1.08823  -0.82247   0.50124   0.40065
  39   36699.3    272.5   0.001997007   0.01791   0.00562  -0.13137  -0.02500
  40   36913.3    270.9   0.171982469   1.53383  -0.78546   0.11950   0.95005
  41   37612.6    265.9   0.019135493   0.16749   0.07462  -0.31199  -0.25413
  42   37836.6    264.3   0.149279447   1.29886   0.14974  -1.02882  -0.46688
  43   37954.5    263.5   0.007143105   0.06196  -0.18233  -0.09378   0.14113
  44   38120.5    262.3   0.046113321   0.39824   0.51750   0.24662  -0.26383
  45   38274.1    261.3   0.035013322   0.30116  -0.04403  -0.41123  -0.36071
  46   38406.5    260.4   0.003046660   0.02612   0.01697  -0.15235  -0.05114
  47   38438.2    260.2   0.026400727   0.22611   0.04384  -0.27284   0.38698
  48   38769.2    257.9   0.046828042   0.39764   0.21541  -0.54436  -0.23433
  49   39036.8    256.2   0.101571986   0.85659   0.17501  -0.87179   0.25680
  50   39423.9    253.7   0.131519719   1.09826   0.14670  -0.84192  -0.60655
  51   40085.6    249.5   0.002157127   0.01772  -0.06588   0.11561  -0.00325
  52   40268.4    248.3   0.036699132   0.30003   0.18229  -0.15170  -0.49375

FINAL SINGLE POINT ENERGY     -4043.593469518318

DIPOLE MOMENT
-------------
                                X             Y             Z
Electronic contribution:      8.49283      17.74357      -0.17221
Nuclear contribution   :     -7.40242     -19.90197      -3.72199
                        -----------------------------------------
Total Dipole Moment    :      1.09041      -2.15841      -3.89421
                        -----------------------------------------
Magnitude (a.u.)       :      4.58395
Magnitude (Debye)      :     11.65146

Rotational constants in cm-1:     0.001225     0.000191     0.000176
Rotational constants in MHz :    36.734378     5.729030     5.274087

                             ****ORCA TERMINATED NORMALLY****
TOTAL RUN TIME: 0 days 0 hours 10 minutes 50 seconds 43 msec
