                         Program Version 4.2.0 -  RELEASE  -
|  1> # ORCA input file
|  2> # SCF done       -191.163100188335          0.000707133607
|  3> ! CAM-B3LYP def2-SVP def2/J RIJCOSX Grid4 TightSCF
|  4> %maxcore 5000
|  5> %tddft
|  6>     Mode sTDDFT
|  7>     Ethresh 5.0
|  8>     maxcore 5000
|  9> end
| 10>
| 11> %pal
| 12>   nprocs 6
| 13>   end
| 14> * xyz 0 1
| 15>    C        2.60059         1.63009        -1.89279
| 16>    C        1.89984         1.00093        -2.88836
| 17>    C        2.44405         0.00100        -3.72299
| 18>    N        2.82120        -0.81380        -4.43802
| 19>    C        0.54215         1.21048        -3.21205
| 20>    N       -0.55816         1.30049        -3.52932
| 21>    C        3.97299         1.32138        -1.51233
| 22>    C        4.29012         2.05706        -0.33644
| 23>    C        5.51087         1.96597         0.26818
| 24>    C        6.49406         1.12069        -0.29188
| 25>    C        6.18807         0.38527        -1.47353
| 26>    C        4.91336         0.49821        -2.07426
| 27>    C        7.17760        -0.45319        -2.02619
| 28>    C        8.40982        -0.56151        -1.44114
| 29>    C        8.70989         0.16333        -0.27800
| 30>    C        7.77231         0.98630         0.28470
| 31>    C        3.13474         2.87521         0.06383
| 32>    O        3.07266         3.57931         1.05002
| 33>    C        2.10495         2.65898        -0.98652
| 34>    C        0.94731         3.35152        -1.19831
| 35>    C        0.31215         4.36828        -0.44825
| 36>    S       -1.07887         5.13614        -1.18766
| 37>    C       -1.31316         6.17919         0.17052
| 38>    C       -0.35139         5.91055         1.16033
| 39>    C        0.54861         4.90050         0.80670
| 40>    C       -0.27199         6.56226         2.40309
| 41>    N       -0.18371         7.07146         3.42805
| 42>    C       -2.35455         7.13524         0.12930
| 43>    C       -2.61675         8.05473         1.09820
| 44>    C       -3.64564         9.01651         0.96748
| 45>    N       -3.92577         9.96679         1.92112
| 46>    C       -3.30468        10.09459         3.21829
| 47>    C       -3.82178         9.05077         4.20439
| 48>    C       -4.96469        10.82933         1.51943
| 49>    O       -5.38402        11.74588         2.19280
| 50>    C       -5.32952        10.34728         0.20457
| 51>    C       -4.51535         9.23474        -0.10334
| 52>    C       -4.89328         8.77513        -1.41872
| 53>    O       -4.49148         7.85602        -2.10603
| 54>    N       -5.92390         9.64800        -1.82326
| 55>    C       -6.49979         9.49466        -3.13751
| 56>    C       -5.91817        10.49331        -4.13571
| 57>    C       -6.18450        10.60369        -0.86525
| 58>    C       -7.09974        11.68805        -0.86197
| 59>    C       -7.99215        12.07367        -1.80619
| 60>    C       -8.82510        13.22245        -1.68547
| 61>    S       -9.92183        13.59968        -2.98715
| 62>    C      -10.48322        15.01399        -2.18015
| 63>    C      -11.40552        15.95832        -2.84734
| 64>    O      -11.33608        17.14711        -2.68363
| 65>    O      -12.29864        15.41926        -3.68362
| 66>    C       -9.85363        15.18539        -0.95697
| 67>    C       -8.90922        14.17347        -0.69394
| 68>    C      -10.11013        16.27517        -0.04137
| 69>    C      -11.32226        16.79213         0.24708
| 70>    C      -11.59823        17.97314         1.06070
| 71>    C      -10.68791        18.72477         1.75031
| 72>    C      -11.02019        19.86585         2.51366
| 73>    N      -11.22223        20.79469         3.15669
| 74>    C       -9.30158        18.47037         1.83060
| 75>    N       -8.16915        18.32670         1.95310
| 76>    C      -13.03127        18.22391         0.99768
| 77>    C      -13.65026        17.17979         0.25176
| 78>    C      -12.63099        16.23470        -0.21157
| 79>    O      -12.81961        15.19294        -0.80578
| 80>    C      -14.99674        17.15516         0.02061
| 81>    C      -15.80075        18.19987         0.52505
| 82>    C      -15.18975        19.25174         1.26833
| 83>    C      -13.79559        19.24606         1.49834
| 84>    C      -16.00129        20.29405         1.76167
| 85>    C      -17.35006        20.29951         1.53194
| 86>    C      -17.95041        19.26329         0.80043
| 87>    C      -17.19258        18.23583         0.30808
| 88>    H        5.72308         2.53422         1.16165
| 89>    H        4.71683        -0.06797        -2.97055
| 90>    H        6.94167        -1.01003        -2.92113
| 91>    H        9.16078        -1.20668        -1.87183
| 92>    H        9.68757         0.06640         0.16979
| 93>    H        7.99723         1.54675         1.18029
| 94>    H        0.41577         3.11937        -2.11412
| 95>    H        1.35197         4.57242         1.44173
| 96>    H       -2.96717         7.12422        -0.76367
| 97>    H       -2.01824         8.08073         1.99539
| 98>    H       -3.56055        11.09622         3.57489
| 99>    H       -2.21850        10.02208         3.11600
|100>    H       -4.89797         9.15055         4.32387
|101>    H       -3.34794         9.19703         5.17057
|102>    H       -3.60013         8.04341         3.85957
|103>    H       -7.58786         9.57062        -3.07483
|104>    H       -6.24285         8.47930        -3.45528
|105>    H       -6.06418        11.51808        -3.80183
|106>    H       -6.39422        10.36655        -5.10414
|107>    H       -4.85117        10.31842        -4.24865
|108>    H       -7.02967        12.26857         0.04866
|109>    H       -8.11444        11.52375        -2.72569
|110>    H      -12.33933        14.45510        -3.62024
|111>    H       -8.32603        14.14325         0.20841
|112>    H       -9.22548        16.67586         0.43598
|113>    H      -15.43907        16.35238        -0.55039
|114>    H      -13.36522        20.05883         2.06128
|115>    H      -15.53482        21.08973         2.32366
|116>    H      -17.96262        21.10330         1.91186
|117>    H      -19.01616        19.28422         0.62865
|118>    H      -17.64876        17.43599        -0.25659
|119> *
|120>
|121>                          ****END OF INPUT****

CARTESIAN COORDINATES (ANGSTROEM)
---------------------------------
  C      2.600590    1.630090   -1.892790
  C      1.899840    1.000930   -2.888360
  C      2.444050    0.001000   -3.722990
  N      2.821200   -0.813800   -4.438020
  C      0.542150    1.210480   -3.212050
  N     -0.558160    1.300490   -3.529320
  C      3.972990    1.321380   -1.512330
  C      4.290120    2.057060   -0.336440
  C      5.510870    1.965970    0.268180
  C      6.494060    1.120690   -0.291880
  C      6.188070    0.385270   -1.473530
  C      4.913360    0.498210   -2.074260
  C      7.177600   -0.453190   -2.026190
  C      8.409820   -0.561510   -1.441140
  C      8.709890    0.163330   -0.278000
  C      7.772310    0.986300    0.284700
  C      3.134740    2.875210    0.063830
  O      3.072660    3.579310    1.050020
  C      2.104950    2.658980   -0.986520
  C      0.947310    3.351520   -1.198310
  C      0.312150    4.368280   -0.448250
  S     -1.078870    5.136140   -1.187660
  C     -1.313160    6.179190    0.170520
  C     -0.351390    5.910550    1.160330
  C      0.548610    4.900500    0.806700
  C     -0.271990    6.562260    2.403090
  N     -0.183710    7.071460    3.428050
  C     -2.354550    7.135240    0.129300
  C     -2.616750    8.054730    1.098200
  C     -3.645640    9.016510    0.967480
  N     -3.925770    9.966790    1.921120
  C     -3.304680   10.094590    3.218290
  C     -3.821780    9.050770    4.204390
  C     -4.964690   10.829330    1.519430
  O     -5.384020   11.745880    2.192800
  C     -5.329520   10.347280    0.204570
  C     -4.515350    9.234740   -0.103340
  C     -4.893280    8.775130   -1.418720
  O     -4.491480    7.856020   -2.106030
  N     -5.923900    9.648000   -1.823260
  C     -6.499790    9.494660   -3.137510
  C     -5.918170   10.493310   -4.135710
  C     -6.184500   10.603690   -0.865250
  C     -7.099740   11.688050   -0.861970
  C     -7.992150   12.073670   -1.806190
  C     -8.825100   13.222450   -1.685470
  S     -9.921830   13.599680   -2.987150
  C    -10.483220   15.013990   -2.180150
  C    -11.405520   15.958320   -2.847340
  O    -11.336080   17.147110   -2.683630
  O    -12.298640   15.419260   -3.683620
  C     -9.853630   15.185390   -0.956970
  C     -8.909220   14.173470   -0.693940
  C    -10.110130   16.275170   -0.041370
  C    -11.322260   16.792130    0.247080
  C    -11.598230   17.973140    1.060700
  C    -10.687910   18.724770    1.750310
  C    -11.020190   19.865850    2.513660
  N    -11.222230   20.794690    3.156690
  C     -9.301580   18.470370    1.830600
  N     -8.169150   18.326700    1.953100
  C    -13.031270   18.223910    0.997680
  C    -13.650260   17.179790    0.251760
  C    -12.630990   16.234700   -0.211570
  O    -12.819610   15.192940   -0.805780
  C    -14.996740   17.155160    0.020610
  C    -15.800750   18.199870    0.525050
  C    -15.189750   19.251740    1.268330
  C    -13.795590   19.246060    1.498340
  C    -16.001290   20.294050    1.761670
  C    -17.350060   20.299510    1.531940
  C    -17.950410   19.263290    0.800430
  C    -17.192580   18.235830    0.308080
  H      5.723080    2.534220    1.161650
  H      4.716830   -0.067970   -2.970550
  H      6.941670   -1.010030   -2.921130
  H      9.160780   -1.206680   -1.871830
  H      9.687570    0.066400    0.169790
  H      7.997230    1.546750    1.180290
  H      0.415770    3.119370   -2.114120
  H      1.351970    4.572420    1.441730
  H     -2.967170    7.124220   -0.763670
  H     -2.018240    8.080730    1.995390
  H     -3.560550   11.096220    3.574890
  H     -2.218500   10.022080    3.116000
  H     -4.897970    9.150550    4.323870
  H     -3.347940    9.197030    5.170570
  H     -3.600130    8.043410    3.859570
  H     -7.587860    9.570620   -3.074830
  H     -6.242850    8.479300   -3.455280
  H     -6.064180   11.518080   -3.801830
  H     -6.394220   10.366550   -5.104140
  H     -4.851170   10.318420   -4.248650
  H     -7.029670   12.268570    0.048660
  H     -8.114440   11.523750   -2.725690
  H    -12.339330   14.455100   -3.620240
  H     -8.326030   14.143250    0.208410
  H     -9.225480   16.675860    0.435980
  H    -15.439070   16.352380   -0.550390
  H    -13.365220   20.058830    2.061280
  H    -15.534820   21.089730    2.323660
  H    -17.962620   21.103300    1.911860
  H    -19.016160   19.284220    0.628650
  H    -17.648760   17.435990   -0.256590

 Total Charge           Charge          ....    0
 Multiplicity           Mult            ....    1
 Number of Electrons    NEL             ....  508
 Basis Dimension        Dim             .... 1185

ORBITAL ENERGIES
----------------

  NO   OCC          E(Eh)            E(eV)
   0   2.0000     -88.987539     -2421.4741
   1   2.0000     -88.987220     -2421.4654
   2   2.0000     -19.267540      -524.2964
   3   2.0000     -19.225302      -523.1471
   4   2.0000     -19.221113      -523.0331
   5   2.0000     -19.203855      -522.5635
   6   2.0000     -19.201251      -522.4926
   7   2.0000     -19.194248      -522.3020
   8   2.0000     -14.461813      -393.5259
   9   2.0000     -14.457652      -393.4127
  10   2.0000     -14.420674      -392.4065
  11   2.0000     -14.420026      -392.3888
  12   2.0000     -14.418168      -392.3383
  13   2.0000     -14.417872      -392.3302
  14   2.0000     -14.416339      -392.2885
  15   2.0000     -10.415369      -283.4166
  16   2.0000     -10.382846      -282.5316
  17   2.0000     -10.378362      -282.4096
  18   2.0000     -10.376130      -282.3489
  19   2.0000     -10.372984      -282.2632
  20   2.0000     -10.348059      -281.5850
  21   2.0000     -10.346710      -281.5483
  22   2.0000     -10.346544      -281.5438
  23   2.0000     -10.346337      -281.5381
  24   2.0000     -10.345549      -281.5167
  25   2.0000     -10.345170      -281.5064
  26   2.0000     -10.342538      -281.4348
  27   2.0000     -10.332554      -281.1631
  28   2.0000     -10.331485      -281.1340
  29   2.0000     -10.328394      -281.0499
  30   2.0000     -10.328272      -281.0466
  31   2.0000     -10.326184      -280.9897
  32   2.0000     -10.323218      -280.9090
  33   2.0000     -10.321039      -280.8497
  34   2.0000     -10.320700      -280.8405
  35   2.0000     -10.320323      -280.8303
  36   2.0000     -10.320216      -280.8274
  37   2.0000     -10.318830      -280.7896
  38   2.0000     -10.315145      -280.6894
  39   2.0000     -10.312669      -280.6220
  40   2.0000     -10.309712      -280.5415
  41   2.0000     -10.309396      -280.5329
  42   2.0000     -10.308672      -280.5132
  43   2.0000     -10.307461      -280.4803
  44   2.0000     -10.307423      -280.4792
  45   2.0000     -10.306512      -280.4545
  46   2.0000     -10.306150      -280.4446
  47   2.0000     -10.304895      -280.4105
  48   2.0000     -10.304218      -280.3920
  49   2.0000     -10.302529      -280.3461
  50   2.0000     -10.301131      -280.3080
  51   2.0000     -10.300902      -280.3018
  52   2.0000     -10.300444      -280.2893
  53   2.0000     -10.300261      -280.2844
  54   2.0000     -10.299774      -280.2711
  55   2.0000     -10.299585      -280.2660
  56   2.0000     -10.299489      -280.2633
  57   2.0000     -10.299303      -280.2583
  58   2.0000     -10.298129      -280.2263
  59   2.0000     -10.292476      -280.0725
  60   2.0000     -10.290393      -280.0158
  61   2.0000     -10.289598      -279.9942
  62   2.0000     -10.289098      -279.9806
  63   2.0000     -10.288842      -279.9736
  64   2.0000     -10.288362      -279.9606
  65   2.0000     -10.288313      -279.9592
  66   2.0000     -10.287815      -279.9457
  67   2.0000     -10.287523      -279.9377
  68   2.0000     -10.286876      -279.9201
  69   2.0000     -10.270118      -279.4641
  70   2.0000     -10.270056      -279.4624
  71   2.0000     -10.268836      -279.4292
  72   2.0000     -10.260863      -279.2123
  73   2.0000      -8.083330      -219.9586
  74   2.0000      -8.082882      -219.9464
  75   2.0000      -6.052398      -164.6941
  76   2.0000      -6.051893      -164.6804
  77   2.0000      -6.048295      -164.5825
  78   2.0000      -6.047823      -164.5696
  79   2.0000      -6.045837      -164.5156
  80   2.0000      -6.045325      -164.5017
  81   2.0000      -1.191771       -32.4297
  82   2.0000      -1.141040       -31.0493
  83   2.0000      -1.140083       -31.0232
  84   2.0000      -1.136836       -30.9349
  85   2.0000      -1.132389       -30.8139
  86   2.0000      -1.104080       -30.0435
  87   2.0000      -1.069868       -29.1126
  88   2.0000      -1.061010       -28.8716
  89   2.0000      -1.025527       -27.9060
  90   2.0000      -1.021927       -27.8081
  91   2.0000      -1.020143       -27.7595
  92   2.0000      -1.012017       -27.5384
  93   2.0000      -1.002992       -27.2928
  94   2.0000      -1.000347       -27.2208
  95   2.0000      -0.999086       -27.1865
  96   2.0000      -0.997233       -27.1361
  97   2.0000      -0.995369       -27.0854
  98   2.0000      -0.975492       -26.5445
  99   2.0000      -0.973012       -26.4770
 100   2.0000      -0.937793       -25.5186
 101   2.0000      -0.933659       -25.4062
 102   2.0000      -0.930382       -25.3170
 103   2.0000      -0.925020       -25.1711
 104   2.0000      -0.921943       -25.0873
 105   2.0000      -0.908056       -24.7095
 106   2.0000      -0.905804       -24.6482
 107   2.0000      -0.888773       -24.1847
 108   2.0000      -0.885215       -24.0879
 109   2.0000      -0.884142       -24.0587
 110   2.0000      -0.881874       -23.9970
 111   2.0000      -0.879035       -23.9198
 112   2.0000      -0.872528       -23.7427
 113   2.0000      -0.857241       -23.3267
 114   2.0000      -0.847497       -23.0616
 115   2.0000      -0.842972       -22.9384
 116   2.0000      -0.831773       -22.6337
 117   2.0000      -0.830196       -22.5908
 118   2.0000      -0.824668       -22.4404
 119   2.0000      -0.810409       -22.0524
 120   2.0000      -0.800487       -21.7823
 121   2.0000      -0.787371       -21.4254
 122   2.0000      -0.778087       -21.1728
 123   2.0000      -0.766848       -20.8670
 124   2.0000      -0.764586       -20.8054
 125   2.0000      -0.764514       -20.8035
 126   2.0000      -0.740285       -20.1442
 127   2.0000      -0.734243       -19.9798
 128   2.0000      -0.726673       -19.7738
 129   2.0000      -0.720212       -19.5980
 130   2.0000      -0.712292       -19.3825
 131   2.0000      -0.708216       -19.2715
 132   2.0000      -0.707143       -19.2424
 133   2.0000      -0.705058       -19.1856
 134   2.0000      -0.702786       -19.1238
 135   2.0000      -0.699774       -19.0418
 136   2.0000      -0.697336       -18.9755
 137   2.0000      -0.685466       -18.6525
 138   2.0000      -0.683738       -18.6054
 139   2.0000      -0.678526       -18.4636
 140   2.0000      -0.673893       -18.3376
 141   2.0000      -0.664034       -18.0693
 142   2.0000      -0.657654       -17.8957
 143   2.0000      -0.654970       -17.8226
 144   2.0000      -0.641829       -17.4650
 145   2.0000      -0.638845       -17.3838
 146   2.0000      -0.632231       -17.2039
 147   2.0000      -0.621506       -16.9120
 148   2.0000      -0.611217       -16.6321
 149   2.0000      -0.610622       -16.6159
 150   2.0000      -0.608629       -16.5616
 151   2.0000      -0.607993       -16.5443
 152   2.0000      -0.605772       -16.4839
 153   2.0000      -0.599588       -16.3156
 154   2.0000      -0.591596       -16.0981
 155   2.0000      -0.584898       -15.9159
 156   2.0000      -0.578826       -15.7506
 157   2.0000      -0.574225       -15.6255
 158   2.0000      -0.571472       -15.5505
 159   2.0000      -0.564807       -15.3692
 160   2.0000      -0.563250       -15.3268
 161   2.0000      -0.556750       -15.1499
 162   2.0000      -0.555511       -15.1162
 163   2.0000      -0.550637       -14.9836
 164   2.0000      -0.549807       -14.9610
 165   2.0000      -0.548536       -14.9264
 166   2.0000      -0.544020       -14.8035
 167   2.0000      -0.541164       -14.7258
 168   2.0000      -0.539663       -14.6850
 169   2.0000      -0.538807       -14.6617
 170   2.0000      -0.535856       -14.5814
 171   2.0000      -0.534858       -14.5542
 172   2.0000      -0.533592       -14.5198
 173   2.0000      -0.532644       -14.4940
 174   2.0000      -0.529040       -14.3959
 175   2.0000      -0.526891       -14.3374
 176   2.0000      -0.523234       -14.2379
 177   2.0000      -0.522046       -14.2056
 178   2.0000      -0.521132       -14.1807
 179   2.0000      -0.519049       -14.1240
 180   2.0000      -0.517006       -14.0684
 181   2.0000      -0.516362       -14.0509
 182   2.0000      -0.514215       -13.9925
 183   2.0000      -0.514098       -13.9893
 184   2.0000      -0.508995       -13.8505
 185   2.0000      -0.507380       -13.8065
 186   2.0000      -0.505007       -13.7419
 187   2.0000      -0.502226       -13.6663
 188   2.0000      -0.500182       -13.6106
 189   2.0000      -0.497794       -13.5457
 190   2.0000      -0.493468       -13.4279
 191   2.0000      -0.491125       -13.3642
 192   2.0000      -0.488593       -13.2953
 193   2.0000      -0.486578       -13.2405
 194   2.0000      -0.482507       -13.1297
 195   2.0000      -0.479625       -13.0513
 196   2.0000      -0.474774       -12.9193
 197   2.0000      -0.471595       -12.8327
 198   2.0000      -0.469583       -12.7780
 199   2.0000      -0.469009       -12.7624
 200   2.0000      -0.467821       -12.7301
 201   2.0000      -0.462943       -12.5973
 202   2.0000      -0.461115       -12.5476
 203   2.0000      -0.459542       -12.5048
 204   2.0000      -0.454418       -12.3653
 205   2.0000      -0.452696       -12.3185
 206   2.0000      -0.452399       -12.3104
 207   2.0000      -0.450389       -12.2557
 208   2.0000      -0.450211       -12.2509
 209   2.0000      -0.447532       -12.1780
 210   2.0000      -0.446809       -12.1583
 211   2.0000      -0.446306       -12.1446
 212   2.0000      -0.445635       -12.1263
 213   2.0000      -0.444593       -12.0980
 214   2.0000      -0.443515       -12.0687
 215   2.0000      -0.442778       -12.0486
 216   2.0000      -0.440672       -11.9913
 217   2.0000      -0.437334       -11.9005
 218   2.0000      -0.436886       -11.8883
 219   2.0000      -0.435254       -11.8439
 220   2.0000      -0.433594       -11.7987
 221   2.0000      -0.430478       -11.7139
 222   2.0000      -0.429610       -11.6903
 223   2.0000      -0.428045       -11.6477
 224   2.0000      -0.427085       -11.6216
 225   2.0000      -0.422962       -11.5094
 226   2.0000      -0.421183       -11.4610
 227   2.0000      -0.415701       -11.3118
 228   2.0000      -0.415024       -11.2934
 229   2.0000      -0.411723       -11.2035
 230   2.0000      -0.409258       -11.1365
 231   2.0000      -0.407789       -11.0965
 232   2.0000      -0.401851       -10.9349
 233   2.0000      -0.392696       -10.6858
 234   2.0000      -0.388098       -10.5607
 235   2.0000      -0.379328       -10.3220
 236   2.0000      -0.377857       -10.2820
 237   2.0000      -0.365276        -9.9397
 238   2.0000      -0.356456        -9.6997
 239   2.0000      -0.355695        -9.6789
 240   2.0000      -0.351843        -9.5741
 241   2.0000      -0.346571        -9.4307
 242   2.0000      -0.344141        -9.3646
 243   2.0000      -0.343890        -9.3577
 244   2.0000      -0.338053        -9.1989
 245   2.0000      -0.326388        -8.8815
 246   2.0000      -0.322497        -8.7756
 247   2.0000      -0.321273        -8.7423
 248   2.0000      -0.317839        -8.6488
 249   2.0000      -0.304169        -8.2769
 250   2.0000      -0.300531        -8.1779
 251   2.0000      -0.293679        -7.9914
 252   2.0000      -0.291245        -7.9252
 253   2.0000      -0.241966        -6.5842
 254   0.0000      -0.115400        -3.1402
 255   0.0000      -0.093704        -2.5498
 256   0.0000      -0.085156        -2.3172
 257   0.0000      -0.063876        -1.7382
 258   0.0000      -0.060950        -1.6585

MULLIKEN ATOMIC CHARGES
-----------------------
   0 C :    0.310511
   1 C :   -0.347080
   2 C :   -0.182138
   3 N :    0.147718
   4 C :   -0.195883
   5 N :    0.160522
   6 C :    0.044930
   7 C :   -0.000107
   8 C :   -0.080836
   9 C :    0.098896
  10 C :    0.097357
  11 C :   -0.080801
  12 C :   -0.018280
  13 C :    0.036335
  14 C :    0.038609
  15 C :   -0.016480
  16 C :    0.162421
  17 O :   -0.154035
  18 C :   -0.085683
  19 C :    0.057705
  20 C :   -0.108747
  21 S :    0.200595
  22 C :   -0.053042
  23 C :   -0.091715
  24 C :    0.036442
  25 C :   -0.156461
  26 N :    0.121055
  27 C :    0.059503
  28 C :   -0.027837
  29 C :    0.139653
  30 N :   -0.264680
  31 C :    0.092322
  32 C :    0.008092
  33 C :    0.155189
  34 O :   -0.189470
  35 C :   -0.047812
  36 C :   -0.057291
  37 C :    0.165624
  38 O :   -0.210077
  39 N :   -0.267759
  40 C :    0.097120
  41 C :    0.000775
  42 C :    0.114818
  43 C :   -0.036223
  44 C :    0.089493
  45 C :   -0.091636
  46 S :    0.140131
  47 C :   -0.185521
  48 C :    0.184426
  49 O :   -0.180705
  50 O :   -0.149143
  51 C :    0.114148
  52 C :   -0.007975
  53 C :   -0.046560
  54 C :   -0.028321
  55 C :    0.316376
  56 C :   -0.341369
  57 C :   -0.182681
  58 N :    0.150750
  59 C :   -0.187532
  60 N :    0.157375
  61 C :    0.052062
  62 C :    0.003148
  63 C :    0.158823
  64 O :   -0.168243
  65 C :   -0.074759
  66 C :    0.099269
  67 C :    0.098776
  68 C :   -0.084567
  69 C :   -0.018306
  70 C :    0.037481
  71 C :    0.036971
  72 C :   -0.015601
  73 H :   -0.011895
  74 H :   -0.007964
  75 H :   -0.008693
  76 H :   -0.003168
  77 H :   -0.004216
  78 H :   -0.016611
  79 H :    0.011913
  80 H :    0.027712
  81 H :    0.007596
  82 H :   -0.010150
  83 H :    0.043992
  84 H :    0.037905
  85 H :    0.025430
  86 H :    0.030243
  87 H :    0.017317
  88 H :    0.026125
  89 H :    0.046040
  90 H :    0.022454
  91 H :    0.022780
  92 H :    0.030448
  93 H :    0.010381
  94 H :   -0.022477
  95 H :    0.184891
  96 H :    0.012389
  97 H :    0.028976
  98 H :   -0.013469
  99 H :   -0.006871
 100 H :   -0.007715
 101 H :   -0.003458
 102 H :   -0.003190
 103 H :   -0.016782
Sum of atomic charges:   -0.0000000

LOEWDIN ATOMIC CHARGES
----------------------
   0 C :    0.076204
   1 C :   -0.137910
   2 C :   -0.016720
   3 N :   -0.051275
   4 C :   -0.026099
   5 N :   -0.047839
   6 C :   -0.026867
   7 C :   -0.056186
   8 C :    0.033933
   9 C :   -0.007976
  10 C :   -0.005620
  11 C :    0.020656
  12 C :   -0.004785
  13 C :   -0.012088
  14 C :   -0.010880
  15 C :   -0.008820
  16 C :    0.089164
  17 O :   -0.139905
  18 C :   -0.085693
  19 C :    0.045444
  20 C :   -0.178651
  21 S :    0.503603
  22 C :   -0.126856
  23 C :   -0.108254
  24 C :    0.020932
  25 C :   -0.023464
  26 N :   -0.055840
  27 C :   -0.005922
  28 C :   -0.018698
  29 C :    0.077396
  30 N :   -0.000411
  31 C :    0.036525
  32 C :   -0.058616
  33 C :    0.079034
  34 O :   -0.192557
  35 C :   -0.109136
  36 C :   -0.118386
  37 C :    0.083436
  38 O :   -0.197761
  39 N :   -0.003025
  40 C :    0.034571
  41 C :   -0.062935
  42 C :    0.070736
  43 C :   -0.021985
  44 C :   -0.026656
  45 C :   -0.162469
  46 S :    0.461938
  47 C :   -0.205881
  48 C :    0.059476
  49 O :   -0.158768
  50 O :   -0.018978
  51 C :   -0.042341
  52 C :   -0.023598
  53 C :    0.079043
  54 C :   -0.064909
  55 C :    0.080054
  56 C :   -0.129154
  57 C :   -0.015745
  58 N :   -0.049070
  59 C :   -0.019444
  60 N :   -0.044956
  61 C :   -0.021929
  62 C :   -0.053074
  63 C :    0.096153
  64 O :   -0.148909
  65 C :    0.038678
  66 C :   -0.007270
  67 C :   -0.003467
  68 C :    0.021508
  69 C :   -0.004478
  70 C :   -0.011297
  71 C :   -0.011256
  72 C :   -0.008240
  73 H :    0.039480
  74 H :    0.039236
  75 H :    0.035105
  76 H :    0.033859
  77 H :    0.033357
  78 H :    0.032339
  79 H :    0.044056
  80 H :    0.043029
  81 H :    0.037963
  82 H :    0.037587
  83 H :    0.038547
  84 H :    0.027978
  85 H :    0.030215
  86 H :    0.034600
  87 H :    0.022999
  88 H :    0.020756
  89 H :    0.038682
  90 H :    0.022143
  91 H :    0.031038
  92 H :    0.033769
  93 H :    0.047442
  94 H :    0.027421
  95 H :    0.089154
  96 H :    0.041564
  97 H :    0.048545
  98 H :    0.039227
  99 H :    0.039562
 100 H :    0.035410
 101 H :    0.033856
 102 H :    0.033445
 103 H :    0.032203

  Mayer bond orders larger than 0.100000
B(  0-C ,  1-C ) :   1.6342 B(  0-C ,  6-C ) :   0.9852 B(  0-C , 18-C ) :   1.0669
B(  1-C ,  2-C ) :   1.1465 B(  1-C ,  4-C ) :   1.1351 B(  2-C ,  3-N ) :   2.9650
B(  4-C ,  5-N ) :   2.9819 B(  6-C ,  7-C ) :   1.2156 B(  6-C , 11-C ) :   1.4468
B(  7-C ,  8-C ) :   1.4656 B(  7-C , 16-C ) :   0.9578 B(  8-C ,  9-C ) :   1.1784
B(  8-C , 73-H ) :   1.0176 B(  9-C , 10-C ) :   1.2555 B(  9-C , 15-C ) :   1.2428
B( 10-C , 11-C ) :   1.2064 B( 10-C , 12-C ) :   1.2387 B( 11-C , 74-H ) :   0.9908
B( 12-C , 13-C ) :   1.4887 B( 12-C , 75-H ) :   0.9980 B( 13-C , 14-C ) :   1.2581
B( 13-C , 76-H ) :   0.9892 B( 14-C , 15-C ) :   1.4890 B( 14-C , 77-H ) :   0.9891
B( 15-C , 78-H ) :   0.9986 B( 16-C , 17-O ) :   2.1684 B( 16-C , 18-C ) :   0.9327
B( 18-C , 19-C ) :   1.6220 B( 19-C , 20-C ) :   1.1857 B( 19-C , 79-H ) :   0.9138
B( 20-C , 21-S ) :   1.1092 B( 20-C , 24-C ) :   1.4279 B( 21-S , 22-C ) :   1.1851
B( 22-C , 23-C ) :   1.3787 B( 22-C , 27-C ) :   1.1637 B( 23-C , 24-C ) :   1.3151
B( 23-C , 25-C ) :   1.1208 B( 24-C , 80-H ) :   0.9810 B( 25-C , 26-N ) :   2.9665
B( 27-C , 28-C ) :   1.6010 B( 27-C , 81-H ) :   0.9219 B( 28-C , 29-C ) :   1.1748
B( 28-C , 82-H ) :   0.9478 B( 29-C , 30-N ) :   1.1703 B( 29-C , 36-C ) :   1.3209
B( 30-N , 31-C ) :   0.9368 B( 30-N , 33-C ) :   1.0382 B( 31-C , 32-C ) :   1.1231
B( 31-C , 83-H ) :   0.9273 B( 31-C , 84-H ) :   0.9480 B( 32-C , 85-H ) :   0.9635
B( 32-C , 86-H ) :   0.9675 B( 32-C , 87-H ) :   0.9678 B( 33-C , 34-O ) :   2.1308
B( 33-C , 35-C ) :   0.9726 B( 35-C , 36-C ) :   1.2524 B( 35-C , 42-C ) :   1.3445
B( 36-C , 37-C ) :   0.9872 B( 37-C , 38-O ) :   2.0153 B( 37-C , 39-N ) :   1.0640
B( 38-O , 81-H ) :   0.1157 B( 39-N , 40-C ) :   0.9433 B( 39-N , 42-C ) :   1.1580
B( 40-C , 41-C ) :   1.1157 B( 40-C , 88-H ) :   0.9511 B( 40-C , 89-H ) :   0.9238
B( 41-C , 90-H ) :   0.9686 B( 41-C , 91-H ) :   0.9683 B( 41-C , 92-H ) :   0.9611
B( 42-C , 43-C ) :   1.1930 B( 43-C , 44-C ) :   1.6147 B( 43-C , 93-H ) :   0.9458
B( 44-C , 45-C ) :   1.1080 B( 44-C , 94-H ) :   0.9610 B( 45-C , 46-S ) :   1.1271
B( 45-C , 52-C ) :   1.4924 B( 46-S , 47-C ) :   1.1424 B( 47-C , 48-C ) :   0.9026
B( 47-C , 51-C ) :   1.5303 B( 48-C , 49-O ) :   2.1653 B( 48-C , 50-O ) :   1.2551
B( 50-O , 95-H ) :   0.9469 B( 51-C , 52-C ) :   1.2586 B( 51-C , 53-C ) :   1.0339
B( 52-C , 96-H ) :   0.9979 B( 53-C , 54-C ) :   1.7272 B( 53-C , 97-H ) :   0.9331
B( 54-C , 55-C ) :   1.0427 B( 54-C , 63-C ) :   0.9166 B( 55-C , 56-C ) :   1.6546
B( 55-C , 61-C ) :   1.0005 B( 56-C , 57-C ) :   1.1408 B( 56-C , 59-C ) :   1.1409
B( 57-C , 58-N ) :   2.9660 B( 59-C , 60-N ) :   2.9667 B( 61-C , 62-C ) :   1.2102
B( 61-C , 68-C ) :   1.4403 B( 62-C , 63-C ) :   0.9553 B( 62-C , 65-C ) :   1.4602
B( 63-C , 64-O ) :   2.1903 B( 65-C , 66-C ) :   1.1861 B( 65-C , 98-H ) :   1.0153
B( 66-C , 67-C ) :   1.2529 B( 66-C , 72-C ) :   1.2410 B( 67-C , 68-C ) :   1.2115
B( 67-C , 69-C ) :   1.2384 B( 68-C , 99-H ) :   0.9891 B( 69-C , 70-C ) :   1.4911
B( 69-C ,100-H ) :   0.9971 B( 70-C , 71-C ) :   1.2575 B( 70-C ,101-H ) :   0.9880
B( 71-C , 72-C ) :   1.4914 B( 71-C ,102-H ) :   0.9887 B( 72-C ,103-H ) :   0.9976

-----------------------------------------------------------------------------
         ABSORPTION SPECTRUM VIA TRANSITION ELECTRIC DIPOLE MOMENTS
-----------------------------------------------------------------------------
State   Energy  Wavelength   fosc         T2         TX        TY        TZ
        (cm-1)    (nm)                  (au**2)     (au)      (au)      (au)
-----------------------------------------------------------------------------
   0   13250.8    754.7   1.189301283  29.54781  -4.03989   3.56600  -0.71465
   1   19758.9    506.1   0.036249932   0.60398  -0.01314   0.32395   0.70630
   2   21212.5    471.4   0.145372026   2.25613   0.50131   0.06818   1.41427
   3   23687.5    422.2   0.612858804   8.51760   1.54585  -2.20571  -1.12374
   4   25223.8    396.5   0.049755794   0.64940  -0.56537   0.52954   0.22214
   5   25551.7    391.4   0.035264762   0.45436  -0.15863  -0.31897  -0.57223
   6   25805.4    387.5   0.369135051   4.70924   1.60898  -1.41950  -0.32472
   7   26648.0    375.3   0.023528704   0.29068  -0.50963  -0.13057  -0.11792
   8   26681.5    374.8   0.061593161   0.75997  -0.80055   0.34439  -0.02214
   9   27203.7    367.6   0.320117227   3.87397  -1.14202   1.59971   0.10337
  10   27669.5    361.4   0.029132714   0.34662  -0.16978   0.41580   0.38067
  11   27733.6    360.6   0.010472319   0.12431   0.24695  -0.25140  -0.01113
  12   28102.9    355.8   0.060039151   0.70333   0.56444  -0.51772  -0.34161
  13   28558.0    350.2   0.050358056   0.58052   0.55236  -0.08334   0.51815
  14   28824.4    346.9   0.011664296   0.13322   0.02194  -0.32723  -0.16019
  15   28869.5    346.4   0.128070372   1.46044   1.11616  -0.37644   0.27002
  16   30736.3    325.3   0.123758649   1.32556  -0.94383   0.12774  -0.64686
  17   30951.6    323.1   0.005862530   0.06236  -0.05083   0.22036  -0.10591
  18   31128.6    321.2   0.164680752   1.74164   0.57907  -0.92094  -0.74712
  19   31339.2    319.1   0.002958665   0.03108   0.07347  -0.14031  -0.07743
  20   31751.8    314.9   0.077873469   0.80741   0.42708   0.60258   0.51178
  21   32827.7    304.6   0.733497560   7.35586   2.56429  -0.51802   0.71549
  22   33339.3    299.9   0.110265377   1.08883   0.82814  -0.51148  -0.37602
  23   33635.4    297.3   0.063599132   0.62249  -0.13500   0.31821   0.70923
  24   33726.0    296.5   1.122234281  10.95455  -3.20759   0.79744   0.17314
  25   34153.0    292.8   0.063574757   0.61282   0.19061  -0.63160  -0.42139
  26   34487.8    290.0   0.002566815   0.02450   0.07662  -0.13579   0.01392
  27   34678.6    288.4   0.177050611   1.68078  -0.68419   0.96496   0.53058
  28   34935.7    286.2   0.002290649   0.02159  -0.11173   0.07365  -0.06065
  29   35332.3    283.0   0.171120382   1.59443  -0.41246   1.16990   0.23587
  30   35674.4    280.3   0.020987263   0.19368   0.08190   0.40979   0.13799
  31   35870.4    278.8   0.112695420   1.03430  -0.90159   0.19315  -0.42911
  32   36531.9    273.7   0.066433266   0.59867   0.63815   0.28773   0.32963
  33   36718.2    272.3   0.006798938   0.06096   0.05329  -0.19869  -0.13654
  34   36842.7    271.4   0.058939407   0.52666  -0.30070  -0.38464  -0.53693
  35   36887.8    271.1   0.063820586   0.56958   0.40840   0.27857   0.57025
  36   37148.2    269.2   0.043395740   0.38458  -0.56348   0.23344  -0.11216
  37   37602.1    265.9   0.018652785   0.16331  -0.15105  -0.26018  -0.26981
  38   38353.2    260.7   0.186690744   1.60250   0.36944   0.72255   0.97156
  39   38389.7    260.5   0.142397580   1.22113   0.39409   0.63532   0.81375
  40   38570.9    259.3   0.100545026   0.85818   0.44212   0.42365   0.69514
  41   38687.8    258.5   0.099973893   0.85072   0.73935  -0.45200   0.31589
  42   39139.3    255.5   0.106809127   0.89840   0.16930   0.84357   0.39765
  43   39203.3    255.1   0.046247060   0.38836   0.06129   0.55894   0.26869
  44   39586.6    252.6   0.000810428   0.00674   0.03677  -0.05446  -0.04921
  45   39894.8    250.7   0.012020288   0.09919   0.28964  -0.01072   0.12323
  46   40170.0    248.9   0.002528539   0.02072   0.13801  -0.03916   0.01187
  47   40270.3    248.3   0.041731745   0.34116   0.43867  -0.30249  -0.23922

FINAL SINGLE POINT ENERGY     -3855.687945625278

DIPOLE MOMENT
-------------
                                X             Y             Z
Electronic contribution:     -1.60070       0.38233      -7.76865
Nuclear contribution   :      1.18781      -1.61099       7.27123
                        -----------------------------------------
Total Dipole Moment    :     -0.41289      -1.22866      -0.49742
                        -----------------------------------------
Magnitude (a.u.)       :      1.38835
Magnitude (Debye)      :      3.52890

Rotational constants in cm-1:     0.003017     0.000183     0.000176
Rotational constants in MHz :    90.434593     5.496272     5.289128

                             ****ORCA TERMINATED NORMALLY****
TOTAL RUN TIME: 0 days 0 hours 9 minutes 12 seconds 12 msec
