                         Program Version 4.2.0 -  RELEASE  -
|  1> # ORCA input file
|  2> # SCF done       -175.007320049616          0.000699131730
|  3> ! CAM-B3LYP def2-SVP def2/J RIJCOSX Grid4 TightSCF
|  4> %maxcore 5000
|  5> %tddft
|  6>     Mode sTDDFT
|  7>     Ethresh 5.0
|  8>     maxcore 5000
|  9> end
| 10>
| 11> %pal
| 12>   nprocs 6
| 13>   end
| 14> * xyz 0 1
| 15>    C        0.07395        -0.26204         2.49597
| 16>    C       -0.63485        -1.26928         1.90244
| 17>    C       -0.00364        -2.28632         1.16368
| 18>    C        1.36305        -2.32379         0.99654
| 19>    C        2.12612        -1.27181         1.57179
| 20>    C        1.47411        -0.24251         2.33943
| 21>    N        2.30108         0.67129         2.83794
| 22>   Se        3.93545         0.27524         2.36538
| 23>    N        3.43921        -1.12841         1.45672
| 24>    C        2.04309        -3.40125         0.30916
| 25>    C        3.10527        -4.14000         0.78065
| 26>    N        3.73478        -4.05566         2.03679
| 27>    O        3.18073        -3.44169         2.93328
| 28>    O        4.79809        -4.63790         2.16453
| 29>    C        3.46272        -5.14160        -0.19802
| 30>    C        2.59059        -5.06199        -1.23064
| 31>    C        1.68474        -3.96576        -0.99141
| 32>    C        0.75638        -3.44260        -1.87118
| 33>    C        0.33083        -2.08278        -1.93419
| 34>    C       -0.37417        -1.90373        -3.08368
| 35>    C       -0.48690        -3.15042        -3.78254
| 36>    N       -1.27472        -3.22216        -4.93356
| 37>    O       -1.36948        -4.27786        -5.55139
| 38>    O       -1.85319        -2.20238        -5.27999
| 39>    C        0.18220        -4.14352        -3.04376
| 40>    C        0.24396        -5.54243        -3.12949
| 41>    C        0.04629        -6.33172        -4.23871
| 42>    C        0.12756        -7.73072        -4.22648
| 43>    C        0.57465        -8.54971        -3.18114
| 44>    C        0.60570        -9.88832        -3.58779
| 45>    O        0.99632       -10.81616        -2.71204
| 46>    C        1.17998       -12.16727        -3.07723
| 47>    C        0.12297        -9.96675        -4.92873
| 48>    C       -0.09295        -8.60104        -5.37455
| 49>    C       -0.29648        -8.22895        -6.68934
| 50>    C       -0.88254        -7.06312        -7.23438
| 51>    C       -0.83512        -7.15903        -8.60867
| 52>    O       -1.35304        -6.25617        -9.42618
| 53>    C       -1.29227        -6.47623       -10.82034
| 54>    C       -0.12819        -8.39031        -8.97437
| 55>    C        0.17078        -9.04273        -7.84278
| 56>    C       -0.30256       -11.10107        -5.63726
| 57>    C       -1.25086       -11.08781        -6.63464
| 58>    C       -1.56983       -12.20885        -7.42110
| 59>    C       -0.95601       -13.45468        -7.45260
| 60>    C       -1.56712       -14.25723        -8.44065
| 61>    C       -2.63213       -13.42880        -9.04110
| 62>    C       -2.62283       -12.21900        -8.42358
| 63>    C       -3.51520       -13.80501       -10.05830
| 64>    N       -4.25378       -14.08280       -10.89398
| 65>    C       -1.23073       -15.54890        -8.79748
| 66>    C       -1.78200       -16.33338        -9.84526
| 67>    C       -1.13955       -17.55209        -9.89365
| 68>    C       -0.14841       -17.57049        -8.83085
| 69>    C       -0.19264       -16.38298        -8.16740
| 70>    C        0.59682       -16.03765        -7.06862
| 71>    N        1.24743       -15.75885        -6.16158
| 72>    C       -1.39062       -18.62200       -10.82280
| 73>    C       -2.52385       -18.62822       -11.62044
| 74>    C       -2.80164       -19.64662       -12.54312
| 75>    C       -1.95703       -20.70908       -12.71772
| 76>    C       -0.78567       -20.76222       -11.93930
| 77>    C       -0.49093       -19.72159       -10.97940
| 78>    N        0.65069       -19.90072       -10.32880
| 79>   Se        1.41051       -21.38092       -10.87749
| 80>    N        0.12712       -21.72590       -12.00747
| 81>    H       -0.40166         0.50720         3.08260
| 82>    H       -1.70842        -1.30577         2.01155
| 83>    H       -0.60508        -3.08070         0.74683
| 84>    H        4.28757        -5.81727        -0.07659
| 85>    H        2.63517        -5.62932        -2.13997
| 86>    H        0.61788        -1.31691        -1.24183
| 87>    H       -0.79724        -0.98760        -3.45100
| 88>    H        0.49516        -6.03593        -2.20081
| 89>    H       -0.16944        -5.85618        -5.17845
| 90>    H        0.88052        -8.23154        -2.20302
| 91>    H        1.64211       -12.63924        -2.21093
| 92>    H        1.84693       -12.26608        -3.93682
| 93>    H        0.22461       -12.65881        -3.28109
| 94>    H       -1.38326        -6.27631        -6.70807
| 95>    H       -1.80270        -5.63051       -11.27746
| 96>    H       -1.80064        -7.40318       -11.09985
| 97>    H       -0.25694        -6.50779       -11.17132
| 98>    H        0.11809        -8.68833        -9.97585
| 99>    H        0.76330        -9.93143        -7.75169
|100>    H        0.09303       -12.06605        -5.36043
|101>    H       -1.81514       -10.18389        -6.81776
|102>    H       -0.13345       -13.77246        -6.84439
|103>    H       -3.27796       -11.39138        -8.62631
|104>    H       -2.55191       -15.98814       -10.50579
|105>    H        0.49789       -18.39968        -8.61928
|106>    H       -3.23480       -17.82290       -11.52203
|107>    H       -3.70884       -19.58151       -13.12479
|108>    H       -2.15672       -21.49811       -13.42433
|109> *
|110>
|111>                          ****END OF INPUT****

CARTESIAN COORDINATES (ANGSTROEM)
---------------------------------
  C      0.073950   -0.262040    2.495970
  C     -0.634850   -1.269280    1.902440
  C     -0.003640   -2.286320    1.163680
  C      1.363050   -2.323790    0.996540
  C      2.126120   -1.271810    1.571790
  C      1.474110   -0.242510    2.339430
  N      2.301080    0.671290    2.837940
  Se     3.935450    0.275240    2.365380
  N      3.439210   -1.128410    1.456720
  C      2.043090   -3.401250    0.309160
  C      3.105270   -4.140000    0.780650
  N      3.734780   -4.055660    2.036790
  O      3.180730   -3.441690    2.933280
  O      4.798090   -4.637900    2.164530
  C      3.462720   -5.141600   -0.198020
  C      2.590590   -5.061990   -1.230640
  C      1.684740   -3.965760   -0.991410
  C      0.756380   -3.442600   -1.871180
  C      0.330830   -2.082780   -1.934190
  C     -0.374170   -1.903730   -3.083680
  C     -0.486900   -3.150420   -3.782540
  N     -1.274720   -3.222160   -4.933560
  O     -1.369480   -4.277860   -5.551390
  O     -1.853190   -2.202380   -5.279990
  C      0.182200   -4.143520   -3.043760
  C      0.243960   -5.542430   -3.129490
  C      0.046290   -6.331720   -4.238710
  C      0.127560   -7.730720   -4.226480
  C      0.574650   -8.549710   -3.181140
  C      0.605700   -9.888320   -3.587790
  O      0.996320  -10.816160   -2.712040
  C      1.179980  -12.167270   -3.077230
  C      0.122970   -9.966750   -4.928730
  C     -0.092950   -8.601040   -5.374550
  C     -0.296480   -8.228950   -6.689340
  C     -0.882540   -7.063120   -7.234380
  C     -0.835120   -7.159030   -8.608670
  O     -1.353040   -6.256170   -9.426180
  C     -1.292270   -6.476230  -10.820340
  C     -0.128190   -8.390310   -8.974370
  C      0.170780   -9.042730   -7.842780
  C     -0.302560  -11.101070   -5.637260
  C     -1.250860  -11.087810   -6.634640
  C     -1.569830  -12.208850   -7.421100
  C     -0.956010  -13.454680   -7.452600
  C     -1.567120  -14.257230   -8.440650
  C     -2.632130  -13.428800   -9.041100
  C     -2.622830  -12.219000   -8.423580
  C     -3.515200  -13.805010  -10.058300
  N     -4.253780  -14.082800  -10.893980
  C     -1.230730  -15.548900   -8.797480
  C     -1.782000  -16.333380   -9.845260
  C     -1.139550  -17.552090   -9.893650
  C     -0.148410  -17.570490   -8.830850
  C     -0.192640  -16.382980   -8.167400
  C      0.596820  -16.037650   -7.068620
  N      1.247430  -15.758850   -6.161580
  C     -1.390620  -18.622000  -10.822800
  C     -2.523850  -18.628220  -11.620440
  C     -2.801640  -19.646620  -12.543120
  C     -1.957030  -20.709080  -12.717720
  C     -0.785670  -20.762220  -11.939300
  C     -0.490930  -19.721590  -10.979400
  N      0.650690  -19.900720  -10.328800
  Se     1.410510  -21.380920  -10.877490
  N      0.127120  -21.725900  -12.007470
  H     -0.401660    0.507200    3.082600
  H     -1.708420   -1.305770    2.011550
  H     -0.605080   -3.080700    0.746830
  H      4.287570   -5.817270   -0.076590
  H      2.635170   -5.629320   -2.139970
  H      0.617880   -1.316910   -1.241830
  H     -0.797240   -0.987600   -3.451000
  H      0.495160   -6.035930   -2.200810
  H     -0.169440   -5.856180   -5.178450
  H      0.880520   -8.231540   -2.203020
  H      1.642110  -12.639240   -2.210930
  H      1.846930  -12.266080   -3.936820
  H      0.224610  -12.658810   -3.281090
  H     -1.383260   -6.276310   -6.708070
  H     -1.802700   -5.630510  -11.277460
  H     -1.800640   -7.403180  -11.099850
  H     -0.256940   -6.507790  -11.171320
  H      0.118090   -8.688330   -9.975850
  H      0.763300   -9.931430   -7.751690
  H      0.093030  -12.066050   -5.360430
  H     -1.815140  -10.183890   -6.817760
  H     -0.133450  -13.772460   -6.844390
  H     -3.277960  -11.391380   -8.626310
  H     -2.551910  -15.988140  -10.505790
  H      0.497890  -18.399680   -8.619280
  H     -3.234800  -17.822900  -11.522030
  H     -3.708840  -19.581510  -13.124790
  H     -2.156720  -21.498110  -13.424330

 Total Charge           Charge          ....    0
 Multiplicity           Mult            ....    1
 Number of Electrons    NEL             ....  500
 Basis Dimension        Dim             .... 1100

ORBITAL ENERGIES
----------------

  NO   OCC          E(Eh)            E(eV)
   0   2.0000    -453.978579    -12353.3852
   1   2.0000    -453.966649    -12353.0605
   2   2.0000     -58.192595     -1583.5010
   3   2.0000     -58.180678     -1583.1767
   4   2.0000     -52.263256     -1422.1555
   5   2.0000     -52.260931     -1422.0922
   6   2.0000     -52.260475     -1422.0798
   7   2.0000     -52.251304     -1421.8303
   8   2.0000     -52.249020     -1421.7681
   9   2.0000     -52.248579     -1421.7561
  10   2.0000     -19.279019      -524.6088
  11   2.0000     -19.268837      -524.3317
  12   2.0000     -19.224130      -523.1152
  13   2.0000     -19.223691      -523.1032
  14   2.0000     -19.223088      -523.0868
  15   2.0000     -19.220210      -523.0085
  16   2.0000     -14.631962      -398.1559
  17   2.0000     -14.631427      -398.1414
  18   2.0000     -14.435251      -392.8031
  19   2.0000     -14.434081      -392.7713
  20   2.0000     -14.422097      -392.4452
  21   2.0000     -14.421739      -392.4355
  22   2.0000     -14.408160      -392.0660
  23   2.0000     -14.401868      -391.8948
  24   2.0000     -10.361365      -281.9471
  25   2.0000     -10.354001      -281.7467
  26   2.0000     -10.343497      -281.4609
  27   2.0000     -10.335964      -281.2559
  28   2.0000     -10.325423      -280.9690
  29   2.0000     -10.320896      -280.8459
  30   2.0000     -10.318882      -280.7910
  31   2.0000     -10.316174      -280.7174
  32   2.0000     -10.315681      -280.7040
  33   2.0000     -10.315629      -280.7025
  34   2.0000     -10.315299      -280.6936
  35   2.0000     -10.313478      -280.6440
  36   2.0000     -10.312421      -280.6152
  37   2.0000     -10.311556      -280.5917
  38   2.0000     -10.311394      -280.5873
  39   2.0000     -10.311187      -280.5817
  40   2.0000     -10.310653      -280.5671
  41   2.0000     -10.309864      -280.5457
  42   2.0000     -10.305804      -280.4352
  43   2.0000     -10.305686      -280.4320
  44   2.0000     -10.304514      -280.4001
  45   2.0000     -10.303903      -280.3834
  46   2.0000     -10.302446      -280.3438
  47   2.0000     -10.300585      -280.2932
  48   2.0000     -10.298903      -280.2474
  49   2.0000     -10.298129      -280.2263
  50   2.0000     -10.296181      -280.1733
  51   2.0000     -10.294591      -280.1301
  52   2.0000     -10.294447      -280.1261
  53   2.0000     -10.294266      -280.1212
  54   2.0000     -10.293474      -280.0997
  55   2.0000     -10.292252      -280.0664
  56   2.0000     -10.291880      -280.0563
  57   2.0000     -10.289947      -280.0037
  58   2.0000     -10.289788      -279.9994
  59   2.0000     -10.289034      -279.9788
  60   2.0000     -10.288924      -279.9759
  61   2.0000     -10.288096      -279.9533
  62   2.0000     -10.287655      -279.9413
  63   2.0000     -10.286812      -279.9184
  64   2.0000     -10.286685      -279.9149
  65   2.0000     -10.285660      -279.8870
  66   2.0000     -10.284700      -279.8609
  67   2.0000     -10.281550      -279.7752
  68   2.0000     -10.280260      -279.7401
  69   2.0000     -10.275183      -279.6019
  70   2.0000     -10.274825      -279.5922
  71   2.0000     -10.272878      -279.5392
  72   2.0000     -10.269857      -279.4570
  73   2.0000     -10.256239      -279.0865
  74   2.0000      -7.968447      -216.8325
  75   2.0000      -7.956598      -216.5100
  76   2.0000      -5.918613      -161.0536
  77   2.0000      -5.911972      -160.8729
  78   2.0000      -5.908278      -160.7724
  79   2.0000      -5.906710      -160.7297
  80   2.0000      -5.900079      -160.5493
  81   2.0000      -5.896546      -160.4532
  82   2.0000      -2.272718       -61.8438
  83   2.0000      -2.272101       -61.8270
  84   2.0000      -2.267626       -61.7053
  85   2.0000      -2.262548       -61.5671
  86   2.0000      -2.262361       -61.5620
  87   2.0000      -2.260793       -61.5193
  88   2.0000      -2.260215       -61.5036
  89   2.0000      -2.255820       -61.3840
  90   2.0000      -2.250776       -61.2467
  91   2.0000      -2.250546       -61.2405
  92   2.0000      -1.302248       -35.4360
  93   2.0000      -1.299778       -35.3688
  94   2.0000      -1.185701       -32.2646
  95   2.0000      -1.173364       -31.9289
  96   2.0000      -1.119627       -30.4666
  97   2.0000      -1.115117       -30.3439
  98   2.0000      -1.088874       -29.6298
  99   2.0000      -1.077557       -29.3218
 100   2.0000      -1.009857       -27.4796
 101   2.0000      -1.006024       -27.3753
 102   2.0000      -0.998302       -27.1652
 103   2.0000      -0.995136       -27.0790
 104   2.0000      -0.985209       -26.8089
 105   2.0000      -0.981920       -26.7194
 106   2.0000      -0.977689       -26.6043
 107   2.0000      -0.971326       -26.4311
 108   2.0000      -0.963434       -26.2164
 109   2.0000      -0.953129       -25.9360
 110   2.0000      -0.950659       -25.8688
 111   2.0000      -0.945106       -25.7176
 112   2.0000      -0.917724       -24.9725
 113   2.0000      -0.899811       -24.4851
 114   2.0000      -0.896155       -24.3856
 115   2.0000      -0.874103       -23.7855
 116   2.0000      -0.869421       -23.6581
 117   2.0000      -0.866112       -23.5681
 118   2.0000      -0.857781       -23.3414
 119   2.0000      -0.854358       -23.2483
 120   2.0000      -0.847554       -23.0631
 121   2.0000      -0.846196       -23.0262
 122   2.0000      -0.844035       -22.9674
 123   2.0000      -0.836642       -22.7662
 124   2.0000      -0.829380       -22.5686
 125   2.0000      -0.821906       -22.3652
 126   2.0000      -0.815960       -22.2034
 127   2.0000      -0.805397       -21.9160
 128   2.0000      -0.789762       -21.4905
 129   2.0000      -0.784835       -21.3564
 130   2.0000      -0.774668       -21.0798
 131   2.0000      -0.763320       -20.7710
 132   2.0000      -0.744479       -20.2583
 133   2.0000      -0.738060       -20.0836
 134   2.0000      -0.725762       -19.7490
 135   2.0000      -0.721309       -19.6278
 136   2.0000      -0.716281       -19.4910
 137   2.0000      -0.712599       -19.3908
 138   2.0000      -0.707752       -19.2589
 139   2.0000      -0.699641       -19.0382
 140   2.0000      -0.687344       -18.7036
 141   2.0000      -0.684828       -18.6351
 142   2.0000      -0.682596       -18.5744
 143   2.0000      -0.674872       -18.3642
 144   2.0000      -0.667265       -18.1572
 145   2.0000      -0.660311       -17.9680
 146   2.0000      -0.658950       -17.9309
 147   2.0000      -0.649697       -17.6792
 148   2.0000      -0.644525       -17.5384
 149   2.0000      -0.642686       -17.4884
 150   2.0000      -0.634166       -17.2565
 151   2.0000      -0.628842       -17.1117
 152   2.0000      -0.621453       -16.9106
 153   2.0000      -0.619137       -16.8476
 154   2.0000      -0.613620       -16.6975
 155   2.0000      -0.612738       -16.6735
 156   2.0000      -0.610794       -16.6205
 157   2.0000      -0.606842       -16.5130
 158   2.0000      -0.604288       -16.4435
 159   2.0000      -0.601699       -16.3731
 160   2.0000      -0.595500       -16.2044
 161   2.0000      -0.586815       -15.9681
 162   2.0000      -0.578245       -15.7349
 163   2.0000      -0.577474       -15.7139
 164   2.0000      -0.574210       -15.6250
 165   2.0000      -0.571724       -15.5574
 166   2.0000      -0.571381       -15.5481
 167   2.0000      -0.569647       -15.5009
 168   2.0000      -0.567859       -15.4522
 169   2.0000      -0.564293       -15.3552
 170   2.0000      -0.560790       -15.2599
 171   2.0000      -0.556780       -15.1508
 172   2.0000      -0.552600       -15.0370
 173   2.0000      -0.551499       -15.0071
 174   2.0000      -0.545069       -14.8321
 175   2.0000      -0.537936       -14.6380
 176   2.0000      -0.532233       -14.4828
 177   2.0000      -0.531125       -14.4526
 178   2.0000      -0.528915       -14.3925
 179   2.0000      -0.525888       -14.3102
 180   2.0000      -0.523091       -14.2340
 181   2.0000      -0.521260       -14.1842
 182   2.0000      -0.517481       -14.0814
 183   2.0000      -0.514082       -13.9889
 184   2.0000      -0.512832       -13.9549
 185   2.0000      -0.507604       -13.8126
 186   2.0000      -0.501167       -13.6375
 187   2.0000      -0.498854       -13.5745
 188   2.0000      -0.495482       -13.4828
 189   2.0000      -0.492607       -13.4045
 190   2.0000      -0.489877       -13.3302
 191   2.0000      -0.487959       -13.2780
 192   2.0000      -0.486436       -13.2366
 193   2.0000      -0.484829       -13.1929
 194   2.0000      -0.483205       -13.1487
 195   2.0000      -0.479558       -13.0494
 196   2.0000      -0.478833       -13.0297
 197   2.0000      -0.474956       -12.9242
 198   2.0000      -0.473125       -12.8744
 199   2.0000      -0.470983       -12.8161
 200   2.0000      -0.466905       -12.7051
 201   2.0000      -0.463280       -12.6065
 202   2.0000      -0.462135       -12.5753
 203   2.0000      -0.460842       -12.5401
 204   2.0000      -0.458250       -12.4696
 205   2.0000      -0.452645       -12.3171
 206   2.0000      -0.450578       -12.2609
 207   2.0000      -0.450494       -12.2586
 208   2.0000      -0.449996       -12.2450
 209   2.0000      -0.445369       -12.1191
 210   2.0000      -0.441924       -12.0254
 211   2.0000      -0.439775       -11.9669
 212   2.0000      -0.438533       -11.9331
 213   2.0000      -0.434741       -11.8299
 214   2.0000      -0.434159       -11.8141
 215   2.0000      -0.430866       -11.7244
 216   2.0000      -0.423592       -11.5265
 217   2.0000      -0.422225       -11.4893
 218   2.0000      -0.419386       -11.4121
 219   2.0000      -0.413843       -11.2612
 220   2.0000      -0.412919       -11.2361
 221   2.0000      -0.407615       -11.0918
 222   2.0000      -0.405816       -11.0428
 223   2.0000      -0.398168       -10.8347
 224   2.0000      -0.396043       -10.7769
 225   2.0000      -0.392112       -10.6699
 226   2.0000      -0.383959       -10.4481
 227   2.0000      -0.377264       -10.2659
 228   2.0000      -0.374064       -10.1788
 229   2.0000      -0.369415       -10.0523
 230   2.0000      -0.368265       -10.0210
 231   2.0000      -0.362524        -9.8648
 232   2.0000      -0.360062        -9.7978
 233   2.0000      -0.358162        -9.7461
 234   2.0000      -0.351211        -9.5569
 235   2.0000      -0.346806        -9.4371
 236   2.0000      -0.346337        -9.4243
 237   2.0000      -0.339541        -9.2394
 238   2.0000      -0.328668        -8.9435
 239   2.0000      -0.325788        -8.8651
 240   2.0000      -0.320565        -8.7230
 241   2.0000      -0.318133        -8.6568
 242   2.0000      -0.316602        -8.6152
 243   2.0000      -0.314040        -8.5455
 244   2.0000      -0.312384        -8.5004
 245   2.0000      -0.286463        -7.7950
 246   2.0000      -0.279223        -7.5980
 247   2.0000      -0.273276        -7.4362
 248   2.0000      -0.269475        -7.3328
 249   2.0000      -0.229468        -6.2441
 250   0.0000      -0.134792        -3.6679
 251   0.0000      -0.111060        -3.0221
 252   0.0000      -0.094155        -2.5621
 253   0.0000      -0.064870        -1.7652
 254   0.0000      -0.058293        -1.5862

MULLIKEN ATOMIC CHARGES
-----------------------
   0 C :   -0.011730
   1 C :    0.029939
   2 C :   -0.018273
   3 C :    0.000194
   4 C :    0.018754
   5 C :    0.040550
   6 N :   -0.271522
   7 Se:    0.523602
   8 N :   -0.277040
   9 C :    0.064528
  10 C :    0.075281
  11 N :    0.270660
  12 O :   -0.243405
  13 O :   -0.255434
  14 C :    0.009971
  15 C :   -0.023736
  16 C :    0.034383
  17 C :    0.009985
  18 C :    0.001535
  19 C :    0.021990
  20 C :    0.052486
  21 N :    0.287840
  22 O :   -0.280566
  23 O :   -0.264542
  24 C :    0.096550
  25 C :   -0.108956
  26 C :    0.023961
  27 C :    0.093662
  28 C :   -0.076465
  29 C :    0.189558
  30 O :   -0.273308
  31 C :    0.172517
  32 C :   -0.017911
  33 C :    0.083822
  34 C :   -0.041831
  35 C :   -0.108824
  36 C :    0.221194
  37 O :   -0.244507
  38 C :    0.168111
  39 C :   -0.075859
  40 C :    0.054897
  41 C :   -0.027282
  42 C :   -0.025822
  43 C :    0.111656
  44 C :   -0.141616
  45 C :    0.123003
  46 C :   -0.091132
  47 C :   -0.007316
  48 C :   -0.175464
  49 N :    0.124031
  50 C :    0.116579
  51 C :   -0.135489
  52 C :    0.052004
  53 C :    0.004157
  54 C :   -0.103925
  55 C :   -0.162240
  56 N :    0.104107
  57 C :    0.128303
  58 C :   -0.049156
  59 C :    0.043646
  60 C :   -0.004764
  61 C :    0.030616
  62 C :    0.003428
  63 N :   -0.301214
  64 Se:    0.523796
  65 N :   -0.268003
  66 H :   -0.016991
  67 H :   -0.002583
  68 H :   -0.016346
  69 H :   -0.002237
  70 H :   -0.003153
  71 H :    0.003255
  72 H :    0.003036
  73 H :    0.003498
  74 H :    0.009101
  75 H :   -0.013156
  76 H :    0.046299
  77 H :    0.043885
  78 H :    0.044573
  79 H :    0.003357
  80 H :    0.055327
  81 H :    0.034920
  82 H :    0.036829
  83 H :   -0.013174
  84 H :    0.010505
  85 H :   -0.015111
  86 H :    0.007644
  87 H :   -0.012172
  88 H :   -0.006342
  89 H :   -0.005296
  90 H :    0.001332
  91 H :   -0.005852
  92 H :   -0.000857
  93 H :   -0.014259
Sum of atomic charges:   -0.0000000

LOEWDIN ATOMIC CHARGES
----------------------
   0 C :   -0.007859
   1 C :   -0.020855
   2 C :    0.000815
   3 C :   -0.032844
   4 C :   -0.039040
   5 C :   -0.046798
   6 N :   -0.252410
   7 Se:    0.576525
   8 N :   -0.256890
   9 C :    0.017205
  10 C :   -0.033934
  11 N :    0.288661
  12 O :   -0.208455
  13 O :   -0.216599
  14 C :    0.007364
  15 C :   -0.052437
  16 C :    0.020229
  17 C :    0.051189
  18 C :   -0.057296
  19 C :    0.027549
  20 C :   -0.078631
  21 N :    0.289908
  22 O :   -0.236927
  23 O :   -0.228843
  24 C :    0.022145
  25 C :   -0.034540
  26 C :    0.039402
  27 C :   -0.028025
  28 C :   -0.012182
  29 C :    0.059376
  30 O :   -0.074778
  31 C :    0.085176
  32 C :   -0.073421
  33 C :    0.008657
  34 C :    0.040185
  35 C :   -0.119128
  36 C :    0.093941
  37 O :   -0.047376
  38 C :    0.084257
  39 C :   -0.066359
  40 C :    0.017161
  41 C :    0.013770
  42 C :   -0.029414
  43 C :   -0.015811
  44 C :   -0.049477
  45 C :    0.034414
  46 C :   -0.078897
  47 C :    0.050511
  48 C :   -0.029353
  49 N :   -0.071062
  50 C :    0.030536
  51 C :   -0.028974
  52 C :   -0.008194
  53 C :    0.057401
  54 C :   -0.097611
  55 C :   -0.022532
  56 N :   -0.089925
  57 C :   -0.028449
  58 C :    0.005663
  59 C :   -0.014930
  60 C :   -0.011387
  61 C :   -0.046386
  62 C :   -0.033462
  63 N :   -0.255539
  64 Se:    0.569340
  65 N :   -0.248683
  66 H :    0.037840
  67 H :    0.034109
  68 H :    0.032399
  69 H :    0.035688
  70 H :    0.028721
  71 H :    0.031486
  72 H :    0.036880
  73 H :    0.032259
  74 H :    0.032093
  75 H :    0.030968
  76 H :    0.035271
  77 H :    0.023060
  78 H :    0.022831
  79 H :    0.032363
  80 H :    0.036605
  81 H :    0.021885
  82 H :    0.022452
  83 H :    0.027485
  84 H :    0.033895
  85 H :    0.033758
  86 H :    0.036072
  87 H :    0.027205
  88 H :    0.035517
  89 H :    0.029529
  90 H :    0.032246
  91 H :    0.037332
  92 H :    0.035844
  93 H :    0.038538

  Mayer bond orders larger than 0.100000
B(  0-C ,  1-C ) :   1.5116 B(  0-C ,  3-C ) :   0.1073 B(  0-C ,  5-C ) :   1.1785
B(  0-C , 66-H ) :   1.0199 B(  1-C ,  2-C ) :   1.1736 B(  1-C , 67-H ) :   0.9876
B(  2-C ,  3-C ) :   1.5574 B(  2-C , 68-H ) :   0.9966 B(  3-C ,  4-C ) :   1.1885
B(  3-C ,  9-C ) :   0.9539 B(  4-C ,  5-C ) :   1.1313 B(  4-C ,  8-N ) :   1.5993
B(  5-C ,  6-N ) :   1.5623 B(  6-N ,  7-Se) :   1.2612 B(  6-N ,  8-N ) :   0.1317
B(  7-Se,  8-N ) :   1.2414 B(  9-C , 10-C ) :   1.6254 B(  9-C , 16-C ) :   1.0985
B( 10-C , 11-N ) :   0.9320 B( 10-C , 14-C ) :   1.1142 B( 11-N , 12-O ) :   1.5237
B( 11-N , 13-O ) :   1.5220 B( 12-O , 13-O ) :   0.2648 B( 14-C , 15-C ) :   1.5945
B( 14-C , 69-H ) :   1.0157 B( 15-C , 16-C ) :   1.1019 B( 15-C , 70-H ) :   1.0047
B( 16-C , 17-C ) :   1.4756 B( 17-C , 18-C ) :   1.1528 B( 17-C , 24-C ) :   1.0094
B( 18-C , 19-C ) :   1.5488 B( 18-C , 71-H ) :   1.0040 B( 19-C , 20-C ) :   1.1405
B( 19-C , 72-H ) :   1.0062 B( 20-C , 21-N ) :   0.9958 B( 20-C , 24-C ) :   1.4018
B( 21-N , 22-O ) :   1.4304 B( 21-N , 23-O ) :   1.5252 B( 22-O , 23-O ) :   0.2295
B( 24-C , 25-C ) :   1.2273 B( 25-C , 26-C ) :   1.4906 B( 25-C , 73-H ) :   0.9593
B( 26-C , 27-C ) :   1.1989 B( 26-C , 74-H ) :   0.9574 B( 27-C , 28-C ) :   1.3423
B( 27-C , 33-C ) :   1.1090 B( 28-C , 29-C ) :   1.2690 B( 28-C , 75-H ) :   1.0131
B( 29-C , 30-O ) :   1.2394 B( 29-C , 32-C ) :   1.2646 B( 30-O , 31-C ) :   0.9332
B( 31-C , 76-H ) :   0.9746 B( 31-C , 77-H ) :   0.9665 B( 31-C , 78-H ) :   0.9666
B( 32-C , 33-C ) :   1.0724 B( 32-C , 41-C ) :   1.2051 B( 33-C , 34-C ) :   1.4490
B( 34-C , 35-C ) :   1.1735 B( 34-C , 40-C ) :   1.0291 B( 35-C , 36-C ) :   1.4801
B( 35-C , 79-H ) :   1.0140 B( 36-C , 37-O ) :   1.2438 B( 36-C , 39-C ) :   1.0226
B( 37-O , 38-C ) :   0.9353 B( 38-C , 80-H ) :   0.9811 B( 38-C , 81-H ) :   0.9726
B( 38-C , 82-H ) :   0.9724 B( 39-C , 40-C ) :   1.7022 B( 39-C , 83-H ) :   1.0116
B( 40-C , 84-H ) :   0.9840 B( 41-C , 42-C ) :   1.5252 B( 41-C , 85-H ) :   0.9675
B( 42-C , 43-C ) :   1.1699 B( 42-C , 86-H ) :   0.9529 B( 43-C , 44-C ) :   1.4788
B( 43-C , 47-C ) :   1.0332 B( 44-C , 45-C ) :   1.1760 B( 44-C , 87-H ) :   0.9957
B( 45-C , 46-C ) :   1.0992 B( 45-C , 50-C ) :   1.3577 B( 46-C , 47-C ) :   1.6672
B( 46-C , 48-C ) :   1.0845 B( 47-C , 88-H ) :   1.0254 B( 48-C , 49-N ) :   2.9695
B( 50-C , 51-C ) :   1.1346 B( 50-C , 54-C ) :   1.1194 B( 51-C , 52-C ) :   1.5515
B( 51-C , 89-H ) :   0.9965 B( 52-C , 53-C ) :   1.0875 B( 52-C , 57-C ) :   1.0162
B( 53-C , 54-C ) :   1.6109 B( 53-C , 90-H ) :   1.0103 B( 54-C , 55-C ) :   1.0931
B( 55-C , 56-N ) :   2.9490 B( 57-C , 58-C ) :   1.5189 B( 57-C , 60-C ) :   0.1060
B( 57-C , 62-C ) :   1.1500 B( 58-C , 59-C ) :   1.1935 B( 58-C , 91-H ) :   0.9980
B( 59-C , 60-C ) :   1.4944 B( 59-C , 92-H ) :   0.9841 B( 60-C , 61-C ) :   1.1910
B( 60-C , 93-H ) :   1.0175 B( 61-C , 62-C ) :   1.1158 B( 61-C , 65-N ) :   1.5642
B( 62-C , 63-N ) :   1.5813 B( 63-N , 64-Se) :   1.2235 B( 63-N , 65-N ) :   0.1314
B( 64-Se, 65-N ) :   1.2578

-----------------------------------------------------------------------------
         ABSORPTION SPECTRUM VIA TRANSITION ELECTRIC DIPOLE MOMENTS
-----------------------------------------------------------------------------
State   Energy  Wavelength   fosc         T2         TX        TY        TZ
        (cm-1)    (nm)                  (au**2)     (au)      (au)      (au)
-----------------------------------------------------------------------------
   0    6355.1   1573.5   0.629483363  32.60887  -0.78180  -4.74865  -3.07375
   1   11127.4    898.7   0.026001047   0.76926  -0.27214   0.82881  -0.09098
   2   11494.8    870.0   0.188499698   5.39863  -0.08075   2.23033   0.64632
   3   14293.2    699.6   0.001581510   0.03643  -0.13008   0.13651  -0.02951
   4   14731.0    678.8   0.069271378   1.54810  -0.24807   1.14363  -0.42270
   5   15254.0    655.6   0.031443422   0.67861   0.19801  -0.14794  -0.78582
   6   17005.6    588.0   0.035222486   0.68187  -0.03073  -0.81259   0.14362
   7   19802.8    505.0   0.089746641   1.49199   0.13409   1.19621  -0.20762
   8   20060.5    498.5   0.065595727   1.07649  -0.34625  -0.95730  -0.20046
   9   21335.6    468.7   0.248783034   3.83877  -0.25237  -1.43246  -1.31269
  10   22616.7    442.2   0.051653078   0.75187  -0.03535   0.70865   0.49844
  11   23014.8    434.5   0.035478064   0.50749  -0.05531  -0.67049  -0.23426
  12   23724.6    421.5   0.033716000   0.46786   0.11409  -0.65002   0.17976
  13   23859.7    419.1   0.030299978   0.41807  -0.33539  -0.54194   0.10903
  14   24097.7    415.0   0.024528064   0.33509   0.21543  -0.45559  -0.28482
  15   24252.7    412.3   0.133435411   1.81128  -0.15976  -1.06795  -0.80327
  16   24697.8    404.9   0.162866211   2.17094  -0.19829   1.04391   1.02072
  17   24743.0    404.2   0.066663431   0.88697   0.26749  -0.71287   0.55429
  18   24940.3    401.0   0.037927737   0.50065  -0.16609   0.48715  -0.48553
  19   25490.0    392.3   0.034739020   0.44867  -0.29945  -0.32757  -0.50169
  20   25776.5    387.9   0.082008248   1.04739  -0.06246  -0.68522  -0.75760
  21   26394.9    378.9   0.002124372   0.02650  -0.06509  -0.11114  -0.09954
  22   27734.0    360.6   0.071332896   0.84674   0.49862  -0.65101   0.41749
  23   28381.5    352.3   0.030829922   0.35761   0.12857  -0.48925   0.31893
  24   28594.4    349.7   0.110281306   1.26969   0.26685   0.19896   1.07652
  25   28664.6    348.9   0.017086749   0.19624   0.31093  -0.27456   0.15551
  26   28993.5    344.9   0.053203727   0.60411   0.43724   0.34484   0.54224
  27   29095.6    343.7   0.019342548   0.21886   0.11523   0.42828   0.14884
  28   29433.1    339.8   0.128302745   1.43508  -0.54807   1.06307  -0.06772
  29   29707.5    336.6   0.085686626   0.94956  -0.72601   0.38768  -0.52171
  30   29788.8    335.7   0.017784235   0.19654  -0.15150   0.29635   0.29286
  31   30481.4    328.1   0.070710204   0.76370   0.56786   0.51935   0.41413
  32   30897.4    323.7   0.023694936   0.25247   0.43420  -0.18602   0.17127
  33   31347.1    319.0   0.014774106   0.15516   0.39254  -0.00797   0.03176
  34   31520.8    317.3   0.098875299   1.03268   0.36103  -0.88445  -0.34653
  35   31668.1    315.8   0.080802873   0.84000  -0.14479  -0.32910  -0.84305
  36   32106.2    311.5   0.057638511   0.59102   0.24998   0.01674   0.72681
  37   32252.0    310.1   0.072051459   0.73547  -0.24751   0.11289  -0.81330
  38   32387.1    308.8   0.186146385   1.89216   0.33856  -0.03813   1.33270
  39   32626.4    306.5   0.080134919   0.80859  -0.36101   0.03157  -0.82296
  40   32920.6    303.8   0.131426641   1.31429   0.60445  -0.44149   0.86834
  41   33102.1    302.1   0.020722521   0.20609   0.17128   0.00905   0.42033
  42   33359.4    299.8   0.077242267   0.76228  -0.40861  -0.29979  -0.71094
  43   33440.0    299.0   0.035553047   0.35001   0.05105  -0.49776  -0.31566
  44   33926.3    294.8   0.034882331   0.33849   0.44953  -0.36072  -0.07937
  45   34196.9    292.4   0.400745807   3.85796  -1.13482   0.77339  -1.40428
  46   34319.0    291.4   0.008185281   0.07852   0.03576  -0.25273   0.11562
  47   34534.1    289.6   0.047832923   0.45599  -0.27543   0.14940  -0.59817
  48   34772.3    287.6   0.073139900   0.69246  -0.46873   0.59449  -0.34545
  49   34966.2    286.0   0.035337775   0.33271   0.32427  -0.38155   0.28633
  50   35315.0    283.2   0.002479292   0.02311   0.03871  -0.10668   0.10116
  51   35388.7    282.6   0.004808463   0.04473   0.01057  -0.06382  -0.20136
  52   35955.0    278.1   0.001390567   0.01273  -0.04078  -0.08244  -0.06536
  53   36137.1    276.7   0.057827415   0.52681  -0.14414  -0.63016  -0.33005
  54   36264.3    275.8   0.007206966   0.06543  -0.01487   0.17572   0.18528
  55   36438.7    274.4   0.042292492   0.38210  -0.07869  -0.32844  -0.51772
  56   36711.8    272.4   0.128200616   1.14964   0.70259  -0.29663   0.75366
  57   37125.8    269.4   0.024552766   0.21772  -0.18780  -0.36477  -0.22226
  58   37529.4    266.5   0.004388806   0.03850  -0.17204  -0.06642  -0.06700
  59   37551.5    266.3   0.021571988   0.18912  -0.34183  -0.08857  -0.25383
  60   37724.3    265.1   0.024506331   0.21386  -0.24172   0.25308   0.30230
  61   37789.7    264.6   0.004985598   0.04343   0.07518   0.10527  -0.16340
  62   37861.5    264.1   0.041246999   0.35865  -0.00503   0.50450  -0.32266
  63   37947.6    263.5   0.065087785   0.56466  -0.55328   0.19838  -0.46817
  64   38026.6    263.0   0.116180061   1.00582   0.47027  -0.42368   0.77792
  65   38116.9    262.4   0.070423683   0.60824  -0.17828  -0.53618  -0.53755
  66   38211.5    261.7   0.012439980   0.10718   0.20774  -0.04236   0.24945
  67   38453.3    260.1   0.121931257   1.04389   0.61295  -0.16353   0.80090
  68   38556.4    259.4   0.004910034   0.04192  -0.10388  -0.10807   0.13948
  69   38901.8    257.1   0.082855631   0.70118  -0.38693  -0.71532   0.19944
  70   39081.9    255.9   0.052591531   0.44301  -0.64956   0.07358  -0.12516
  71   39197.3    255.1   0.122120910   1.02567   0.66457   0.72386   0.24503
  72   39250.1    254.8   0.019948370   0.16732   0.04698   0.40513   0.03127
  73   39444.4    253.5   0.060706451   0.50667   0.31266  -0.38108   0.51351
  74   39524.5    253.0   0.048359324   0.40280   0.43184  -0.26084   0.38506
  75   39788.9    251.3   0.209604175   1.73426  -1.05692   0.77380  -0.13565
  76   40001.6    250.0   0.146757308   1.20781  -0.73465   0.53916  -0.61432

FINAL SINGLE POINT ENERGY     -7610.241679440209

DIPOLE MOMENT
-------------
                                X             Y             Z
Electronic contribution:     68.29868     -27.67547      34.49631
Nuclear contribution   :    -68.40659      26.27629     -36.85688
                        -----------------------------------------
Total Dipole Moment    :     -0.10791      -1.39918      -2.36056
                        -----------------------------------------
Magnitude (a.u.)       :      2.74620
Magnitude (Debye)      :      6.98029

Rotational constants in cm-1:     0.002341     0.000225     0.000210
Rotational constants in MHz :    70.171627     6.732953     6.299384

                             ****ORCA TERMINATED NORMALLY****
TOTAL RUN TIME: 0 days 0 hours 19 minutes 38 seconds 943 msec
