                         Program Version 4.2.0 -  RELEASE  -
|  1> # ORCA input file
|  2> # SCF done       -223.430510509791          0.000416900284
|  3> ! CAM-B3LYP def2-SVP def2/J RIJCOSX Grid4 TightSCF
|  4> %maxcore 5000
|  5> %tddft
|  6>     Mode sTDDFT
|  7>     Ethresh 5.0
|  8>     maxcore 5000
|  9> end
| 10>
| 11> %pal
| 12>   nprocs 6
| 13>   end
| 14> * xyz 0 1
| 15>    C       -2.03584         7.34645         0.00601
| 16>    C       -2.89046         6.44323        -0.56172
| 17>    C       -4.29081         6.61192        -0.61722
| 18>    N       -5.43265         6.68988        -0.69741
| 19>    C       -2.48181         5.25822        -1.19920
| 20>    N       -2.20520         4.29310        -1.75814
| 21>    C       -2.40729         8.65744         0.51600
| 22>    C       -1.23885         9.47156         0.59966
| 23>    C       -1.29608        10.76869         1.02403
| 24>    C       -2.54347        11.31680         1.39583
| 25>    C       -3.71210        10.50233         1.33291
| 26>    C       -3.62402         9.16408         0.88857
| 27>    C       -4.94930        11.06056         1.71517
| 28>    C       -5.03149        12.36005         2.13518
| 29>    C       -3.88096        13.16120         2.19502
| 30>    C       -2.66387        12.65075         1.83357
| 31>    C       -0.06747         8.68477         0.19341
| 32>    O        1.07815         9.04165         0.05553
| 33>    C       -0.58124         7.28565         0.01484
| 34>    C        0.30397         6.27280         0.01578
| 35>    C        0.09072         4.84487         0.13209
| 36>    C       -0.82344         4.26718         1.01781
| 37>    C       -1.73995         4.87331         2.01064
| 38>    O       -1.93360         6.03164         2.26862
| 39>    O       -2.38487         3.87566         2.64925
| 40>    C       -1.97626         2.60253         2.17881
| 41>    C       -0.94176         2.88579         1.13942
| 42>    C       -0.16412         2.02575         0.39080
| 43>    C        0.76506         2.58286        -0.47138
| 44>    C        0.90069         3.96223        -0.60218
| 45>    C        1.95731         4.47664        -1.48068
| 46>    N        1.75806         5.03404        -2.71017
| 47>    C        0.50007         5.16655        -3.40818
| 48>    C        0.08816         6.62873        -3.54998
| 49>    C        2.98567         5.40796        -3.31510
| 50>    O        3.07255         5.90667        -4.41748
| 51>    C        3.97736         5.04051        -2.33580
| 52>    C        3.30996         4.45994        -1.22117
| 53>    C        4.31802         4.08212        -0.25584
| 54>    O        4.24551         3.55668         0.83314
| 55>    N        5.54057         4.46822        -0.85597
| 56>    C        6.78830         4.14817        -0.20548
| 57>    C        7.49169         2.96608        -0.86806
| 58>    C        5.34255         5.03170        -2.09577
| 59>    C        6.26427         5.52853        -3.05735
| 60>    C        7.60449         5.69660        -2.98586
| 61>    C        8.41773         6.16031        -4.06339
| 62>    S        9.92935         6.91143        -3.68200
| 63>    C       10.31225         7.16243        -5.35528
| 64>    C        9.28894         6.68064        -6.16637
| 65>    C        8.23104         6.10514        -5.44041
| 66>    C        7.10314         5.38423        -6.11438
| 67>    N        6.91781         4.02623        -5.51890
| 68>    O        5.81654         3.54756        -5.59591
| 69>    O        7.88933         3.48233        -5.05546
| 70>    C        7.40515         5.16281        -7.60179
| 71>    C        7.85407         6.48352        -8.21073
| 72>    C        9.23529         6.85090        -7.65292
| 73>    N        9.45923         8.28376        -8.02632
| 74>    O        9.84315         8.49242        -9.14742
| 75>    O        9.18345         9.12325        -7.20737
| 76>    C       11.55127         7.78653        -5.66284
| 77>    C       12.19396         7.75982        -6.85742
| 78>    C       13.41335         8.44196        -7.07762
| 79>    C       14.09088         8.40473        -8.26167
| 80>    C       15.30326         9.13004        -8.59586
| 81>    C       16.12757         9.79405        -7.72517
| 82>    C       17.30758        10.46465        -8.11024
| 83>    N       18.27721        11.02756        -8.35701
| 84>    C       15.94385         9.87284        -6.32888
| 85>    N       15.87048         9.96547        -5.18656
| 86>    C       15.52321         8.98558       -10.03008
| 87>    C       14.53337         8.10712       -10.55745
| 88>    C       13.64063         7.66708        -9.47401
| 89>    O       12.73977         6.85726        -9.55873
| 90>    C       14.48977         7.78171       -11.88253
| 91>    C       15.44857         8.33558       -12.75984
| 92>    C       16.43867         9.21960       -12.24146
| 93>    C       16.46137         9.53489       -10.86359
| 94>    C       17.38789         9.77012       -13.12655
| 95>    C       17.36233         9.46325       -14.45976
| 96>    C       16.38730         8.59248       -14.96909
| 97>    C       15.45114         8.04049       -14.13730
| 98>    H       -0.39988        11.36892         1.07741
| 99>    H       -4.51963         8.56352         0.86800
|100>    H       -5.83230        10.44071         1.66533
|101>    H       -5.98387        12.77886         2.42381
|102>    H       -3.96416        14.18435         2.52974
|103>    H       -1.77479        13.26259         1.87843
|104>    H        1.34759         6.57399        -0.04397
|105>    H       -2.84894         2.08012         1.77102
|106>    H       -1.58407         2.02503         3.02279
|107>    H       -0.26336         0.95626         0.48374
|108>    H        1.40781         1.94251        -1.05573
|109>    H       -0.26120         4.59850        -2.86888
|110>    H        0.62859         4.73521        -4.40605
|111>    H        0.01459         7.10606        -2.57560
|112>    H       -0.87739         6.68754        -4.04460
|113>    H        0.82308         7.16359        -4.14555
|114>    H        6.52184         3.88425         0.82275
|115>    H        7.42977         5.03286        -0.17723
|116>    H        6.86408         2.08087        -0.80179
|117>    H        8.42968         2.76446        -0.35816
|118>    H        7.69904         3.16155        -1.91770
|119>    H        5.74230         5.83484        -3.95272
|120>    H        8.13927         5.52382        -2.06508
|121>    H        6.14637         5.90846        -6.01784
|122>    H        6.50972         4.79385        -8.10281
|123>    H        8.19909         4.41971        -7.71131
|124>    H        7.13230         7.26358        -7.95483
|125>    H        7.91137         6.40833        -9.29686
|126>    H       10.00130         6.26229        -8.16855
|127>    H       12.03034         8.29104        -4.83214
|128>    H       11.81526         7.19153        -7.68978
|129>    H       13.78897         9.05119        -6.26599
|130>    H       13.72889         7.11343       -12.25751
|131>    H       17.22012        10.21137       -10.50335
|132>    H       18.13690        10.43949       -12.72938
|133>    H       18.09350         9.89027       -15.12970
|134>    H       16.38150         8.36178       -16.02392
|135>    H       14.69769         7.36986       -14.52396
|136> *
|137>
|138>                          ****END OF INPUT****

CARTESIAN COORDINATES (ANGSTROEM)
---------------------------------
  C     -2.035840    7.346450    0.006010
  C     -2.890460    6.443230   -0.561720
  C     -4.290810    6.611920   -0.617220
  N     -5.432650    6.689880   -0.697410
  C     -2.481810    5.258220   -1.199200
  N     -2.205200    4.293100   -1.758140
  C     -2.407290    8.657440    0.516000
  C     -1.238850    9.471560    0.599660
  C     -1.296080   10.768690    1.024030
  C     -2.543470   11.316800    1.395830
  C     -3.712100   10.502330    1.332910
  C     -3.624020    9.164080    0.888570
  C     -4.949300   11.060560    1.715170
  C     -5.031490   12.360050    2.135180
  C     -3.880960   13.161200    2.195020
  C     -2.663870   12.650750    1.833570
  C     -0.067470    8.684770    0.193410
  O      1.078150    9.041650    0.055530
  C     -0.581240    7.285650    0.014840
  C      0.303970    6.272800    0.015780
  C      0.090720    4.844870    0.132090
  C     -0.823440    4.267180    1.017810
  C     -1.739950    4.873310    2.010640
  O     -1.933600    6.031640    2.268620
  O     -2.384870    3.875660    2.649250
  C     -1.976260    2.602530    2.178810
  C     -0.941760    2.885790    1.139420
  C     -0.164120    2.025750    0.390800
  C      0.765060    2.582860   -0.471380
  C      0.900690    3.962230   -0.602180
  C      1.957310    4.476640   -1.480680
  N      1.758060    5.034040   -2.710170
  C      0.500070    5.166550   -3.408180
  C      0.088160    6.628730   -3.549980
  C      2.985670    5.407960   -3.315100
  O      3.072550    5.906670   -4.417480
  C      3.977360    5.040510   -2.335800
  C      3.309960    4.459940   -1.221170
  C      4.318020    4.082120   -0.255840
  O      4.245510    3.556680    0.833140
  N      5.540570    4.468220   -0.855970
  C      6.788300    4.148170   -0.205480
  C      7.491690    2.966080   -0.868060
  C      5.342550    5.031700   -2.095770
  C      6.264270    5.528530   -3.057350
  C      7.604490    5.696600   -2.985860
  C      8.417730    6.160310   -4.063390
  S      9.929350    6.911430   -3.682000
  C     10.312250    7.162430   -5.355280
  C      9.288940    6.680640   -6.166370
  C      8.231040    6.105140   -5.440410
  C      7.103140    5.384230   -6.114380
  N      6.917810    4.026230   -5.518900
  O      5.816540    3.547560   -5.595910
  O      7.889330    3.482330   -5.055460
  C      7.405150    5.162810   -7.601790
  C      7.854070    6.483520   -8.210730
  C      9.235290    6.850900   -7.652920
  N      9.459230    8.283760   -8.026320
  O      9.843150    8.492420   -9.147420
  O      9.183450    9.123250   -7.207370
  C     11.551270    7.786530   -5.662840
  C     12.193960    7.759820   -6.857420
  C     13.413350    8.441960   -7.077620
  C     14.090880    8.404730   -8.261670
  C     15.303260    9.130040   -8.595860
  C     16.127570    9.794050   -7.725170
  C     17.307580   10.464650   -8.110240
  N     18.277210   11.027560   -8.357010
  C     15.943850    9.872840   -6.328880
  N     15.870480    9.965470   -5.186560
  C     15.523210    8.985580  -10.030080
  C     14.533370    8.107120  -10.557450
  C     13.640630    7.667080   -9.474010
  O     12.739770    6.857260   -9.558730
  C     14.489770    7.781710  -11.882530
  C     15.448570    8.335580  -12.759840
  C     16.438670    9.219600  -12.241460
  C     16.461370    9.534890  -10.863590
  C     17.387890    9.770120  -13.126550
  C     17.362330    9.463250  -14.459760
  C     16.387300    8.592480  -14.969090
  C     15.451140    8.040490  -14.137300
  H     -0.399880   11.368920    1.077410
  H     -4.519630    8.563520    0.868000
  H     -5.832300   10.440710    1.665330
  H     -5.983870   12.778860    2.423810
  H     -3.964160   14.184350    2.529740
  H     -1.774790   13.262590    1.878430
  H      1.347590    6.573990   -0.043970
  H     -2.848940    2.080120    1.771020
  H     -1.584070    2.025030    3.022790
  H     -0.263360    0.956260    0.483740
  H      1.407810    1.942510   -1.055730
  H     -0.261200    4.598500   -2.868880
  H      0.628590    4.735210   -4.406050
  H      0.014590    7.106060   -2.575600
  H     -0.877390    6.687540   -4.044600
  H      0.823080    7.163590   -4.145550
  H      6.521840    3.884250    0.822750
  H      7.429770    5.032860   -0.177230
  H      6.864080    2.080870   -0.801790
  H      8.429680    2.764460   -0.358160
  H      7.699040    3.161550   -1.917700
  H      5.742300    5.834840   -3.952720
  H      8.139270    5.523820   -2.065080
  H      6.146370    5.908460   -6.017840
  H      6.509720    4.793850   -8.102810
  H      8.199090    4.419710   -7.711310
  H      7.132300    7.263580   -7.954830
  H      7.911370    6.408330   -9.296860
  H     10.001300    6.262290   -8.168550
  H     12.030340    8.291040   -4.832140
  H     11.815260    7.191530   -7.689780
  H     13.788970    9.051190   -6.265990
  H     13.728890    7.113430  -12.257510
  H     17.220120   10.211370  -10.503350
  H     18.136900   10.439490  -12.729380
  H     18.093500    9.890270  -15.129700
  H     16.381500    8.361780  -16.023920
  H     14.697690    7.369860  -14.523960

 Total Charge           Charge          ....    0
 Multiplicity           Mult            ....    1
 Number of Electrons    NEL             ....  574
 Basis Dimension        Dim             .... 1356

ORBITAL ENERGIES
----------------

  NO   OCC          E(Eh)            E(eV)
   0   2.0000     -88.980114     -2421.2720
   1   2.0000     -19.269862      -524.3596
   2   2.0000     -19.253564      -523.9161
   3   2.0000     -19.252622      -523.8905
   4   2.0000     -19.251030      -523.8471
   5   2.0000     -19.250334      -523.8282
   6   2.0000     -19.218028      -522.9491
   7   2.0000     -19.217661      -522.9392
   8   2.0000     -19.210063      -522.7324
   9   2.0000     -19.194262      -522.3024
  10   2.0000     -19.187878      -522.1287
  11   2.0000     -14.651247      -398.6807
  12   2.0000     -14.649199      -398.6250
  13   2.0000     -14.457150      -393.3991
  14   2.0000     -14.453293      -393.2941
  15   2.0000     -14.423208      -392.4754
  16   2.0000     -14.415966      -392.2784
  17   2.0000     -14.415018      -392.2526
  18   2.0000     -14.412890      -392.1947
  19   2.0000     -10.410963      -283.2967
  20   2.0000     -10.375588      -282.3341
  21   2.0000     -10.374591      -282.3070
  22   2.0000     -10.367655      -282.1182
  23   2.0000     -10.367572      -282.1160
  24   2.0000     -10.351106      -281.6679
  25   2.0000     -10.348632      -281.6006
  26   2.0000     -10.347980      -281.5828
  27   2.0000     -10.345366      -281.5117
  28   2.0000     -10.345030      -281.5026
  29   2.0000     -10.343361      -281.4572
  30   2.0000     -10.342086      -281.4225
  31   2.0000     -10.340431      -281.3774
  32   2.0000     -10.338917      -281.3362
  33   2.0000     -10.328970      -281.0656
  34   2.0000     -10.326692      -281.0036
  35   2.0000     -10.325960      -280.9836
  36   2.0000     -10.320575      -280.8371
  37   2.0000     -10.318611      -280.7837
  38   2.0000     -10.317792      -280.7614
  39   2.0000     -10.315959      -280.7115
  40   2.0000     -10.315804      -280.7073
  41   2.0000     -10.315115      -280.6885
  42   2.0000     -10.315021      -280.6860
  43   2.0000     -10.312312      -280.6123
  44   2.0000     -10.312205      -280.6094
  45   2.0000     -10.310154      -280.5536
  46   2.0000     -10.309926      -280.5474
  47   2.0000     -10.309600      -280.5385
  48   2.0000     -10.307290      -280.4756
  49   2.0000     -10.306970      -280.4669
  50   2.0000     -10.306870      -280.4642
  51   2.0000     -10.304675      -280.4045
  52   2.0000     -10.304513      -280.4001
  53   2.0000     -10.304290      -280.3940
  54   2.0000     -10.302186      -280.3367
  55   2.0000     -10.301989      -280.3314
  56   2.0000     -10.301596      -280.3207
  57   2.0000     -10.301313      -280.3130
  58   2.0000     -10.298801      -280.2446
  59   2.0000     -10.298059      -280.2244
  60   2.0000     -10.297255      -280.2026
  61   2.0000     -10.297022      -280.1962
  62   2.0000     -10.296808      -280.1904
  63   2.0000     -10.296668      -280.1866
  64   2.0000     -10.296532      -280.1829
  65   2.0000     -10.295754      -280.1617
  66   2.0000     -10.295688      -280.1599
  67   2.0000     -10.295402      -280.1521
  68   2.0000     -10.289908      -280.0026
  69   2.0000     -10.289503      -279.9916
  70   2.0000     -10.287484      -279.9367
  71   2.0000     -10.285906      -279.8937
  72   2.0000     -10.285785      -279.8904
  73   2.0000     -10.285345      -279.8785
  74   2.0000     -10.285298      -279.8772
  75   2.0000     -10.285098      -279.8717
  76   2.0000     -10.285058      -279.8706
  77   2.0000     -10.284529      -279.8563
  78   2.0000     -10.284491      -279.8552
  79   2.0000     -10.262501      -279.2568
  80   2.0000     -10.261551      -279.2310
  81   2.0000     -10.260367      -279.1988
  82   2.0000     -10.250103      -278.9195
  83   2.0000      -8.075991      -219.7589
  84   2.0000      -6.044992      -164.4926
  85   2.0000      -6.041062      -164.3856
  86   2.0000      -6.038379      -164.3126
  87   2.0000      -1.335002       -36.3273
  88   2.0000      -1.333042       -36.2739
  89   2.0000      -1.205846       -32.8127
  90   2.0000      -1.155344       -31.4385
  91   2.0000      -1.153800       -31.3965
  92   2.0000      -1.133876       -30.8543
  93   2.0000      -1.132991       -30.8302
  94   2.0000      -1.131359       -30.7859
  95   2.0000      -1.126334       -30.6491
  96   2.0000      -1.116147       -30.3719
  97   2.0000      -1.066254       -29.0142
  98   2.0000      -1.055660       -28.7260
  99   2.0000      -1.023567       -27.8527
 100   2.0000      -1.022336       -27.8192
 101   2.0000      -1.016597       -27.6630
 102   2.0000      -1.001636       -27.2559
 103   2.0000      -0.997350       -27.1393
 104   2.0000      -0.997337       -27.1389
 105   2.0000      -0.992257       -27.0007
 106   2.0000      -0.990471       -26.9521
 107   2.0000      -0.971192       -26.4275
 108   2.0000      -0.970944       -26.4207
 109   2.0000      -0.969980       -26.3945
 110   2.0000      -0.948507       -25.8102
 111   2.0000      -0.929231       -25.2857
 112   2.0000      -0.928720       -25.2717
 113   2.0000      -0.926304       -25.2060
 114   2.0000      -0.918528       -24.9944
 115   2.0000      -0.915498       -24.9120
 116   2.0000      -0.911597       -24.8058
 117   2.0000      -0.900323       -24.4990
 118   2.0000      -0.890525       -24.2324
 119   2.0000      -0.886017       -24.1097
 120   2.0000      -0.880787       -23.9674
 121   2.0000      -0.879940       -23.9444
 122   2.0000      -0.872217       -23.7342
 123   2.0000      -0.864018       -23.5111
 124   2.0000      -0.861127       -23.4325
 125   2.0000      -0.851161       -23.1613
 126   2.0000      -0.838890       -22.8274
 127   2.0000      -0.832489       -22.6532
 128   2.0000      -0.828950       -22.5569
 129   2.0000      -0.828090       -22.5335
 130   2.0000      -0.827227       -22.5100
 131   2.0000      -0.816616       -22.2212
 132   2.0000      -0.808327       -21.9957
 133   2.0000      -0.798558       -21.7299
 134   2.0000      -0.782904       -21.3039
 135   2.0000      -0.770267       -20.9600
 136   2.0000      -0.761564       -20.7232
 137   2.0000      -0.760485       -20.6938
 138   2.0000      -0.756608       -20.5884
 139   2.0000      -0.745881       -20.2964
 140   2.0000      -0.741895       -20.1880
 141   2.0000      -0.730765       -19.8851
 142   2.0000      -0.721548       -19.6343
 143   2.0000      -0.712610       -19.3911
 144   2.0000      -0.710919       -19.3451
 145   2.0000      -0.706291       -19.2191
 146   2.0000      -0.703459       -19.1421
 147   2.0000      -0.701831       -19.0978
 148   2.0000      -0.701606       -19.0917
 149   2.0000      -0.697939       -18.9919
 150   2.0000      -0.693985       -18.8843
 151   2.0000      -0.687673       -18.7125
 152   2.0000      -0.682325       -18.5670
 153   2.0000      -0.677715       -18.4416
 154   2.0000      -0.675169       -18.3723
 155   2.0000      -0.666665       -18.1409
 156   2.0000      -0.664831       -18.0910
 157   2.0000      -0.660179       -17.9644
 158   2.0000      -0.651432       -17.7264
 159   2.0000      -0.645485       -17.5645
 160   2.0000      -0.641513       -17.4565
 161   2.0000      -0.635803       -17.3011
 162   2.0000      -0.634724       -17.2717
 163   2.0000      -0.632243       -17.2042
 164   2.0000      -0.626984       -17.0611
 165   2.0000      -0.624873       -17.0037
 166   2.0000      -0.622722       -16.9451
 167   2.0000      -0.616289       -16.7701
 168   2.0000      -0.610666       -16.6171
 169   2.0000      -0.608475       -16.5574
 170   2.0000      -0.605998       -16.4901
 171   2.0000      -0.604857       -16.4590
 172   2.0000      -0.603771       -16.4294
 173   2.0000      -0.600644       -16.3444
 174   2.0000      -0.599346       -16.3090
 175   2.0000      -0.592857       -16.1325
 176   2.0000      -0.588226       -16.0064
 177   2.0000      -0.587305       -15.9814
 178   2.0000      -0.583671       -15.8825
 179   2.0000      -0.577590       -15.7170
 180   2.0000      -0.575547       -15.6614
 181   2.0000      -0.570398       -15.5213
 182   2.0000      -0.566564       -15.4170
 183   2.0000      -0.561782       -15.2869
 184   2.0000      -0.556496       -15.1430
 185   2.0000      -0.553714       -15.0673
 186   2.0000      -0.551424       -15.0050
 187   2.0000      -0.546224       -14.8635
 188   2.0000      -0.545974       -14.8567
 189   2.0000      -0.544323       -14.8118
 190   2.0000      -0.543152       -14.7799
 191   2.0000      -0.542847       -14.7716
 192   2.0000      -0.539824       -14.6893
 193   2.0000      -0.537714       -14.6319
 194   2.0000      -0.534588       -14.5469
 195   2.0000      -0.533071       -14.5056
 196   2.0000      -0.531668       -14.4674
 197   2.0000      -0.525667       -14.3041
 198   2.0000      -0.523487       -14.2448
 199   2.0000      -0.520610       -14.1665
 200   2.0000      -0.519354       -14.1324
 201   2.0000      -0.518550       -14.1105
 202   2.0000      -0.517711       -14.0876
 203   2.0000      -0.516417       -14.0524
 204   2.0000      -0.514970       -14.0131
 205   2.0000      -0.514365       -13.9966
 206   2.0000      -0.512455       -13.9446
 207   2.0000      -0.512073       -13.9342
 208   2.0000      -0.510177       -13.8826
 209   2.0000      -0.506894       -13.7933
 210   2.0000      -0.504737       -13.7346
 211   2.0000      -0.503262       -13.6945
 212   2.0000      -0.500546       -13.6205
 213   2.0000      -0.496450       -13.5091
 214   2.0000      -0.495289       -13.4775
 215   2.0000      -0.491840       -13.3836
 216   2.0000      -0.488870       -13.3028
 217   2.0000      -0.486617       -13.2415
 218   2.0000      -0.485646       -13.2151
 219   2.0000      -0.485194       -13.2028
 220   2.0000      -0.482643       -13.1334
 221   2.0000      -0.478980       -13.0337
 222   2.0000      -0.474165       -12.9027
 223   2.0000      -0.473645       -12.8885
 224   2.0000      -0.472106       -12.8467
 225   2.0000      -0.467857       -12.7310
 226   2.0000      -0.466332       -12.6895
 227   2.0000      -0.463539       -12.6135
 228   2.0000      -0.462914       -12.5965
 229   2.0000      -0.462213       -12.5774
 230   2.0000      -0.457397       -12.4464
 231   2.0000      -0.454410       -12.3651
 232   2.0000      -0.451704       -12.2915
 233   2.0000      -0.449311       -12.2264
 234   2.0000      -0.448099       -12.1934
 235   2.0000      -0.447755       -12.1840
 236   2.0000      -0.447329       -12.1724
 237   2.0000      -0.445210       -12.1148
 238   2.0000      -0.443415       -12.0659
 239   2.0000      -0.442403       -12.0384
 240   2.0000      -0.440053       -11.9744
 241   2.0000      -0.439230       -11.9521
 242   2.0000      -0.437625       -11.9084
 243   2.0000      -0.436964       -11.8904
 244   2.0000      -0.435535       -11.8515
 245   2.0000      -0.432569       -11.7708
 246   2.0000      -0.432300       -11.7635
 247   2.0000      -0.431553       -11.7431
 248   2.0000      -0.429105       -11.6765
 249   2.0000      -0.427109       -11.6222
 250   2.0000      -0.425587       -11.5808
 251   2.0000      -0.423947       -11.5362
 252   2.0000      -0.420068       -11.4306
 253   2.0000      -0.418634       -11.3916
 254   2.0000      -0.417923       -11.3723
 255   2.0000      -0.413227       -11.2445
 256   2.0000      -0.405606       -11.0371
 257   2.0000      -0.403696       -10.9851
 258   2.0000      -0.402020       -10.9395
 259   2.0000      -0.398853       -10.8533
 260   2.0000      -0.391659       -10.6576
 261   2.0000      -0.388127       -10.5615
 262   2.0000      -0.387223       -10.5369
 263   2.0000      -0.384152       -10.4533
 264   2.0000      -0.382298       -10.4029
 265   2.0000      -0.379340       -10.3224
 266   2.0000      -0.377798       -10.2804
 267   2.0000      -0.377569       -10.2742
 268   2.0000      -0.374708       -10.1963
 269   2.0000      -0.366373        -9.9695
 270   2.0000      -0.365298        -9.9403
 271   2.0000      -0.354347        -9.6423
 272   2.0000      -0.347365        -9.4523
 273   2.0000      -0.344536        -9.3753
 274   2.0000      -0.342563        -9.3216
 275   2.0000      -0.337637        -9.1876
 276   2.0000      -0.336248        -9.1498
 277   2.0000      -0.330699        -8.9988
 278   2.0000      -0.329914        -8.9774
 279   2.0000      -0.319434        -8.6922
 280   2.0000      -0.315884        -8.5956
 281   2.0000      -0.315346        -8.5810
 282   2.0000      -0.312726        -8.5097
 283   2.0000      -0.294834        -8.0229
 284   2.0000      -0.293220        -7.9789
 285   2.0000      -0.280119        -7.6224
 286   2.0000      -0.246631        -6.7112
 287   0.0000      -0.104165        -2.8345
 288   0.0000      -0.093007        -2.5308
 289   0.0000      -0.073767        -2.0073
 290   0.0000      -0.056535        -1.5384
 291   0.0000      -0.053562        -1.4575

MULLIKEN ATOMIC CHARGES
-----------------------
   0 C :    0.346331
   1 C :   -0.353541
   2 C :   -0.188441
   3 N :    0.162446
   4 C :   -0.158907
   5 N :    0.139984
   6 C :    0.034293
   7 C :    0.029666
   8 C :   -0.087088
   9 C :    0.099345
  10 C :    0.094803
  11 C :   -0.074674
  12 C :   -0.016330
  13 C :    0.036214
  14 C :    0.038419
  15 C :   -0.017549
  16 C :    0.126209
  17 O :   -0.134955
  18 C :   -0.073610
  19 C :   -0.036352
  20 C :    0.065664
  21 C :   -0.097917
  22 C :    0.219800
  23 O :   -0.171013
  24 O :   -0.274122
  25 C :    0.321327
  26 C :   -0.063804
  27 C :   -0.022525
  28 C :    0.044371
  29 C :   -0.003374
  30 C :   -0.010171
  31 N :   -0.250865
  32 C :    0.121044
  33 C :   -0.008729
  34 C :    0.167372
  35 O :   -0.194962
  36 C :   -0.040832
  37 C :    0.008519
  38 C :    0.127639
  39 O :   -0.184916
  40 N :   -0.272952
  41 C :    0.096962
  42 C :   -0.005366
  43 C :    0.113908
  44 C :   -0.038910
  45 C :    0.048580
  46 C :   -0.117829
  47 S :    0.174917
  48 C :   -0.116588
  49 C :   -0.001274
  50 C :   -0.006901
  51 C :    0.074606
  52 N :    0.186526
  53 O :   -0.215662
  54 O :   -0.213061
  55 C :    0.079889
  56 C :    0.082098
  57 C :    0.066089
  58 N :    0.188351
  59 O :   -0.219251
  60 O :   -0.212067
  61 C :    0.073201
  62 C :   -0.024374
  63 C :   -0.031674
  64 C :   -0.075185
  65 C :    0.326826
  66 C :   -0.344132
  67 C :   -0.181423
  68 N :    0.147881
  69 C :   -0.195984
  70 N :    0.146286
  71 C :    0.045230
  72 C :    0.007699
  73 C :    0.158854
  74 O :   -0.160561
  75 C :   -0.079872
  76 C :    0.098348
  77 C :    0.095599
  78 C :   -0.084873
  79 C :   -0.018584
  80 C :    0.036134
  81 C :    0.037381
  82 C :   -0.016833
  83 H :   -0.010891
  84 H :   -0.002190
  85 H :   -0.009165
  86 H :   -0.004955
  87 H :   -0.004646
  88 H :   -0.016470
  89 H :    0.045262
  90 H :    0.054093
  91 H :    0.049743
  92 H :   -0.010463
  93 H :   -0.000260
  94 H :    0.035957
  95 H :    0.023741
  96 H :    0.010592
  97 H :    0.019606
  98 H :    0.040630
  99 H :    0.044562
 100 H :    0.023519
 101 H :    0.025828
 102 H :    0.020997
 103 H :    0.031931
 104 H :    0.003627
 105 H :   -0.010604
 106 H :    0.069145
 107 H :    0.039365
 108 H :    0.029425
 109 H :    0.030402
 110 H :    0.040458
 111 H :    0.070139
 112 H :    0.007539
 113 H :    0.026133
 114 H :    0.014459
 115 H :   -0.014237
 116 H :   -0.007229
 117 H :   -0.009280
 118 H :   -0.004669
 119 H :   -0.004916
 120 H :   -0.017955
Sum of atomic charges:   -0.0000000

LOEWDIN ATOMIC CHARGES
----------------------
   0 C :    0.089806
   1 C :   -0.139262
   2 C :   -0.017296
   3 N :   -0.049254
   4 C :   -0.004910
   5 N :   -0.057996
   6 C :   -0.015147
   7 C :   -0.054244
   8 C :    0.034597
   9 C :   -0.007023
  10 C :   -0.003631
  11 C :    0.026331
  12 C :   -0.004461
  13 C :   -0.012214
  14 C :   -0.011686
  15 C :   -0.008920
  16 C :    0.088371
  17 O :   -0.132772
  18 C :   -0.058035
  19 C :    0.058156
  20 C :    0.003675
  21 C :   -0.065627
  22 C :    0.088202
  23 O :   -0.154835
  24 O :   -0.074007
  25 C :    0.104219
  26 C :   -0.007748
  27 C :   -0.005741
  28 C :    0.033694
  29 C :   -0.014397
  30 C :    0.080224
  31 N :    0.007190
  32 C :    0.037420
  33 C :   -0.064768
  34 C :    0.084211
  35 O :   -0.192240
  36 C :   -0.109650
  37 C :   -0.132673
  38 C :    0.082352
  39 O :   -0.192929
  40 N :   -0.009445
  41 C :    0.034140
  42 C :   -0.063605
  43 C :    0.075604
  44 C :   -0.027982
  45 C :   -0.029740
  46 C :   -0.152444
  47 S :    0.488024
  48 C :   -0.166653
  49 C :   -0.050918
  50 C :   -0.063411
  51 C :    0.013142
  52 N :    0.273110
  53 O :   -0.185227
  54 O :   -0.195773
  55 C :   -0.013988
  56 C :   -0.014374
  57 C :    0.013191
  58 N :    0.271839
  59 O :   -0.189786
  60 O :   -0.191328
  61 C :    0.006643
  62 C :   -0.036646
  63 C :    0.070664
  64 C :   -0.086724
  65 C :    0.075916
  66 C :   -0.138375
  67 C :   -0.017221
  68 N :   -0.053961
  69 C :   -0.020040
  70 N :   -0.053882
  71 C :   -0.024681
  72 C :   -0.054115
  73 C :    0.090157
  74 O :   -0.148437
  75 C :    0.033055
  76 C :   -0.008085
  77 C :   -0.005828
  78 C :    0.019561
  79 C :   -0.005196
  80 C :   -0.013395
  81 C :   -0.012462
  82 C :   -0.009622
  83 H :    0.039868
  84 H :    0.040479
  85 H :    0.034947
  86 H :    0.033194
  87 H :    0.033015
  88 H :    0.032173
  89 H :    0.052588
  90 H :    0.041832
  91 H :    0.040174
  92 H :    0.036620
  93 H :    0.041585
  94 H :    0.025780
  95 H :    0.031836
  96 H :    0.019229
  97 H :    0.029731
  98 H :    0.031284
  99 H :    0.037899
 100 H :    0.019098
 101 H :    0.032004
 102 H :    0.030343
 103 H :    0.024445
 104 H :    0.042375
 105 H :    0.031270
 106 H :    0.048495
 107 H :    0.041376
 108 H :    0.034441
 109 H :    0.035543
 110 H :    0.041730
 111 H :    0.049809
 112 H :    0.037746
 113 H :    0.027066
 114 H :    0.042817
 115 H :    0.038732
 116 H :    0.039216
 117 H :    0.034834
 118 H :    0.033249
 119 H :    0.032786
 120 H :    0.031707

  Mayer bond orders larger than 0.100000
B(  0-C ,  1-C ) :   1.6637 B(  0-C ,  6-C ) :   1.0128 B(  0-C , 18-C ) :   0.9809
B(  1-C ,  2-C ) :   1.1282 B(  1-C ,  4-C ) :   1.1942 B(  2-C ,  3-N ) :   2.9973
B(  4-C ,  5-N ) :   2.8824 B(  6-C ,  7-C ) :   1.2146 B(  6-C , 11-C ) :   1.4498
B(  7-C ,  8-C ) :   1.4589 B(  7-C , 16-C ) :   0.9302 B(  8-C ,  9-C ) :   1.1886
B(  8-C , 83-H ) :   1.0173 B(  9-C , 10-C ) :   1.2548 B(  9-C , 15-C ) :   1.2406
B( 10-C , 11-C ) :   1.2085 B( 10-C , 12-C ) :   1.2378 B( 11-C , 84-H ) :   0.9933
B( 12-C , 13-C ) :   1.4914 B( 12-C , 85-H ) :   0.9981 B( 13-C , 14-C ) :   1.2583
B( 13-C , 86-H ) :   0.9887 B( 14-C , 15-C ) :   1.4911 B( 14-C , 87-H ) :   0.9883
B( 15-C , 88-H ) :   0.9984 B( 16-C , 17-O ) :   2.2744 B( 16-C , 18-C ) :   0.9123
B( 18-C , 19-C ) :   1.7750 B( 19-C , 20-C ) :   1.0024 B( 19-C , 89-H ) :   0.9203
B( 20-C , 21-C ) :   1.3211 B( 20-C , 29-C ) :   1.4177 B( 21-C , 22-C ) :   0.9106
B( 21-C , 26-C ) :   1.4244 B( 22-C , 23-O ) :   2.1448 B( 22-C , 24-O ) :   1.1550
B( 24-O , 25-C ) :   0.9680 B( 25-C , 26-C ) :   1.0102 B( 25-C , 90-H ) :   0.9246
B( 25-C , 91-H ) :   0.9262 B( 26-C , 27-C ) :   1.3601 B( 27-C , 28-C ) :   1.3492
B( 27-C , 92-H ) :   1.0065 B( 28-C , 29-C ) :   1.3950 B( 28-C , 93-H ) :   0.9921
B( 29-C , 30-C ) :   0.9487 B( 30-C , 31-N ) :   1.2412 B( 30-C , 37-C ) :   1.4534
B( 31-N , 32-C ) :   0.9275 B( 31-N , 34-C ) :   1.0164 B( 32-C , 33-C ) :   1.1094
B( 32-C , 94-H ) :   0.9358 B( 32-C , 95-H ) :   0.9361 B( 33-C , 96-H ) :   0.9662
B( 33-C , 97-H ) :   0.9632 B( 33-C , 98-H ) :   0.9621 B( 34-C , 35-O ) :   2.1031
B( 34-C , 36-C ) :   0.9909 B( 36-C , 37-C ) :   1.1966 B( 36-C , 43-C ) :   1.3804
B( 37-C , 38-C ) :   0.9555 B( 38-C , 39-O ) :   2.1699 B( 38-C , 40-N ) :   1.0246
B( 40-N , 41-C ) :   0.9426 B( 40-N , 43-C ) :   1.1646 B( 41-C , 42-C ) :   1.1156
B( 41-C , 99-H ) :   0.9229 B( 41-C ,100-H ) :   0.9515 B( 42-C ,101-H ) :   0.9616
B( 42-C ,102-H ) :   0.9670 B( 42-C ,103-H ) :   0.9663 B( 43-C , 44-C ) :   1.1911
B( 44-C , 45-C ) :   1.6125 B( 44-C ,104-H ) :   0.9354 B( 45-C , 46-C ) :   1.1063
B( 45-C ,105-H ) :   0.9534 B( 46-C , 47-S ) :   1.1573 B( 46-C , 50-C ) :   1.4887
B( 47-S , 48-C ) :   1.1379 B( 48-C , 49-C ) :   1.4821 B( 48-C , 61-C ) :   1.1106
B( 49-C , 50-C ) :   1.3710 B( 49-C , 57-C ) :   0.9600 B( 50-C , 51-C ) :   0.9531
B( 51-C , 52-N ) :   0.8332 B( 51-C , 55-C ) :   1.0750 B( 51-C ,106-H ) :   0.8933
B( 52-N , 53-O ) :   1.5544 B( 52-N , 54-O ) :   1.5801 B( 53-O , 54-O ) :   0.2713
B( 55-C , 56-C ) :   1.0987 B( 55-C ,107-H ) :   0.9255 B( 55-C ,108-H ) :   0.9236
B( 56-C , 57-C ) :   1.0757 B( 56-C ,109-H ) :   0.9211 B( 56-C ,110-H ) :   0.9248
B( 57-C , 58-N ) :   0.8367 B( 57-C ,111-H ) :   0.8926 B( 58-N , 59-O ) :   1.5508
B( 58-N , 60-O ) :   1.5924 B( 59-O , 60-O ) :   0.2735 B( 61-C , 62-C ) :   1.5968
B( 61-C ,112-H ) :   0.9593 B( 62-C , 63-C ) :   1.1664 B( 62-C ,113-H ) :   0.9619
B( 63-C , 64-C ) :   1.5566 B( 63-C ,114-H ) :   0.9680 B( 64-C , 65-C ) :   1.0517
B( 64-C , 73-C ) :   0.9423 B( 65-C , 66-C ) :   1.6352 B( 65-C , 71-C ) :   0.9915
B( 66-C , 67-C ) :   1.1424 B( 66-C , 69-C ) :   1.1448 B( 67-C , 68-N ) :   2.9664
B( 69-C , 70-N ) :   2.9739 B( 71-C , 72-C ) :   1.2156 B( 71-C , 78-C ) :   1.4489
B( 72-C , 73-C ) :   0.9488 B( 72-C , 75-C ) :   1.4685 B( 73-C , 74-O ) :   2.1730
B( 75-C , 76-C ) :   1.1794 B( 75-C ,115-H ) :   1.0165 B( 76-C , 77-C ) :   1.2578
B( 76-C , 82-C ) :   1.2429 B( 77-C , 78-C ) :   1.2055 B( 77-C , 79-C ) :   1.2399
B( 78-C ,116-H ) :   0.9903 B( 79-C , 80-C ) :   1.4892 B( 79-C ,117-H ) :   0.9974
B( 80-C , 81-C ) :   1.2598 B( 80-C ,118-H ) :   0.9883 B( 81-C , 82-C ) :   1.4888
B( 81-C ,119-H ) :   0.9885 B( 82-C ,120-H ) :   0.9980

-----------------------------------------------------------------------------
         ABSORPTION SPECTRUM VIA TRANSITION ELECTRIC DIPOLE MOMENTS
-----------------------------------------------------------------------------
State   Energy  Wavelength   fosc         T2         TX        TY        TZ
        (cm-1)    (nm)                  (au**2)     (au)      (au)      (au)
-----------------------------------------------------------------------------
   0   17124.8    583.9   0.968992482  18.62814   3.96502   0.68407  -1.56166
   1   18420.6    542.9   0.400829050   7.16360   2.25290   0.84705  -1.17072
   2   22892.1    436.8   0.256235207   3.68493   0.74081   0.98867  -1.46924
   3   24407.3    409.7   0.363676707   4.90537  -2.07446  -0.35943   0.68761
   4   26020.9    384.3   0.230174139   2.91213   1.08773   0.26568  -1.28778
   5   26198.6    381.7   0.054266824   0.68192   0.00343   0.64194   0.51944
   6   27240.6    367.1   0.000385826   0.00466   0.02356   0.04720  -0.04336
   7   27816.7    359.5   0.013051619   0.15447  -0.30645   0.21591  -0.11807
   8   27897.7    358.5   0.006581955   0.07767  -0.13295   0.08769  -0.22871
   9   28174.3    354.9   0.037120318   0.43374   0.63643  -0.11209   0.12703
  10   28314.0    353.2   0.012390245   0.14406  -0.15025  -0.19839  -0.28658
  11   28433.0    351.7   0.011481105   0.13293   0.14828  -0.07604   0.32429
  12   29273.3    341.6   0.207213271   2.33035   0.63556  -1.35200  -0.31388
  13   29415.4    340.0   0.011961848   0.13388  -0.29594   0.21426   0.01972
  14   29468.0    339.4   0.216822173   2.42230   0.02890  -0.01441  -1.55604
  15   29625.1    337.6   0.093228479   1.03601  -0.50157   0.69514  -0.54883
  16   30170.4    331.5   0.021475291   0.23433   0.24290  -0.32377  -0.26553
  17   31324.5    319.2   0.001655886   0.01740  -0.10238   0.04922   0.06707
  18   31451.0    318.0   0.003236898   0.03388  -0.06535   0.03273   0.16894
  19   31580.2    316.7   0.002114500   0.02204  -0.04134   0.12045  -0.07633
  20   32653.8    306.2   0.025239654   0.25446   0.32688   0.25929  -0.28352
  21   32938.3    303.6   0.249412553   2.49283  -0.12100  -0.46743  -1.50323
  22   33047.0    302.6   0.256557543   2.55581  -0.20685   0.31734   1.55316
  23   33265.2    300.6   0.057943559   0.57344  -0.22217   0.71171   0.13247
  24   33638.7    297.3   0.057544106   0.56317  -0.10105   0.21245   0.71262
  25   33758.7    296.2   0.256759561   2.50390  -0.04585  -1.38557   0.76288
  26   33857.8    295.4   0.435038879   4.23004   0.31021  -1.63533  -1.20810
  27   33933.6    294.7   0.051545637   0.50008  -0.05560   0.63598   0.30417
  28   34413.6    290.6   0.176404300   1.68754  -0.14726   1.02294   0.78706
  29   34815.4    287.2   0.142393895   1.34647   0.23625  -0.92916   0.65369
  30   34854.2    286.9   0.184947051   1.74690   0.44434  -0.95485  -0.79857
  31   35031.8    285.5   0.060515258   0.56869   0.06514   0.58236   0.47466
  32   35204.9    284.1   0.097149035   0.90847  -0.06801   0.28309   0.90758
  33   35289.0    283.4   0.063728728   0.59453   0.10448   0.17980   0.74248
  34   36033.6    277.5   0.013350773   0.12198  -0.19676   0.23924   0.16132
  35   36121.7    276.8   0.040697854   0.37092  -0.24986  -0.42179   0.36137
  36   36611.6    273.1   0.006003352   0.05398  -0.01322   0.03643  -0.22909
  37   37395.9    267.4   0.018361889   0.16165  -0.11089  -0.12709   0.36496
  38   37760.8    264.8   0.013418288   0.11699  -0.16778  -0.04407   0.29477
  39   37890.0    263.9   0.016611437   0.14433   0.28200   0.22606   0.11706
  40   38384.5    260.5   0.072056555   0.61801  -0.21731  -0.73393  -0.17926
  41   38409.1    260.4   0.264908351   2.27058   0.29712  -1.46109  -0.21802
  42   38741.0    258.1   0.028375056   0.24112   0.35400  -0.33718   0.04602
  43   39020.0    256.3   0.014753842   0.12448   0.24190   0.25660   0.01089
  44   39072.4    255.9   0.016003618   0.13484  -0.21498  -0.27798  -0.10655
  45   39359.7    254.1   0.001901943   0.01591  -0.06699   0.09697   0.04493
  46   39549.0    252.9   0.348242037   2.89882  -1.22926  -0.70151  -0.94637
  47   39635.2    252.3   0.021773063   0.18085   0.41030   0.00595   0.11167
  48   40123.4    249.2   0.069299435   0.56860  -0.58665  -0.37929   0.28387
  49   40164.8    249.0   0.013478575   0.11048  -0.26980  -0.02330  -0.19273

FINAL SINGLE POINT ENERGY     -4045.270101298796

DIPOLE MOMENT
-------------
                                X             Y             Z
Electronic contribution:      7.29303       7.19661       9.63571
Nuclear contribution   :     -8.35288      -8.14232     -10.51914
                        -----------------------------------------
Total Dipole Moment    :     -1.05985      -0.94571      -0.88343
                        -----------------------------------------
Magnitude (a.u.)       :      1.67276
Magnitude (Debye)      :      4.25181

Rotational constants in cm-1:     0.001606     0.000214     0.000205
Rotational constants in MHz :    48.157707     6.417949     6.160652

                             ****ORCA TERMINATED NORMALLY****
TOTAL RUN TIME: 0 days 0 hours 14 minutes 55 seconds 433 msec
