                         Program Version 4.2.0 -  RELEASE  -
|  1> # ORCA input file
|  2> # SCF done       -219.224736805859          0.000446084059
|  3> ! CAM-B3LYP def2-SVP def2/J RIJCOSX Grid4 TightSCF
|  4> %maxcore 5000
|  5> %tddft
|  6>     Mode sTDDFT
|  7>     Ethresh 5.0
|  8>     maxcore 5000
|  9> end
| 10>
| 11> %pal
| 12>   nprocs 6
| 13>   end
| 14> * xyz 0 1
| 15>    C       -2.73669         1.57580         9.01671
| 16>    C       -2.13504         1.78827        10.22513
| 17>    F       -2.09398         3.01973        10.74962
| 18>    C       -1.55182         0.71873        10.93463
| 19>    F       -0.96933         0.95723        12.11702
| 20>    C       -1.57833        -0.54918        10.42527
| 21>    C       -2.19175        -0.80047         9.18253
| 22>    C       -2.78293         0.27960         8.46459
| 23>    C       -3.40983         0.05072         7.21867
| 24>    C       -3.44975        -1.22077         6.70841
| 25>    C       -2.85132        -2.29030         7.42913
| 26>    C       -2.23393        -2.10020         8.63183
| 27>    C       -3.00742        -3.54731         6.67175
| 28>    O       -2.54499        -4.62457         6.97347
| 29>    C       -3.75934        -3.18275         5.44094
| 30>    C       -4.03660        -1.75727         5.48400
| 31>    C       -4.78648        -1.04098         4.58773
| 32>    C       -5.44814        -1.56944         3.45809
| 33>    N       -6.03879        -1.91839         2.53751
| 34>    C       -5.03143         0.34492         4.69468
| 35>    N       -5.26236         1.46890         4.72138
| 36>    C       -4.01983        -4.00651         4.38186
| 37>    C       -3.93972        -5.41812         4.30445
| 38>    C       -3.90469        -6.11239         3.10861
| 39>    C       -3.84749        -7.50999         3.37830
| 40>    C       -3.91085        -7.64383         4.84170
| 41>    C       -3.97339        -6.39906         5.38318
| 42>    C       -4.01781        -8.83613         5.57092
| 43>    N       -4.15696        -9.78822         6.19735
| 44>    C       -3.77405        -8.54107         2.46616
| 45>    C       -3.62947        -9.92435         2.74410
| 46>    C       -3.70872       -10.63966         1.56218
| 47>    C       -3.88556        -9.68256         0.47737
| 48>    C       -3.89256        -8.42904         1.00032
| 49>    C       -4.00594        -7.25293         0.24978
| 50>    N       -4.09026        -6.31008        -0.40047
| 51>    C       -3.60033       -12.05134         1.49988
| 52>    N       -4.03681       -12.88939         0.50353
| 53>    C       -4.81399       -12.55793        -0.66896
| 54>    C       -6.18865       -12.00181        -0.31368
| 55>    C       -3.78121       -14.24118         0.81012
| 56>    O       -4.10431       -15.16416         0.09154
| 57>    C       -3.09514       -14.20056         2.08243
| 58>    C       -3.01082       -12.85447         2.48535
| 59>    C       -2.24964       -12.80399         3.72254
| 60>    O       -1.88316       -11.88530         4.41709
| 61>    N       -1.94534       -14.15590         3.99280
| 62>    C       -1.22844       -14.52779         5.19045
| 63>    C       -2.17601       -14.97828         6.29872
| 64>    C       -2.44305       -14.99699         3.03519
| 65>    C       -2.28005       -16.39997         3.05094
| 66>    C       -2.77211       -17.21543         2.07553
| 67>    C       -2.57335       -18.61474         2.11493
| 68>    O       -1.99150       -19.19237         3.17996
| 69>    C       -1.85626       -20.51705         2.93419
| 70>    C       -2.37662       -20.81384         1.68248
| 71>    C       -2.85044       -19.60176         1.15411
| 72>    C       -3.46409       -19.41442        -0.09443
| 73>    N       -3.96535       -19.29757        -1.11815
| 74>    C       -1.21283       -21.33122         3.89892
| 75>    C       -0.85706       -20.84032         5.11783
| 76>    C       -0.10700       -21.56869         6.05917
| 77>    C        0.34862       -21.16322         7.28180
| 78>    C        0.91529       -22.20493         8.18503
| 79>    O        1.20769       -23.33725         7.87668
| 80>    C        0.99350       -21.57748         9.51565
| 81>    C        1.36218       -22.13664        10.70495
| 82>    C        1.32692       -21.34648        11.87521
| 83>    C        0.89736       -19.99068        11.78633
| 84>    C        0.85437       -19.20706        12.95713
| 85>    C        1.22412       -19.74382        14.15838
| 86>    C        1.65067       -21.08488        14.24455
| 87>    C        1.70130       -21.87094        13.12742
| 88>    F        2.00613       -21.58386        15.43488
| 89>    F        1.18449       -18.99834        15.26922
| 90>    C        0.52513       -19.43993        10.53876
| 91>    C        0.58199       -20.21867         9.41280
| 92>    C        0.29862       -19.91219         8.00784
| 93>    C        0.16920       -18.63369         7.52702
| 94>    C        0.10767       -18.19887         6.18887
| 95>    N        0.07878       -17.69457         5.15587
| 96>    C        0.14064       -17.47921         8.34181
| 97>    N        0.07469       -16.48414         8.91074
| 98>    H       -3.17926         2.40528         8.48755
| 99>    H       -1.12746        -1.35708        10.97999
|100>    H       -3.84189         0.89050         6.69933
|101>    H       -1.78809        -2.93170         9.15625
|102>    H       -4.32499        -3.53884         3.45261
|103>    H       -3.87516        -5.67261         2.13007
|104>    H       -4.06335        -6.17181         6.42664
|105>    H       -3.48291       -10.34071         3.72045
|106>    H       -3.94685        -9.91477        -0.56826
|107>    H       -4.92660       -13.49952        -1.21518
|108>    H       -4.25748       -11.86253        -1.30228
|109>    H       -6.73737       -12.72061         0.29021
|110>    H       -6.75100       -11.81293        -1.22374
|111>    H       -6.10787       -11.07099         0.24366
|112>    H       -0.69277       -13.63166         5.51426
|113>    H       -0.50481       -15.31230         4.95693
|114>    H       -2.87403       -14.18027         6.53929
|115>    H       -1.60339       -15.21844         7.19039
|116>    H       -2.74023       -15.85793         5.99481
|117>    H       -1.71766       -16.83814         3.86420
|118>    H       -3.30968       -16.81925         1.22431
|119>    H       -2.41396       -21.77665         1.21460
|120>    H       -0.98200       -22.34669         3.61244
|121>    H       -1.16542       -19.83640         5.36071
|122>    H        0.12143       -22.60204         5.81598
|123>    H        1.67574       -23.16835        10.75125
|124>    H        0.53351       -18.17816        12.90874
|125>    H        2.02956       -22.89520        13.20985
|126>    H        0.19588       -18.41404        10.51217
|127> *
|128>
|129>                          ****END OF INPUT****

CARTESIAN COORDINATES (ANGSTROEM)
---------------------------------
  C     -2.736690    1.575800    9.016710
  C     -2.135040    1.788270   10.225130
  F     -2.093980    3.019730   10.749620
  C     -1.551820    0.718730   10.934630
  F     -0.969330    0.957230   12.117020
  C     -1.578330   -0.549180   10.425270
  C     -2.191750   -0.800470    9.182530
  C     -2.782930    0.279600    8.464590
  C     -3.409830    0.050720    7.218670
  C     -3.449750   -1.220770    6.708410
  C     -2.851320   -2.290300    7.429130
  C     -2.233930   -2.100200    8.631830
  C     -3.007420   -3.547310    6.671750
  O     -2.544990   -4.624570    6.973470
  C     -3.759340   -3.182750    5.440940
  C     -4.036600   -1.757270    5.484000
  C     -4.786480   -1.040980    4.587730
  C     -5.448140   -1.569440    3.458090
  N     -6.038790   -1.918390    2.537510
  C     -5.031430    0.344920    4.694680
  N     -5.262360    1.468900    4.721380
  C     -4.019830   -4.006510    4.381860
  C     -3.939720   -5.418120    4.304450
  C     -3.904690   -6.112390    3.108610
  C     -3.847490   -7.509990    3.378300
  C     -3.910850   -7.643830    4.841700
  C     -3.973390   -6.399060    5.383180
  C     -4.017810   -8.836130    5.570920
  N     -4.156960   -9.788220    6.197350
  C     -3.774050   -8.541070    2.466160
  C     -3.629470   -9.924350    2.744100
  C     -3.708720  -10.639660    1.562180
  C     -3.885560   -9.682560    0.477370
  C     -3.892560   -8.429040    1.000320
  C     -4.005940   -7.252930    0.249780
  N     -4.090260   -6.310080   -0.400470
  C     -3.600330  -12.051340    1.499880
  N     -4.036810  -12.889390    0.503530
  C     -4.813990  -12.557930   -0.668960
  C     -6.188650  -12.001810   -0.313680
  C     -3.781210  -14.241180    0.810120
  O     -4.104310  -15.164160    0.091540
  C     -3.095140  -14.200560    2.082430
  C     -3.010820  -12.854470    2.485350
  C     -2.249640  -12.803990    3.722540
  O     -1.883160  -11.885300    4.417090
  N     -1.945340  -14.155900    3.992800
  C     -1.228440  -14.527790    5.190450
  C     -2.176010  -14.978280    6.298720
  C     -2.443050  -14.996990    3.035190
  C     -2.280050  -16.399970    3.050940
  C     -2.772110  -17.215430    2.075530
  C     -2.573350  -18.614740    2.114930
  O     -1.991500  -19.192370    3.179960
  C     -1.856260  -20.517050    2.934190
  C     -2.376620  -20.813840    1.682480
  C     -2.850440  -19.601760    1.154110
  C     -3.464090  -19.414420   -0.094430
  N     -3.965350  -19.297570   -1.118150
  C     -1.212830  -21.331220    3.898920
  C     -0.857060  -20.840320    5.117830
  C     -0.107000  -21.568690    6.059170
  C      0.348620  -21.163220    7.281800
  C      0.915290  -22.204930    8.185030
  O      1.207690  -23.337250    7.876680
  C      0.993500  -21.577480    9.515650
  C      1.362180  -22.136640   10.704950
  C      1.326920  -21.346480   11.875210
  C      0.897360  -19.990680   11.786330
  C      0.854370  -19.207060   12.957130
  C      1.224120  -19.743820   14.158380
  C      1.650670  -21.084880   14.244550
  C      1.701300  -21.870940   13.127420
  F      2.006130  -21.583860   15.434880
  F      1.184490  -18.998340   15.269220
  C      0.525130  -19.439930   10.538760
  C      0.581990  -20.218670    9.412800
  C      0.298620  -19.912190    8.007840
  C      0.169200  -18.633690    7.527020
  C      0.107670  -18.198870    6.188870
  N      0.078780  -17.694570    5.155870
  C      0.140640  -17.479210    8.341810
  N      0.074690  -16.484140    8.910740
  H     -3.179260    2.405280    8.487550
  H     -1.127460   -1.357080   10.979990
  H     -3.841890    0.890500    6.699330
  H     -1.788090   -2.931700    9.156250
  H     -4.324990   -3.538840    3.452610
  H     -3.875160   -5.672610    2.130070
  H     -4.063350   -6.171810    6.426640
  H     -3.482910  -10.340710    3.720450
  H     -3.946850   -9.914770   -0.568260
  H     -4.926600  -13.499520   -1.215180
  H     -4.257480  -11.862530   -1.302280
  H     -6.737370  -12.720610    0.290210
  H     -6.751000  -11.812930   -1.223740
  H     -6.107870  -11.070990    0.243660
  H     -0.692770  -13.631660    5.514260
  H     -0.504810  -15.312300    4.956930
  H     -2.874030  -14.180270    6.539290
  H     -1.603390  -15.218440    7.190390
  H     -2.740230  -15.857930    5.994810
  H     -1.717660  -16.838140    3.864200
  H     -3.309680  -16.819250    1.224310
  H     -2.413960  -21.776650    1.214600
  H     -0.982000  -22.346690    3.612440
  H     -1.165420  -19.836400    5.360710
  H      0.121430  -22.602040    5.815980
  H      1.675740  -23.168350   10.751250
  H      0.533510  -18.178160   12.908740
  H      2.029560  -22.895200   13.209850
  H      0.195880  -18.414040   10.512170

 Total Charge           Charge          ....    0
 Multiplicity           Mult            ....    1
 Number of Electrons    NEL             ....  558
 Basis Dimension        Dim             .... 1307

ORBITAL ENERGIES
----------------

  NO   OCC          E(Eh)            E(eV)
   0   2.0000     -24.805663      -674.9964
   1   2.0000     -24.804736      -674.9712
   2   2.0000     -24.801183      -674.8745
   3   2.0000     -24.800350      -674.8518
   4   2.0000     -19.328099      -525.9443
   5   2.0000     -19.226425      -523.1776
   6   2.0000     -19.226412      -523.1773
   7   2.0000     -19.202114      -522.5161
   8   2.0000     -19.201945      -522.5115
   9   2.0000     -14.465323      -393.6214
  10   2.0000     -14.461375      -393.5140
  11   2.0000     -14.438478      -392.8910
  12   2.0000     -14.431907      -392.7121
  13   2.0000     -14.421192      -392.4206
  14   2.0000     -14.421044      -392.4166
  15   2.0000     -14.417297      -392.3146
  16   2.0000     -14.414687      -392.2436
  17   2.0000     -14.401018      -391.8716
  18   2.0000     -10.389596      -282.7153
  19   2.0000     -10.388817      -282.6941
  20   2.0000     -10.384915      -282.5879
  21   2.0000     -10.384270      -282.5703
  22   2.0000     -10.384205      -282.5686
  23   2.0000     -10.383945      -282.5615
  24   2.0000     -10.379129      -282.4305
  25   2.0000     -10.377766      -282.3934
  26   2.0000     -10.376514      -282.3593
  27   2.0000     -10.369796      -282.1765
  28   2.0000     -10.360583      -281.9258
  29   2.0000     -10.360037      -281.9109
  30   2.0000     -10.352680      -281.7107
  31   2.0000     -10.351774      -281.6861
  32   2.0000     -10.350509      -281.6517
  33   2.0000     -10.347660      -281.5741
  34   2.0000     -10.343628      -281.4644
  35   2.0000     -10.335156      -281.2339
  36   2.0000     -10.335086      -281.2320
  37   2.0000     -10.331432      -281.1326
  38   2.0000     -10.330395      -281.1043
  39   2.0000     -10.329527      -281.0807
  40   2.0000     -10.328165      -281.0437
  41   2.0000     -10.327224      -281.0181
  42   2.0000     -10.324664      -280.9484
  43   2.0000     -10.323516      -280.9172
  44   2.0000     -10.322939      -280.9014
  45   2.0000     -10.321221      -280.8547
  46   2.0000     -10.320275      -280.8290
  47   2.0000     -10.319593      -280.8104
  48   2.0000     -10.319282      -280.8019
  49   2.0000     -10.319031      -280.7951
  50   2.0000     -10.317881      -280.7638
  51   2.0000     -10.316214      -280.7185
  52   2.0000     -10.316163      -280.7171
  53   2.0000     -10.315676      -280.7038
  54   2.0000     -10.314546      -280.6731
  55   2.0000     -10.314291      -280.6661
  56   2.0000     -10.312704      -280.6229
  57   2.0000     -10.312283      -280.6115
  58   2.0000     -10.311966      -280.6028
  59   2.0000     -10.311517      -280.5906
  60   2.0000     -10.311441      -280.5886
  61   2.0000     -10.311151      -280.5807
  62   2.0000     -10.310261      -280.5565
  63   2.0000     -10.310203      -280.5549
  64   2.0000     -10.309009      -280.5224
  65   2.0000     -10.308789      -280.5164
  66   2.0000     -10.308454      -280.5073
  67   2.0000     -10.307072      -280.4697
  68   2.0000     -10.306572      -280.4561
  69   2.0000     -10.306219      -280.4465
  70   2.0000     -10.305562      -280.4286
  71   2.0000     -10.304422      -280.3976
  72   2.0000     -10.303855      -280.3822
  73   2.0000     -10.303622      -280.3758
  74   2.0000     -10.303192      -280.3641
  75   2.0000     -10.302681      -280.3502
  76   2.0000     -10.302228      -280.3379
  77   2.0000     -10.297926      -280.2208
  78   2.0000     -10.289386      -279.9884
  79   2.0000     -10.278502      -279.6923
  80   2.0000     -10.274470      -279.5825
  81   2.0000     -10.270991      -279.4879
  82   2.0000     -10.256510      -279.0938
  83   2.0000      -1.328516       -36.1507
  84   2.0000      -1.323771       -36.0216
  85   2.0000      -1.313601       -35.7449
  86   2.0000      -1.308875       -35.6163
  87   2.0000      -1.250543       -34.0290
  88   2.0000      -1.144892       -31.1541
  89   2.0000      -1.142525       -31.0897
  90   2.0000      -1.141858       -31.0715
  91   2.0000      -1.138287       -30.9744
  92   2.0000      -1.075094       -29.2548
  93   2.0000      -1.066081       -29.0095
  94   2.0000      -1.037779       -28.2394
  95   2.0000      -1.025559       -27.9069
  96   2.0000      -1.020951       -27.7815
  97   2.0000      -1.018305       -27.7095
  98   2.0000      -1.012347       -27.5474
  99   2.0000      -1.009008       -27.4565
 100   2.0000      -1.003047       -27.2943
 101   2.0000      -1.002858       -27.2892
 102   2.0000      -0.999318       -27.1928
 103   2.0000      -0.992621       -27.0106
 104   2.0000      -0.989201       -26.9175
 105   2.0000      -0.986237       -26.8369
 106   2.0000      -0.979199       -26.6454
 107   2.0000      -0.960175       -26.1277
 108   2.0000      -0.945163       -25.7192
 109   2.0000      -0.942437       -25.6450
 110   2.0000      -0.937426       -25.5086
 111   2.0000      -0.936996       -25.4970
 112   2.0000      -0.929465       -25.2920
 113   2.0000      -0.913171       -24.8487
 114   2.0000      -0.911140       -24.7934
 115   2.0000      -0.902288       -24.5525
 116   2.0000      -0.897922       -24.4337
 117   2.0000      -0.893434       -24.3116
 118   2.0000      -0.889362       -24.2008
 119   2.0000      -0.882460       -24.0130
 120   2.0000      -0.873509       -23.7694
 121   2.0000      -0.860568       -23.4172
 122   2.0000      -0.854171       -23.2432
 123   2.0000      -0.850472       -23.1425
 124   2.0000      -0.847080       -23.0502
 125   2.0000      -0.844578       -22.9821
 126   2.0000      -0.825818       -22.4717
 127   2.0000      -0.822929       -22.3930
 128   2.0000      -0.817305       -22.2400
 129   2.0000      -0.800542       -21.7838
 130   2.0000      -0.792890       -21.5756
 131   2.0000      -0.781120       -21.2553
 132   2.0000      -0.772938       -21.0327
 133   2.0000      -0.771176       -20.9848
 134   2.0000      -0.765110       -20.8197
 135   2.0000      -0.763772       -20.7833
 136   2.0000      -0.749860       -20.4047
 137   2.0000      -0.745150       -20.2766
 138   2.0000      -0.736206       -20.0332
 139   2.0000      -0.728738       -19.8300
 140   2.0000      -0.725558       -19.7434
 141   2.0000      -0.724520       -19.7152
 142   2.0000      -0.719118       -19.5682
 143   2.0000      -0.716728       -19.5032
 144   2.0000      -0.710590       -19.3361
 145   2.0000      -0.704361       -19.1666
 146   2.0000      -0.697544       -18.9811
 147   2.0000      -0.693877       -18.8813
 148   2.0000      -0.693065       -18.8593
 149   2.0000      -0.687359       -18.7040
 150   2.0000      -0.681117       -18.5341
 151   2.0000      -0.672855       -18.3093
 152   2.0000      -0.666714       -18.1422
 153   2.0000      -0.664775       -18.0894
 154   2.0000      -0.661076       -17.9888
 155   2.0000      -0.653453       -17.7813
 156   2.0000      -0.653386       -17.7795
 157   2.0000      -0.647915       -17.6307
 158   2.0000      -0.647157       -17.6100
 159   2.0000      -0.643882       -17.5209
 160   2.0000      -0.633608       -17.2414
 161   2.0000      -0.632886       -17.2217
 162   2.0000      -0.623965       -16.9790
 163   2.0000      -0.615438       -16.7469
 164   2.0000      -0.612534       -16.6679
 165   2.0000      -0.607399       -16.5282
 166   2.0000      -0.600738       -16.3469
 167   2.0000      -0.597997       -16.2723
 168   2.0000      -0.595517       -16.2048
 169   2.0000      -0.592910       -16.1339
 170   2.0000      -0.590698       -16.0737
 171   2.0000      -0.588843       -16.0232
 172   2.0000      -0.588315       -16.0089
 173   2.0000      -0.587031       -15.9739
 174   2.0000      -0.584496       -15.9049
 175   2.0000      -0.578814       -15.7503
 176   2.0000      -0.575777       -15.6677
 177   2.0000      -0.570367       -15.5205
 178   2.0000      -0.569665       -15.5014
 179   2.0000      -0.563611       -15.3366
 180   2.0000      -0.558460       -15.1965
 181   2.0000      -0.557224       -15.1628
 182   2.0000      -0.555906       -15.1270
 183   2.0000      -0.554288       -15.0829
 184   2.0000      -0.553263       -15.0551
 185   2.0000      -0.551608       -15.0100
 186   2.0000      -0.549821       -14.9614
 187   2.0000      -0.548625       -14.9288
 188   2.0000      -0.545948       -14.8560
 189   2.0000      -0.544711       -14.8223
 190   2.0000      -0.540961       -14.7203
 191   2.0000      -0.539057       -14.6685
 192   2.0000      -0.535321       -14.5668
 193   2.0000      -0.534462       -14.5434
 194   2.0000      -0.534056       -14.5324
 195   2.0000      -0.531268       -14.4565
 196   2.0000      -0.527697       -14.3594
 197   2.0000      -0.526840       -14.3360
 198   2.0000      -0.526079       -14.3153
 199   2.0000      -0.524339       -14.2680
 200   2.0000      -0.521789       -14.1986
 201   2.0000      -0.521070       -14.1790
 202   2.0000      -0.519203       -14.1282
 203   2.0000      -0.517213       -14.0741
 204   2.0000      -0.513458       -13.9719
 205   2.0000      -0.511599       -13.9213
 206   2.0000      -0.511302       -13.9132
 207   2.0000      -0.509651       -13.8683
 208   2.0000      -0.506343       -13.7783
 209   2.0000      -0.504190       -13.7197
 210   2.0000      -0.501374       -13.6431
 211   2.0000      -0.500565       -13.6211
 212   2.0000      -0.496148       -13.5009
 213   2.0000      -0.494883       -13.4664
 214   2.0000      -0.489142       -13.3102
 215   2.0000      -0.488934       -13.3046
 216   2.0000      -0.485253       -13.2044
 217   2.0000      -0.484992       -13.1973
 218   2.0000      -0.483944       -13.1688
 219   2.0000      -0.481300       -13.0969
 220   2.0000      -0.476852       -12.9758
 221   2.0000      -0.474875       -12.9220
 222   2.0000      -0.472993       -12.8708
 223   2.0000      -0.472813       -12.8659
 224   2.0000      -0.472074       -12.8458
 225   2.0000      -0.471473       -12.8294
 226   2.0000      -0.468285       -12.7427
 227   2.0000      -0.465545       -12.6681
 228   2.0000      -0.461211       -12.5502
 229   2.0000      -0.460963       -12.5434
 230   2.0000      -0.459273       -12.4975
 231   2.0000      -0.457147       -12.4396
 232   2.0000      -0.456562       -12.4237
 233   2.0000      -0.453576       -12.3424
 234   2.0000      -0.450273       -12.2526
 235   2.0000      -0.448125       -12.1941
 236   2.0000      -0.447802       -12.1853
 237   2.0000      -0.446995       -12.1633
 238   2.0000      -0.445550       -12.1240
 239   2.0000      -0.444589       -12.0979
 240   2.0000      -0.443234       -12.0610
 241   2.0000      -0.442603       -12.0438
 242   2.0000      -0.438088       -11.9210
 243   2.0000      -0.437328       -11.9003
 244   2.0000      -0.435875       -11.8608
 245   2.0000      -0.433946       -11.8083
 246   2.0000      -0.432667       -11.7735
 247   2.0000      -0.430674       -11.7192
 248   2.0000      -0.429982       -11.7004
 249   2.0000      -0.427562       -11.6345
 250   2.0000      -0.425415       -11.5761
 251   2.0000      -0.419309       -11.4100
 252   2.0000      -0.418545       -11.3892
 253   2.0000      -0.417665       -11.3652
 254   2.0000      -0.415778       -11.3139
 255   2.0000      -0.413222       -11.2444
 256   2.0000      -0.407939       -11.1006
 257   2.0000      -0.400426       -10.8961
 258   2.0000      -0.397096       -10.8055
 259   2.0000      -0.395137       -10.7522
 260   2.0000      -0.388976       -10.5846
 261   2.0000      -0.384701       -10.4682
 262   2.0000      -0.378036       -10.2869
 263   2.0000      -0.362324        -9.8593
 264   2.0000      -0.358015        -9.7421
 265   2.0000      -0.351135        -9.5549
 266   2.0000      -0.350696        -9.5429
 267   2.0000      -0.342949        -9.3321
 268   2.0000      -0.340105        -9.2547
 269   2.0000      -0.327533        -8.9126
 270   2.0000      -0.327464        -8.9108
 271   2.0000      -0.326689        -8.8897
 272   2.0000      -0.321275        -8.7423
 273   2.0000      -0.318324        -8.6620
 274   2.0000      -0.311591        -8.4788
 275   2.0000      -0.307587        -8.3699
 276   2.0000      -0.295375        -8.0376
 277   2.0000      -0.290485        -7.9045
 278   2.0000      -0.244200        -6.6450
 279   0.0000      -0.143020        -3.8918
 280   0.0000      -0.117886        -3.2078
 281   0.0000      -0.089417        -2.4332
 282   0.0000      -0.081289        -2.2120
 283   0.0000      -0.068469        -1.8631

MULLIKEN ATOMIC CHARGES
-----------------------
   0 C :   -0.109710
   1 C :    0.245465
   2 F :   -0.169992
   3 C :    0.239879
   4 F :   -0.169885
   5 C :   -0.103917
   6 C :    0.116326
   7 C :    0.115198
   8 C :   -0.083312
   9 C :    0.052105
  10 C :   -0.009366
  11 C :   -0.078317
  12 C :    0.145522
  13 O :   -0.140702
  14 C :   -0.076314
  15 C :    0.317404
  16 C :   -0.339749
  17 C :   -0.200833
  18 N :    0.169618
  19 C :   -0.180260
  20 N :    0.150178
  21 C :   -0.035525
  22 C :    0.086079
  23 C :   -0.077259
  24 C :    0.097314
  25 C :   -0.103366
  26 C :    0.052200
  27 C :   -0.183014
  28 N :    0.139234
  29 C :    0.132880
  30 C :   -0.103563
  31 C :    0.034035
  32 C :   -0.021538
  33 C :   -0.092116
  34 C :   -0.185794
  35 N :    0.151748
  36 C :    0.145562
  37 N :   -0.256849
  38 C :    0.093963
  39 C :   -0.009701
  40 C :    0.162434
  41 O :   -0.198569
  42 C :   -0.072574
  43 C :   -0.039672
  44 C :    0.151916
  45 O :   -0.168719
  46 N :   -0.253953
  47 C :    0.093840
  48 C :   -0.004213
  49 C :    0.156151
  50 C :   -0.011170
  51 C :   -0.045414
  52 C :    0.179550
  53 O :   -0.182533
  54 C :    0.197404
  55 C :   -0.020552
  56 C :   -0.085189
  57 C :   -0.178004
  58 N :    0.170634
  59 C :   -0.006992
  60 C :    0.010685
  61 C :    0.029144
  62 C :   -0.111510
  63 C :    0.136219
  64 O :   -0.139771
  65 C :    0.009746
  66 C :   -0.076465
  67 C :    0.111619
  68 C :    0.109536
  69 C :   -0.104701
  70 C :    0.242268
  71 C :    0.239202
  72 C :   -0.100360
  73 F :   -0.168942
  74 F :   -0.168370
  75 C :   -0.077909
  76 C :    0.029506
  77 C :    0.331638
  78 C :   -0.346328
  79 C :   -0.177000
  80 N :    0.157280
  81 C :   -0.164951
  82 N :    0.129201
  83 H :    0.009000
  84 H :    0.000929
  85 H :   -0.006418
  86 H :   -0.007829
  87 H :    0.031098
  88 H :    0.019686
  89 H :    0.010082
  90 H :    0.028130
  91 H :   -0.007434
  92 H :    0.054810
  93 H :    0.026046
  94 H :    0.031184
  95 H :    0.030981
  96 H :    0.030324
  97 H :    0.045049
  98 H :    0.035520
  99 H :    0.034510
 100 H :    0.033484
 101 H :    0.003506
 102 H :   -0.007293
 103 H :    0.041004
 104 H :    0.005283
 105 H :    0.017044
 106 H :    0.026347
 107 H :    0.018433
 108 H :   -0.007770
 109 H :    0.008290
 110 H :    0.001807
 111 H :   -0.003544
Sum of atomic charges:   -0.0000000

LOEWDIN ATOMIC CHARGES
----------------------
   0 C :   -0.028711
   1 C :    0.068150
   2 F :   -0.047632
   3 C :    0.068651
   4 F :   -0.047946
   5 C :   -0.032210
   6 C :   -0.008239
   7 C :   -0.005401
   8 C :    0.018427
   9 C :   -0.023321
  10 C :   -0.054315
  11 C :    0.032848
  12 C :    0.083914
  13 O :   -0.131592
  14 C :   -0.083055
  15 C :    0.071998
  16 C :   -0.129464
  17 C :   -0.026259
  18 N :   -0.038719
  19 C :   -0.016409
  20 N :   -0.047602
  21 C :    0.074964
  22 C :   -0.028706
  23 C :    0.025449
  24 C :    0.034280
  25 C :   -0.088330
  26 C :    0.071259
  27 C :   -0.031116
  28 N :   -0.055005
  29 C :    0.043016
  30 C :    0.009344
  31 C :   -0.028719
  32 C :    0.049278
  33 C :   -0.076032
  34 C :   -0.034341
  35 N :   -0.053255
  36 C :    0.068507
  37 N :   -0.000436
  38 C :    0.035568
  39 C :   -0.060886
  40 C :    0.080920
  41 O :   -0.187961
  42 C :   -0.116053
  43 C :   -0.093141
  44 C :    0.084724
  45 O :   -0.162269
  46 N :    0.008394
  47 C :    0.035765
  48 C :   -0.062920
  49 C :    0.083976
  50 C :   -0.010102
  51 C :    0.004110
  52 C :    0.076913
  53 O :    0.037815
  54 C :    0.030496
  55 C :   -0.002882
  56 C :   -0.094929
  57 C :   -0.034992
  58 N :   -0.030641
  59 C :    0.019243
  60 C :   -0.029427
  61 C :    0.069444
  62 C :   -0.093605
  63 C :    0.081597
  64 O :   -0.140753
  65 C :   -0.054224
  66 C :    0.032448
  67 C :   -0.008047
  68 C :   -0.005862
  69 C :   -0.028680
  70 C :    0.068101
  71 C :    0.069264
  72 C :   -0.032345
  73 F :   -0.046643
  74 F :   -0.046293
  75 C :    0.016461
  76 C :   -0.022083
  77 C :    0.077500
  78 C :   -0.142656
  79 C :   -0.004314
  80 N :   -0.054585
  81 C :   -0.014203
  82 N :   -0.050930
  83 H :    0.048309
  84 H :    0.045560
  85 H :    0.040174
  86 H :    0.041318
  87 H :    0.052274
  88 H :    0.040625
  89 H :    0.037657
  90 H :    0.040206
  91 H :    0.036532
  92 H :    0.041536
  93 H :    0.019999
  94 H :    0.033657
  95 H :    0.035000
  96 H :    0.024179
  97 H :    0.039093
  98 H :    0.025140
  99 H :    0.034092
 100 H :    0.032828
 101 H :    0.017497
 102 H :    0.034891
 103 H :    0.048076
 104 H :    0.045057
 105 H :    0.046559
 106 H :    0.034181
 107 H :    0.045397
 108 H :    0.041630
 109 H :    0.048223
 110 H :    0.045731
 111 H :    0.039994

  Mayer bond orders larger than 0.100000
B(  0-C ,  1-C ) :   1.4407 B(  0-C ,  5-C ) :   0.1087 B(  0-C ,  7-C ) :   1.1877
B(  0-C , 83-H ) :   1.0075 B(  1-C ,  2-F ) :   1.1354 B(  1-C ,  3-C ) :   1.1887
B(  3-C ,  4-F ) :   1.1354 B(  3-C ,  5-C ) :   1.4444 B(  5-C ,  6-C ) :   1.1896
B(  5-C , 84-H ) :   1.0075 B(  6-C ,  7-C ) :   1.2549 B(  6-C , 11-C ) :   1.1911
B(  7-C ,  8-C ) :   1.2182 B(  8-C ,  9-C ) :   1.4455 B(  8-C , 85-H ) :   0.9903
B(  9-C , 10-C ) :   1.2196 B(  9-C , 15-C ) :   0.9854 B( 10-C , 11-C ) :   1.4653
B( 10-C , 12-C ) :   0.9405 B( 11-C , 86-H ) :   1.0173 B( 12-C , 13-O ) :   2.2244
B( 12-C , 14-C ) :   0.9346 B( 14-C , 15-C ) :   1.0588 B( 14-C , 21-C ) :   1.5733
B( 15-C , 16-C ) :   1.6433 B( 16-C , 17-C ) :   1.1385 B( 16-C , 19-C ) :   1.1457
B( 17-C , 18-N ) :   2.9839 B( 19-C , 20-N ) :   2.9606 B( 21-C , 22-C ) :   1.1398
B( 21-C , 87-H ) :   0.9467 B( 22-C , 23-C ) :   1.4826 B( 22-C , 26-C ) :   1.0546
B( 23-C , 24-C ) :   1.1108 B( 23-C , 88-H ) :   1.0086 B( 24-C , 25-C ) :   1.1190
B( 24-C , 29-C ) :   1.3866 B( 25-C , 26-C ) :   1.6638 B( 25-C , 27-C ) :   1.0917
B( 26-C , 89-H ) :   1.0075 B( 27-C , 28-N ) :   2.9816 B( 29-C , 30-C ) :   1.1304
B( 29-C , 33-C ) :   1.0941 B( 30-C , 31-C ) :   1.5347 B( 30-C , 90-H ) :   0.9927
B( 31-C , 32-C ) :   1.0133 B( 31-C , 36-C ) :   1.0513 B( 32-C , 33-C ) :   1.6775
B( 32-C , 91-H ) :   1.0291 B( 33-C , 34-C ) :   1.0845 B( 34-C , 35-N ) :   2.9733
B( 36-C , 37-N ) :   1.1980 B( 36-C , 43-C ) :   1.3644 B( 37-N , 38-C ) :   0.9391
B( 37-N , 40-C ) :   1.0489 B( 38-C , 39-C ) :   1.1186 B( 38-C , 92-H ) :   0.9226
B( 38-C , 93-H ) :   0.9512 B( 39-C , 94-H ) :   0.9616 B( 39-C , 95-H ) :   0.9657
B( 39-C , 96-H ) :   0.9658 B( 40-C , 41-O ) :   2.0312 B( 40-C , 42-C ) :   0.9910
B( 41-O ,103-H ) :   0.1079 B( 42-C , 43-C ) :   1.2726 B( 42-C , 49-C ) :   1.2864
B( 43-C , 44-C ) :   0.9562 B( 44-C , 45-O ) :   2.1124 B( 44-C , 46-N ) :   1.0390
B( 46-N , 47-C ) :   0.9276 B( 46-N , 49-C ) :   1.1941 B( 47-C , 48-C ) :   1.1232
B( 47-C , 97-H ) :   0.9265 B( 47-C , 98-H ) :   0.9427 B( 48-C , 99-H ) :   0.9609
B( 48-C ,100-H ) :   0.9629 B( 48-C ,101-H ) :   0.9665 B( 49-C , 50-C ) :   1.1538
B( 50-C , 51-C ) :   1.5661 B( 50-C ,102-H ) :   0.9619 B( 51-C , 52-C ) :   1.2031
B( 51-C ,103-H ) :   0.9285 B( 52-C , 53-O ) :   1.1816 B( 52-C , 56-C ) :   1.3584
B( 53-O , 54-C ) :   1.1191 B( 54-C , 55-C ) :   1.3892 B( 54-C , 59-C ) :   1.1415
B( 55-C , 56-C ) :   1.2740 B( 55-C ,104-H ) :   1.0257 B( 56-C , 57-C ) :   1.1099
B( 57-C , 58-N ) :   3.0374 B( 59-C , 60-C ) :   1.6022 B( 59-C ,105-H ) :   0.9789
B( 60-C , 61-C ) :   1.1410 B( 60-C ,106-H ) :   0.9636 B( 61-C , 62-C ) :   1.5893
B( 61-C ,107-H ) :   0.9528 B( 62-C , 63-C ) :   0.9408 B( 62-C , 77-C ) :   1.0409
B( 63-C , 64-O ) :   2.2629 B( 63-C , 65-C ) :   0.9235 B( 65-C , 66-C ) :   1.4752
B( 65-C , 76-C ) :   1.2179 B( 66-C , 67-C ) :   1.1937 B( 66-C ,108-H ) :   1.0157
B( 67-C , 68-C ) :   1.2545 B( 67-C , 72-C ) :   1.1928 B( 68-C , 69-C ) :   1.1920
B( 68-C , 75-C ) :   1.2220 B( 69-C , 70-C ) :   1.4421 B( 69-C , 72-C ) :   0.1080
B( 69-C ,109-H ) :   1.0057 B( 70-C , 71-C ) :   1.1895 B( 70-C , 74-F ) :   1.1372
B( 71-C , 72-C ) :   1.4434 B( 71-C , 73-F ) :   1.1359 B( 72-C ,110-H ) :   1.0063
B( 75-C , 76-C ) :   1.4497 B( 75-C ,111-H ) :   0.9872 B( 76-C , 77-C ) :   0.9996
B( 77-C , 78-C ) :   1.6042 B( 78-C , 79-C ) :   1.1837 B( 78-C , 81-C ) :   1.1375
B( 79-C , 80-N ) :   2.8745 B( 81-C , 82-N ) :   2.8896

-----------------------------------------------------------------------------
         ABSORPTION SPECTRUM VIA TRANSITION ELECTRIC DIPOLE MOMENTS
-----------------------------------------------------------------------------
State   Energy  Wavelength   fosc         T2         TX        TY        TZ
        (cm-1)    (nm)                  (au**2)     (au)      (au)      (au)
-----------------------------------------------------------------------------
   0    7411.5   1349.3   0.520309459  23.11181  -0.95075   4.71084   0.12599
   1   14119.4    708.2   0.370665330   8.64254  -1.14810   1.42238  -2.30244
   2   16036.0    623.6   0.064644124   1.32712   0.03828   0.83450   0.79326
   3   18959.0    527.5   0.077617997   1.34779   0.23936  -1.09827   0.29037
   4   19675.2    508.3   0.159504682   2.66889  -0.63117   0.61084  -1.37746
   5   20367.4    491.0   0.141068509   2.28018  -0.27943   1.48305  -0.05159
   6   21796.4    458.8   0.144944190   2.18923  -0.17037   1.31590   0.65468
   7   22429.4    445.8   0.004158604   0.06104   0.11367  -0.16878   0.14011
   8   22853.0    437.6   0.482190841   6.94626   0.27609   2.22638   1.38322
   9   23408.2    427.2   0.075622337   1.06355   0.52582  -0.01438   0.88705
  10   23856.6    419.2   0.132485228   1.82825   0.20282   0.69265   1.14339
  11   23957.8    417.4   0.000764024   0.01050  -0.05848   0.02465   0.08044
  12   25335.2    394.7   0.053553550   0.69589  -0.06610   0.44589  -0.70192
  13   25660.7    389.7   0.021759703   0.27916   0.26403   0.01424   0.45744
  14   26551.4    376.6   0.070192267   0.87032   0.21809  -0.10401   0.90108
  15   26897.8    371.8   0.577294248   7.06572   0.12276   2.12244   1.59558
  16   27365.2    365.4   0.039261974   0.47233   0.11910  -0.59201   0.32814
  17   28084.8    356.1   0.166435865   1.95097   0.26668  -1.36602  -0.11767
  18   28268.4    353.8   0.015832112   0.18438  -0.06357   0.10711  -0.41093
  19   28528.4    350.5   0.105067675   1.21246  -0.37741  -0.55076  -0.87561
  20   28640.8    349.2   0.002123045   0.02440  -0.00615   0.15519   0.01678
  21   29377.4    340.4   0.137298012   1.53860  -0.07081   1.23685   0.06158
  22   29608.8    337.7   0.029077357   0.32330  -0.12683  -0.15885  -0.53102
  23   29803.0    335.5   0.153805867   1.69898   0.20301  -0.81425   0.99738
  24   30204.5    331.1   0.008427692   0.09186   0.07496  -0.26286   0.13093
  25   30795.2    324.7   0.039112080   0.41812   0.09579  -0.61795   0.16458
  26   31113.9    321.4   0.338150717   3.57793   0.64390   0.80764   1.58462
  27   31740.1    315.1   0.022745827   0.23592   0.00411   0.45610  -0.16696
  28   31922.9    313.3   0.014737422   0.15198  -0.22134  -0.12896  -0.29388
  29   32045.1    312.1   0.232486280   2.38842   0.29308   1.44951   0.44884
  30   32758.1    305.3   0.041860124   0.42069   0.06420  -0.62479   0.16186
  31   32905.5    303.9   0.335076132   3.35236  -0.29300  -0.75759  -1.64090
  32   32986.9    303.2   0.010442241   0.10421  -0.10088  -0.07445  -0.29748
  33   33046.2    302.6   0.059589482   0.59364  -0.19404  -0.51374  -0.54042
  34   33099.5    302.1   0.204438285   2.03337   0.42964  -0.15044   1.35135
  35   33229.3    300.9   0.301930716   2.99131   0.72118   0.62822   1.44102
  36   33433.3    299.1   0.003170811   0.03122   0.02197   0.17140  -0.03690
  37   33839.8    295.5   0.010251337   0.09973   0.02656  -0.26208   0.17417
  38   33946.7    294.6   0.542666776   5.26273   0.65298  -0.24629   2.18533
  39   34404.6    290.7   0.029395451   0.28128   0.11165  -0.10328   0.50808
  40   34598.0    289.0   0.035676077   0.33947   0.01287   0.50820  -0.28468
  41   34759.1    287.7   0.058886480   0.55773  -0.14892  -0.62407   0.38221
  42   34948.1    286.1   0.330423279   3.11260  -0.56393  -0.61951  -1.55267
  43   35164.0    284.4   0.087348802   0.81778  -0.14397  -0.49745  -0.74134
  44   35772.4    279.5   0.156165800   1.43719   0.42782  -0.01774   1.11975
  45   35857.2    278.9   0.189526232   1.74008  -0.71678  -0.09190  -1.10356
  46   35925.7    278.4   0.130376283   1.19473   0.63403  -0.17710   0.87257
  47   36269.8    275.7   0.237334608   2.15423  -0.52098  -0.54988  -1.25716
  48   36607.5    273.2   0.044406115   0.39934  -0.22309   0.56263  -0.18171
  49   36984.5    270.4   0.049414533   0.43986  -0.15743   0.63061  -0.13190
  50   37164.3    269.1   0.017584229   0.15577   0.05515  -0.37765   0.10052
  51   37565.7    266.2   0.000753740   0.00661   0.07180  -0.01250  -0.03597
  52   37932.6    263.6   0.158065227   1.37183  -0.02190   1.14473   0.24688
  53   38145.2    262.2   0.003557741   0.03071   0.04166  -0.14810   0.08387
  54   38390.7    260.5   0.020491187   0.17572   0.14163   0.28309   0.27480
  55   38525.2    259.6   0.038680068   0.33054  -0.20983   0.38545  -0.37139
  56   38584.4    259.2   0.055689107   0.47515   0.16545  -0.64315  -0.18475
  57   38977.7    256.6   0.124542299   1.05191   0.09930   0.70851   0.73489
  58   39108.9    255.7   0.012717839   0.10706   0.04103  -0.32417  -0.01692
  59   39329.1    254.3   0.061251187   0.51272  -0.37773  -0.26858  -0.54580
  60   39479.3    253.3   0.327711015   2.73273  -0.12800   1.63598   0.19981
  61   40043.8    249.7   0.008095372   0.06655  -0.04792  -0.25338  -0.00764
  62   40226.8    248.6   0.037991664   0.31092   0.05472   0.45060   0.32387

FINAL SINGLE POINT ENERGY     -3757.815234348248

DIPOLE MOMENT
-------------
                                X             Y             Z
Electronic contribution:     18.80527      36.97043      53.46969
Nuclear contribution   :    -17.47488     -40.97482     -51.64574
                        -----------------------------------------
Total Dipole Moment    :      1.33039      -4.00439       1.82396
                        -----------------------------------------
Magnitude (a.u.)       :      4.59695
Magnitude (Debye)      :     11.68451

Rotational constants in cm-1:     0.000765     0.000230     0.000179
Rotational constants in MHz :    22.945471     6.904991     5.352908

                             ****ORCA TERMINATED NORMALLY****
TOTAL RUN TIME: 0 days 0 hours 13 minutes 39 seconds 527 msec
