                         Program Version 4.2.0 -  RELEASE  -
|  1> # ORCA input file
|  2> # SCF done       -227.077336836307          0.000585913423
|  3> ! CAM-B3LYP def2-SVP def2/J RIJCOSX Grid4 TightSCF
|  4> %maxcore 5000
|  5> %tddft
|  6>     Mode sTDDFT
|  7>     Ethresh 5.0
|  8>     maxcore 5000
|  9> end
| 10>
| 11> %pal
| 12>   nprocs 6
| 13>   end
| 14> * xyz 0 1
| 15>    C       -3.15511         2.54173        -4.30075
| 16>    C       -2.35198         2.77071        -5.38256
| 17>    F       -2.26935         3.99729        -5.91235
| 18>    C       -1.60145         1.72285        -5.95381
| 19>    F       -0.82289         1.97614        -7.01366
| 20>    C       -1.66476         0.46017        -5.43471
| 21>    C       -2.48344         0.19230        -4.32030
| 22>    C       -3.24177         1.25107        -3.74079
| 23>    C       -4.06779         1.00601        -2.62035
| 24>    C       -4.13027        -0.25765        -2.09358
| 25>    C       -3.37540        -1.31044        -2.68262
| 26>    C       -2.57251        -1.10433        -3.76773
| 27>    C       -3.63482        -2.57180        -1.96315
| 28>    O       -3.22796        -3.67086        -2.26916
| 29>    C       -4.60122        -2.22005        -0.88463
| 30>    C       -4.86942        -0.79522        -0.95686
| 31>    C       -5.59702        -0.06837        -0.05384
| 32>    C       -5.79293         1.32652        -0.14003
| 33>    N       -5.98490         2.45761        -0.16487
| 34>    C       -6.20439        -0.60452         1.10285
| 35>    N       -6.69653        -0.96338         2.07535
| 36>    C       -5.25067        -3.13303        -0.11528
| 37>    C       -4.83492        -4.49186         0.03992
| 38>    C       -5.78133        -5.53219         0.14660
| 39>    C       -5.37050        -6.90466         0.24388
| 40>    N       -6.27572        -7.87402         0.08349
| 41>    C       -7.54829        -7.56760         0.09986
| 42>    C       -7.96612        -6.19940         0.21828
| 43>    N       -7.09150        -5.23019         0.14909
| 44>    C       -9.34583        -5.89282         0.33213
| 45>    N      -10.46971        -5.69175         0.41847
| 46>    C       -8.48806        -8.62059        -0.00141
| 47>    N       -9.24252        -9.48248        -0.02260
| 48>    C       -4.01704        -7.27981         0.45200
| 49>    C       -3.07718        -6.23370         0.41360
| 50>    C       -3.48513        -4.86109         0.19672
| 51>    N       -2.45307        -4.02132         0.29279
| 52>    S       -1.12176        -4.85453         0.58552
| 53>    N       -1.76483        -6.32074         0.64334
| 54>    C       -3.78180        -8.64480         0.80304
| 55>    N       -2.72873        -9.44463         0.46379
| 56>    C       -1.60801        -9.13594        -0.39692
| 57>    C       -0.30804        -9.04907         0.39547
| 58>    C       -2.90629       -10.76157         0.93088
| 59>    O       -2.11597       -11.65945         0.71906
| 60>    C       -4.16526       -10.73118         1.64197
| 61>    C       -4.67906        -9.42017         1.54879
| 62>    C       -5.89919        -9.36328         2.33522
| 63>    O       -6.64305        -8.45401         2.63819
| 64>    N       -6.08241       -10.68615         2.78047
| 65>    C       -7.26630       -11.06322         3.51585
| 66>    C       -8.29368       -11.75055         2.61988
| 67>    C       -5.05905       -11.50893         2.38805
| 68>    C       -4.97387       -12.88169         2.72167
| 69>    C       -3.91310       -13.64657         2.34738
| 70>    C       -3.74949       -15.01960         2.65345
| 71>    S       -2.25480       -15.80109         2.21917
| 72>    C       -2.77851       -17.30849         2.89207
| 73>    C       -4.07597       -17.18892         3.41045
| 74>    C       -4.61150       -15.90467         3.27925
| 75>    C       -4.75561       -18.26281         4.01379
| 76>    N       -5.31178       -19.13353         4.51052
| 77>    C       -1.97706       -18.47183         2.89986
| 78>    C       -0.70601       -18.51227         2.41905
| 79>    C        0.08871       -19.67855         2.43365
| 80>    C        1.31683       -19.83650         1.86322
| 81>    C        2.20327       -20.94914         2.30551
| 82>    O        1.87949       -21.92109         2.94582
| 83>    C        3.55548       -20.56710         1.84957
| 84>    C        4.74965       -21.17739         2.10457
| 85>    C        5.93630       -20.60582         1.59316
| 86>    C        5.86109       -19.40516         0.82865
| 87>    C        7.04944       -18.83402         0.33064
| 88>    C        8.25517       -19.42804         0.57767
| 89>    C        8.32831       -20.61659         1.33222
| 90>    C        7.19391       -21.19448         1.82952
| 91>    F        9.52372       -21.17550         1.55973
| 92>    F        9.38301       -18.88370         0.10427
| 93>    C        4.60919       -18.80005         0.57368
| 94>    C        3.47136       -19.37661         1.07149
| 95>    C        2.06433       -19.00051         0.94839
| 96>    C        1.54852       -18.17049        -0.01215
| 97>    C        0.17170       -18.03472        -0.29250
| 98>    N       -0.92991       -17.92011        -0.59305
| 99>    C        2.34401       -17.42978        -0.91202
|100>    N        2.94732       -16.79295        -1.65181
|101>    H       -3.72187         3.35514        -3.87529
|102>    H       -1.08525        -0.33098        -5.88417
|103>    H       -4.63631         1.82484        -2.20986
|104>    H       -2.01180        -1.92042        -4.19766
|105>    H       -6.17494        -2.86945         0.38304
|106>    H       -1.81056        -8.20075        -0.91680
|107>    H       -1.53066        -9.94702        -1.12821
|108>    H       -0.37692        -8.26453         1.14318
|109>    H        0.51350        -8.82431        -0.27822
|110>    H       -0.11067        -9.99979         0.88294
|111>    H       -7.68652       -10.13355         3.90902
|112>    H       -6.98506       -11.70403         4.35650
|113>    H       -8.60274       -11.08222         1.81942
|114>    H       -9.16946       -12.01469         3.20572
|115>    H       -7.88314       -12.65435         2.17493
|116>    H       -5.77855       -13.31116         3.29942
|117>    H       -3.11277       -13.19020         1.77876
|118>    H       -5.59624       -15.64287         3.62221
|119>    H       -2.43418       -19.36895         3.29896
|120>    H       -0.27404       -17.59846         2.03334
|121>    H       -0.26743       -20.51907         3.01980
|122>    H        4.78896       -22.08275         2.69085
|123>    H        7.01100       -17.92664        -0.25163
|124>    H        7.26682       -22.10377         2.40532
|125>    H        4.58274       -17.88774        -0.00057
|126> *
|127>
|128>                          ****END OF INPUT****

CARTESIAN COORDINATES (ANGSTROEM)
---------------------------------
  C     -3.155110    2.541730   -4.300750
  C     -2.351980    2.770710   -5.382560
  F     -2.269350    3.997290   -5.912350
  C     -1.601450    1.722850   -5.953810
  F     -0.822890    1.976140   -7.013660
  C     -1.664760    0.460170   -5.434710
  C     -2.483440    0.192300   -4.320300
  C     -3.241770    1.251070   -3.740790
  C     -4.067790    1.006010   -2.620350
  C     -4.130270   -0.257650   -2.093580
  C     -3.375400   -1.310440   -2.682620
  C     -2.572510   -1.104330   -3.767730
  C     -3.634820   -2.571800   -1.963150
  O     -3.227960   -3.670860   -2.269160
  C     -4.601220   -2.220050   -0.884630
  C     -4.869420   -0.795220   -0.956860
  C     -5.597020   -0.068370   -0.053840
  C     -5.792930    1.326520   -0.140030
  N     -5.984900    2.457610   -0.164870
  C     -6.204390   -0.604520    1.102850
  N     -6.696530   -0.963380    2.075350
  C     -5.250670   -3.133030   -0.115280
  C     -4.834920   -4.491860    0.039920
  C     -5.781330   -5.532190    0.146600
  C     -5.370500   -6.904660    0.243880
  N     -6.275720   -7.874020    0.083490
  C     -7.548290   -7.567600    0.099860
  C     -7.966120   -6.199400    0.218280
  N     -7.091500   -5.230190    0.149090
  C     -9.345830   -5.892820    0.332130
  N    -10.469710   -5.691750    0.418470
  C     -8.488060   -8.620590   -0.001410
  N     -9.242520   -9.482480   -0.022600
  C     -4.017040   -7.279810    0.452000
  C     -3.077180   -6.233700    0.413600
  C     -3.485130   -4.861090    0.196720
  N     -2.453070   -4.021320    0.292790
  S     -1.121760   -4.854530    0.585520
  N     -1.764830   -6.320740    0.643340
  C     -3.781800   -8.644800    0.803040
  N     -2.728730   -9.444630    0.463790
  C     -1.608010   -9.135940   -0.396920
  C     -0.308040   -9.049070    0.395470
  C     -2.906290  -10.761570    0.930880
  O     -2.115970  -11.659450    0.719060
  C     -4.165260  -10.731180    1.641970
  C     -4.679060   -9.420170    1.548790
  C     -5.899190   -9.363280    2.335220
  O     -6.643050   -8.454010    2.638190
  N     -6.082410  -10.686150    2.780470
  C     -7.266300  -11.063220    3.515850
  C     -8.293680  -11.750550    2.619880
  C     -5.059050  -11.508930    2.388050
  C     -4.973870  -12.881690    2.721670
  C     -3.913100  -13.646570    2.347380
  C     -3.749490  -15.019600    2.653450
  S     -2.254800  -15.801090    2.219170
  C     -2.778510  -17.308490    2.892070
  C     -4.075970  -17.188920    3.410450
  C     -4.611500  -15.904670    3.279250
  C     -4.755610  -18.262810    4.013790
  N     -5.311780  -19.133530    4.510520
  C     -1.977060  -18.471830    2.899860
  C     -0.706010  -18.512270    2.419050
  C      0.088710  -19.678550    2.433650
  C      1.316830  -19.836500    1.863220
  C      2.203270  -20.949140    2.305510
  O      1.879490  -21.921090    2.945820
  C      3.555480  -20.567100    1.849570
  C      4.749650  -21.177390    2.104570
  C      5.936300  -20.605820    1.593160
  C      5.861090  -19.405160    0.828650
  C      7.049440  -18.834020    0.330640
  C      8.255170  -19.428040    0.577670
  C      8.328310  -20.616590    1.332220
  C      7.193910  -21.194480    1.829520
  F      9.523720  -21.175500    1.559730
  F      9.383010  -18.883700    0.104270
  C      4.609190  -18.800050    0.573680
  C      3.471360  -19.376610    1.071490
  C      2.064330  -19.000510    0.948390
  C      1.548520  -18.170490   -0.012150
  C      0.171700  -18.034720   -0.292500
  N     -0.929910  -17.920110   -0.593050
  C      2.344010  -17.429780   -0.912020
  N      2.947320  -16.792950   -1.651810
  H     -3.721870    3.355140   -3.875290
  H     -1.085250   -0.330980   -5.884170
  H     -4.636310    1.824840   -2.209860
  H     -2.011800   -1.920420   -4.197660
  H     -6.174940   -2.869450    0.383040
  H     -1.810560   -8.200750   -0.916800
  H     -1.530660   -9.947020   -1.128210
  H     -0.376920   -8.264530    1.143180
  H      0.513500   -8.824310   -0.278220
  H     -0.110670   -9.999790    0.882940
  H     -7.686520  -10.133550    3.909020
  H     -6.985060  -11.704030    4.356500
  H     -8.602740  -11.082220    1.819420
  H     -9.169460  -12.014690    3.205720
  H     -7.883140  -12.654350    2.174930
  H     -5.778550  -13.311160    3.299420
  H     -3.112770  -13.190200    1.778760
  H     -5.596240  -15.642870    3.622210
  H     -2.434180  -19.368950    3.298960
  H     -0.274040  -17.598460    2.033340
  H     -0.267430  -20.519070    3.019800
  H      4.788960  -22.082750    2.690850
  H      7.011000  -17.926640   -0.251630
  H      7.266820  -22.103770    2.405320
  H      4.582740  -17.887740   -0.000570

 Total Charge           Charge          ....    0
 Multiplicity           Mult            ....    1
 Number of Electrons    NEL             ....  594
 Basis Dimension        Dim             .... 1337

ORBITAL ENERGIES
----------------

  NO   OCC          E(Eh)            E(eV)
   0   2.0000     -89.054655     -2423.3004
   1   2.0000     -88.996519     -2421.7184
   2   2.0000     -24.804352      -674.9607
   3   2.0000     -24.803740      -674.9441
   4   2.0000     -24.803226      -674.9301
   5   2.0000     -24.802148      -674.9008
   6   2.0000     -19.225629      -523.1560
   7   2.0000     -19.225116      -523.1420
   8   2.0000     -19.216721      -522.9136
   9   2.0000     -19.207803      -522.6709
  10   2.0000     -14.474658      -393.8755
  11   2.0000     -14.470687      -393.7674
  12   2.0000     -14.466244      -393.6465
  13   2.0000     -14.463437      -393.5701
  14   2.0000     -14.462739      -393.5511
  15   2.0000     -14.458945      -393.4479
  16   2.0000     -14.433274      -392.7493
  17   2.0000     -14.433218      -392.7478
  18   2.0000     -14.427122      -392.5820
  19   2.0000     -14.425929      -392.5495
  20   2.0000     -14.425733      -392.5442
  21   2.0000     -14.422858      -392.4659
  22   2.0000     -14.420835      -392.4109
  23   2.0000     -10.397257      -282.9237
  24   2.0000     -10.390118      -282.7295
  25   2.0000     -10.389075      -282.7011
  26   2.0000     -10.388048      -282.6732
  27   2.0000     -10.387613      -282.6613
  28   2.0000     -10.386827      -282.6399
  29   2.0000     -10.385944      -282.6159
  30   2.0000     -10.381450      -282.4936
  31   2.0000     -10.376715      -282.3648
  32   2.0000     -10.376306      -282.3537
  33   2.0000     -10.366637      -282.0905
  34   2.0000     -10.359711      -281.9021
  35   2.0000     -10.359599      -281.8990
  36   2.0000     -10.358633      -281.8727
  37   2.0000     -10.357444      -281.8404
  38   2.0000     -10.356570      -281.8166
  39   2.0000     -10.353811      -281.7415
  40   2.0000     -10.352493      -281.7057
  41   2.0000     -10.351943      -281.6907
  42   2.0000     -10.350017      -281.6383
  43   2.0000     -10.347601      -281.5725
  44   2.0000     -10.342654      -281.4379
  45   2.0000     -10.341724      -281.4126
  46   2.0000     -10.337902      -281.3086
  47   2.0000     -10.329117      -281.0696
  48   2.0000     -10.328276      -281.0467
  49   2.0000     -10.328063      -281.0409
  50   2.0000     -10.328031      -281.0400
  51   2.0000     -10.327710      -281.0313
  52   2.0000     -10.325651      -280.9752
  53   2.0000     -10.325546      -280.9724
  54   2.0000     -10.325032      -280.9584
  55   2.0000     -10.324874      -280.9541
  56   2.0000     -10.324660      -280.9483
  57   2.0000     -10.323269      -280.9104
  58   2.0000     -10.322619      -280.8927
  59   2.0000     -10.321757      -280.8693
  60   2.0000     -10.320619      -280.8383
  61   2.0000     -10.318150      -280.7711
  62   2.0000     -10.317771      -280.7608
  63   2.0000     -10.316912      -280.7374
  64   2.0000     -10.316333      -280.7217
  65   2.0000     -10.316036      -280.7136
  66   2.0000     -10.315774      -280.7065
  67   2.0000     -10.314644      -280.6757
  68   2.0000     -10.313716      -280.6505
  69   2.0000     -10.312430      -280.6155
  70   2.0000     -10.311285      -280.5843
  71   2.0000     -10.310902      -280.5739
  72   2.0000     -10.310762      -280.5701
  73   2.0000     -10.310598      -280.5656
  74   2.0000     -10.308683      -280.5135
  75   2.0000     -10.308247      -280.5017
  76   2.0000     -10.307684      -280.4864
  77   2.0000     -10.307078      -280.4699
  78   2.0000     -10.306414      -280.4518
  79   2.0000     -10.305352      -280.4229
  80   2.0000     -10.302269      -280.3390
  81   2.0000     -10.299541      -280.2648
  82   2.0000     -10.291341      -280.0416
  83   2.0000     -10.281167      -279.7648
  84   2.0000     -10.267613      -279.3959
  85   2.0000     -10.255365      -279.0627
  86   2.0000      -8.145941      -221.6623
  87   2.0000      -8.091753      -220.1878
  88   2.0000      -6.116881      -166.4488
  89   2.0000      -6.109099      -166.2370
  90   2.0000      -6.108976      -166.2337
  91   2.0000      -6.060776      -164.9221
  92   2.0000      -6.056722      -164.8118
  93   2.0000      -6.054249      -164.7445
  94   2.0000      -1.327197       -36.1149
  95   2.0000      -1.325852       -36.0783
  96   2.0000      -1.312320       -35.7101
  97   2.0000      -1.310948       -35.6727
  98   2.0000      -1.156716       -31.4759
  99   2.0000      -1.152618       -31.3643
 100   2.0000      -1.146239       -31.1908
 101   2.0000      -1.141087       -31.0506
 102   2.0000      -1.139768       -31.0147
 103   2.0000      -1.126969       -30.6664
 104   2.0000      -1.085388       -29.5349
 105   2.0000      -1.075348       -29.2617
 106   2.0000      -1.052123       -28.6297
 107   2.0000      -1.034330       -28.1456
 108   2.0000      -1.030329       -28.0367
 109   2.0000      -1.026119       -27.9221
 110   2.0000      -1.018216       -27.7071
 111   2.0000      -1.013041       -27.5662
 112   2.0000      -1.009982       -27.4830
 113   2.0000      -1.008559       -27.4443
 114   2.0000      -1.005239       -27.3539
 115   2.0000      -1.004563       -27.3355
 116   2.0000      -1.004435       -27.3321
 117   2.0000      -1.000140       -27.2152
 118   2.0000      -0.990635       -26.9565
 119   2.0000      -0.990389       -26.9498
 120   2.0000      -0.984776       -26.7971
 121   2.0000      -0.954388       -25.9702
 122   2.0000      -0.946078       -25.7441
 123   2.0000      -0.940268       -25.5860
 124   2.0000      -0.938576       -25.5399
 125   2.0000      -0.929343       -25.2887
 126   2.0000      -0.921927       -25.0869
 127   2.0000      -0.913849       -24.8671
 128   2.0000      -0.908125       -24.7113
 129   2.0000      -0.902924       -24.5698
 130   2.0000      -0.900024       -24.4909
 131   2.0000      -0.896885       -24.4055
 132   2.0000      -0.891873       -24.2691
 133   2.0000      -0.884754       -24.0754
 134   2.0000      -0.880395       -23.9568
 135   2.0000      -0.869806       -23.6686
 136   2.0000      -0.848947       -23.1010
 137   2.0000      -0.847900       -23.0725
 138   2.0000      -0.846238       -23.0273
 139   2.0000      -0.842993       -22.9390
 140   2.0000      -0.829823       -22.5806
 141   2.0000      -0.825508       -22.4632
 142   2.0000      -0.815484       -22.1905
 143   2.0000      -0.812719       -22.1152
 144   2.0000      -0.795714       -21.6525
 145   2.0000      -0.784073       -21.3357
 146   2.0000      -0.776033       -21.1169
 147   2.0000      -0.773313       -21.0429
 148   2.0000      -0.768025       -20.8990
 149   2.0000      -0.754661       -20.5354
 150   2.0000      -0.753442       -20.5022
 151   2.0000      -0.742061       -20.1925
 152   2.0000      -0.740536       -20.1510
 153   2.0000      -0.735555       -20.0155
 154   2.0000      -0.726800       -19.7772
 155   2.0000      -0.726263       -19.7626
 156   2.0000      -0.720048       -19.5935
 157   2.0000      -0.717684       -19.5292
 158   2.0000      -0.714052       -19.4303
 159   2.0000      -0.707529       -19.2528
 160   2.0000      -0.702846       -19.1254
 161   2.0000      -0.697894       -18.9907
 162   2.0000      -0.695069       -18.9138
 163   2.0000      -0.689480       -18.7617
 164   2.0000      -0.677959       -18.4482
 165   2.0000      -0.676052       -18.3963
 166   2.0000      -0.666742       -18.1430
 167   2.0000      -0.665421       -18.1070
 168   2.0000      -0.662598       -18.0302
 169   2.0000      -0.662264       -18.0211
 170   2.0000      -0.660939       -17.9851
 171   2.0000      -0.650683       -17.7060
 172   2.0000      -0.649866       -17.6838
 173   2.0000      -0.645360       -17.5611
 174   2.0000      -0.643587       -17.5129
 175   2.0000      -0.637632       -17.3508
 176   2.0000      -0.636873       -17.3302
 177   2.0000      -0.627074       -17.0636
 178   2.0000      -0.622632       -16.9427
 179   2.0000      -0.620727       -16.8908
 180   2.0000      -0.612550       -16.6683
 181   2.0000      -0.604156       -16.4399
 182   2.0000      -0.601125       -16.3574
 183   2.0000      -0.600094       -16.3294
 184   2.0000      -0.595501       -16.2044
 185   2.0000      -0.591648       -16.0996
 186   2.0000      -0.591309       -16.0903
 187   2.0000      -0.590282       -16.0624
 188   2.0000      -0.589289       -16.0354
 189   2.0000      -0.584652       -15.9092
 190   2.0000      -0.583578       -15.8800
 191   2.0000      -0.581309       -15.8182
 192   2.0000      -0.580052       -15.7840
 193   2.0000      -0.571285       -15.5454
 194   2.0000      -0.568416       -15.4674
 195   2.0000      -0.565854       -15.3977
 196   2.0000      -0.562448       -15.3050
 197   2.0000      -0.559417       -15.2225
 198   2.0000      -0.558409       -15.1951
 199   2.0000      -0.553128       -15.0514
 200   2.0000      -0.551799       -15.0152
 201   2.0000      -0.551614       -15.0102
 202   2.0000      -0.547958       -14.9107
 203   2.0000      -0.545457       -14.8426
 204   2.0000      -0.544681       -14.8215
 205   2.0000      -0.543924       -14.8009
 206   2.0000      -0.542148       -14.7526
 207   2.0000      -0.541026       -14.7221
 208   2.0000      -0.537120       -14.6158
 209   2.0000      -0.536161       -14.5897
 210   2.0000      -0.535157       -14.5624
 211   2.0000      -0.534664       -14.5489
 212   2.0000      -0.532641       -14.4939
 213   2.0000      -0.529731       -14.4147
 214   2.0000      -0.527851       -14.3636
 215   2.0000      -0.524270       -14.2661
 216   2.0000      -0.521875       -14.2009
 217   2.0000      -0.519576       -14.1384
 218   2.0000      -0.517303       -14.0765
 219   2.0000      -0.515023       -14.0145
 220   2.0000      -0.513494       -13.9729
 221   2.0000      -0.509821       -13.8729
 222   2.0000      -0.508479       -13.8364
 223   2.0000      -0.506342       -13.7783
 224   2.0000      -0.502154       -13.6643
 225   2.0000      -0.498949       -13.5771
 226   2.0000      -0.496706       -13.5161
 227   2.0000      -0.493855       -13.4385
 228   2.0000      -0.493043       -13.4164
 229   2.0000      -0.491322       -13.3695
 230   2.0000      -0.489548       -13.3213
 231   2.0000      -0.487963       -13.2782
 232   2.0000      -0.481738       -13.1087
 233   2.0000      -0.478957       -13.0331
 234   2.0000      -0.475972       -12.9519
 235   2.0000      -0.475668       -12.9436
 236   2.0000      -0.474328       -12.9071
 237   2.0000      -0.473036       -12.8720
 238   2.0000      -0.471238       -12.8230
 239   2.0000      -0.469117       -12.7653
 240   2.0000      -0.467195       -12.7130
 241   2.0000      -0.465000       -12.6533
 242   2.0000      -0.461883       -12.5685
 243   2.0000      -0.459780       -12.5113
 244   2.0000      -0.459151       -12.4941
 245   2.0000      -0.457340       -12.4448
 246   2.0000      -0.456690       -12.4272
 247   2.0000      -0.455520       -12.3953
 248   2.0000      -0.454160       -12.3583
 249   2.0000      -0.453452       -12.3391
 250   2.0000      -0.452314       -12.3081
 251   2.0000      -0.451916       -12.2973
 252   2.0000      -0.450346       -12.2545
 253   2.0000      -0.448818       -12.2130
 254   2.0000      -0.448470       -12.2035
 255   2.0000      -0.447186       -12.1685
 256   2.0000      -0.444624       -12.0988
 257   2.0000      -0.440061       -11.9747
 258   2.0000      -0.437841       -11.9143
 259   2.0000      -0.437070       -11.8933
 260   2.0000      -0.435848       -11.8600
 261   2.0000      -0.435326       -11.8458
 262   2.0000      -0.433153       -11.7867
 263   2.0000      -0.432881       -11.7793
 264   2.0000      -0.430621       -11.7178
 265   2.0000      -0.429748       -11.6940
 266   2.0000      -0.428386       -11.6570
 267   2.0000      -0.427013       -11.6196
 268   2.0000      -0.424744       -11.5579
 269   2.0000      -0.419573       -11.4172
 270   2.0000      -0.417434       -11.3590
 271   2.0000      -0.416890       -11.3442
 272   2.0000      -0.414805       -11.2874
 273   2.0000      -0.409743       -11.1497
 274   2.0000      -0.404875       -11.0172
 275   2.0000      -0.401819       -10.9340
 276   2.0000      -0.393719       -10.7136
 277   2.0000      -0.389031       -10.5861
 278   2.0000      -0.388250       -10.5648
 279   2.0000      -0.378258       -10.2929
 280   2.0000      -0.370641       -10.0856
 281   2.0000      -0.366555        -9.9745
 282   2.0000      -0.357900        -9.7390
 283   2.0000      -0.356918        -9.7122
 284   2.0000      -0.351693        -9.5700
 285   2.0000      -0.350376        -9.5342
 286   2.0000      -0.349352        -9.5064
 287   2.0000      -0.343313        -9.3420
 288   2.0000      -0.341392        -9.2898
 289   2.0000      -0.330467        -8.9925
 290   2.0000      -0.325109        -8.8467
 291   2.0000      -0.322548        -8.7770
 292   2.0000      -0.312640        -8.5074
 293   2.0000      -0.309907        -8.4330
 294   2.0000      -0.302228        -8.2240
 295   2.0000      -0.293900        -7.9974
 296   2.0000      -0.253069        -6.8864
 297   0.0000      -0.142540        -3.8787
 298   0.0000      -0.117844        -3.2067
 299   0.0000      -0.090228        -2.4552
 300   0.0000      -0.085174        -2.3177
 301   0.0000      -0.068211        -1.8561

MULLIKEN ATOMIC CHARGES
-----------------------
   0 C :   -0.107802
   1 C :    0.243963
   2 F :   -0.169291
   3 C :    0.240452
   4 F :   -0.170310
   5 C :   -0.106991
   6 C :    0.117547
   7 C :    0.114165
   8 C :   -0.083474
   9 C :    0.053799
  10 C :   -0.009253
  11 C :   -0.079848
  12 C :    0.161984
  13 O :   -0.150166
  14 C :   -0.060799
  15 C :    0.299297
  16 C :   -0.329495
  17 C :   -0.182812
  18 N :    0.152695
  19 C :   -0.201599
  20 N :    0.176892
  21 C :   -0.073497
  22 C :    0.076734
  23 C :   -0.046060
  24 C :   -0.055841
  25 N :    0.039535
  26 C :   -0.122997
  27 C :   -0.100702
  28 N :    0.058161
  29 C :   -0.208199
  30 N :    0.236817
  31 C :   -0.163122
  32 N :    0.201330
  33 C :    0.057437
  34 C :    0.057288
  35 C :    0.015296
  36 N :   -0.272618
  37 S :    0.558335
  38 N :   -0.287205
  39 C :    0.040730
  40 N :   -0.243432
  41 C :    0.141750
  42 C :   -0.001401
  43 C :    0.174289
  44 O :   -0.211336
  45 C :   -0.087183
  46 C :   -0.004941
  47 C :    0.150683
  48 O :   -0.191349
  49 N :   -0.252876
  50 C :    0.090799
  51 C :    0.003084
  52 C :    0.155035
  53 C :   -0.028226
  54 C :    0.091301
  55 C :   -0.076622
  56 S :    0.200726
  57 C :   -0.042270
  58 C :   -0.046923
  59 C :    0.024325
  60 C :   -0.190005
  61 N :    0.148402
  62 C :    0.011278
  63 C :    0.006147
  64 C :    0.029455
  65 C :   -0.109180
  66 C :    0.147238
  67 O :   -0.133977
  68 C :    0.003831
  69 C :   -0.076800
  70 C :    0.110407
  71 C :    0.109993
  72 C :   -0.104630
  73 C :    0.241812
  74 C :    0.238829
  75 C :   -0.100692
  76 F :   -0.169793
  77 F :   -0.169138
  78 C :   -0.080309
  79 C :    0.042465
  80 C :    0.276683
  81 C :   -0.327339
  82 C :   -0.219254
  83 N :    0.173244
  84 C :   -0.175776
  85 N :    0.157554
  86 H :    0.008930
  87 H :   -0.000369
  88 H :   -0.005401
  89 H :   -0.012482
  90 H :    0.051755
  91 H :    0.022441
  92 H :    0.030169
  93 H :    0.020083
  94 H :    0.011389
  95 H :    0.030896
  96 H :    0.049859
  97 H :    0.024382
  98 H :    0.038123
  99 H :    0.027593
 100 H :    0.009954
 101 H :   -0.020234
 102 H :    0.016357
 103 H :    0.004724
 104 H :    0.030459
 105 H :    0.031231
 106 H :    0.024354
 107 H :   -0.006439
 108 H :    0.006973
 109 H :    0.001838
 110 H :   -0.002842
Sum of atomic charges:   -0.0000000

LOEWDIN ATOMIC CHARGES
----------------------
   0 C :   -0.028614
   1 C :    0.067560
   2 F :   -0.047110
   3 C :    0.068478
   4 F :   -0.047943
   5 C :   -0.033450
   6 C :   -0.008384
   7 C :   -0.005720
   8 C :    0.018418
   9 C :   -0.022437
  10 C :   -0.051570
  11 C :    0.030152
  12 C :    0.085698
  13 O :   -0.143029
  14 C :   -0.068281
  15 C :    0.071764
  16 C :   -0.125229
  17 C :   -0.016690
  18 N :   -0.046122
  19 C :   -0.024409
  20 N :   -0.037941
  21 C :    0.080129
  22 C :   -0.030373
  23 C :    0.012622
  24 C :    0.009755
  25 N :    0.016927
  26 C :   -0.030215
  27 C :   -0.005346
  28 N :   -0.006789
  29 C :   -0.032592
  30 N :    0.003206
  31 C :   -0.025498
  32 N :   -0.017186
  33 C :   -0.023041
  34 C :   -0.041381
  35 C :   -0.026024
  36 N :   -0.273167
  37 S :    0.692032
  38 N :   -0.276138
  39 C :    0.073565
  40 N :    0.015751
  41 C :    0.043350
  42 C :   -0.063583
  43 C :    0.083193
  44 O :   -0.195850
  45 C :   -0.124996
  46 C :   -0.079607
  47 C :    0.087577
  48 O :   -0.181999
  49 N :    0.008175
  50 C :    0.036072
  51 C :   -0.061833
  52 C :    0.096912
  53 C :   -0.041702
  54 C :    0.024972
  55 C :   -0.161147
  56 S :    0.510758
  57 C :   -0.140443
  58 C :   -0.087437
  59 C :   -0.010423
  60 C :   -0.034607
  61 N :   -0.038633
  62 C :    0.010486
  63 C :   -0.018423
  64 C :    0.064834
  65 C :   -0.080883
  66 C :    0.082345
  67 O :   -0.135389
  68 C :   -0.054441
  69 C :    0.032504
  70 C :   -0.008561
  71 C :   -0.005370
  72 C :   -0.029788
  73 C :    0.068147
  74 C :    0.068328
  75 C :   -0.031995
  76 F :   -0.047549
  77 F :   -0.047126
  78 C :    0.015417
  79 C :   -0.021083
  80 C :    0.068527
  81 C :   -0.133235
  82 C :   -0.026325
  83 N :   -0.044502
  84 C :   -0.018624
  85 N :   -0.045169
  86 H :    0.048340
  87 H :    0.044858
  88 H :    0.040325
  89 H :    0.039520
  90 H :    0.051479
  91 H :    0.024462
  92 H :    0.032536
  93 H :    0.016831
  94 H :    0.027157
  95 H :    0.026992
  96 H :    0.040169
  97 H :    0.022920
  98 H :    0.033965
  99 H :    0.033638
 100 H :    0.020193
 101 H :    0.031390
 102 H :    0.039440
 103 H :    0.041353
 104 H :    0.049620
 105 H :    0.028358
 106 H :    0.049128
 107 H :    0.041750
 108 H :    0.047652
 109 H :    0.045695
 110 H :    0.039978

  Mayer bond orders larger than 0.100000
B(  0-C ,  1-C ) :   1.4405 B(  0-C ,  5-C ) :   0.1085 B(  0-C ,  7-C ) :   1.1877
B(  0-C , 86-H ) :   1.0076 B(  1-C ,  2-F ) :   1.1366 B(  1-C ,  3-C ) :   1.1886
B(  3-C ,  4-F ) :   1.1349 B(  3-C ,  5-C ) :   1.4448 B(  5-C ,  6-C ) :   1.1888
B(  5-C , 87-H ) :   1.0074 B(  6-C ,  7-C ) :   1.2544 B(  6-C , 11-C ) :   1.1919
B(  7-C ,  8-C ) :   1.2175 B(  8-C ,  9-C ) :   1.4462 B(  8-C , 88-H ) :   0.9911
B(  9-C , 10-C ) :   1.2210 B(  9-C , 15-C ) :   0.9908 B( 10-C , 11-C ) :   1.4681
B( 10-C , 12-C ) :   0.9505 B( 11-C , 89-H ) :   1.0170 B( 12-C , 13-O ) :   2.2206
B( 12-C , 14-C ) :   0.9332 B( 14-C , 15-C ) :   1.0505 B( 14-C , 21-C ) :   1.6340
B( 15-C , 16-C ) :   1.6628 B( 16-C , 17-C ) :   1.1416 B( 16-C , 19-C ) :   1.1402
B( 17-C , 18-N ) :   2.9670 B( 19-C , 20-N ) :   2.9940 B( 21-C , 22-C ) :   1.1336
B( 21-C , 90-H ) :   0.9333 B( 22-C , 23-C ) :   1.2695 B( 22-C , 33-C ) :   0.1219
B( 22-C , 35-C ) :   1.2058 B( 23-C , 24-C ) :   1.1151 B( 23-C , 28-N ) :   1.4439
B( 24-C , 25-N ) :   1.4575 B( 24-C , 33-C ) :   1.2680 B( 25-N , 26-C ) :   1.6870
B( 26-C , 27-C ) :   1.1907 B( 26-C , 31-C ) :   1.1687 B( 27-C , 28-N ) :   1.7474
B( 27-C , 29-C ) :   1.1559 B( 29-C , 30-N ) :   3.0445 B( 31-C , 32-N ) :   2.9522
B( 33-C , 34-C ) :   1.2146 B( 33-C , 39-C ) :   1.0805 B( 34-C , 35-C ) :   1.1082
B( 34-C , 38-N ) :   1.4989 B( 35-C , 36-N ) :   1.5076 B( 36-N , 37-S ) :   1.2970
B( 36-N , 38-N ) :   0.1513 B( 37-S , 38-N ) :   1.2807 B( 39-C , 40-N ) :   1.2443
B( 39-C , 46-C ) :   1.3481 B( 40-N , 41-C ) :   0.9303 B( 40-N , 43-C ) :   1.0551
B( 41-C , 42-C ) :   1.1137 B( 41-C , 91-H ) :   0.9467 B( 41-C , 92-H ) :   0.9376
B( 42-C , 93-H ) :   0.9605 B( 42-C , 94-H ) :   0.9657 B( 42-C , 95-H ) :   0.9644
B( 43-C , 44-O ) :   1.9996 B( 43-C , 45-C ) :   0.9926 B( 44-O ,102-H ) :   0.1247
B( 45-C , 46-C ) :   1.2946 B( 45-C , 52-C ) :   1.2774 B( 46-C , 47-C ) :   0.9450
B( 47-C , 48-O ) :   2.0993 B( 47-C , 49-N ) :   1.0441 B( 49-N , 50-C ) :   0.9332
B( 49-N , 52-C ) :   1.1862 B( 50-C , 51-C ) :   1.1205 B( 50-C , 96-H ) :   0.9265
B( 50-C , 97-H ) :   0.9494 B( 51-C , 98-H ) :   0.9540 B( 51-C , 99-H ) :   0.9648
B( 51-C ,100-H ) :   0.9659 B( 52-C , 53-C ) :   1.1840 B( 53-C , 54-C ) :   1.6031
B( 53-C ,101-H ) :   0.9635 B( 54-C , 55-C ) :   1.1339 B( 54-C ,102-H ) :   0.9278
B( 55-C , 56-S ) :   1.1462 B( 55-C , 59-C ) :   1.4381 B( 56-S , 57-C ) :   1.1443
B( 57-C , 58-C ) :   1.4072 B( 57-C , 62-C ) :   1.1764 B( 58-C , 59-C ) :   1.3276
B( 58-C , 60-C ) :   1.1013 B( 59-C ,103-H ) :   0.9981 B( 60-C , 61-N ) :   3.0252
B( 62-C , 63-C ) :   1.6205 B( 62-C ,104-H ) :   0.9737 B( 63-C , 64-C ) :   1.1354
B( 63-C ,105-H ) :   0.9601 B( 64-C , 65-C ) :   1.6174 B( 64-C ,106-H ) :   0.9603
B( 65-C , 66-C ) :   0.9351 B( 65-C , 80-C ) :   1.0354 B( 66-C , 67-O ) :   2.2783
B( 66-C , 68-C ) :   0.9178 B( 68-C , 69-C ) :   1.4773 B( 68-C , 79-C ) :   1.2186
B( 69-C , 70-C ) :   1.1950 B( 69-C ,107-H ) :   1.0154 B( 70-C , 71-C ) :   1.2553
B( 70-C , 75-C ) :   1.1949 B( 71-C , 72-C ) :   1.1896 B( 71-C , 78-C ) :   1.2176
B( 72-C , 73-C ) :   1.4426 B( 72-C , 75-C ) :   0.1083 B( 72-C ,108-H ) :   1.0062
B( 73-C , 74-C ) :   1.1903 B( 73-C , 77-F ) :   1.1367 B( 74-C , 75-C ) :   1.4433
B( 74-C , 76-F ) :   1.1349 B( 75-C ,109-H ) :   1.0064 B( 78-C , 79-C ) :   1.4540
B( 78-C ,110-H ) :   0.9923 B( 79-C , 80-C ) :   1.0013 B( 80-C , 81-C ) :   1.6506
B( 81-C , 82-C ) :   1.1554 B( 81-C , 84-C ) :   1.1334 B( 82-C , 83-N ) :   3.0139
B( 84-C , 85-N ) :   2.9831

-----------------------------------------------------------------------------
         ABSORPTION SPECTRUM VIA TRANSITION ELECTRIC DIPOLE MOMENTS
-----------------------------------------------------------------------------
State   Energy  Wavelength   fosc         T2         TX        TY        TZ
        (cm-1)    (nm)                  (au**2)     (au)      (au)      (au)
-----------------------------------------------------------------------------
   0    8770.2   1140.2   0.687522395  25.80792   0.79038  -4.82693   1.37259
   1   16248.9    615.4   0.293655739   5.94963   1.57898  -1.84846  -0.19919
   2   19199.0    520.9   0.171624971   2.94292   0.14660  -1.66861   0.37034
   3   20381.4    490.6   0.412114016   6.65669   1.33291  -2.20149  -0.18298
   4   21061.1    474.8   0.360045318   5.62797  -2.04459  -0.34220   1.15348
   5   21845.9    457.8   0.065421452   0.98588  -0.83553   0.20498   0.49573
   6   22231.0    449.8   0.100751702   1.49200  -0.98347  -0.12646   0.71330
   7   22559.0    443.3   0.023496301   0.34289   0.11354   0.00818  -0.57440
   8   23703.2    421.9   0.080879686   1.12333  -0.28687  -0.92836   0.42329
   9   24596.7    406.6   0.031100487   0.41626  -0.02275  -0.28725   0.57726
  10   25088.6    398.6   0.118638574   1.55677  -1.17560   0.36710   0.19994
  11   25222.3    396.5   0.040447916   0.52794   0.63012  -0.10062  -0.34751
  12   25316.6    395.0   0.019211656   0.24982  -0.24250   0.19799  -0.38964
  13   25987.0    384.8   0.020325770   0.25749   0.44390   0.23779  -0.06245
  14   26541.6    376.8   0.001904899   0.02363   0.04212  -0.04527  -0.14073
  15   26819.2    372.9   0.006093188   0.07480  -0.08858   0.10233  -0.23765
  16   27024.8    370.0   0.051762538   0.63056   0.57316  -0.47865  -0.27009
  17   28062.3    356.4   0.061865670   0.72578  -0.59033  -0.57740   0.20950
  18   28107.3    355.8   0.017077640   0.20002   0.24367  -0.31073   0.21000
  19   28405.0    352.1   0.131296592   1.52172  -1.13299  -0.32971   0.35963
  20   28802.0    347.2   0.323793003   3.70102   1.50488  -1.19802   0.03340
  21   28935.6    345.6   0.046265499   0.52638  -0.72409  -0.04555  -0.00021
  22   29359.6    340.6   0.057718861   0.64721  -0.12455   0.78243  -0.13964
  23   29903.6    334.4   0.006914124   0.07612   0.24604  -0.08782   0.08871
  24   30042.2    332.9   0.053844649   0.59005   0.39510  -0.52467  -0.39833
  25   30173.7    331.4   0.063342822   0.69111  -0.77277  -0.26999   0.14505
  26   30488.7    328.0   0.143008063   1.54418  -0.63978   0.41830  -0.97973
  27   30680.2    325.9   0.199371443   2.13934  -1.24424   0.65202  -0.40753
  28   30754.5    325.2   0.201591003   2.15793  -1.16949  -0.85631  -0.23866
  29   31388.2    318.6   0.215721129   2.26257   0.82859   0.79981  -0.96764
  30   31643.4    316.0   0.127609258   1.32762   0.42526   0.79404  -0.71853
  31   32242.7    310.1   0.006999432   0.07147  -0.25561   0.03492   0.07008
  32   32546.5    307.3   0.059457552   0.60142   0.29509  -0.70015   0.15537
  33   32599.4    306.8   0.132021432   1.33325   1.11313  -0.30540  -0.03028
  34   32717.2    305.6   0.117298974   1.18030   1.02854  -0.34005   0.08231
  35   33082.3    302.3   0.023693336   0.23578   0.06997  -0.22759   0.42318
  36   33472.3    298.8   0.222942712   2.19272  -0.98537  -1.07038   0.27577
  37   33831.0    295.6   0.206826179   2.01264  -0.10487  -0.91018   1.08315
  38   33873.9    295.2   0.165923186   1.61256  -1.19258  -0.17435   0.39990
  39   34309.6    291.5   0.037601083   0.36080   0.56834  -0.11746   0.15488
  40   34525.5    289.6   0.298846454   2.84960  -1.59535   0.52363  -0.17394
  41   34651.1    288.6   0.045707618   0.43426  -0.63451  -0.13606  -0.11466
  42   34983.6    285.8   0.154962400   1.45827   1.20218  -0.01897   0.11258
  43   35382.1    282.6   0.344644678   3.20674  -1.05392   0.01967   1.44762
  44   35509.9    281.6   0.387441980   3.59198   1.39610  -0.02024  -1.28159
  45   35857.2    278.9   0.027425521   0.25180   0.19467  -0.35584   0.29543
  46   36205.4    276.2   0.002927629   0.02662  -0.09033   0.06014   0.12183
  47   36624.5    273.0   0.013700000   0.12315   0.34661   0.01951  -0.05125
  48   36769.2    272.0   0.026691174   0.23898  -0.39815  -0.13018  -0.25201
  49   36939.6    270.7   0.025556947   0.22777  -0.08015  -0.45075  -0.13479
  50   37133.9    269.3   0.008670870   0.07687   0.02192   0.00555   0.27633
  51   37259.0    268.4   0.013446906   0.11881   0.28943  -0.16472   0.08894
  52   37467.5    266.9   0.051736745   0.45459  -0.48084  -0.15016   0.44815
  53   37554.2    266.3   0.004128154   0.03619   0.15342   0.09249  -0.06400
  54   37911.3    263.8   0.007591641   0.06592   0.13021  -0.21258  -0.06148
  55   37960.4    263.4   0.166541331   1.44433  -0.18854   1.12841   0.36807
  56   38074.6    262.6   0.021996249   0.19019  -0.23756   0.11245  -0.34801
  57   38200.2    261.8   0.129863046   1.11917   1.04610   0.01389  -0.15703
  58   38460.7    260.0   0.024318489   0.20816  -0.13958  -0.43426  -0.00980
  59   38787.1    257.8   0.265011446   2.24933  -0.63693  -1.31155   0.35141
  60   38952.8    256.7   0.217533544   1.83850  -0.12971  -1.17839   0.65809
  61   39214.1    255.0   0.104548237   0.87771  -0.90009   0.20272  -0.16261
  62   39518.6    253.0   0.122444393   1.02003   0.96058   0.04045   0.30934
  63   39869.9    250.8   0.024294029   0.20060   0.00890  -0.21529   0.39264
  64   39960.7    250.2   0.009820853   0.08091   0.05814   0.04209  -0.27524
  65   40104.5    249.3   0.016506696   0.13550  -0.26472  -0.23236  -0.10692

FINAL SINGLE POINT ENERGY     -4619.071024513023

DIPOLE MOMENT
-------------
                                X             Y             Z
Electronic contribution:     28.45703      35.48501     -24.55773
Nuclear contribution   :    -24.79102     -36.49096      24.92736
                        -----------------------------------------
Total Dipole Moment    :      3.66601      -1.00595       0.36963
                        -----------------------------------------
Magnitude (a.u.)       :      3.81944
Magnitude (Debye)      :      9.70826

Rotational constants in cm-1:     0.000926     0.000199     0.000169
Rotational constants in MHz :    27.757240     5.973916     5.073413

                             ****ORCA TERMINATED NORMALLY****
TOTAL RUN TIME: 0 days 0 hours 37 minutes 46 seconds 315 msec
