                         Program Version 4.2.0 -  RELEASE  -
|  1> # ORCA input file
|  2> # SCF done       -228.986236399182          0.000474477367
|  3> ! CAM-B3LYP def2-SVP def2/J RIJCOSX Grid4 TightSCF
|  4> %maxcore 5000
|  5> %tddft
|  6>     Mode sTDDFT
|  7>     Ethresh 5.0
|  8>     maxcore 5000
|  9> end
| 10>
| 11> %pal
| 12>   nprocs 6
| 13>   end
| 14> * xyz 0 1
| 15>    C       -7.60878        -1.87798         9.60009
| 16>    C       -7.68460        -2.52373        10.80237
| 17>    F       -7.90695        -1.83081        11.92577
| 18>    C       -7.53117        -3.92317        10.87610
| 19>    F       -7.61096        -4.52931        12.06751
| 20>    C       -7.30394        -4.65750         9.74591
| 21>    C       -7.22153        -4.02125         8.49203
| 22>    C       -7.37622        -2.60627         8.41604
| 23>    C       -7.30097        -1.94517         7.16849
| 24>    C       -7.08194        -2.67703         6.03112
| 25>    C       -6.93343        -4.09046         6.11736
| 26>    C       -6.99484        -4.75653         7.30758
| 27>    C       -6.73940        -4.63722         4.76525
| 28>    O       -6.51450        -5.79610         4.47106
| 29>    C       -6.85229        -3.49652         3.84350
| 30>    C       -6.96838        -2.27984         4.62931
| 31>    C       -6.93224        -0.99124         4.17004
| 32>    C       -7.03608         0.14433         5.00258
| 33>    N       -7.11753         1.10423         5.62600
| 34>    C       -6.74630        -0.60607         2.82410
| 35>    N       -6.57821        -0.21264         1.75927
| 36>    C       -6.91363        -3.60103         2.48265
| 37>    C       -6.88579        -4.76253         1.68441
| 38>    C       -7.07526        -4.69894         0.30057
| 39>    F       -7.28787        -3.54706        -0.33796
| 40>    C       -7.04642        -5.93031        -0.34041
| 41>    F       -7.27623        -6.05823        -1.65242
| 42>    C       -6.83249        -6.98747         0.53477
| 43>    S       -6.67929        -6.42048         2.17241
| 44>    C       -6.78646        -8.39759         0.32003
| 45>    N       -6.33354        -9.07455        -0.78855
| 46>    C       -5.63710        -8.54182        -1.93798
| 47>    C       -4.31468        -7.88694        -1.55220
| 48>    C       -6.44647       -10.46485        -0.61895
| 49>    O       -6.09113       -11.27365        -1.46261
| 50>    C       -7.03269       -10.63305         0.68629
| 51>    C       -7.20733        -9.34280         1.24651
| 52>    C       -7.85828        -9.49359         2.53290
| 53>    O       -8.22920        -8.69339         3.36125
| 54>    N       -8.00690       -10.88963         2.67622
| 55>    C       -8.66759       -11.45685         3.82693
| 56>    C      -10.11825       -11.82137         3.52145
| 57>    C       -7.53215       -11.57537         1.58882
| 58>    C       -7.56679       -12.98541         1.44743
| 59>    C       -7.12951       -13.56108         0.30073
| 60>    C       -7.12222       -14.94427         0.00708
| 61>    S       -7.34985       -16.17605         1.19964
| 62>    C       -7.13293       -17.44306         0.02747
| 63>    C       -6.86269       -16.90855        -1.22769
| 64>    C       -6.88241       -15.50490        -1.24298
| 65>    C       -6.75975       -14.69553        -2.49072
| 66>    N       -8.07997       -14.00183        -2.78863
| 67>    O       -8.72855       -13.61184        -1.85714
| 68>    O       -8.35805       -13.86701        -3.94978
| 69>    C       -6.34792       -15.52486        -3.70850
| 70>    C       -5.53747       -16.74806        -3.30343
| 71>    C       -6.40167       -17.66899        -2.43153
| 72>    N       -5.54591       -18.81829        -2.04297
| 73>    O       -5.75991       -19.87064        -2.59697
| 74>    O       -4.67774       -18.61546        -1.23347
| 75>    C       -7.19246       -18.77710         0.51033
| 76>    C       -7.52420       -19.95432        -0.08203
| 77>    C       -7.12270       -21.21768         0.61677
| 78>    O       -6.73720       -21.30935         1.75644
| 79>    C       -7.26641       -22.27977        -0.39355
| 80>    C       -6.90033       -23.59255        -0.31486
| 81>    C       -7.11106       -24.43063        -1.43236
| 82>    C       -7.69346       -23.88761        -2.61484
| 83>    C       -7.89440       -24.72870        -3.72778
| 84>    C       -7.53707       -26.04653        -3.66891
| 85>    C       -6.96192       -26.58249        -2.49877
| 86>    C       -6.75266       -25.79245        -1.40320
| 87>    F       -6.62119       -27.87726        -2.46985
| 88>    F       -7.73135       -26.84465        -4.72618
| 89>    C       -8.06554       -22.52520        -2.66549
| 90>    C       -7.86030       -21.73478        -1.56702
| 91>    C       -8.14992       -20.32400        -1.33236
| 92>    C       -9.02723       -19.56135        -2.06029
| 93>    C       -9.43817       -18.27164        -1.67119
| 94>    N       -9.78264       -17.21635        -1.37931
| 95>    C       -9.67125       -20.00609        -3.23422
| 96>    N      -10.20622       -20.30264        -4.20472
| 97>    H       -7.72806        -0.80645         9.56174
| 98>    H       -7.18956        -5.72765         9.81869
| 99>    H       -7.42704        -0.87496         7.14551
|100>    H       -6.87982        -5.82908         7.34129
|101>    H       -7.03902        -2.68935         1.90886
|102>    H       -6.27391        -7.84129        -2.47861
|103>    H       -5.45005        -9.40399        -2.58454
|104>    H       -4.47490        -7.01561        -0.92154
|105>    H       -3.79336        -7.56996        -2.45078
|106>    H       -3.68571        -8.59299        -1.01440
|107>    H       -8.63690       -10.68713         4.60299
|108>    H       -8.10975       -12.33119         4.17320
|109>    H      -10.66874       -10.93215         3.22491
|110>    H      -10.58686       -12.24033         4.40747
|111>    H      -10.17727       -12.54867         2.71501
|112>    H       -7.97248       -13.58867         2.24656
|113>    H       -6.75641       -12.91135        -0.47832
|114>    H       -6.06838       -13.85832        -2.32727
|115>    H       -5.76921       -14.91137        -4.39811
|116>    H       -7.24501       -15.85082        -4.24053
|117>    H       -4.65425       -16.45008        -2.73325
|118>    H       -5.21283       -17.28505        -4.19604
|119>    H       -7.23192       -18.07702        -3.02181
|120>    H       -6.89079       -18.88822         1.54961
|121>    H       -6.45306       -23.98507         0.58558
|122>    H       -8.33509       -24.33544        -4.63049
|123>    H       -6.31060       -26.21757        -0.51574
|124>    H       -8.48856       -22.13656        -3.57764
|125> *
|126>
|127>                          ****END OF INPUT****

CARTESIAN COORDINATES (ANGSTROEM)
---------------------------------
  C     -7.608780   -1.877980    9.600090
  C     -7.684600   -2.523730   10.802370
  F     -7.906950   -1.830810   11.925770
  C     -7.531170   -3.923170   10.876100
  F     -7.610960   -4.529310   12.067510
  C     -7.303940   -4.657500    9.745910
  C     -7.221530   -4.021250    8.492030
  C     -7.376220   -2.606270    8.416040
  C     -7.300970   -1.945170    7.168490
  C     -7.081940   -2.677030    6.031120
  C     -6.933430   -4.090460    6.117360
  C     -6.994840   -4.756530    7.307580
  C     -6.739400   -4.637220    4.765250
  O     -6.514500   -5.796100    4.471060
  C     -6.852290   -3.496520    3.843500
  C     -6.968380   -2.279840    4.629310
  C     -6.932240   -0.991240    4.170040
  C     -7.036080    0.144330    5.002580
  N     -7.117530    1.104230    5.626000
  C     -6.746300   -0.606070    2.824100
  N     -6.578210   -0.212640    1.759270
  C     -6.913630   -3.601030    2.482650
  C     -6.885790   -4.762530    1.684410
  C     -7.075260   -4.698940    0.300570
  F     -7.287870   -3.547060   -0.337960
  C     -7.046420   -5.930310   -0.340410
  F     -7.276230   -6.058230   -1.652420
  C     -6.832490   -6.987470    0.534770
  S     -6.679290   -6.420480    2.172410
  C     -6.786460   -8.397590    0.320030
  N     -6.333540   -9.074550   -0.788550
  C     -5.637100   -8.541820   -1.937980
  C     -4.314680   -7.886940   -1.552200
  C     -6.446470  -10.464850   -0.618950
  O     -6.091130  -11.273650   -1.462610
  C     -7.032690  -10.633050    0.686290
  C     -7.207330   -9.342800    1.246510
  C     -7.858280   -9.493590    2.532900
  O     -8.229200   -8.693390    3.361250
  N     -8.006900  -10.889630    2.676220
  C     -8.667590  -11.456850    3.826930
  C    -10.118250  -11.821370    3.521450
  C     -7.532150  -11.575370    1.588820
  C     -7.566790  -12.985410    1.447430
  C     -7.129510  -13.561080    0.300730
  C     -7.122220  -14.944270    0.007080
  S     -7.349850  -16.176050    1.199640
  C     -7.132930  -17.443060    0.027470
  C     -6.862690  -16.908550   -1.227690
  C     -6.882410  -15.504900   -1.242980
  C     -6.759750  -14.695530   -2.490720
  N     -8.079970  -14.001830   -2.788630
  O     -8.728550  -13.611840   -1.857140
  O     -8.358050  -13.867010   -3.949780
  C     -6.347920  -15.524860   -3.708500
  C     -5.537470  -16.748060   -3.303430
  C     -6.401670  -17.668990   -2.431530
  N     -5.545910  -18.818290   -2.042970
  O     -5.759910  -19.870640   -2.596970
  O     -4.677740  -18.615460   -1.233470
  C     -7.192460  -18.777100    0.510330
  C     -7.524200  -19.954320   -0.082030
  C     -7.122700  -21.217680    0.616770
  O     -6.737200  -21.309350    1.756440
  C     -7.266410  -22.279770   -0.393550
  C     -6.900330  -23.592550   -0.314860
  C     -7.111060  -24.430630   -1.432360
  C     -7.693460  -23.887610   -2.614840
  C     -7.894400  -24.728700   -3.727780
  C     -7.537070  -26.046530   -3.668910
  C     -6.961920  -26.582490   -2.498770
  C     -6.752660  -25.792450   -1.403200
  F     -6.621190  -27.877260   -2.469850
  F     -7.731350  -26.844650   -4.726180
  C     -8.065540  -22.525200   -2.665490
  C     -7.860300  -21.734780   -1.567020
  C     -8.149920  -20.324000   -1.332360
  C     -9.027230  -19.561350   -2.060290
  C     -9.438170  -18.271640   -1.671190
  N     -9.782640  -17.216350   -1.379310
  C     -9.671250  -20.006090   -3.234220
  N    -10.206220  -20.302640   -4.204720
  H     -7.728060   -0.806450    9.561740
  H     -7.189560   -5.727650    9.818690
  H     -7.427040   -0.874960    7.145510
  H     -6.879820   -5.829080    7.341290
  H     -7.039020   -2.689350    1.908860
  H     -6.273910   -7.841290   -2.478610
  H     -5.450050   -9.403990   -2.584540
  H     -4.474900   -7.015610   -0.921540
  H     -3.793360   -7.569960   -2.450780
  H     -3.685710   -8.592990   -1.014400
  H     -8.636900  -10.687130    4.602990
  H     -8.109750  -12.331190    4.173200
  H    -10.668740  -10.932150    3.224910
  H    -10.586860  -12.240330    4.407470
  H    -10.177270  -12.548670    2.715010
  H     -7.972480  -13.588670    2.246560
  H     -6.756410  -12.911350   -0.478320
  H     -6.068380  -13.858320   -2.327270
  H     -5.769210  -14.911370   -4.398110
  H     -7.245010  -15.850820   -4.240530
  H     -4.654250  -16.450080   -2.733250
  H     -5.212830  -17.285050   -4.196040
  H     -7.231920  -18.077020   -3.021810
  H     -6.890790  -18.888220    1.549610
  H     -6.453060  -23.985070    0.585580
  H     -8.335090  -24.335440   -4.630490
  H     -6.310600  -26.217570   -0.515740
  H     -8.488560  -22.136560   -3.577640

 Total Charge           Charge          ....    0
 Multiplicity           Mult            ....    1
 Number of Electrons    NEL             ....  582
 Basis Dimension        Dim             .... 1296

ORBITAL ENERGIES
----------------

  NO   OCC          E(Eh)            E(eV)
   0   2.0000     -88.986982     -2421.4589
   1   2.0000     -88.981954     -2421.3221
   2   2.0000     -24.813917      -675.2210
   3   2.0000     -24.812465      -675.1815
   4   2.0000     -24.801743      -674.8897
   5   2.0000     -24.801053      -674.8710
   6   2.0000     -24.800725      -674.8620
   7   2.0000     -24.800443      -674.8544
   8   2.0000     -19.268687      -524.3276
   9   2.0000     -19.268023      -524.3096
  10   2.0000     -19.253595      -523.9170
  11   2.0000     -19.253247      -523.9075
  12   2.0000     -19.230786      -523.2963
  13   2.0000     -19.225893      -523.1631
  14   2.0000     -19.201568      -522.5012
  15   2.0000     -19.200841      -522.4814
  16   2.0000     -14.665369      -399.0650
  17   2.0000     -14.651214      -398.6798
  18   2.0000     -14.465087      -393.6150
  19   2.0000     -14.464440      -393.5974
  20   2.0000     -14.428115      -392.6090
  21   2.0000     -14.426147      -392.5554
  22   2.0000     -14.420882      -392.4122
  23   2.0000     -14.419837      -392.3837
  24   2.0000     -10.389288      -282.7069
  25   2.0000     -10.386143      -282.6213
  26   2.0000     -10.385046      -282.5915
  27   2.0000     -10.384646      -282.5806
  28   2.0000     -10.384462      -282.5756
  29   2.0000     -10.384368      -282.5730
  30   2.0000     -10.384064      -282.5647
  31   2.0000     -10.383533      -282.5503
  32   2.0000     -10.377337      -282.3817
  33   2.0000     -10.376239      -282.3518
  34   2.0000     -10.358573      -281.8711
  35   2.0000     -10.355342      -281.7832
  36   2.0000     -10.355123      -281.7772
  37   2.0000     -10.353829      -281.7420
  38   2.0000     -10.353698      -281.7384
  39   2.0000     -10.349382      -281.6210
  40   2.0000     -10.348798      -281.6051
  41   2.0000     -10.347577      -281.5719
  42   2.0000     -10.338108      -281.3142
  43   2.0000     -10.334264      -281.2096
  44   2.0000     -10.334164      -281.2069
  45   2.0000     -10.333436      -281.1871
  46   2.0000     -10.333389      -281.1858
  47   2.0000     -10.330610      -281.1102
  48   2.0000     -10.328939      -281.0647
  49   2.0000     -10.328468      -281.0519
  50   2.0000     -10.325306      -280.9659
  51   2.0000     -10.322751      -280.8963
  52   2.0000     -10.322502      -280.8896
  53   2.0000     -10.317488      -280.7531
  54   2.0000     -10.315029      -280.6862
  55   2.0000     -10.314503      -280.6719
  56   2.0000     -10.314387      -280.6687
  57   2.0000     -10.314240      -280.6647
  58   2.0000     -10.314223      -280.6643
  59   2.0000     -10.313863      -280.6545
  60   2.0000     -10.312217      -280.6097
  61   2.0000     -10.312184      -280.6088
  62   2.0000     -10.310301      -280.5576
  63   2.0000     -10.309851      -280.5453
  64   2.0000     -10.307346      -280.4771
  65   2.0000     -10.307329      -280.4767
  66   2.0000     -10.307212      -280.4735
  67   2.0000     -10.306930      -280.4658
  68   2.0000     -10.306516      -280.4546
  69   2.0000     -10.306073      -280.4425
  70   2.0000     -10.304738      -280.4062
  71   2.0000     -10.304247      -280.3928
  72   2.0000     -10.303881      -280.3828
  73   2.0000     -10.303791      -280.3804
  74   2.0000     -10.303395      -280.3696
  75   2.0000     -10.301948      -280.3303
  76   2.0000     -10.298646      -280.2404
  77   2.0000     -10.298509      -280.2367
  78   2.0000     -10.275754      -279.6175
  79   2.0000     -10.270015      -279.4613
  80   2.0000     -10.269722      -279.4533
  81   2.0000     -10.267487      -279.3925
  82   2.0000      -8.082482      -219.9355
  83   2.0000      -8.074246      -219.7114
  84   2.0000      -6.051575      -164.6717
  85   2.0000      -6.047627      -164.5643
  86   2.0000      -6.044750      -164.4860
  87   2.0000      -6.043855      -164.4616
  88   2.0000      -6.039405      -164.3406
  89   2.0000      -6.035864      -164.2442
  90   2.0000      -1.349073       -36.7102
  91   2.0000      -1.336355       -36.3641
  92   2.0000      -1.333448       -36.2850
  93   2.0000      -1.324455       -36.0403
  94   2.0000      -1.323933       -36.0260
  95   2.0000      -1.321125       -35.9496
  96   2.0000      -1.309572       -35.6353
  97   2.0000      -1.309048       -35.6210
  98   2.0000      -1.169719       -31.8297
  99   2.0000      -1.159077       -31.5401
 100   2.0000      -1.146900       -31.2087
 101   2.0000      -1.144457       -31.1423
 102   2.0000      -1.142114       -31.0785
 103   2.0000      -1.136965       -30.9384
 104   2.0000      -1.075040       -29.2533
 105   2.0000      -1.066452       -29.0196
 106   2.0000      -1.035555       -28.1789
 107   2.0000      -1.026390       -27.9295
 108   2.0000      -1.025078       -27.8938
 109   2.0000      -1.012710       -27.5572
 110   2.0000      -1.011165       -27.5152
 111   2.0000      -1.008932       -27.4544
 112   2.0000      -1.005442       -27.3595
 113   2.0000      -0.998942       -27.1826
 114   2.0000      -0.988266       -26.8921
 115   2.0000      -0.986284       -26.8381
 116   2.0000      -0.975184       -26.5361
 117   2.0000      -0.951774       -25.8991
 118   2.0000      -0.939285       -25.5592
 119   2.0000      -0.937391       -25.5077
 120   2.0000      -0.936347       -25.4793
 121   2.0000      -0.924745       -25.1636
 122   2.0000      -0.917148       -24.9569
 123   2.0000      -0.911614       -24.8063
 124   2.0000      -0.899025       -24.4637
 125   2.0000      -0.897275       -24.4161
 126   2.0000      -0.893709       -24.3191
 127   2.0000      -0.887590       -24.1525
 128   2.0000      -0.880493       -23.9594
 129   2.0000      -0.866840       -23.5879
 130   2.0000      -0.865066       -23.5396
 131   2.0000      -0.850056       -23.1312
 132   2.0000      -0.848066       -23.0771
 133   2.0000      -0.845055       -22.9951
 134   2.0000      -0.843846       -22.9622
 135   2.0000      -0.839725       -22.8501
 136   2.0000      -0.827631       -22.5210
 137   2.0000      -0.819519       -22.3003
 138   2.0000      -0.810754       -22.0617
 139   2.0000      -0.787779       -21.4365
 140   2.0000      -0.777760       -21.1639
 141   2.0000      -0.773557       -21.0496
 142   2.0000      -0.772046       -21.0085
 143   2.0000      -0.767872       -20.8948
 144   2.0000      -0.749560       -20.3966
 145   2.0000      -0.745161       -20.2769
 146   2.0000      -0.742940       -20.2164
 147   2.0000      -0.730381       -19.8747
 148   2.0000      -0.725718       -19.7478
 149   2.0000      -0.723849       -19.6969
 150   2.0000      -0.721333       -19.6285
 151   2.0000      -0.719432       -19.5767
 152   2.0000      -0.713265       -19.4089
 153   2.0000      -0.707399       -19.2493
 154   2.0000      -0.702129       -19.1059
 155   2.0000      -0.695471       -18.9247
 156   2.0000      -0.692755       -18.8508
 157   2.0000      -0.691991       -18.8300
 158   2.0000      -0.684051       -18.6140
 159   2.0000      -0.681386       -18.5415
 160   2.0000      -0.667616       -18.1667
 161   2.0000      -0.666009       -18.1230
 162   2.0000      -0.662055       -18.0154
 163   2.0000      -0.661497       -18.0003
 164   2.0000      -0.659296       -17.9404
 165   2.0000      -0.656438       -17.8626
 166   2.0000      -0.653137       -17.7728
 167   2.0000      -0.647793       -17.6274
 168   2.0000      -0.647540       -17.6205
 169   2.0000      -0.643682       -17.5155
 170   2.0000      -0.641019       -17.4430
 171   2.0000      -0.640366       -17.4252
 172   2.0000      -0.634528       -17.2664
 173   2.0000      -0.627454       -17.0739
 174   2.0000      -0.623785       -16.9741
 175   2.0000      -0.620625       -16.8881
 176   2.0000      -0.616166       -16.7667
 177   2.0000      -0.611213       -16.6319
 178   2.0000      -0.609799       -16.5935
 179   2.0000      -0.601984       -16.3808
 180   2.0000      -0.600840       -16.3497
 181   2.0000      -0.598040       -16.2735
 182   2.0000      -0.596272       -16.2254
 183   2.0000      -0.591760       -16.1026
 184   2.0000      -0.590711       -16.0741
 185   2.0000      -0.589005       -16.0276
 186   2.0000      -0.588815       -16.0225
 187   2.0000      -0.588188       -16.0054
 188   2.0000      -0.584623       -15.9084
 189   2.0000      -0.580510       -15.7965
 190   2.0000      -0.577763       -15.7217
 191   2.0000      -0.576176       -15.6785
 192   2.0000      -0.568736       -15.4761
 193   2.0000      -0.562279       -15.3004
 194   2.0000      -0.560086       -15.2407
 195   2.0000      -0.557622       -15.1737
 196   2.0000      -0.556829       -15.1521
 197   2.0000      -0.553438       -15.0598
 198   2.0000      -0.551071       -14.9954
 199   2.0000      -0.550380       -14.9766
 200   2.0000      -0.549820       -14.9614
 201   2.0000      -0.548585       -14.9278
 202   2.0000      -0.546863       -14.8809
 203   2.0000      -0.544190       -14.8082
 204   2.0000      -0.542592       -14.7647
 205   2.0000      -0.541972       -14.7478
 206   2.0000      -0.538188       -14.6448
 207   2.0000      -0.536499       -14.5989
 208   2.0000      -0.535251       -14.5649
 209   2.0000      -0.533801       -14.5255
 210   2.0000      -0.530231       -14.4283
 211   2.0000      -0.529516       -14.4089
 212   2.0000      -0.525987       -14.3128
 213   2.0000      -0.523502       -14.2452
 214   2.0000      -0.523341       -14.2408
 215   2.0000      -0.520466       -14.1626
 216   2.0000      -0.519428       -14.1343
 217   2.0000      -0.515761       -14.0346
 218   2.0000      -0.515156       -14.0181
 219   2.0000      -0.512663       -13.9503
 220   2.0000      -0.508686       -13.8421
 221   2.0000      -0.508203       -13.8289
 222   2.0000      -0.504207       -13.7202
 223   2.0000      -0.503367       -13.6973
 224   2.0000      -0.500245       -13.6124
 225   2.0000      -0.496530       -13.5113
 226   2.0000      -0.495396       -13.4804
 227   2.0000      -0.493271       -13.4226
 228   2.0000      -0.488336       -13.2883
 229   2.0000      -0.487165       -13.2564
 230   2.0000      -0.482395       -13.1266
 231   2.0000      -0.481632       -13.1059
 232   2.0000      -0.480978       -13.0881
 233   2.0000      -0.474277       -12.9057
 234   2.0000      -0.473751       -12.8914
 235   2.0000      -0.472498       -12.8573
 236   2.0000      -0.471802       -12.8384
 237   2.0000      -0.468023       -12.7356
 238   2.0000      -0.467697       -12.7267
 239   2.0000      -0.463766       -12.6197
 240   2.0000      -0.461289       -12.5523
 241   2.0000      -0.460718       -12.5368
 242   2.0000      -0.458260       -12.4699
 243   2.0000      -0.455108       -12.3841
 244   2.0000      -0.453812       -12.3488
 245   2.0000      -0.453657       -12.3446
 246   2.0000      -0.451173       -12.2770
 247   2.0000      -0.450421       -12.2566
 248   2.0000      -0.447724       -12.1832
 249   2.0000      -0.447044       -12.1647
 250   2.0000      -0.445950       -12.1349
 251   2.0000      -0.441053       -12.0017
 252   2.0000      -0.439691       -11.9646
 253   2.0000      -0.439202       -11.9513
 254   2.0000      -0.436850       -11.8873
 255   2.0000      -0.436103       -11.8670
 256   2.0000      -0.435602       -11.8533
 257   2.0000      -0.434501       -11.8234
 258   2.0000      -0.431490       -11.7414
 259   2.0000      -0.429910       -11.6985
 260   2.0000      -0.424537       -11.5522
 261   2.0000      -0.423306       -11.5187
 262   2.0000      -0.417995       -11.3742
 263   2.0000      -0.412529       -11.2255
 264   2.0000      -0.411496       -11.1974
 265   2.0000      -0.406097       -11.0505
 266   2.0000      -0.403689       -10.9849
 267   2.0000      -0.400251       -10.8914
 268   2.0000      -0.395410       -10.7596
 269   2.0000      -0.393497       -10.7076
 270   2.0000      -0.391112       -10.6427
 271   2.0000      -0.389856       -10.6085
 272   2.0000      -0.389521       -10.5994
 273   2.0000      -0.383593       -10.4381
 274   2.0000      -0.368350       -10.0233
 275   2.0000      -0.365521        -9.9463
 276   2.0000      -0.360040        -9.7972
 277   2.0000      -0.355551        -9.6750
 278   2.0000      -0.347956        -9.4684
 279   2.0000      -0.345373        -9.3981
 280   2.0000      -0.343100        -9.3362
 281   2.0000      -0.339324        -9.2335
 282   2.0000      -0.327948        -8.9239
 283   2.0000      -0.325355        -8.8534
 284   2.0000      -0.321416        -8.7462
 285   2.0000      -0.321123        -8.7382
 286   2.0000      -0.312308        -8.4983
 287   2.0000      -0.306281        -8.3343
 288   2.0000      -0.301466        -8.2033
 289   2.0000      -0.297341        -8.0911
 290   2.0000      -0.248073        -6.7504
 291   0.0000      -0.114870        -3.1258
 292   0.0000      -0.100715        -2.7406
 293   0.0000      -0.077580        -2.1111
 294   0.0000      -0.066177        -1.8008
 295   0.0000      -0.062483        -1.7002

MULLIKEN ATOMIC CHARGES
-----------------------
   0 C :   -0.108121
   1 C :    0.241805
   2 F :   -0.169085
   3 C :    0.239173
   4 F :   -0.170577
   5 C :   -0.106829
   6 C :    0.117003
   7 C :    0.114960
   8 C :   -0.085583
   9 C :    0.047642
  10 C :   -0.001985
  11 C :   -0.079164
  12 C :    0.179423
  13 O :   -0.172345
  14 C :   -0.091926
  15 C :    0.323568
  16 C :   -0.339981
  17 C :   -0.186027
  18 N :    0.153191
  19 C :   -0.201553
  20 N :    0.164337
  21 C :   -0.011712
  22 C :   -0.143691
  23 C :    0.226213
  24 F :   -0.154248
  25 C :    0.243080
  26 F :   -0.165416
  27 C :   -0.269572
  28 S :    0.287731
  29 C :    0.165367
  30 N :   -0.252296
  31 C :    0.096399
  32 C :   -0.009915
  33 C :    0.183606
  34 O :   -0.244924
  35 C :   -0.089807
  36 C :   -0.061571
  37 C :    0.151827
  38 O :   -0.173869
  39 N :   -0.261308
  40 C :    0.095487
  41 C :   -0.000426
  42 C :    0.152588
  43 C :   -0.041707
  44 C :    0.060525
  45 C :   -0.048587
  46 S :    0.178281
  47 C :   -0.141911
  48 C :    0.025762
  49 C :   -0.060686
  50 C :    0.074921
  51 N :    0.213456
  52 O :   -0.203034
  53 O :   -0.215413
  54 C :    0.092745
  55 C :    0.069928
  56 C :    0.103142
  57 N :    0.187584
  58 O :   -0.222642
  59 O :   -0.201338
  60 C :    0.046075
  61 C :   -0.144052
  62 C :    0.143340
  63 O :   -0.130990
  64 C :    0.021907
  65 C :   -0.083647
  66 C :    0.115107
  67 C :    0.115319
  68 C :   -0.106789
  69 C :    0.241660
  70 C :    0.238647
  71 C :   -0.103257
  72 F :   -0.170742
  73 F :   -0.170137
  74 C :   -0.081091
  75 C :    0.070317
  76 C :    0.268400
  77 C :   -0.366817
  78 C :   -0.212376
  79 N :    0.187423
  80 C :   -0.177152
  81 N :    0.167395
  82 H :    0.009247
  83 H :    0.001184
  84 H :   -0.004656
  85 H :   -0.005289
  86 H :    0.026145
  87 H :    0.039438
  88 H :    0.042484
  89 H :    0.027484
  90 H :    0.027274
  91 H :    0.022988
  92 H :    0.045977
  93 H :    0.023848
  94 H :    0.032598
  95 H :    0.025800
  96 H :    0.025251
  97 H :   -0.023475
  98 H :    0.016639
  99 H :    0.081317
 100 H :    0.030087
 101 H :    0.035401
 102 H :    0.035686
 103 H :    0.031258
 104 H :    0.054673
 105 H :    0.033647
 106 H :   -0.007775
 107 H :    0.006450
 108 H :    0.000226
 109 H :   -0.004946
Sum of atomic charges:   -0.0000000

LOEWDIN ATOMIC CHARGES
----------------------
   0 C :   -0.029025
   1 C :    0.067139
   2 F :   -0.047250
   3 C :    0.067831
   4 F :   -0.048256
   5 C :   -0.032914
   6 C :   -0.008649
   7 C :   -0.005635
   8 C :    0.018251
   9 C :   -0.021531
  10 C :   -0.052174
  11 C :    0.032483
  12 C :    0.087213
  13 O :   -0.153058
  14 C :   -0.097766
  15 C :    0.074555
  16 C :   -0.134565
  17 C :   -0.017356
  18 N :   -0.050109
  19 C :   -0.024991
  20 N :   -0.041384
  21 C :    0.060184
  22 C :   -0.216826
  23 C :    0.050565
  24 F :   -0.032517
  25 C :    0.015813
  26 F :   -0.039883
  27 C :   -0.202409
  28 S :    0.582871
  29 C :    0.040831
  30 N :    0.008512
  31 C :    0.031921
  32 C :   -0.061517
  33 C :    0.084267
  34 O :   -0.222905
  35 C :   -0.131712
  36 C :   -0.112602
  37 C :    0.078398
  38 O :   -0.179259
  39 N :   -0.000984
  40 C :    0.036450
  41 C :   -0.060387
  42 C :    0.094769
  43 C :   -0.051709
  44 C :    0.028668
  45 C :   -0.144948
  46 S :    0.489427
  47 C :   -0.167781
  48 C :   -0.039742
  49 C :   -0.056650
  50 C :    0.018104
  51 N :    0.275480
  52 O :   -0.165240
  53 O :   -0.182958
  54 C :   -0.026460
  55 C :   -0.014668
  56 C :    0.014359
  57 N :    0.276461
  58 O :   -0.187930
  59 O :   -0.181510
  60 C :    0.035589
  61 C :   -0.086076
  62 C :    0.088799
  63 O :   -0.131651
  64 C :   -0.052768
  65 C :    0.034395
  66 C :   -0.008101
  67 C :   -0.003357
  68 C :   -0.029620
  69 C :    0.067900
  70 C :    0.067630
  71 C :   -0.031962
  72 F :   -0.048345
  73 F :   -0.047683
  74 C :    0.020685
  75 C :   -0.015753
  76 C :    0.064396
  77 C :   -0.144894
  78 C :   -0.023644
  79 N :   -0.041892
  80 C :   -0.021407
  81 N :   -0.044924
  82 H :    0.048264
  83 H :    0.045162
  84 H :    0.040410
  85 H :    0.042007
  86 H :    0.051839
  87 H :    0.022039
  88 H :    0.035282
  89 H :    0.022976
  90 H :    0.033541
  91 H :    0.028785
  92 H :    0.038384
  93 H :    0.023462
  94 H :    0.033642
  95 H :    0.031725
  96 H :    0.025160
  97 H :    0.025516
  98 H :    0.035815
  99 H :    0.059919
 100 H :    0.042857
 101 H :    0.037358
 102 H :    0.034235
 103 H :    0.038323
 104 H :    0.043621
 105 H :    0.049280
 106 H :    0.041389
 107 H :    0.047423
 108 H :    0.045165
 109 H :    0.039811

  Mayer bond orders larger than 0.100000
B(  0-C ,  1-C ) :   1.4406 B(  0-C ,  5-C ) :   0.1082 B(  0-C ,  7-C ) :   1.1898
B(  0-C , 82-H ) :   1.0064 B(  1-C ,  2-F ) :   1.1375 B(  1-C ,  3-C ) :   1.1902
B(  3-C ,  4-F ) :   1.1353 B(  3-C ,  5-C ) :   1.4428 B(  5-C ,  6-C ) :   1.1935
B(  5-C , 83-H ) :   1.0067 B(  6-C ,  7-C ) :   1.2540 B(  6-C , 11-C ) :   1.1879
B(  7-C ,  8-C ) :   1.2169 B(  8-C ,  9-C ) :   1.4530 B(  8-C , 84-H ) :   0.9898
B(  9-C , 10-C ) :   1.2215 B(  9-C , 15-C ) :   0.9869 B( 10-C , 11-C ) :   1.4719
B( 10-C , 12-C ) :   0.9553 B( 11-C , 85-H ) :   1.0164 B( 12-C , 13-O ) :   2.1188
B( 12-C , 14-C ) :   0.9785 B( 14-C , 15-C ) :   1.0626 B( 14-C , 21-C ) :   1.5316
B( 15-C , 16-C ) :   1.6428 B( 16-C , 17-C ) :   1.1446 B( 16-C , 19-C ) :   1.1415
B( 17-C , 18-N ) :   2.9656 B( 19-C , 20-N ) :   2.9748 B( 21-C , 22-C ) :   1.2307
B( 21-C , 86-H ) :   0.9390 B( 22-C , 23-C ) :   1.3559 B( 22-C , 27-C ) :   0.1281
B( 22-C , 28-S ) :   1.0910 B( 23-C , 24-F ) :   1.1553 B( 23-C , 25-C ) :   1.2752
B( 25-C , 26-F ) :   1.1573 B( 25-C , 27-C ) :   1.3409 B( 27-C , 28-S ) :   1.1446
B( 27-C , 29-C ) :   1.0937 B( 29-C , 30-N ) :   1.1969 B( 29-C , 36-C ) :   1.4063
B( 30-N , 31-C ) :   0.9387 B( 30-N , 33-C ) :   1.0756 B( 31-C , 32-C ) :   1.1183
B( 31-C , 87-H ) :   0.9447 B( 31-C , 88-H ) :   0.9270 B( 32-C , 89-H ) :   0.9683
B( 32-C , 90-H ) :   0.9668 B( 32-C , 91-H ) :   0.9653 B( 33-C , 34-O ) :   1.9452
B( 33-C , 35-C ) :   1.0221 B( 34-O , 98-H ) :   0.1277 B( 35-C , 36-C ) :   1.2388
B( 35-C , 42-C ) :   1.3205 B( 36-C , 37-C ) :   0.9536 B( 37-C , 38-O ) :   2.1525
B( 37-C , 39-N ) :   1.0266 B( 39-N , 40-C ) :   0.9428 B( 39-N , 42-C ) :   1.1770
B( 40-C , 41-C ) :   1.1205 B( 40-C , 92-H ) :   0.9291 B( 40-C , 93-H ) :   0.9502
B( 41-C , 94-H ) :   0.9636 B( 41-C , 95-H ) :   0.9679 B( 41-C , 96-H ) :   0.9688
B( 42-C , 43-C ) :   1.1627 B( 43-C , 44-C ) :   1.6002 B( 43-C , 97-H ) :   0.9751
B( 44-C , 45-C ) :   1.1519 B( 44-C , 98-H ) :   0.9133 B( 45-C , 46-S ) :   1.1349
B( 45-C , 49-C ) :   1.4604 B( 46-S , 47-C ) :   1.1380 B( 47-C , 48-C ) :   1.4844
B( 47-C , 60-C ) :   1.0932 B( 48-C , 49-C ) :   1.3669 B( 48-C , 56-C ) :   0.9681
B( 49-C , 50-C ) :   1.0293 B( 50-C , 51-N ) :   0.8252 B( 50-C , 54-C ) :   1.0738
B( 50-C , 99-H ) :   0.8594 B( 51-N , 52-O ) :   1.5985 B( 51-N , 53-O ) :   1.5907
B( 52-O , 53-O ) :   0.2650 B( 54-C , 55-C ) :   1.1081 B( 54-C ,100-H ) :   0.9109
B( 54-C ,101-H ) :   0.9071 B( 55-C , 56-C ) :   1.0657 B( 55-C ,102-H ) :   0.9214
B( 55-C ,103-H ) :   0.9296 B( 56-C , 57-N ) :   0.8305 B( 56-C ,104-H ) :   0.8801
B( 57-N , 58-O ) :   1.5259 B( 57-N , 59-O ) :   1.5885 B( 58-O , 59-O ) :   0.2663
B( 60-C , 61-C ) :   1.7076 B( 60-C ,105-H ) :   0.9150 B( 61-C , 62-C ) :   0.9217
B( 61-C , 76-C ) :   1.0431 B( 62-C , 63-O ) :   2.2755 B( 62-C , 64-C ) :   0.9239
B( 64-C , 65-C ) :   1.4676 B( 64-C , 75-C ) :   1.2226 B( 65-C , 66-C ) :   1.1962
B( 65-C ,106-H ) :   1.0162 B( 66-C , 67-C ) :   1.2556 B( 66-C , 71-C ) :   1.1919
B( 67-C , 68-C ) :   1.1888 B( 67-C , 74-C ) :   1.2182 B( 68-C , 69-C ) :   1.4419
B( 68-C , 71-C ) :   0.1085 B( 68-C ,107-H ) :   1.0064 B( 69-C , 70-C ) :   1.1914
B( 69-C , 73-F ) :   1.1354 B( 70-C , 71-C ) :   1.4442 B( 70-C , 72-F ) :   1.1345
B( 71-C ,108-H ) :   1.0064 B( 74-C , 75-C ) :   1.4565 B( 74-C ,109-H ) :   0.9931
B( 75-C , 76-C ) :   0.9918 B( 76-C , 77-C ) :   1.6378 B( 77-C , 78-C ) :   1.1765
B( 77-C , 80-C ) :   1.1272 B( 78-C , 79-N ) :   2.9987 B( 80-C , 81-N ) :   2.9900

-----------------------------------------------------------------------------
         ABSORPTION SPECTRUM VIA TRANSITION ELECTRIC DIPOLE MOMENTS
-----------------------------------------------------------------------------
State   Energy  Wavelength   fosc         T2         TX        TY        TZ
        (cm-1)    (nm)                  (au**2)     (au)      (au)      (au)
-----------------------------------------------------------------------------
   0   13881.0    720.4   1.096999876  26.01727  -0.52327  -4.94221  -1.14804
   1   18700.7    534.7   0.040906232   0.72012  -0.23375  -0.58443   0.56915
   2   23220.9    430.6   0.167202790   2.37050   0.01445  -0.80487  -1.31243
   3   24946.3    400.9   0.445991375   5.88568  -0.36394  -2.34421  -0.50782
   4   25365.0    394.2   0.091784599   1.19127   0.00973   1.08845   0.08026
   5   25598.8    390.6   0.336217119   4.32391   0.01941   1.68654   1.21619
   6   26477.0    377.7   0.050601060   0.62917   0.27877  -0.74251   0.01124
   7   26710.8    374.4   0.015126268   0.18643  -0.08486   0.42291   0.01941
   8   27395.5    365.0   0.080142470   0.96307  -0.03482  -0.06830   0.97836
   9   27901.3    358.4   0.158514494   1.87034  -0.04404   0.32651   1.32732
  10   28087.5    356.0   0.289220114   3.38994   0.28464  -1.19872  -1.36821
  11   28287.3    353.5   0.061266541   0.71303  -0.31519   0.67712   0.39395
  12   28450.4    351.5   0.026820297   0.31035  -0.24819   0.31684  -0.38518
  13   29046.9    344.3   0.045347349   0.51396   0.10293   0.19330  -0.68264
  14   29440.7    339.7   0.019964862   0.22325  -0.05814   0.45625   0.10819
  15   30124.3    332.0   0.089724146   0.98055   0.60371  -0.78141  -0.07402
  16   30547.6    327.4   0.000686019   0.00739   0.00591  -0.06419   0.05691
  17   30901.4    323.6   0.015924407   0.16965   0.20243  -0.30382  -0.19071
  18   31203.9    320.5   0.001444021   0.01523   0.06070   0.03081  -0.10296
  19   31537.3    317.1   0.001105426   0.01154  -0.00209   0.05652  -0.09133
  20   32226.2    310.3   0.037084427   0.37884  -0.09708  -0.38537   0.47001
  21   32608.2    306.7   0.076612984   0.77348  -0.30769   0.22435   0.79277
  22   32819.4    304.7   0.109642417   1.09982  -0.07553   0.68744  -0.78838
  23   33532.3    298.2   0.740798576   7.27298  -0.13737  -1.10790   2.45493
  24   33591.8    297.7   0.760940464   7.45750   0.83633  -2.55733  -0.46703
  25   34314.6    291.4   0.043335459   0.41576   0.00380   0.35155  -0.54051
  26   34402.4    290.7   0.040881750   0.39122   0.01619   0.60941   0.13991
  27   34663.6    288.5   0.008233854   0.07820  -0.11788  -0.20175  -0.15363
  28   34754.8    287.7   0.000421034   0.00399   0.02425  -0.02709  -0.05164
  29   34859.2    286.9   0.017126657   0.16174  -0.13354  -0.25205  -0.28352
  30   34977.5    285.9   0.011620571   0.10937  -0.18256   0.23632   0.14214
  31   35329.4    283.1   0.012246897   0.11412   0.01302  -0.10005   0.32240
  32   35978.1    277.9   0.199574748   1.82618  -0.14831   0.75933   1.10797
  33   36137.8    276.7   0.058728331   0.53501  -0.13780   0.69327  -0.18814
  34   36419.3    274.6   0.012423872   0.11231   0.05729  -0.31083  -0.11139
  35   36543.1    273.6   0.053785429   0.48455   0.27624   0.08762  -0.63290
  36   36994.6    270.3   0.081683998   0.72690  -0.27009   0.80664  -0.05732
  37   37162.9    269.1   0.010338305   0.09158   0.03262   0.20967  -0.21577
  38   37822.8    264.4   0.116793346   1.01658  -0.13458  -0.93884   0.34211
  39   37972.4    263.3   0.154505539   1.33953   0.12814   1.12868   0.22176
  40   38060.6    262.7   0.121906019   1.05445  -0.37236   0.77290  -0.56429
  41   38610.1    259.0   0.027775559   0.23683  -0.41875   0.15162   0.19619
  42   38733.4    258.2   0.043344282   0.36840  -0.17532   0.46680   0.34608
  43   38853.0    257.4   0.051790160   0.43883   0.05378  -0.44201  -0.49048
  44   38899.6    257.1   0.149790831   1.26770  -0.16137  -0.21843   1.09268
  45   39024.1    256.3   0.050615091   0.42699  -0.32339   0.56708  -0.02894
  46   39524.2    253.0   0.074395635   0.61967  -0.10576  -0.24574  -0.74033
  47   39596.0    252.6   0.193556698   1.60928   0.71248  -0.67972   0.79977
  48   39795.5    251.3   0.024196916   0.20017   0.17345  -0.15898   0.38054
  49   40084.7    249.5   0.048821284   0.40096   0.09578   0.42666   0.45799

FINAL SINGLE POINT ENERGY     -4657.118380780793

DIPOLE MOMENT
-------------
                                X             Y             Z
Electronic contribution:     -6.57815      11.06075      21.40019
Nuclear contribution   :      7.91596     -13.39990     -20.42460
                        -----------------------------------------
Total Dipole Moment    :      1.33782      -2.33915       0.97559
                        -----------------------------------------
Magnitude (a.u.)       :      2.86586
Magnitude (Debye)      :      7.28444

Rotational constants in cm-1:     0.001762     0.000199     0.000183
Rotational constants in MHz :    52.810375     5.959643     5.489249

                             ****ORCA TERMINATED NORMALLY****
TOTAL RUN TIME: 0 days 0 hours 19 minutes 21 seconds 253 msec
