                         Program Version 4.2.0 -  RELEASE  -
|  1> # ORCA input file
|  2> # SCF done       -162.117511551978          0.000905019650
|  3> ! CAM-B3LYP def2-SVP def2/J RIJCOSX Grid4 TightSCF
|  4> %maxcore 5000
|  5> %tddft
|  6>     Mode sTDDFT
|  7>     Ethresh 5.0
|  8>     maxcore 5000
|  9> end
| 10>
| 11> %pal
| 12>   nprocs 6
| 13>   end
| 14> * xyz 0 1
| 15>    C        0.74201         0.75301         6.21126
| 16>    O        0.27011        -0.48161         6.31975
| 17>    C        0.54223        -1.13471         5.15532
| 18>    C        1.20225        -0.28495         4.29526
| 19>    C        1.33430         0.94993         4.98119
| 20>    C        1.95807         2.17547         4.49728
| 21>    O        2.46168         2.31906         3.41537
| 22>    C        0.13069        -2.49123         5.00579
| 23>    C        0.29564        -3.30241         3.91010
| 24>    C       -0.30661        -4.56541         4.17942
| 25>    C       -0.83124        -4.48925         5.55736
| 26>    C       -0.56180        -3.24793         6.03825
| 27>    C       -1.40788        -5.52575         6.30207
| 28>    N       -1.84448        -6.34895         6.97342
| 29>    C       -0.41782        -5.64319         3.32947
| 30>    C       -1.17186        -6.82854         3.53510
| 31>    C       -1.01040        -7.67048         2.44772
| 32>    C       -0.11558        -7.00862         1.50934
| 33>    C        0.22104        -5.79098         2.01149
| 34>    C        1.06250        -4.87053         1.37675
| 35>    N        1.75568        -4.13824         0.82657
| 36>    C       -1.66823        -8.92140         2.32934
| 37>    N       -1.36402        -9.96009         1.48671
| 38>    C       -0.23719       -10.09618         0.59254
| 39>    C        1.09013       -10.15326         1.34117
| 40>    C       -2.23684       -11.05535         1.66861
| 41>    O       -2.15106       -12.08560         1.03605
| 42>    C       -3.15856       -10.61677         2.69369
| 43>    C       -2.78742        -9.31463         3.07915
| 44>    C       -3.76099        -8.83904         4.04678
| 45>    O       -3.88943        -7.78530         4.62878
| 46>    N       -4.64397        -9.92352         4.20464
| 47>    C       -5.77199        -9.83952         5.10124
| 48>    C       -7.07374        -9.56025         4.35451
| 49>    C       -4.30791       -10.98960         3.40816
| 50>    C       -5.02874       -12.19906         3.37703
| 51>    C       -4.64430       -13.26647         2.61826
| 52>    C       -5.34593       -14.49500         2.53970
| 53>    C       -4.78314       -15.56621         1.79230
| 54>    C       -5.43924       -16.83691         1.65712
| 55>    N       -4.96123       -17.74390         0.78825
| 56>    C       -3.81085       -17.52476         0.21102
| 57>    C       -3.05621       -16.33674         0.50534
| 58>    N       -3.58173       -15.38341         1.22841
| 59>    C       -1.75378       -16.17257        -0.02891
| 60>    N       -0.70488       -16.08711        -0.48075
| 61>    C       -3.32635       -18.46282        -0.73531
| 62>    N       -2.90772       -19.20800        -1.49755
| 63>    C       -6.61553       -17.13734         2.37139
| 64>    C       -7.20241       -16.08015         3.08618
| 65>    C       -6.58521       -14.77236         3.16530
| 66>    N       -7.31781       -13.93802         3.90607
| 67>    S       -8.61994       -14.71032         4.44615
| 68>    N       -8.33901       -16.13777         3.78467
| 69>    C       -7.16546       -18.46428         2.37827
| 70>    O       -8.49427       -18.63900         2.40303
| 71>    C       -8.73571       -19.95888         2.38455
| 72>    C       -7.57483       -20.66539         2.35633
| 73>    C       -6.52595       -19.70442         2.36096
| 74>    C       -5.11370       -20.01104         2.49953
| 75>    O       -4.24054       -19.23656         2.81025
| 76>    H        0.61175         1.41232         7.04802
| 77>    H        1.55175        -0.50002         3.30722
| 78>    H        1.93232         2.99863         5.23942
| 79>    H        0.76492        -3.03262         2.98551
| 80>    H       -0.79943        -2.86757         7.01394
| 81>    H       -1.78676        -7.02049         4.39168
| 82>    H        0.20140        -7.38709         0.55710
| 83>    H       -0.24491        -9.28911        -0.14429
| 84>    H       -0.40076       -11.04064         0.06422
| 85>    H        1.26701        -9.24038         1.90603
| 86>    H        1.90227       -10.28664         0.63210
| 87>    H        1.09169       -10.99372         2.03098
| 88>    H       -5.55402        -9.01155         5.78167
| 89>    H       -5.84649       -10.76439         5.67923
| 90>    H       -6.99312        -8.62510         3.80585
| 91>    H       -7.89148        -9.47592         5.06463
| 92>    H       -7.30089       -10.35863         3.65184
| 93>    H       -5.91684       -12.28334         3.98528
| 94>    H       -3.74209       -13.21239         2.02262
| 95>    H       -9.76272       -20.26707         2.38960
| 96>    H       -7.46190       -21.72979         2.34870
| 97>    H       -4.88773       -21.08040         2.32780
| 98> *
| 99>
|100>                          ****END OF INPUT****

CARTESIAN COORDINATES (ANGSTROEM)
---------------------------------
  C      0.742010    0.753010    6.211260
  O      0.270110   -0.481610    6.319750
  C      0.542230   -1.134710    5.155320
  C      1.202250   -0.284950    4.295260
  C      1.334300    0.949930    4.981190
  C      1.958070    2.175470    4.497280
  O      2.461680    2.319060    3.415370
  C      0.130690   -2.491230    5.005790
  C      0.295640   -3.302410    3.910100
  C     -0.306610   -4.565410    4.179420
  C     -0.831240   -4.489250    5.557360
  C     -0.561800   -3.247930    6.038250
  C     -1.407880   -5.525750    6.302070
  N     -1.844480   -6.348950    6.973420
  C     -0.417820   -5.643190    3.329470
  C     -1.171860   -6.828540    3.535100
  C     -1.010400   -7.670480    2.447720
  C     -0.115580   -7.008620    1.509340
  C      0.221040   -5.790980    2.011490
  C      1.062500   -4.870530    1.376750
  N      1.755680   -4.138240    0.826570
  C     -1.668230   -8.921400    2.329340
  N     -1.364020   -9.960090    1.486710
  C     -0.237190  -10.096180    0.592540
  C      1.090130  -10.153260    1.341170
  C     -2.236840  -11.055350    1.668610
  O     -2.151060  -12.085600    1.036050
  C     -3.158560  -10.616770    2.693690
  C     -2.787420   -9.314630    3.079150
  C     -3.760990   -8.839040    4.046780
  O     -3.889430   -7.785300    4.628780
  N     -4.643970   -9.923520    4.204640
  C     -5.771990   -9.839520    5.101240
  C     -7.073740   -9.560250    4.354510
  C     -4.307910  -10.989600    3.408160
  C     -5.028740  -12.199060    3.377030
  C     -4.644300  -13.266470    2.618260
  C     -5.345930  -14.495000    2.539700
  C     -4.783140  -15.566210    1.792300
  C     -5.439240  -16.836910    1.657120
  N     -4.961230  -17.743900    0.788250
  C     -3.810850  -17.524760    0.211020
  C     -3.056210  -16.336740    0.505340
  N     -3.581730  -15.383410    1.228410
  C     -1.753780  -16.172570   -0.028910
  N     -0.704880  -16.087110   -0.480750
  C     -3.326350  -18.462820   -0.735310
  N     -2.907720  -19.208000   -1.497550
  C     -6.615530  -17.137340    2.371390
  C     -7.202410  -16.080150    3.086180
  C     -6.585210  -14.772360    3.165300
  N     -7.317810  -13.938020    3.906070
  S     -8.619940  -14.710320    4.446150
  N     -8.339010  -16.137770    3.784670
  C     -7.165460  -18.464280    2.378270
  O     -8.494270  -18.639000    2.403030
  C     -8.735710  -19.958880    2.384550
  C     -7.574830  -20.665390    2.356330
  C     -6.525950  -19.704420    2.360960
  C     -5.113700  -20.011040    2.499530
  O     -4.240540  -19.236560    2.810250
  H      0.611750    1.412320    7.048020
  H      1.551750   -0.500020    3.307220
  H      1.932320    2.998630    5.239420
  H      0.764920   -3.032620    2.985510
  H     -0.799430   -2.867570    7.013940
  H     -1.786760   -7.020490    4.391680
  H      0.201400   -7.387090    0.557100
  H     -0.244910   -9.289110   -0.144290
  H     -0.400760  -11.040640    0.064220
  H      1.267010   -9.240380    1.906030
  H      1.902270  -10.286640    0.632100
  H      1.091690  -10.993720    2.030980
  H     -5.554020   -9.011550    5.781670
  H     -5.846490  -10.764390    5.679230
  H     -6.993120   -8.625100    3.805850
  H     -7.891480   -9.475920    5.064630
  H     -7.300890  -10.358630    3.651840
  H     -5.916840  -12.283340    3.985280
  H     -3.742090  -13.212390    2.022620
  H     -9.762720  -20.267070    2.389600
  H     -7.461900  -21.729790    2.348700
  H     -4.887730  -21.080400    2.327800

 Total Charge           Charge          ....    0
 Multiplicity           Mult            ....    1
 Number of Electrons    NEL             ....  420
 Basis Dimension        Dim             ....  968

ORBITAL ENERGIES
----------------

  NO   OCC          E(Eh)            E(eV)
   0   2.0000     -89.051395     -2423.2117
   1   2.0000     -19.321057      -525.7527
   2   2.0000     -19.311758      -525.4996
   3   2.0000     -19.216983      -522.9207
   4   2.0000     -19.215666      -522.8848
   5   2.0000     -19.198139      -522.4079
   6   2.0000     -19.195669      -522.3407
   7   2.0000     -14.461309      -393.5122
   8   2.0000     -14.460633      -393.4938
   9   2.0000     -14.458174      -393.4269
  10   2.0000     -14.457279      -393.4026
  11   2.0000     -14.457203      -393.4005
  12   2.0000     -14.457013      -393.3953
  13   2.0000     -14.426497      -392.5649
  14   2.0000     -14.422692      -392.4614
  15   2.0000     -14.409967      -392.1151
  16   2.0000     -14.404179      -391.9576
  17   2.0000     -10.379845      -282.4499
  18   2.0000     -10.378917      -282.4247
  19   2.0000     -10.378268      -282.4070
  20   2.0000     -10.377284      -282.3803
  21   2.0000     -10.365294      -282.0540
  22   2.0000     -10.363287      -281.9994
  23   2.0000     -10.360239      -281.9164
  24   2.0000     -10.358100      -281.8582
  25   2.0000     -10.351745      -281.6853
  26   2.0000     -10.349566      -281.6260
  27   2.0000     -10.349450      -281.6228
  28   2.0000     -10.349255      -281.6176
  29   2.0000     -10.348988      -281.6103
  30   2.0000     -10.348373      -281.5936
  31   2.0000     -10.344250      -281.4814
  32   2.0000     -10.341179      -281.3978
  33   2.0000     -10.327287      -281.0198
  34   2.0000     -10.322682      -280.8945
  35   2.0000     -10.321301      -280.8569
  36   2.0000     -10.320821      -280.8438
  37   2.0000     -10.319723      -280.8139
  38   2.0000     -10.317552      -280.7549
  39   2.0000     -10.317170      -280.7445
  40   2.0000     -10.316068      -280.7145
  41   2.0000     -10.313508      -280.6448
  42   2.0000     -10.313278      -280.6386
  43   2.0000     -10.312004      -280.6039
  44   2.0000     -10.311140      -280.5804
  45   2.0000     -10.310720      -280.5690
  46   2.0000     -10.309693      -280.5410
  47   2.0000     -10.308510      -280.5088
  48   2.0000     -10.305159      -280.4176
  49   2.0000     -10.294395      -280.1247
  50   2.0000     -10.294278      -280.1215
  51   2.0000     -10.293792      -280.1083
  52   2.0000     -10.292722      -280.0792
  53   2.0000     -10.290452      -280.0174
  54   2.0000     -10.288940      -279.9763
  55   2.0000     -10.286926      -279.9215
  56   2.0000     -10.286308      -279.9047
  57   2.0000     -10.271882      -279.5121
  58   2.0000     -10.270772      -279.4819
  59   2.0000     -10.266435      -279.3639
  60   2.0000     -10.265538      -279.3395
  61   2.0000      -8.142748      -221.5754
  62   2.0000      -6.113762      -166.3639
  63   2.0000      -6.105945      -166.1512
  64   2.0000      -6.105683      -166.1441
  65   2.0000      -1.240419       -33.7535
  66   2.0000      -1.233393       -33.5623
  67   2.0000      -1.147891       -31.2357
  68   2.0000      -1.140537       -31.0356
  69   2.0000      -1.133735       -30.8505
  70   2.0000      -1.130911       -30.7736
  71   2.0000      -1.129815       -30.7438
  72   2.0000      -1.117221       -30.4011
  73   2.0000      -1.070407       -29.1273
  74   2.0000      -1.061611       -28.8879
  75   2.0000      -1.044101       -28.4114
  76   2.0000      -1.017218       -27.6799
  77   2.0000      -1.009752       -27.4768
  78   2.0000      -1.002763       -27.2866
  79   2.0000      -1.000616       -27.2281
  80   2.0000      -0.997916       -27.1547
  81   2.0000      -0.984747       -26.7963
  82   2.0000      -0.981063       -26.6961
  83   2.0000      -0.980390       -26.6778
  84   2.0000      -0.934238       -25.4219
  85   2.0000      -0.924756       -25.1639
  86   2.0000      -0.923127       -25.1196
  87   2.0000      -0.916402       -24.9366
  88   2.0000      -0.907902       -24.7053
  89   2.0000      -0.902728       -24.5645
  90   2.0000      -0.892206       -24.2782
  91   2.0000      -0.880938       -23.9715
  92   2.0000      -0.871656       -23.7190
  93   2.0000      -0.855936       -23.2912
  94   2.0000      -0.852565       -23.1995
  95   2.0000      -0.839823       -22.8528
  96   2.0000      -0.832698       -22.6589
  97   2.0000      -0.824946       -22.4479
  98   2.0000      -0.812263       -22.1028
  99   2.0000      -0.802794       -21.8451
 100   2.0000      -0.786693       -21.4070
 101   2.0000      -0.775239       -21.0953
 102   2.0000      -0.764409       -20.8006
 103   2.0000      -0.757606       -20.6155
 104   2.0000      -0.754244       -20.5240
 105   2.0000      -0.741821       -20.1860
 106   2.0000      -0.727388       -19.7932
 107   2.0000      -0.725059       -19.7299
 108   2.0000      -0.719653       -19.5827
 109   2.0000      -0.715990       -19.4831
 110   2.0000      -0.711173       -19.3520
 111   2.0000      -0.699093       -19.0233
 112   2.0000      -0.695027       -18.9126
 113   2.0000      -0.687387       -18.7047
 114   2.0000      -0.680597       -18.5200
 115   2.0000      -0.677901       -18.4466
 116   2.0000      -0.670749       -18.2520
 117   2.0000      -0.663349       -18.0506
 118   2.0000      -0.656020       -17.8512
 119   2.0000      -0.651935       -17.7401
 120   2.0000      -0.644621       -17.5410
 121   2.0000      -0.633977       -17.2514
 122   2.0000      -0.630194       -17.1484
 123   2.0000      -0.624550       -16.9949
 124   2.0000      -0.614212       -16.7136
 125   2.0000      -0.611830       -16.6487
 126   2.0000      -0.607074       -16.5193
 127   2.0000      -0.599668       -16.3178
 128   2.0000      -0.587495       -15.9865
 129   2.0000      -0.581794       -15.8314
 130   2.0000      -0.580147       -15.7866
 131   2.0000      -0.579868       -15.7790
 132   2.0000      -0.572561       -15.5802
 133   2.0000      -0.571709       -15.5570
 134   2.0000      -0.566672       -15.4199
 135   2.0000      -0.564168       -15.3518
 136   2.0000      -0.560945       -15.2641
 137   2.0000      -0.558189       -15.1891
 138   2.0000      -0.557754       -15.1773
 139   2.0000      -0.543429       -14.7874
 140   2.0000      -0.541571       -14.7369
 141   2.0000      -0.535569       -14.5736
 142   2.0000      -0.535432       -14.5698
 143   2.0000      -0.532263       -14.4836
 144   2.0000      -0.531057       -14.4508
 145   2.0000      -0.527602       -14.3568
 146   2.0000      -0.524649       -14.2764
 147   2.0000      -0.523049       -14.2329
 148   2.0000      -0.519859       -14.1461
 149   2.0000      -0.517446       -14.0804
 150   2.0000      -0.515478       -14.0269
 151   2.0000      -0.509435       -13.8624
 152   2.0000      -0.507265       -13.8034
 153   2.0000      -0.505085       -13.7441
 154   2.0000      -0.503147       -13.6913
 155   2.0000      -0.501160       -13.6373
 156   2.0000      -0.493979       -13.4419
 157   2.0000      -0.492863       -13.4115
 158   2.0000      -0.491271       -13.3682
 159   2.0000      -0.488605       -13.2956
 160   2.0000      -0.485660       -13.2155
 161   2.0000      -0.483251       -13.1499
 162   2.0000      -0.480303       -13.0697
 163   2.0000      -0.478976       -13.0336
 164   2.0000      -0.477832       -13.0025
 165   2.0000      -0.473417       -12.8823
 166   2.0000      -0.470729       -12.8092
 167   2.0000      -0.469663       -12.7802
 168   2.0000      -0.465690       -12.6721
 169   2.0000      -0.464874       -12.6499
 170   2.0000      -0.463042       -12.6000
 171   2.0000      -0.457316       -12.4442
 172   2.0000      -0.452876       -12.3234
 173   2.0000      -0.452037       -12.3005
 174   2.0000      -0.450734       -12.2651
 175   2.0000      -0.447857       -12.1868
 176   2.0000      -0.442988       -12.0543
 177   2.0000      -0.439657       -11.9637
 178   2.0000      -0.438756       -11.9392
 179   2.0000      -0.435391       -11.8476
 180   2.0000      -0.433268       -11.7898
 181   2.0000      -0.431612       -11.7448
 182   2.0000      -0.431218       -11.7340
 183   2.0000      -0.427619       -11.6361
 184   2.0000      -0.425512       -11.5788
 185   2.0000      -0.418579       -11.3901
 186   2.0000      -0.415873       -11.3165
 187   2.0000      -0.414655       -11.2833
 188   2.0000      -0.412489       -11.2244
 189   2.0000      -0.409984       -11.1562
 190   2.0000      -0.403069       -10.9681
 191   2.0000      -0.396971       -10.8021
 192   2.0000      -0.386711       -10.5229
 193   2.0000      -0.378199       -10.2913
 194   2.0000      -0.371152       -10.0996
 195   2.0000      -0.367675       -10.0050
 196   2.0000      -0.359939        -9.7944
 197   2.0000      -0.356801        -9.7090
 198   2.0000      -0.352936        -9.6039
 199   2.0000      -0.349428        -9.5084
 200   2.0000      -0.338240        -9.2040
 201   2.0000      -0.338026        -9.1982
 202   2.0000      -0.335477        -9.1288
 203   2.0000      -0.331811        -9.0290
 204   2.0000      -0.328281        -8.9330
 205   2.0000      -0.323247        -8.7960
 206   2.0000      -0.313353        -8.5268
 207   2.0000      -0.288329        -7.8458
 208   2.0000      -0.283195        -7.7061
 209   2.0000      -0.236525        -6.4362
 210   0.0000      -0.137280        -3.7356
 211   0.0000      -0.119587        -3.2541
 212   0.0000      -0.063731        -1.7342
 213   0.0000      -0.046694        -1.2706
 214   0.0000      -0.035572        -0.9680

MULLIKEN ATOMIC CHARGES
-----------------------
   0 C :    0.134840
   1 O :   -0.171899
   2 C :    0.130355
   3 C :   -0.055159
   4 C :   -0.019369
   5 C :    0.158807
   6 O :   -0.170248
   7 C :    0.121398
   8 C :   -0.118673
   9 C :    0.104148
  10 C :   -0.083446
  11 C :   -0.007555
  12 C :   -0.176395
  13 N :    0.148445
  14 C :    0.123273
  15 C :   -0.105906
  16 C :    0.029382
  17 C :   -0.023493
  18 C :   -0.099591
  19 C :   -0.183541
  20 N :    0.143131
  21 C :    0.162174
  22 N :   -0.258790
  23 C :    0.091774
  24 C :   -0.007869
  25 C :    0.160529
  26 O :   -0.185940
  27 C :   -0.066727
  28 C :   -0.059050
  29 C :    0.152038
  30 O :   -0.185570
  31 N :   -0.257652
  32 C :    0.099708
  33 C :    0.004005
  34 C :    0.160368
  35 C :   -0.005093
  36 C :   -0.088793
  37 C :    0.112501
  38 C :   -0.060611
  39 C :   -0.028929
  40 N :    0.050320
  41 C :   -0.120590
  42 C :   -0.135566
  43 N :    0.073092
  44 C :   -0.183900
  45 N :    0.225969
  46 C :   -0.201255
  47 N :    0.231397
  48 C :    0.095678
  49 C :    0.034817
  50 C :    0.002960
  51 N :   -0.295305
  52 S :    0.548941
  53 N :   -0.259013
  54 C :    0.018813
  55 O :   -0.156741
  56 C :    0.151190
  57 C :   -0.025724
  58 C :   -0.022469
  59 C :    0.158291
  60 O :   -0.196629
  61 H :    0.024471
  62 H :    0.014183
  63 H :   -0.021389
  64 H :    0.001061
  65 H :    0.003542
  66 H :    0.029381
  67 H :   -0.012448
  68 H :    0.026445
  69 H :    0.055866
  70 H :    0.028245
  71 H :    0.030981
  72 H :    0.031727
  73 H :    0.049907
  74 H :    0.025651
  75 H :    0.028030
  76 H :    0.022138
  77 H :    0.017240
  78 H :   -0.002968
  79 H :    0.029594
  80 H :    0.018611
  81 H :    0.001451
  82 H :   -0.012570
Sum of atomic charges:    0.0000000

LOEWDIN ATOMIC CHARGES
----------------------
   0 C :    0.078632
   1 O :    0.034655
   2 C :    0.024052
   3 C :   -0.006475
   4 C :   -0.126104
   5 C :    0.105705
   6 O :   -0.125660
   7 C :   -0.016027
   8 C :   -0.031673
   9 C :    0.050419
  10 C :   -0.072479
  11 C :    0.053466
  12 C :   -0.034506
  13 N :   -0.048313
  14 C :    0.025943
  15 C :    0.018178
  16 C :   -0.041160
  17 C :    0.045637
  18 C :   -0.080924
  19 C :   -0.031679
  20 N :   -0.062388
  21 C :    0.076299
  22 N :   -0.000320
  23 C :    0.034788
  24 C :   -0.060886
  25 C :    0.081363
  26 O :   -0.177388
  27 C :   -0.109617
  28 C :   -0.103961
  29 C :    0.081580
  30 O :   -0.177449
  31 N :    0.002181
  32 C :    0.037561
  33 C :   -0.060951
  34 C :    0.076775
  35 C :   -0.024541
  36 C :    0.028224
  37 C :   -0.016431
  38 C :    0.001194
  39 C :    0.006413
  40 N :    0.009464
  41 C :   -0.018386
  42 C :   -0.020243
  43 N :    0.015196
  44 C :   -0.031188
  45 N :   -0.004798
  46 C :   -0.033344
  47 N :   -0.006225
  48 C :   -0.036015
  49 C :   -0.037613
  50 C :   -0.036829
  51 N :   -0.285181
  52 S :    0.680222
  53 N :   -0.276157
  54 C :    0.064847
  55 O :    0.050619
  56 C :    0.050176
  57 C :   -0.052651
  58 C :   -0.107160
  59 C :    0.112632
  60 O :   -0.147614
  61 H :    0.031137
  62 H :    0.044904
  63 H :   -0.005122
  64 H :    0.034815
  65 H :    0.038772
  66 H :    0.038887
  67 H :    0.034987
  68 H :    0.019806
  69 H :    0.041840
  70 H :    0.023469
  71 H :    0.034909
  72 H :    0.034090
  73 H :    0.040274
  74 H :    0.024944
  75 H :    0.031830
  76 H :    0.030369
  77 H :    0.022587
  78 H :    0.028403
  79 H :    0.039955
  80 H :    0.028251
  81 H :    0.036155
  82 H :    0.000850

  Mayer bond orders larger than 0.100000
B(  0-C ,  1-O ) :   1.1967 B(  0-C ,  4-C ) :   1.4524 B(  0-C , 61-H ) :   1.0011
B(  1-O ,  2-C ) :   1.1510 B(  2-C ,  3-C ) :   1.5110 B(  2-C ,  7-C ) :   1.0166
B(  3-C ,  4-C ) :   1.2063 B(  3-C , 62-H ) :   1.0200 B(  4-C ,  5-C ) :   0.9616
B(  5-C ,  6-O ) :   2.2073 B(  5-C , 63-H ) :   0.9604 B(  7-C ,  8-C ) :   1.5824
B(  7-C , 11-C ) :   1.0313 B(  8-C ,  9-C ) :   1.1317 B(  8-C , 64-H ) :   1.0010
B(  9-C , 10-C ) :   1.1035 B(  9-C , 14-C ) :   1.3813 B( 10-C , 11-C ) :   1.6616
B( 10-C , 12-C ) :   1.0818 B( 11-C , 65-H ) :   1.0309 B( 12-C , 13-N ) :   2.9855
B( 14-C , 15-C ) :   1.1216 B( 14-C , 18-C ) :   1.1092 B( 15-C , 16-C ) :   1.5349
B( 15-C , 66-H ) :   0.9881 B( 16-C , 17-C ) :   1.0271 B( 16-C , 21-C ) :   1.0502
B( 17-C , 18-C ) :   1.6606 B( 17-C , 67-H ) :   1.0277 B( 18-C , 19-C ) :   1.0841
B( 19-C , 20-N ) :   2.9749 B( 21-C , 22-N ) :   1.2064 B( 21-C , 28-C ) :   1.3538
B( 22-N , 23-C ) :   0.9393 B( 22-N , 25-C ) :   1.0379 B( 23-C , 24-C ) :   1.1169
B( 23-C , 68-H ) :   0.9512 B( 23-C , 69-H ) :   0.9218 B( 24-C , 70-H ) :   0.9667
B( 24-C , 71-H ) :   0.9663 B( 24-C , 72-H ) :   0.9616 B( 25-C , 26-O ) :   2.0506
B( 25-C , 27-C ) :   0.9865 B( 27-C , 28-C ) :   1.2716 B( 27-C , 34-C ) :   1.2955
B( 28-C , 29-C ) :   0.9662 B( 29-C , 30-O ) :   2.0873 B( 29-C , 31-N ) :   1.0486
B( 31-N , 32-C ) :   0.9440 B( 31-N , 34-C ) :   1.1683 B( 32-C , 33-C ) :   1.1218
B( 32-C , 73-H ) :   0.9281 B( 32-C , 74-H ) :   0.9486 B( 33-C , 75-H ) :   0.9633
B( 33-C , 76-H ) :   0.9677 B( 33-C , 77-H ) :   0.9678 B( 34-C , 35-C ) :   1.1656
B( 35-C , 36-C ) :   1.4952 B( 35-C , 78-H ) :   0.9490 B( 36-C , 37-C ) :   1.2223
B( 36-C , 79-H ) :   0.9468 B( 37-C , 38-C ) :   1.2182 B( 37-C , 48-C ) :   0.1392
B( 37-C , 50-C ) :   1.1610 B( 38-C , 39-C ) :   1.1091 B( 38-C , 43-N ) :   1.4516
B( 39-C , 40-N ) :   1.4244 B( 39-C , 48-C ) :   1.3415 B( 40-N , 41-C ) :   1.7292
B( 41-C , 42-C ) :   1.1799 B( 41-C , 46-C ) :   1.1496 B( 42-C , 43-N ) :   1.7609
B( 42-C , 44-C ) :   1.1423 B( 44-C , 45-N ) :   3.0435 B( 46-C , 47-N ) :   3.0535
B( 48-C , 49-C ) :   1.2315 B( 48-C , 54-C ) :   1.0175 B( 49-C , 50-C ) :   1.1083
B( 49-C , 53-N ) :   1.5301 B( 50-C , 51-N ) :   1.5034 B( 51-N , 52-S ) :   1.2724
B( 51-N , 53-N ) :   0.1532 B( 52-S , 53-N ) :   1.2957 B( 54-C , 55-O ) :   1.2361
B( 54-C , 58-C ) :   1.4553 B( 55-O , 56-C ) :   1.1380 B( 56-C , 57-C ) :   1.5442
B( 56-C , 80-H ) :   1.0077 B( 57-C , 58-C ) :   1.2056 B( 57-C , 81-H ) :   1.0015
B( 58-C , 59-C ) :   0.9943 B( 59-C , 60-O ) :   2.1297 B( 59-C , 82-H ) :   0.9586

-----------------------------------------------------------------------------
         ABSORPTION SPECTRUM VIA TRANSITION ELECTRIC DIPOLE MOMENTS
-----------------------------------------------------------------------------
State   Energy  Wavelength   fosc         T2         TX        TY        TZ
        (cm-1)    (nm)                  (au**2)     (au)      (au)      (au)
-----------------------------------------------------------------------------
   0    7226.7   1383.8   0.593485929  27.03634   2.26235   4.63304   0.67312
   1   10825.5    923.7   0.017773408   0.54050  -0.30131  -0.54871   0.38553
   2   15547.3    643.2   0.069044843   1.46202  -0.04900  -0.96167  -0.73130
   3   17408.7    574.4   0.167105923   3.16010   0.43254   1.70942   0.22559
   4   20079.1    498.0   0.060145998   0.98614   0.67786   0.66429  -0.29218
   5   21326.3    468.9   0.198127621   3.05848  -1.09582  -1.32633   0.31384
   6   23080.4    433.3   0.001175537   0.01677   0.02415   0.12007   0.04203
   7   23742.4    421.2   0.041763527   0.57909   0.22371  -0.67749  -0.26467
   8   23851.9    419.3   0.046183815   0.63744   0.00030  -0.62622  -0.49527
   9   24591.6    406.6   0.008458701   0.11324  -0.21320  -0.23540  -0.11121
  10   25089.6    398.6   0.004689674   0.06154  -0.03232  -0.01600   0.24543
  11   25159.7    397.5   0.231191218   3.02511  -0.47793  -1.59844  -0.49160
  12   25744.7    388.4   0.029102816   0.37215  -0.27048  -0.54650   0.01829
  13   26019.4    384.3   0.323922372   4.09844   0.08879   1.72086   1.06263
  14   26644.7    375.3   0.025400612   0.31384  -0.45665  -0.17167   0.27538
  15   27008.3    370.3   0.001644606   0.02005   0.10524   0.09455  -0.00568
  16   27395.1    365.0   0.014726601   0.17697  -0.02732  -0.37688  -0.18489
  17   27953.3    357.7   0.000292883   0.00345   0.00840   0.04439  -0.03753
  18   28581.8    349.9   0.034083888   0.39259   0.36778   0.50593   0.03682
  19   29785.9    335.7   0.251791794   2.78296  -1.36752  -0.34724   0.89009
  20   30858.8    324.1   0.000000949   0.00001   0.00278  -0.00081  -0.00132
  21   31033.6    322.2   0.036880767   0.39124   0.30956  -0.35107  -0.41493
  22   31444.7    318.0   0.471898486   4.94056  -1.02318   1.66142   1.06459
  23   31730.3    315.2   0.004107024   0.04261  -0.14122  -0.14973  -0.01582
  24   32091.5    311.6   0.107127988   1.09898   0.23221  -0.83790  -0.58564
  25   33072.5    302.4   0.119507383   1.18961  -0.04537   0.90911   0.60088
  26   33735.2    296.4   0.068528314   0.66875  -0.11752  -0.80632   0.06919
  27   33942.7    294.6   0.002755198   0.02672   0.06429   0.11601   0.09556
  28   34400.6    290.7   0.081781268   0.78264  -0.63951   0.17827   0.58471
  29   34458.3    290.2   0.111431159   1.06461  -0.23834  -0.74797  -0.66958
  30   34846.4    287.0   0.088375403   0.83493  -0.45719   0.18745   0.76862
  31   35272.5    283.5   0.011962313   0.11165  -0.18810  -0.16266   0.22318
  32   35411.2    282.4   0.034925377   0.32470   0.44356   0.28885  -0.21100
  33   35589.8    281.0   0.080015031   0.74015   0.21527  -0.59385  -0.58408
  34   35767.8    279.6   0.057398769   0.52831  -0.55310   0.00214   0.47157
  35   35785.2    279.4   0.008919593   0.08206   0.19430  -0.20425  -0.05084
  36   35789.7    279.4   0.000329166   0.00303  -0.00681   0.04836  -0.02535
  37   36096.6    277.0   0.047331362   0.43168  -0.16988  -0.63382   0.03292
  38   36321.0    275.3   0.048246118   0.43730   0.58613   0.11561  -0.28352
  39   36505.0    273.9   0.058534345   0.52788   0.61636   0.18508  -0.33723
  40   36838.3    271.5   0.170832052   1.52667  -0.89496   0.51091   0.68168
  41   37034.5    270.0   0.079189209   0.70394  -0.68382  -0.31984   0.36610
  42   37381.6    267.5   0.015150174   0.13342  -0.08342   0.29797   0.19411
  43   37791.0    264.6   0.081226818   0.70760   0.10348   0.72352   0.41643
  44   38444.9    260.1   0.021618301   0.18512  -0.04284   0.38272   0.19187
  45   38575.4    259.2   0.078084264   0.66639   0.26381   0.67637   0.37326
  46   39113.0    255.7   0.122931110   1.03470  -0.70950   0.26009   0.68093
  47   39589.8    252.6   0.008518855   0.07084  -0.08875  -0.17751  -0.17735
  48   40098.9    249.4   0.000000095   0.00000  -0.00005  -0.00088   0.00010

FINAL SINGLE POINT ENERGY     -3083.355571407824

DIPOLE MOMENT
-------------
                                X             Y             Z
Electronic contribution:    -11.62559     -28.68335      -4.21106
Nuclear contribution   :      8.11446      28.83933       6.54075
                        -----------------------------------------
Total Dipole Moment    :     -3.51113       0.15598       2.32969
                        -----------------------------------------
Magnitude (a.u.)       :      4.21661
Magnitude (Debye)      :     10.71778

Rotational constants in cm-1:     0.003441     0.000417     0.000380
Rotational constants in MHz :   103.159082    12.498633    11.382739

                             ****ORCA TERMINATED NORMALLY****
TOTAL RUN TIME: 0 days 0 hours 8 minutes 9 seconds 8 msec
