                         Program Version 4.2.0 -  RELEASE  -
|  1> # ORCA input file
|  2> # SCF done       -179.824583305989          0.000670586706
|  3> ! CAM-B3LYP def2-SVP def2/J RIJCOSX Grid4 TightSCF
|  4> %maxcore 5000
|  5> %tddft
|  6>     Mode sTDDFT
|  7>     Ethresh 5.0
|  8>     maxcore 5000
|  9> end
| 10>
| 11> %pal
| 12>   nprocs 6
| 13>   end
| 14> * xyz 0 1
| 15>    C       -0.46225        -0.45192        -0.24380
| 16>    C       -0.42555        -1.02962        -1.49015
| 17>    C       -1.75024        -1.14554        -1.97294
| 18>    O       -2.18358        -1.69890        -3.09479
| 19>    C       -1.23809        -2.23452        -3.99997
| 20>    C       -2.63785        -0.57154        -1.01655
| 21>    C       -1.80347        -0.10478         0.09338
| 22>    C       -2.18227         0.50611         1.27194
| 23>    C       -1.40558         0.57335         2.45686
| 24>    C       -2.15423         1.19704         3.42598
| 25>    O       -1.92637         1.41751         4.69860
| 26>    C       -0.79697         0.79814         5.28321
| 27>    C       -3.42372         1.64449         2.82102
| 28>    C       -3.45181         1.21129         1.55628
| 29>    C       -4.01111        -0.70479        -0.99091
| 30>    C       -4.82857        -1.26128        -1.99496
| 31>    C       -6.05540        -1.80151        -1.70776
| 32>    C       -7.17519        -2.04224        -2.55646
| 33>    N       -7.19052        -1.98522        -3.94866
| 34>    O       -8.25445        -2.17266        -4.51907
| 35>    O       -6.13534        -1.75964        -4.53284
| 36>    C       -8.29005        -2.26462        -1.74290
| 37>    C       -7.91109        -2.21903        -0.39778
| 38>    C       -6.53697        -2.02066        -0.32599
| 39>    C       -5.62128        -2.07511         0.74178
| 40>    C       -4.30245        -2.66032         0.61321
| 41>    C       -3.64292        -2.48560         1.78545
| 42>    C       -4.49840        -1.77352         2.68624
| 43>    N       -4.01028        -1.33163         3.91047
| 44>    O       -4.75669        -0.81422         4.73033
| 45>    O       -2.80230        -1.45514         4.11153
| 46>    C       -5.75050        -1.56223         2.07065
| 47>    C       -6.95052        -0.88088         2.46558
| 48>    C       -7.37671        -0.55265         3.68868
| 49>    C       -8.73298         0.07591         3.87427
| 50>    C       -9.39091        -0.11768         5.22950
| 51>    O       -9.20710         0.28779         6.32796
| 52>    C       -9.86680        -0.73222         3.25872
| 53>    O      -10.17805        -1.03099         2.15008
| 54>    C      -10.48635        -1.04480         4.63207
| 55>    C      -11.89107        -0.66207         4.85184
| 56>    S      -12.51528         0.80698         4.20515
| 57>    C      -14.08203         0.52321         4.90986
| 58>    C      -14.09165        -0.65987         5.62003
| 59>    C      -12.84425        -1.33897         5.58444
| 60>    C      -12.56005        -2.58342         6.18469
| 61>    N      -12.27318        -3.60064         6.62525
| 62>    C      -15.26834        -1.17193         6.39173
| 63>    F      -15.86669        -0.19826         7.10428
| 64>    F      -16.22122        -1.68723         5.58845
| 65>    F      -14.94780        -2.12765         7.26086
| 66>    C      -15.13781         1.46487         4.66667
| 67>    S      -16.81373         1.01747         4.63301
| 68>    C      -17.28953         2.60780         4.23935
| 69>    C      -16.22844         3.45474         4.13098
| 70>    C      -14.98317         2.81063         4.36614
| 71>    C      -13.75444         3.49625         4.32375
| 72>    N      -12.76471         4.07281         4.28755
| 73>    C      -16.33581         4.90953         3.79809
| 74>    F      -17.60700         5.28240         3.59792
| 75>    F      -15.85242         5.69192         4.77384
| 76>    F      -15.66115         5.22391         2.68176
| 77>    H        0.39408        -0.23952         0.36726
| 78>    H        0.46045        -1.35621        -2.00183
| 79>    H       -1.81577        -2.60967        -4.84245
| 80>    H       -0.67858        -3.05493        -3.54268
| 81>    H       -0.54262        -1.46494        -4.34455
| 82>    H       -0.45345         0.10219         2.59009
| 83>    H       -0.81102         1.07139         6.33605
| 84>    H        0.12791         1.14790         4.81680
| 85>    H       -0.88201        -0.28629         5.17373
| 86>    H       -4.16626         2.19845         3.36138
| 87>    H       -4.21127         1.42384         0.82987
| 88>    H       -4.52233        -0.29664        -0.13206
| 89>    H       -4.50472        -1.23269        -3.02733
| 90>    H       -9.28196        -2.44904        -2.11260
| 91>    H       -8.56825        -2.40985         0.42928
| 92>    H       -3.97948        -3.24101        -0.22919
| 93>    H       -2.65473        -2.81401         2.04099
| 94>    H       -7.60735        -0.66729         1.63038
| 95>    H       -6.80632        -0.73539         4.58372
| 96>    H       -8.70822         1.12220         3.55379
| 97>    H      -10.32500        -2.08511         4.93419
| 98>    H      -18.32618         2.84900         4.10786
| 99> *
|100>
|101>                          ****END OF INPUT****

CARTESIAN COORDINATES (ANGSTROEM)
---------------------------------
  C     -0.462250   -0.451920   -0.243800
  C     -0.425550   -1.029620   -1.490150
  C     -1.750240   -1.145540   -1.972940
  O     -2.183580   -1.698900   -3.094790
  C     -1.238090   -2.234520   -3.999970
  C     -2.637850   -0.571540   -1.016550
  C     -1.803470   -0.104780    0.093380
  C     -2.182270    0.506110    1.271940
  C     -1.405580    0.573350    2.456860
  C     -2.154230    1.197040    3.425980
  O     -1.926370    1.417510    4.698600
  C     -0.796970    0.798140    5.283210
  C     -3.423720    1.644490    2.821020
  C     -3.451810    1.211290    1.556280
  C     -4.011110   -0.704790   -0.990910
  C     -4.828570   -1.261280   -1.994960
  C     -6.055400   -1.801510   -1.707760
  C     -7.175190   -2.042240   -2.556460
  N     -7.190520   -1.985220   -3.948660
  O     -8.254450   -2.172660   -4.519070
  O     -6.135340   -1.759640   -4.532840
  C     -8.290050   -2.264620   -1.742900
  C     -7.911090   -2.219030   -0.397780
  C     -6.536970   -2.020660   -0.325990
  C     -5.621280   -2.075110    0.741780
  C     -4.302450   -2.660320    0.613210
  C     -3.642920   -2.485600    1.785450
  C     -4.498400   -1.773520    2.686240
  N     -4.010280   -1.331630    3.910470
  O     -4.756690   -0.814220    4.730330
  O     -2.802300   -1.455140    4.111530
  C     -5.750500   -1.562230    2.070650
  C     -6.950520   -0.880880    2.465580
  C     -7.376710   -0.552650    3.688680
  C     -8.732980    0.075910    3.874270
  C     -9.390910   -0.117680    5.229500
  O     -9.207100    0.287790    6.327960
  C     -9.866800   -0.732220    3.258720
  O    -10.178050   -1.030990    2.150080
  C    -10.486350   -1.044800    4.632070
  C    -11.891070   -0.662070    4.851840
  S    -12.515280    0.806980    4.205150
  C    -14.082030    0.523210    4.909860
  C    -14.091650   -0.659870    5.620030
  C    -12.844250   -1.338970    5.584440
  C    -12.560050   -2.583420    6.184690
  N    -12.273180   -3.600640    6.625250
  C    -15.268340   -1.171930    6.391730
  F    -15.866690   -0.198260    7.104280
  F    -16.221220   -1.687230    5.588450
  F    -14.947800   -2.127650    7.260860
  C    -15.137810    1.464870    4.666670
  S    -16.813730    1.017470    4.633010
  C    -17.289530    2.607800    4.239350
  C    -16.228440    3.454740    4.130980
  C    -14.983170    2.810630    4.366140
  C    -13.754440    3.496250    4.323750
  N    -12.764710    4.072810    4.287550
  C    -16.335810    4.909530    3.798090
  F    -17.607000    5.282400    3.597920
  F    -15.852420    5.691920    4.773840
  F    -15.661150    5.223910    2.681760
  H      0.394080   -0.239520    0.367260
  H      0.460450   -1.356210   -2.001830
  H     -1.815770   -2.609670   -4.842450
  H     -0.678580   -3.054930   -3.542680
  H     -0.542620   -1.464940   -4.344550
  H     -0.453450    0.102190    2.590090
  H     -0.811020    1.071390    6.336050
  H      0.127910    1.147900    4.816800
  H     -0.882010   -0.286290    5.173730
  H     -4.166260    2.198450    3.361380
  H     -4.211270    1.423840    0.829870
  H     -4.522330   -0.296640   -0.132060
  H     -4.504720   -1.232690   -3.027330
  H     -9.281960   -2.449040   -2.112600
  H     -8.568250   -2.409850    0.429280
  H     -3.979480   -3.241010   -0.229190
  H     -2.654730   -2.814010    2.040990
  H     -7.607350   -0.667290    1.630380
  H     -6.806320   -0.735390    4.583720
  H     -8.708220    1.122200    3.553790
  H    -10.325000   -2.085110    4.934190
  H    -18.326180    2.849000    4.107860

 Total Charge           Charge          ....    0
 Multiplicity           Mult            ....    1
 Number of Electrons    NEL             ....  452
 Basis Dimension        Dim             ....  986

ORBITAL ENERGIES
----------------

  NO   OCC          E(Eh)            E(eV)
   0   2.0000     -89.002655     -2421.8854
   1   2.0000     -89.001650     -2421.8580
   2   2.0000     -24.817430      -675.3166
   3   2.0000     -24.813973      -675.2225
   4   2.0000     -24.813234      -675.2024
   5   2.0000     -24.809889      -675.1114
   6   2.0000     -24.804490      -674.9645
   7   2.0000     -24.804304      -674.9594
   8   2.0000     -19.298499      -525.1389
   9   2.0000     -19.281240      -524.6692
  10   2.0000     -19.244839      -523.6787
  11   2.0000     -19.240216      -523.5529
  12   2.0000     -19.223056      -523.0859
  13   2.0000     -19.220990      -523.0297
  14   2.0000     -19.207042      -522.6502
  15   2.0000     -19.205889      -522.6188
  16   2.0000     -14.628991      -398.0751
  17   2.0000     -14.617507      -397.7626
  18   2.0000     -14.426178      -392.5563
  19   2.0000     -14.417106      -392.3094
  20   2.0000     -10.539985      -286.8076
  21   2.0000     -10.530948      -286.5617
  22   2.0000     -10.386594      -282.6336
  23   2.0000     -10.383106      -282.5387
  24   2.0000     -10.378985      -282.4265
  25   2.0000     -10.363958      -282.0176
  26   2.0000     -10.360157      -281.9142
  27   2.0000     -10.358839      -281.8783
  28   2.0000     -10.353769      -281.7404
  29   2.0000     -10.353690      -281.7382
  30   2.0000     -10.345050      -281.5031
  31   2.0000     -10.340950      -281.3915
  32   2.0000     -10.338902      -281.3358
  33   2.0000     -10.335366      -281.2396
  34   2.0000     -10.331406      -281.1319
  35   2.0000     -10.327495      -281.0254
  36   2.0000     -10.326528      -280.9991
  37   2.0000     -10.326380      -280.9951
  38   2.0000     -10.325430      -280.9692
  39   2.0000     -10.318249      -280.7738
  40   2.0000     -10.314589      -280.6742
  41   2.0000     -10.312881      -280.6278
  42   2.0000     -10.304622      -280.4030
  43   2.0000     -10.303403      -280.3699
  44   2.0000     -10.301787      -280.3259
  45   2.0000     -10.301514      -280.3184
  46   2.0000     -10.299166      -280.2545
  47   2.0000     -10.297721      -280.2152
  48   2.0000     -10.296944      -280.1941
  49   2.0000     -10.295417      -280.1525
  50   2.0000     -10.295075      -280.1432
  51   2.0000     -10.294337      -280.1232
  52   2.0000     -10.291623      -280.0493
  53   2.0000     -10.291092      -280.0348
  54   2.0000     -10.283195      -279.8200
  55   2.0000     -10.282586      -279.8034
  56   2.0000     -10.277002      -279.6515
  57   2.0000     -10.274820      -279.5921
  58   2.0000     -10.263946      -279.2962
  59   2.0000     -10.260900      -279.2133
  60   2.0000     -10.260758      -279.2094
  61   2.0000     -10.254622      -279.0424
  62   2.0000      -8.097691      -220.3494
  63   2.0000      -8.097153      -220.3347
  64   2.0000      -6.066901      -165.0888
  65   2.0000      -6.066454      -165.0766
  66   2.0000      -6.062564      -164.9707
  67   2.0000      -6.061826      -164.9507
  68   2.0000      -6.060022      -164.9016
  69   2.0000      -6.059508      -164.8876
  70   2.0000      -1.406869       -38.2829
  71   2.0000      -1.397373       -38.0245
  72   2.0000      -1.310317       -35.6555
  73   2.0000      -1.304851       -35.5068
  74   2.0000      -1.301018       -35.4025
  75   2.0000      -1.297585       -35.3091
  76   2.0000      -1.296898       -35.2904
  77   2.0000      -1.284182       -34.9444
  78   2.0000      -1.203763       -32.7561
  79   2.0000      -1.188675       -32.3455
  80   2.0000      -1.163462       -31.6594
  81   2.0000      -1.156510       -31.4702
  82   2.0000      -1.112131       -30.2626
  83   2.0000      -1.101107       -29.9626
  84   2.0000      -1.049564       -28.5601
  85   2.0000      -1.029928       -28.0258
  86   2.0000      -1.005824       -27.3699
  87   2.0000      -1.005518       -27.3615
  88   2.0000      -0.998261       -27.1641
  89   2.0000      -0.993465       -27.0336
  90   2.0000      -0.977963       -26.6117
  91   2.0000      -0.975424       -26.5426
  92   2.0000      -0.969178       -26.3727
  93   2.0000      -0.921151       -25.0658
  94   2.0000      -0.917679       -24.9713
  95   2.0000      -0.910224       -24.7684
  96   2.0000      -0.901540       -24.5322
  97   2.0000      -0.886705       -24.1285
  98   2.0000      -0.880268       -23.9533
  99   2.0000      -0.873519       -23.7697
 100   2.0000      -0.863925       -23.5086
 101   2.0000      -0.859169       -23.3792
 102   2.0000      -0.856044       -23.2942
 103   2.0000      -0.835049       -22.7228
 104   2.0000      -0.826718       -22.4962
 105   2.0000      -0.825629       -22.4665
 106   2.0000      -0.805477       -21.9182
 107   2.0000      -0.803404       -21.8617
 108   2.0000      -0.792999       -21.5786
 109   2.0000      -0.779625       -21.2147
 110   2.0000      -0.767070       -20.8730
 111   2.0000      -0.758140       -20.6300
 112   2.0000      -0.751135       -20.4394
 113   2.0000      -0.750717       -20.4281
 114   2.0000      -0.726502       -19.7691
 115   2.0000      -0.718660       -19.5557
 116   2.0000      -0.712514       -19.3885
 117   2.0000      -0.709727       -19.3127
 118   2.0000      -0.706261       -19.2183
 119   2.0000      -0.702781       -19.1236
 120   2.0000      -0.688639       -18.7388
 121   2.0000      -0.687540       -18.7089
 122   2.0000      -0.684165       -18.6171
 123   2.0000      -0.681464       -18.5436
 124   2.0000      -0.678974       -18.4758
 125   2.0000      -0.673122       -18.3166
 126   2.0000      -0.672809       -18.3081
 127   2.0000      -0.654415       -17.8075
 128   2.0000      -0.653912       -17.7938
 129   2.0000      -0.650578       -17.7031
 130   2.0000      -0.644376       -17.5344
 131   2.0000      -0.641869       -17.4661
 132   2.0000      -0.632060       -17.1992
 133   2.0000      -0.628700       -17.1078
 134   2.0000      -0.620466       -16.8837
 135   2.0000      -0.616000       -16.7622
 136   2.0000      -0.613593       -16.6967
 137   2.0000      -0.609915       -16.5966
 138   2.0000      -0.606524       -16.5044
 139   2.0000      -0.600539       -16.3415
 140   2.0000      -0.598765       -16.2932
 141   2.0000      -0.594404       -16.1746
 142   2.0000      -0.593655       -16.1542
 143   2.0000      -0.592397       -16.1199
 144   2.0000      -0.584046       -15.8927
 145   2.0000      -0.578008       -15.7284
 146   2.0000      -0.573364       -15.6020
 147   2.0000      -0.570554       -15.5256
 148   2.0000      -0.568085       -15.4584
 149   2.0000      -0.564030       -15.3480
 150   2.0000      -0.562198       -15.2982
 151   2.0000      -0.561218       -15.2715
 152   2.0000      -0.560032       -15.2392
 153   2.0000      -0.559393       -15.2219
 154   2.0000      -0.557293       -15.1647
 155   2.0000      -0.556520       -15.1437
 156   2.0000      -0.550497       -14.9798
 157   2.0000      -0.549999       -14.9662
 158   2.0000      -0.543627       -14.7928
 159   2.0000      -0.541993       -14.7484
 160   2.0000      -0.538740       -14.6599
 161   2.0000      -0.532967       -14.5028
 162   2.0000      -0.531573       -14.4648
 163   2.0000      -0.526605       -14.3296
 164   2.0000      -0.524740       -14.2789
 165   2.0000      -0.519242       -14.1293
 166   2.0000      -0.518638       -14.1129
 167   2.0000      -0.518020       -14.0960
 168   2.0000      -0.515638       -14.0312
 169   2.0000      -0.514002       -13.9867
 170   2.0000      -0.511933       -13.9304
 171   2.0000      -0.509190       -13.8558
 172   2.0000      -0.506378       -13.7792
 173   2.0000      -0.505311       -13.7502
 174   2.0000      -0.502648       -13.6777
 175   2.0000      -0.501171       -13.6376
 176   2.0000      -0.500938       -13.6312
 177   2.0000      -0.495856       -13.4929
 178   2.0000      -0.491727       -13.3806
 179   2.0000      -0.491123       -13.3641
 180   2.0000      -0.489941       -13.3320
 181   2.0000      -0.488032       -13.2800
 182   2.0000      -0.482849       -13.1390
 183   2.0000      -0.478046       -13.0083
 184   2.0000      -0.477488       -12.9931
 185   2.0000      -0.475804       -12.9473
 186   2.0000      -0.471292       -12.8245
 187   2.0000      -0.469083       -12.7644
 188   2.0000      -0.466073       -12.6825
 189   2.0000      -0.459113       -12.4931
 190   2.0000      -0.457095       -12.4382
 191   2.0000      -0.454776       -12.3751
 192   2.0000      -0.452345       -12.3089
 193   2.0000      -0.450725       -12.2648
 194   2.0000      -0.450166       -12.2496
 195   2.0000      -0.447316       -12.1721
 196   2.0000      -0.446788       -12.1577
 197   2.0000      -0.444364       -12.0918
 198   2.0000      -0.439022       -11.9464
 199   2.0000      -0.436051       -11.8655
 200   2.0000      -0.433060       -11.7842
 201   2.0000      -0.426372       -11.6022
 202   2.0000      -0.424261       -11.5447
 203   2.0000      -0.419264       -11.4088
 204   2.0000      -0.417995       -11.3742
 205   2.0000      -0.405209       -11.0263
 206   2.0000      -0.389971       -10.6117
 207   2.0000      -0.386454       -10.5159
 208   2.0000      -0.374303       -10.1853
 209   2.0000      -0.372119       -10.1259
 210   2.0000      -0.365542        -9.9469
 211   2.0000      -0.357821        -9.7368
 212   2.0000      -0.357191        -9.7197
 213   2.0000      -0.356172        -9.6919
 214   2.0000      -0.351212        -9.5570
 215   2.0000      -0.349380        -9.5071
 216   2.0000      -0.342147        -9.3103
 217   2.0000      -0.336235        -9.1494
 218   2.0000      -0.335552        -9.1308
 219   2.0000      -0.327487        -8.9114
 220   2.0000      -0.318504        -8.6669
 221   2.0000      -0.309695        -8.4272
 222   2.0000      -0.303025        -8.2457
 223   2.0000      -0.281997        -7.6735
 224   2.0000      -0.263148        -7.1606
 225   2.0000      -0.243486        -6.6256
 226   0.0000      -0.113203        -3.0804
 227   0.0000      -0.098986        -2.6935
 228   0.0000      -0.072419        -1.9706
 229   0.0000      -0.041363        -1.1255
 230   0.0000      -0.032109        -0.8737

MULLIKEN ATOMIC CHARGES
-----------------------
   0 C :    0.030065
   1 C :   -0.070201
   2 C :    0.168799
   3 O :   -0.256322
   4 C :    0.168499
   5 C :    0.048230
   6 C :    0.052639
   7 C :    0.065761
   8 C :   -0.147025
   9 C :    0.212180
  10 O :   -0.234925
  11 C :    0.164223
  12 C :    0.022193
  13 C :    0.016986
  14 C :    0.020339
  15 C :   -0.045185
  16 C :    0.028493
  17 C :    0.082166
  18 N :    0.283374
  19 O :   -0.276310
  20 O :   -0.292106
  21 C :    0.015997
  22 C :   -0.034053
  23 C :    0.073794
  24 C :   -0.110915
  25 C :    0.035551
  26 C :   -0.013312
  27 C :    0.032952
  28 N :    0.283880
  29 O :   -0.263983
  30 O :   -0.279714
  31 C :    0.096283
  32 C :   -0.027574
  33 C :   -0.070473
  34 C :   -0.040751
  35 C :    0.090835
  36 O :   -0.091034
  37 C :    0.072719
  38 O :   -0.110227
  39 C :   -0.089779
  40 C :   -0.074874
  41 S :    0.212762
  42 C :   -0.155822
  43 C :   -0.033801
  44 C :   -0.030132
  45 C :   -0.250014
  46 N :    0.173518
  47 C :    0.522041
  48 F :   -0.160728
  49 F :   -0.161868
  50 F :   -0.127767
  51 C :   -0.080656
  52 S :    0.212099
  53 C :   -0.094614
  54 C :   -0.060171
  55 C :   -0.013060
  56 C :   -0.258252
  57 N :    0.179245
  58 C :    0.536164
  59 F :   -0.154342
  60 F :   -0.153080
  61 F :   -0.154546
  62 H :   -0.001283
  63 H :   -0.014795
  64 H :    0.066039
  65 H :    0.039310
  66 H :    0.040004
  67 H :   -0.030471
  68 H :    0.048968
  69 H :    0.026618
  70 H :    0.059886
  71 H :    0.004476
  72 H :    0.005881
  73 H :    0.033920
  74 H :    0.035839
  75 H :    0.001056
  76 H :   -0.015683
  77 H :   -0.020412
  78 H :   -0.030857
  79 H :    0.001550
  80 H :    0.041985
  81 H :    0.084107
  82 H :    0.084344
  83 H :    0.055347
Sum of atomic charges:   -0.0000000

LOEWDIN ATOMIC CHARGES
----------------------
   0 C :    0.048298
   1 C :   -0.076613
   2 C :    0.099644
   3 O :   -0.040039
   4 C :    0.088498
   5 C :   -0.086006
   6 C :   -0.028190
   7 C :    0.078785
   8 C :   -0.142504
   9 C :    0.093601
  10 O :   -0.028154
  11 C :    0.087653
  12 C :    0.004307
  13 C :   -0.013995
  14 C :    0.094013
  15 C :    0.007727
  16 C :    0.026891
  17 C :   -0.113306
  18 N :    0.289042
  19 O :   -0.240300
  20 O :   -0.254863
  21 C :    0.064527
  22 C :   -0.074901
  23 C :    0.026251
  24 C :   -0.029860
  25 C :   -0.036252
  26 C :   -0.056766
  27 C :   -0.057554
  28 N :    0.293997
  29 O :   -0.222833
  30 O :   -0.239755
  31 C :   -0.036733
  32 C :   -0.024431
  33 C :   -0.022609
  34 C :   -0.085132
  35 C :    0.092505
  36 O :   -0.076676
  37 C :    0.089218
  38 O :   -0.092635
  39 C :   -0.098568
  40 C :   -0.121782
  41 S :    0.530864
  42 C :   -0.165460
  43 C :   -0.095368
  44 C :   -0.092268
  45 C :   -0.043499
  46 N :   -0.034748
  47 C :    0.162291
  48 F :   -0.062346
  49 F :   -0.065396
  50 F :   -0.024827
  51 C :   -0.164659
  52 S :    0.524434
  53 C :   -0.150866
  54 C :   -0.101294
  55 C :   -0.091125
  56 C :   -0.059254
  57 N :   -0.027219
  58 C :    0.167059
  59 F :   -0.053929
  60 F :   -0.052706
  61 F :   -0.053894
  62 H :    0.033884
  63 H :    0.029480
  64 H :    0.041129
  65 H :    0.024451
  66 H :    0.024936
  67 H :    0.019817
  68 H :    0.033529
  69 H :    0.018640
  70 H :    0.029891
  71 H :    0.037831
  72 H :    0.030141
  73 H :    0.046192
  74 H :    0.043413
  75 H :    0.038908
  76 H :    0.026647
  77 H :    0.022699
  78 H :    0.023221
  79 H :    0.033021
  80 H :    0.027247
  81 H :    0.067437
  82 H :    0.076884
  83 H :    0.040310

  Mayer bond orders larger than 0.100000
B(  0-C ,  1-C ) :   1.4257 B(  0-C ,  6-C ) :   1.2056 B(  0-C , 62-H ) :   1.0080
B(  1-C ,  2-C ) :   1.2097 B(  1-C , 63-H ) :   1.0173 B(  2-C ,  3-O ) :   1.2508
B(  2-C ,  5-C ) :   1.2480 B(  3-O ,  4-C ) :   0.9228 B(  4-C , 64-H ) :   0.9799
B(  4-C , 65-H ) :   0.9721 B(  4-C , 66-H ) :   0.9719 B(  5-C ,  6-C ) :   1.0478
B(  5-C , 14-C ) :   1.4242 B(  6-C ,  7-C ) :   1.4473 B(  7-C ,  8-C ) :   1.1873
B(  7-C , 13-C ) :   1.0127 B(  8-C ,  9-C ) :   1.4449 B(  8-C , 67-H ) :   1.0106
B(  9-C , 10-O ) :   1.2797 B(  9-C , 12-C ) :   1.0461 B( 10-O , 11-C ) :   0.9225
B( 11-C , 68-H ) :   0.9808 B( 11-C , 69-H ) :   0.9680 B( 11-C , 70-H ) :   0.9653
B( 12-C , 13-C ) :   1.7223 B( 12-C , 71-H ) :   1.0169 B( 13-C , 72-H ) :   0.9994
B( 14-C , 15-C ) :   1.1684 B( 14-C , 25-C ) :   0.1433 B( 14-C , 73-H ) :   0.9138
B( 15-C , 16-C ) :   1.5359 B( 15-C , 74-H ) :   0.9583 B( 16-C , 17-C ) :   1.1575
B( 16-C , 23-C ) :   1.0248 B( 17-C , 18-N ) :   0.9900 B( 17-C , 21-C ) :   1.3752
B( 18-N , 19-O ) :   1.5159 B( 18-N , 20-O ) :   1.4747 B( 19-O , 20-O ) :   0.2352
B( 21-C , 22-C ) :   1.2439 B( 21-C , 75-H ) :   1.0099 B( 22-C , 23-C ) :   1.4183
B( 22-C , 76-H ) :   1.0149 B( 23-C , 24-C ) :   1.1501 B( 24-C , 25-C ) :   1.1369
B( 24-C , 31-C ) :   1.2541 B( 25-C , 26-C ) :   1.4962 B( 25-C , 77-H ) :   0.9896
B( 26-C , 27-C ) :   1.2296 B( 26-C , 78-H ) :   1.0135 B( 27-C , 28-N ) :   0.9904
B( 27-C , 31-C ) :   1.3104 B( 28-N , 29-O ) :   1.4677 B( 28-N , 30-O ) :   1.4721
B( 29-O , 30-O ) :   0.2259 B( 31-C , 32-C ) :   1.1120 B( 32-C , 33-C ) :   1.8037
B( 32-C , 79-H ) :   0.9372 B( 33-C , 34-C ) :   0.9632 B( 33-C , 80-H ) :   0.9655
B( 34-C , 35-C ) :   0.9278 B( 34-C , 37-C ) :   0.9383 B( 34-C , 39-C ) :  -0.1073
B( 34-C , 81-H ) :   0.8602 B( 35-C , 36-O ) :   2.3261 B( 35-C , 39-C ) :   0.8713
B( 37-C , 38-O ) :   2.2552 B( 37-C , 39-C ) :   0.8895 B( 39-C , 40-C ) :   1.0982
B( 39-C , 82-H ) :   0.8480 B( 40-C , 41-S ) :   1.1691 B( 40-C , 44-C ) :   1.5550
B( 41-S , 42-C ) :   1.1752 B( 42-C , 43-C ) :   1.5452 B( 42-C , 51-C ) :   1.0877
B( 43-C , 44-C ) :   1.2839 B( 43-C , 47-C ) :   0.9316 B( 44-C , 45-C ) :   1.1067
B( 45-C , 46-N ) :   3.0173 B( 47-C , 48-F ) :   1.1623 B( 47-C , 49-F ) :   1.1634
B( 47-C , 50-F ) :   1.1875 B( 51-C , 52-S ) :   1.1857 B( 51-C , 55-C ) :   1.5097
B( 52-S , 53-C ) :   1.1875 B( 53-C , 54-C ) :   1.5796 B( 53-C , 83-H ) :   0.9691
B( 54-C , 55-C ) :   1.2705 B( 54-C , 58-C ) :   0.9417 B( 55-C , 56-C ) :   1.1191
B( 56-C , 57-N ) :   3.0119 B( 58-C , 59-F ) :   1.1777 B( 58-C , 60-F ) :   1.1772
B( 58-C , 61-F ) :   1.1762

-----------------------------------------------------------------------------
         ABSORPTION SPECTRUM VIA TRANSITION ELECTRIC DIPOLE MOMENTS
-----------------------------------------------------------------------------
State   Energy  Wavelength   fosc         T2         TX        TY        TZ
        (cm-1)    (nm)                  (au**2)     (au)      (au)      (au)
-----------------------------------------------------------------------------
   0    9575.1   1044.4   0.058401589   2.00798   0.95856   0.28707  -1.00336
   1   12279.8    814.3   0.017291503   0.46357   0.54397  -0.08775   0.39996
   2   13916.7    718.6   0.091782948   2.17121  -0.84885  -0.50499   1.09346
   3   15318.9    652.8   0.031978149   0.68723  -0.21569   0.55567   0.57614
   4   17256.2    579.5   0.114750244   2.18919  -0.42010  -0.71716  -1.22409
   5   20124.7    496.9   0.045571214   0.74548   0.28576   0.25419   0.77408
   6   24447.9    409.0   0.031794171   0.42814   0.36754   0.46688   0.27400
   7   25409.5    393.6   0.121217914   1.57053   0.71470   0.03625  -1.02880
   8   26027.5    384.2   0.306541067   3.87732   1.34831   0.14607   1.42760
   9   26415.6    378.6   0.001784233   0.02224   0.13343  -0.05843  -0.03192
  10   26543.0    376.7   0.173806495   2.15572  -0.19482   0.30925   1.42201
  11   27530.2    363.2   0.019840260   0.23725  -0.45846  -0.05247  -0.15594
  12   28402.9    352.1   0.085969435   0.99645   0.14005  -0.57691  -0.80251
  13   28680.7    348.7   0.108300524   1.24313   0.38253   0.65656   0.81592
  14   28913.8    345.9   0.727143047   8.27925  -2.03567  -0.70474  -1.90752
  15   29345.2    340.8   0.101837888   1.14248  -0.98465   0.12811   0.39563
  16   29606.2    337.8   0.016460109   0.18303   0.21990   0.19165   0.31296
  17   30177.0    331.4   0.002077910   0.02267  -0.11215   0.06963   0.07241
  18   30556.2    327.3   0.033723655   0.36334   0.47948  -0.34365   0.12387
  19   30613.8    326.7   0.023726456   0.25515   0.30956  -0.16830   0.36193
  20   30788.0    324.8   0.007513586   0.08034   0.09825  -0.26455   0.02651
  21   31573.5    316.7   0.642080089   6.69487   2.19753  -1.34701   0.22650
  22   31822.1    314.2   0.061542937   0.63669  -0.48389  -0.47000  -0.42619
  23   32386.3    308.8   0.289964264   2.94753  -0.94510   0.36097   1.38709
  24   32635.9    306.4   0.112417919   1.13401  -0.72553   0.00513  -0.77948
  25   32930.4    303.7   0.002076297   0.02076  -0.11151  -0.08191   0.04017
  26   33213.6    301.1   0.060482115   0.59950  -0.70523  -0.07240   0.31129
  27   33533.0    298.2   0.003858806   0.03788  -0.09365   0.15515  -0.07099
  28   33581.5    297.8   0.065967244   0.64670   0.18323  -0.26252  -0.73771
  29   33891.9    295.1   0.051586207   0.50109  -0.09805  -0.26788  -0.64786
  30   34305.6    291.5   0.016195195   0.15542  -0.14223  -0.07362   0.36023
  31   34482.0    290.0   0.039426026   0.37641  -0.31524  -0.09634  -0.51745
  32   34667.9    288.5   0.016796886   0.15951  -0.15365   0.00011  -0.36864
  33   34936.7    286.2   0.072615267   0.68426   0.80979  -0.15766  -0.06035
  34   36337.1    275.2   0.001670406   0.01513   0.05132  -0.01373   0.11096
  35   36418.6    274.6   0.026959479   0.24370  -0.09358  -0.23353  -0.42475
  36   36802.3    271.7   0.000191390   0.00171   0.01822  -0.00249   0.03707
  37   37327.2    267.9   0.001704254   0.01503  -0.09438  -0.02839  -0.07292
  38   37619.9    265.8   0.027974671   0.24481   0.16575   0.07774   0.45966
  39   37773.3    264.7   0.002025932   0.01766   0.06662  -0.11061  -0.03139
  40   38283.9    261.2   0.003839846   0.03302  -0.18015  -0.01886  -0.01454
  41   38849.8    257.4   0.195917485   1.66020   0.84359   0.12501  -0.96589
  42   39024.4    256.2   0.016856151   0.14220  -0.30257  -0.03559   0.22222
  43   39259.0    254.7   0.034613201   0.29025  -0.45335  -0.07318   0.28173
  44   39620.8    252.4   0.004510766   0.03748   0.18989  -0.02100   0.03131
  45   39907.5    250.6   0.001783100   0.01471   0.10609   0.04314  -0.03991
  46   40260.1    248.4   0.031864243   0.26056   0.09601   0.34667  -0.36216

FINAL SINGLE POINT ENERGY     -3825.667158171259

DIPOLE MOMENT
-------------
                                X             Y             Z
Electronic contribution:   -128.81613      25.42256      43.53336
Nuclear contribution   :    132.29987     -24.96117     -44.52394
                        -----------------------------------------
Total Dipole Moment    :      3.48374       0.46139      -0.99058
                        -----------------------------------------
Magnitude (a.u.)       :      3.65111
Magnitude (Debye)      :      9.28037

Rotational constants in cm-1:     0.001930     0.000487     0.000460
Rotational constants in MHz :    57.845254    14.594083    13.777403

                             ****ORCA TERMINATED NORMALLY****
TOTAL RUN TIME: 0 days 0 hours 8 minutes 37 seconds 533 msec
