                         Program Version 4.2.0 -  RELEASE  -
|  1> # ORCA input file
|  2> # SCF done       -201.137411515826          0.000738997635
|  3> ! CAM-B3LYP def2-SVP def2/J RIJCOSX Grid4 TightSCF
|  4> %maxcore 5000
|  5> %tddft
|  6>     Mode sTDDFT
|  7>     Ethresh 5.0
|  8>     maxcore 5000
|  9> end
| 10>
| 11> %pal
| 12>   nprocs 6
| 13>   end
| 14> * xyz 0 1
| 15>    C       -2.88493        -1.29998        -0.13068
| 16>    C       -3.42810        -2.53024        -0.39160
| 17>    C       -2.67391        -3.71370        -0.52980
| 18>    N       -2.10962        -4.70600        -0.65333
| 19>    C       -4.80278        -2.76575        -0.60697
| 20>    N       -5.89846        -3.02802        -0.82722
| 21>    C       -1.46612        -0.99027        -0.02795
| 22>    C       -1.31421         0.41586         0.07136
| 23>    C       -0.08441         1.01962         0.17862
| 24>    C        1.04833         0.20038         0.18300
| 25>    C        0.88625        -1.20277         0.08697
| 26>    C       -0.35705        -1.81503        -0.01793
| 27>    S        2.41902        -2.01580         0.12284
| 28>    C        3.24624        -0.50287         0.26002
| 29>    C        2.42063         0.56610         0.27976
| 30>    C       -2.63913         1.06087         0.07062
| 31>    O       -2.86293         2.24141         0.23426
| 32>    C       -3.62120        -0.05395        -0.02806
| 33>    C       -4.95913         0.08647         0.16526
| 34>    C       -5.65566         1.33168         0.07238
| 35>    C       -6.71389         1.64375         0.94789
| 36>    C       -7.35858         2.93446         0.93000
| 37>    N       -8.36441         3.18290         1.78571
| 38>    C       -8.71304         2.26465         2.65161
| 39>    C       -8.03650         0.99988         2.69964
| 40>    N       -7.07469         0.72024         1.85778
| 41>    C       -8.42138         0.03466         3.66408
| 42>    N       -8.75873        -0.71158         4.46494
| 43>    C       -9.77973         2.53234         3.54528
| 44>    N      -10.62984         2.72384         4.28908
| 45>    C       -6.98779         3.94359         0.01216
| 46>    C       -6.02252         3.57763        -0.94438
| 47>    C       -5.35842         2.29358        -0.90986
| 48>    N       -4.49300         2.15292        -1.91404
| 49>    S       -4.46782         3.50544        -2.76955
| 50>    N       -5.56786         4.33236        -1.95187
| 51>    C       -7.54378         5.28207         0.05956
| 52>    C       -7.77275         5.98568        -1.13349
| 53>    C       -8.26000         7.26553        -1.07581
| 54>    C       -8.51229         7.88536         0.16213
| 55>    C       -8.29530         7.19415         1.34660
| 56>    C       -7.82046         5.90065         1.28699
| 57>    C       -8.96732         9.23420        -0.08447
| 58>    C       -9.01629         9.44380        -1.47484
| 59>    C       -8.58397         8.20078        -2.21656
| 60>    C       -7.34577         8.46627        -3.09263
| 61>    C       -6.15903         8.99276        -2.29485
| 62>    C       -9.72357         7.64133        -3.08898
| 63>    C      -10.99260         7.35663        -2.29467
| 64>    C       -9.41425        10.65510        -1.98256
| 65>    C       -9.74084        11.70418        -1.10832
| 66>    C       -9.68994        11.47766         0.27426
| 67>    C       -9.31577        10.25477         0.79044
| 68>    C      -10.11315        12.98289        -1.66680
| 69>    C      -10.04903        14.16327        -1.02006
| 70>    C      -10.39461        15.42628        -1.58737
| 71>    S       -9.91438        16.88247        -0.73823
| 72>    C      -10.61160        17.88212        -1.97723
| 73>    C      -11.21071        17.09491        -2.98425
| 74>    C      -11.06947        15.71562        -2.74784
| 75>    C      -11.84894        17.77705        -4.04420
| 76>    C      -11.82978        19.17561        -4.05000
| 77>    S      -12.66802        19.79906        -5.43999
| 78>    C      -13.03282        18.19974        -5.97837
| 79>    C      -12.54596        17.24032        -5.16215
| 80>    C      -11.18888        19.95866        -3.05616
| 81>    C      -10.58860        19.26432        -2.00247
| 82>    C      -11.19526        21.37817        -3.18448
| 83>    C      -10.49384        22.32459        -2.49546
| 84>    C      -10.57815        23.72490        -2.75264
| 85>    C       -9.75499        24.49391        -1.99841
| 86>    C       -8.95740        23.75857        -1.08446
| 87>    S       -9.31516        22.04720        -1.22006
| 88>    C       -8.02170        24.23382        -0.19938
| 89>    C       -7.63580        25.58889         0.00948
| 90>    C       -6.67654        25.75632         0.94514
| 91>    C       -6.22397        24.53860         1.55632
| 92>    S       -7.10787        23.17367         0.85523
| 93>    C       -5.28892        24.39439         2.50464
| 94>    H       -0.00034         2.09267         0.25569
| 95>    H       -0.43113        -2.88812        -0.07910
| 96>    H        4.31728        -0.50824         0.31951
| 97>    H        2.75559         1.58436         0.36138
| 98>    H       -5.56056        -0.76601         0.45452
| 99>    H       -7.57615         5.50630        -2.07873
|100>    H       -8.48248         7.66194         2.30123
|101>    H       -7.62193         5.36571         2.20177
|102>    H       -7.61348         9.18915        -3.86635
|103>    H       -7.06220         7.53485        -3.58635
|104>    H       -6.41524         9.92193        -1.79009
|105>    H       -5.31806         9.18190        -2.95795
|106>    H       -5.84975         8.26713        -1.54632
|107>    H       -9.37817         6.72026        -3.56284
|108>    H       -9.94403         8.36194        -3.87955
|109>    H      -10.80163         6.62368        -1.51408
|110>    H      -11.76529         6.96504        -2.95225
|111>    H      -11.36652         8.26496        -1.82720
|112>    H       -9.45784        10.82205        -3.04962
|113>    H       -9.97122        12.27141         0.94903
|114>    H       -9.29218        10.09576         1.85803
|115>    H      -10.41510        12.96927        -2.70587
|116>    H       -9.66947        14.20362        -0.00846
|117>    H      -11.46471        14.95916        -3.40094
|118>    H      -13.59549        18.07905        -6.88318
|119>    H      -12.67351        16.18716        -5.33482
|120>    H      -10.11798        19.79592        -1.19327
|121>    H      -11.83003        21.76154        -3.97529
|122>    H      -11.25067        24.10686        -3.50059
|123>    H       -9.69028        25.56462        -2.07230
|124>    H       -8.08757        26.39070        -0.54727
|125>    H       -6.25893        26.70352         1.23713
|126>    H       -4.77399        25.25058         2.90324
|127>    H       -5.02410        23.42895         2.89510
|128> *
|129>
|130>                          ****END OF INPUT****

CARTESIAN COORDINATES (ANGSTROEM)
---------------------------------
  C     -2.884930   -1.299980   -0.130680
  C     -3.428100   -2.530240   -0.391600
  C     -2.673910   -3.713700   -0.529800
  N     -2.109620   -4.706000   -0.653330
  C     -4.802780   -2.765750   -0.606970
  N     -5.898460   -3.028020   -0.827220
  C     -1.466120   -0.990270   -0.027950
  C     -1.314210    0.415860    0.071360
  C     -0.084410    1.019620    0.178620
  C      1.048330    0.200380    0.183000
  C      0.886250   -1.202770    0.086970
  C     -0.357050   -1.815030   -0.017930
  S      2.419020   -2.015800    0.122840
  C      3.246240   -0.502870    0.260020
  C      2.420630    0.566100    0.279760
  C     -2.639130    1.060870    0.070620
  O     -2.862930    2.241410    0.234260
  C     -3.621200   -0.053950   -0.028060
  C     -4.959130    0.086470    0.165260
  C     -5.655660    1.331680    0.072380
  C     -6.713890    1.643750    0.947890
  C     -7.358580    2.934460    0.930000
  N     -8.364410    3.182900    1.785710
  C     -8.713040    2.264650    2.651610
  C     -8.036500    0.999880    2.699640
  N     -7.074690    0.720240    1.857780
  C     -8.421380    0.034660    3.664080
  N     -8.758730   -0.711580    4.464940
  C     -9.779730    2.532340    3.545280
  N    -10.629840    2.723840    4.289080
  C     -6.987790    3.943590    0.012160
  C     -6.022520    3.577630   -0.944380
  C     -5.358420    2.293580   -0.909860
  N     -4.493000    2.152920   -1.914040
  S     -4.467820    3.505440   -2.769550
  N     -5.567860    4.332360   -1.951870
  C     -7.543780    5.282070    0.059560
  C     -7.772750    5.985680   -1.133490
  C     -8.260000    7.265530   -1.075810
  C     -8.512290    7.885360    0.162130
  C     -8.295300    7.194150    1.346600
  C     -7.820460    5.900650    1.286990
  C     -8.967320    9.234200   -0.084470
  C     -9.016290    9.443800   -1.474840
  C     -8.583970    8.200780   -2.216560
  C     -7.345770    8.466270   -3.092630
  C     -6.159030    8.992760   -2.294850
  C     -9.723570    7.641330   -3.088980
  C    -10.992600    7.356630   -2.294670
  C     -9.414250   10.655100   -1.982560
  C     -9.740840   11.704180   -1.108320
  C     -9.689940   11.477660    0.274260
  C     -9.315770   10.254770    0.790440
  C    -10.113150   12.982890   -1.666800
  C    -10.049030   14.163270   -1.020060
  C    -10.394610   15.426280   -1.587370
  S     -9.914380   16.882470   -0.738230
  C    -10.611600   17.882120   -1.977230
  C    -11.210710   17.094910   -2.984250
  C    -11.069470   15.715620   -2.747840
  C    -11.848940   17.777050   -4.044200
  C    -11.829780   19.175610   -4.050000
  S    -12.668020   19.799060   -5.439990
  C    -13.032820   18.199740   -5.978370
  C    -12.545960   17.240320   -5.162150
  C    -11.188880   19.958660   -3.056160
  C    -10.588600   19.264320   -2.002470
  C    -11.195260   21.378170   -3.184480
  C    -10.493840   22.324590   -2.495460
  C    -10.578150   23.724900   -2.752640
  C     -9.754990   24.493910   -1.998410
  C     -8.957400   23.758570   -1.084460
  S     -9.315160   22.047200   -1.220060
  C     -8.021700   24.233820   -0.199380
  C     -7.635800   25.588890    0.009480
  C     -6.676540   25.756320    0.945140
  C     -6.223970   24.538600    1.556320
  S     -7.107870   23.173670    0.855230
  C     -5.288920   24.394390    2.504640
  H     -0.000340    2.092670    0.255690
  H     -0.431130   -2.888120   -0.079100
  H      4.317280   -0.508240    0.319510
  H      2.755590    1.584360    0.361380
  H     -5.560560   -0.766010    0.454520
  H     -7.576150    5.506300   -2.078730
  H     -8.482480    7.661940    2.301230
  H     -7.621930    5.365710    2.201770
  H     -7.613480    9.189150   -3.866350
  H     -7.062200    7.534850   -3.586350
  H     -6.415240    9.921930   -1.790090
  H     -5.318060    9.181900   -2.957950
  H     -5.849750    8.267130   -1.546320
  H     -9.378170    6.720260   -3.562840
  H     -9.944030    8.361940   -3.879550
  H    -10.801630    6.623680   -1.514080
  H    -11.765290    6.965040   -2.952250
  H    -11.366520    8.264960   -1.827200
  H     -9.457840   10.822050   -3.049620
  H     -9.971220   12.271410    0.949030
  H     -9.292180   10.095760    1.858030
  H    -10.415100   12.969270   -2.705870
  H     -9.669470   14.203620   -0.008460
  H    -11.464710   14.959160   -3.400940
  H    -13.595490   18.079050   -6.883180
  H    -12.673510   16.187160   -5.334820
  H    -10.117980   19.795920   -1.193270
  H    -11.830030   21.761540   -3.975290
  H    -11.250670   24.106860   -3.500590
  H     -9.690280   25.564620   -2.072300
  H     -8.087570   26.390700   -0.547270
  H     -6.258930   26.703520    1.237130
  H     -4.773990   25.250580    2.903240
  H     -5.024100   23.428950    2.895100

 Total Charge           Charge          ....    0
 Multiplicity           Mult            ....    1
 Number of Electrons    NEL             ....  578
 Basis Dimension        Dim             .... 1300

ORBITAL ENERGIES
----------------

  NO   OCC          E(Eh)            E(eV)
   0   2.0000     -89.050446     -2423.1858
   1   2.0000     -88.968993     -2420.9694
   2   2.0000     -88.946181     -2420.3486
   3   2.0000     -88.943735     -2420.2821
   4   2.0000     -88.941476     -2420.2206
   5   2.0000     -88.935736     -2420.0644
   6   2.0000     -19.218579      -522.9641
   7   2.0000     -14.465842      -393.6356
   8   2.0000     -14.465435      -393.6245
   9   2.0000     -14.457859      -393.4184
  10   2.0000     -14.452722      -393.2786
  11   2.0000     -14.432261      -392.7218
  12   2.0000     -14.429540      -392.6477
  13   2.0000     -14.417175      -392.3113
  14   2.0000     -14.415079      -392.2542
  15   2.0000     -10.387550      -282.6596
  16   2.0000     -10.382308      -282.5170
  17   2.0000     -10.369895      -282.1792
  18   2.0000     -10.355250      -281.7807
  19   2.0000     -10.351969      -281.6914
  20   2.0000     -10.345981      -281.5285
  21   2.0000     -10.345734      -281.5217
  22   2.0000     -10.345193      -281.5070
  23   2.0000     -10.341817      -281.4151
  24   2.0000     -10.330101      -281.0964
  25   2.0000     -10.324725      -280.9500
  26   2.0000     -10.323325      -280.9119
  27   2.0000     -10.323033      -280.9040
  28   2.0000     -10.319374      -280.8045
  29   2.0000     -10.319194      -280.7996
  30   2.0000     -10.317361      -280.7497
  31   2.0000     -10.316791      -280.7342
  32   2.0000     -10.315294      -280.6934
  33   2.0000     -10.308794      -280.5165
  34   2.0000     -10.307623      -280.4847
  35   2.0000     -10.305725      -280.4330
  36   2.0000     -10.304928      -280.4114
  37   2.0000     -10.304589      -280.4021
  38   2.0000     -10.304253      -280.3930
  39   2.0000     -10.304199      -280.3915
  40   2.0000     -10.304034      -280.3870
  41   2.0000     -10.301626      -280.3215
  42   2.0000     -10.299583      -280.2659
  43   2.0000     -10.293330      -280.0958
  44   2.0000     -10.293066      -280.0886
  45   2.0000     -10.292458      -280.0720
  46   2.0000     -10.291903      -280.0569
  47   2.0000     -10.291869      -280.0560
  48   2.0000     -10.291669      -280.0506
  49   2.0000     -10.287680      -279.9420
  50   2.0000     -10.283887      -279.8388
  51   2.0000     -10.283528      -279.8290
  52   2.0000     -10.282933      -279.8128
  53   2.0000     -10.282818      -279.8097
  54   2.0000     -10.281561      -279.7755
  55   2.0000     -10.281294      -279.7682
  56   2.0000     -10.281139      -279.7640
  57   2.0000     -10.281032      -279.7611
  58   2.0000     -10.280791      -279.7545
  59   2.0000     -10.278128      -279.6821
  60   2.0000     -10.277081      -279.6536
  61   2.0000     -10.276322      -279.6329
  62   2.0000     -10.276197      -279.6295
  63   2.0000     -10.276097      -279.6268
  64   2.0000     -10.275443      -279.6090
  65   2.0000     -10.274876      -279.5936
  66   2.0000     -10.274083      -279.5720
  67   2.0000     -10.272955      -279.5413
  68   2.0000     -10.272707      -279.5346
  69   2.0000     -10.272414      -279.5266
  70   2.0000     -10.272285      -279.5231
  71   2.0000     -10.272197      -279.5207
  72   2.0000     -10.270057      -279.4625
  73   2.0000     -10.269725      -279.4534
  74   2.0000     -10.267857      -279.4026
  75   2.0000     -10.266186      -279.3571
  76   2.0000     -10.265487      -279.3381
  77   2.0000     -10.248375      -278.8725
  78   2.0000     -10.248177      -278.8671
  79   2.0000      -8.141527      -221.5422
  80   2.0000      -8.065295      -219.4678
  81   2.0000      -8.041967      -218.8331
  82   2.0000      -8.039774      -218.7734
  83   2.0000      -8.037246      -218.7046
  84   2.0000      -8.032449      -218.5740
  85   2.0000      -6.112435      -166.3278
  86   2.0000      -6.104745      -166.1186
  87   2.0000      -6.104620      -166.1152
  88   2.0000      -6.034808      -164.2155
  89   2.0000      -6.030496      -164.0981
  90   2.0000      -6.026946      -164.0015
  91   2.0000      -6.011472      -163.5805
  92   2.0000      -6.009183      -163.5182
  93   2.0000      -6.007193      -163.4640
  94   2.0000      -6.007066      -163.4606
  95   2.0000      -6.005280      -163.4120
  96   2.0000      -6.003811      -163.3720
  97   2.0000      -6.002989      -163.3496
  98   2.0000      -6.002299      -163.3309
  99   2.0000      -6.001335      -163.3046
 100   2.0000      -5.998348      -163.2234
 101   2.0000      -5.998099      -163.2166
 102   2.0000      -5.992959      -163.0767
 103   2.0000      -1.146258       -31.1913
 104   2.0000      -1.132654       -30.8211
 105   2.0000      -1.124113       -30.5887
 106   2.0000      -1.051081       -28.6014
 107   2.0000      -1.021775       -27.8039
 108   2.0000      -1.015690       -27.6383
 109   2.0000      -1.009861       -27.4797
 110   2.0000      -1.005461       -27.3600
 111   2.0000      -1.000180       -27.2163
 112   2.0000      -0.995485       -27.0885
 113   2.0000      -0.994506       -27.0619
 114   2.0000      -0.993271       -27.0283
 115   2.0000      -0.988736       -26.9049
 116   2.0000      -0.987791       -26.8792
 117   2.0000      -0.982178       -26.7264
 118   2.0000      -0.968037       -26.3416
 119   2.0000      -0.965477       -26.2720
 120   2.0000      -0.950237       -25.8573
 121   2.0000      -0.934112       -25.4185
 122   2.0000      -0.926259       -25.2048
 123   2.0000      -0.916462       -24.9382
 124   2.0000      -0.912424       -24.8283
 125   2.0000      -0.907827       -24.7032
 126   2.0000      -0.895581       -24.3700
 127   2.0000      -0.890770       -24.2391
 128   2.0000      -0.883598       -24.0439
 129   2.0000      -0.879242       -23.9254
 130   2.0000      -0.869470       -23.6595
 131   2.0000      -0.859369       -23.3846
 132   2.0000      -0.848797       -23.0969
 133   2.0000      -0.843537       -22.9538
 134   2.0000      -0.840061       -22.8592
 135   2.0000      -0.839595       -22.8466
 136   2.0000      -0.839172       -22.8350
 137   2.0000      -0.835892       -22.7458
 138   2.0000      -0.835049       -22.7228
 139   2.0000      -0.826855       -22.4999
 140   2.0000      -0.825367       -22.4594
 141   2.0000      -0.815461       -22.1898
 142   2.0000      -0.810841       -22.0641
 143   2.0000      -0.801119       -21.7996
 144   2.0000      -0.791008       -21.5244
 145   2.0000      -0.787973       -21.4418
 146   2.0000      -0.779304       -21.2059
 147   2.0000      -0.764872       -20.8132
 148   2.0000      -0.763401       -20.7732
 149   2.0000      -0.758728       -20.6460
 150   2.0000      -0.746911       -20.3245
 151   2.0000      -0.737988       -20.0817
 152   2.0000      -0.725372       -19.7384
 153   2.0000      -0.724103       -19.7039
 154   2.0000      -0.712311       -19.3830
 155   2.0000      -0.704086       -19.1592
 156   2.0000      -0.696951       -18.9650
 157   2.0000      -0.696318       -18.9478
 158   2.0000      -0.690842       -18.7988
 159   2.0000      -0.687639       -18.7116
 160   2.0000      -0.678907       -18.4740
 161   2.0000      -0.678318       -18.4580
 162   2.0000      -0.676601       -18.4112
 163   2.0000      -0.675257       -18.3747
 164   2.0000      -0.667217       -18.1559
 165   2.0000      -0.664307       -18.0767
 166   2.0000      -0.662652       -18.0317
 167   2.0000      -0.652955       -17.7678
 168   2.0000      -0.652054       -17.7433
 169   2.0000      -0.647418       -17.6171
 170   2.0000      -0.634751       -17.2724
 171   2.0000      -0.628230       -17.0950
 172   2.0000      -0.625326       -17.0160
 173   2.0000      -0.621980       -16.9249
 174   2.0000      -0.618491       -16.8300
 175   2.0000      -0.618346       -16.8260
 176   2.0000      -0.608283       -16.5522
 177   2.0000      -0.604997       -16.4628
 178   2.0000      -0.598605       -16.2889
 179   2.0000      -0.597114       -16.2483
 180   2.0000      -0.595658       -16.2087
 181   2.0000      -0.595080       -16.1929
 182   2.0000      -0.589527       -16.0419
 183   2.0000      -0.584635       -15.9087
 184   2.0000      -0.581045       -15.8110
 185   2.0000      -0.572169       -15.5695
 186   2.0000      -0.565466       -15.3871
 187   2.0000      -0.562132       -15.2964
 188   2.0000      -0.557708       -15.1760
 189   2.0000      -0.548844       -14.9348
 190   2.0000      -0.548209       -14.9175
 191   2.0000      -0.546381       -14.8678
 192   2.0000      -0.544484       -14.8162
 193   2.0000      -0.542562       -14.7639
 194   2.0000      -0.541170       -14.7260
 195   2.0000      -0.539928       -14.6922
 196   2.0000      -0.535912       -14.5829
 197   2.0000      -0.533956       -14.5297
 198   2.0000      -0.527461       -14.3529
 199   2.0000      -0.524261       -14.2659
 200   2.0000      -0.521918       -14.2021
 201   2.0000      -0.519682       -14.1413
 202   2.0000      -0.519297       -14.1308
 203   2.0000      -0.515657       -14.0317
 204   2.0000      -0.514948       -14.0124
 205   2.0000      -0.511740       -13.9252
 206   2.0000      -0.510182       -13.8828
 207   2.0000      -0.505707       -13.7610
 208   2.0000      -0.502494       -13.6736
 209   2.0000      -0.502301       -13.6683
 210   2.0000      -0.496206       -13.5025
 211   2.0000      -0.494304       -13.4507
 212   2.0000      -0.492719       -13.4076
 213   2.0000      -0.491026       -13.3615
 214   2.0000      -0.490747       -13.3539
 215   2.0000      -0.488944       -13.3048
 216   2.0000      -0.487057       -13.2535
 217   2.0000      -0.485577       -13.2132
 218   2.0000      -0.483234       -13.1495
 219   2.0000      -0.480433       -13.0733
 220   2.0000      -0.479487       -13.0475
 221   2.0000      -0.478784       -13.0284
 222   2.0000      -0.475879       -12.9493
 223   2.0000      -0.472556       -12.8589
 224   2.0000      -0.469666       -12.7803
 225   2.0000      -0.464778       -12.6473
 226   2.0000      -0.462312       -12.5802
 227   2.0000      -0.459452       -12.5023
 228   2.0000      -0.456965       -12.4347
 229   2.0000      -0.456778       -12.4296
 230   2.0000      -0.456157       -12.4127
 231   2.0000      -0.454800       -12.3757
 232   2.0000      -0.454016       -12.3544
 233   2.0000      -0.450630       -12.2623
 234   2.0000      -0.450063       -12.2468
 235   2.0000      -0.448958       -12.2168
 236   2.0000      -0.445225       -12.1152
 237   2.0000      -0.444373       -12.0920
 238   2.0000      -0.443946       -12.0804
 239   2.0000      -0.441314       -12.0088
 240   2.0000      -0.438759       -11.9392
 241   2.0000      -0.437595       -11.9076
 242   2.0000      -0.435972       -11.8634
 243   2.0000      -0.434641       -11.8272
 244   2.0000      -0.433840       -11.8054
 245   2.0000      -0.429804       -11.6956
 246   2.0000      -0.427149       -11.6233
 247   2.0000      -0.427023       -11.6199
 248   2.0000      -0.426943       -11.6177
 249   2.0000      -0.424557       -11.5528
 250   2.0000      -0.423147       -11.5144
 251   2.0000      -0.420070       -11.4307
 252   2.0000      -0.417550       -11.3621
 253   2.0000      -0.416421       -11.3314
 254   2.0000      -0.414118       -11.2687
 255   2.0000      -0.413509       -11.2522
 256   2.0000      -0.411558       -11.1991
 257   2.0000      -0.410423       -11.1682
 258   2.0000      -0.409214       -11.1353
 259   2.0000      -0.408635       -11.1195
 260   2.0000      -0.400917       -10.9095
 261   2.0000      -0.400478       -10.8976
 262   2.0000      -0.398621       -10.8470
 263   2.0000      -0.393819       -10.7164
 264   2.0000      -0.391110       -10.6426
 265   2.0000      -0.390541       -10.6272
 266   2.0000      -0.387517       -10.5449
 267   2.0000      -0.382552       -10.4098
 268   2.0000      -0.377990       -10.2856
 269   2.0000      -0.373940       -10.1754
 270   2.0000      -0.364302        -9.9132
 271   2.0000      -0.359516        -9.7829
 272   2.0000      -0.353544        -9.6204
 273   2.0000      -0.348135        -9.4732
 274   2.0000      -0.342701        -9.3254
 275   2.0000      -0.336743        -9.1632
 276   2.0000      -0.335253        -9.1227
 277   2.0000      -0.327390        -8.9087
 278   2.0000      -0.325026        -8.8444
 279   2.0000      -0.318077        -8.6553
 280   2.0000      -0.317899        -8.6505
 281   2.0000      -0.315230        -8.5778
 282   2.0000      -0.308144        -8.3850
 283   2.0000      -0.298866        -8.1325
 284   2.0000      -0.292523        -7.9600
 285   2.0000      -0.278962        -7.5910
 286   2.0000      -0.270338        -7.3563
 287   2.0000      -0.250003        -6.8029
 288   2.0000      -0.213339        -5.8052
 289   0.0000      -0.128059        -3.4847
 290   0.0000      -0.082879        -2.2553
 291   0.0000      -0.066629        -1.8131
 292   0.0000      -0.058760        -1.5990
 293   0.0000      -0.050252        -1.3674

MULLIKEN ATOMIC CHARGES
-----------------------
   0 C :    0.289462
   1 C :   -0.328167
   2 C :   -0.189064
   3 N :    0.155151
   4 C :   -0.201256
   5 N :    0.170399
   6 C :    0.019170
   7 C :   -0.018800
   8 C :   -0.067466
   9 C :    0.111346
  10 C :   -0.092699
  11 C :   -0.022811
  12 S :    0.142456
  13 C :   -0.050602
  14 C :    0.027177
  15 C :    0.155575
  16 O :   -0.158350
  17 C :   -0.055228
  18 C :   -0.066271
  19 C :    0.060261
  20 C :   -0.024410
  21 C :   -0.083474
  22 N :    0.054294
  23 C :   -0.143807
  24 C :   -0.128345
  25 N :    0.056428
  26 C :   -0.197219
  27 N :    0.239210
  28 C :   -0.204249
  29 N :    0.236341
  30 C :    0.114376
  31 C :    0.023407
  32 C :    0.024185
  33 N :   -0.271254
  34 S :    0.558613
  35 N :   -0.285696
  36 C :   -0.008779
  37 C :   -0.049275
  38 C :   -0.004966
  39 C :    0.126153
  40 C :   -0.064943
  41 C :    0.043532
  42 C :    0.107994
  43 C :    0.019349
  44 C :   -0.134208
  45 C :    0.067557
  46 C :    0.026559
  47 C :    0.071802
  48 C :    0.022385
  49 C :   -0.110320
  50 C :    0.121773
  51 C :   -0.016165
  52 C :   -0.043473
  53 C :   -0.009831
  54 C :    0.068713
  55 C :   -0.062604
  56 S :    0.118423
  57 C :   -0.081028
  58 C :    0.098864
  59 C :   -0.054847
  60 C :    0.083862
  61 C :   -0.145655
  62 S :    0.091144
  63 C :   -0.045935
  64 C :    0.004518
  65 C :    0.113027
  66 C :   -0.075570
  67 C :   -0.074665
  68 C :   -0.007725
  69 C :    0.029759
  70 C :    0.030984
  71 C :   -0.039666
  72 S :    0.055510
  73 C :   -0.067267
  74 C :    0.031103
  75 C :    0.053693
  76 C :   -0.062437
  77 S :    0.078306
  78 C :   -0.030547
  79 H :   -0.012868
  80 H :   -0.004776
  81 H :    0.041103
  82 H :   -0.006518
  83 H :    0.048405
  84 H :   -0.025904
  85 H :   -0.030384
  86 H :   -0.021511
  87 H :   -0.001658
  88 H :   -0.002263
  89 H :    0.021403
  90 H :    0.007435
  91 H :    0.022444
  92 H :   -0.003629
  93 H :   -0.002278
  94 H :    0.023405
  95 H :    0.010412
  96 H :    0.022512
  97 H :   -0.040608
  98 H :   -0.022532
  99 H :   -0.031416
 100 H :   -0.017979
 101 H :   -0.016608
 102 H :   -0.031776
 103 H :    0.023746
 104 H :   -0.023242
 105 H :   -0.023078
 106 H :   -0.014734
 107 H :   -0.012090
 108 H :   -0.014326
 109 H :   -0.012168
 110 H :   -0.012587
 111 H :    0.019143
 112 H :    0.021138
Sum of atomic charges:   -0.0000000

LOEWDIN ATOMIC CHARGES
----------------------
   0 C :    0.073759
   1 C :   -0.130005
   2 C :   -0.017828
   3 N :   -0.048418
   4 C :   -0.023709
   5 N :   -0.044072
   6 C :   -0.021697
   7 C :   -0.051722
   8 C :    0.022620
   9 C :   -0.034578
  10 C :   -0.144508
  11 C :   -0.008134
  12 S :    0.431268
  13 C :   -0.148280
  14 C :   -0.058057
  15 C :    0.085816
  16 O :   -0.148597
  17 C :   -0.068881
  18 C :    0.079583
  19 C :   -0.040782
  20 C :    0.010636
  21 C :   -0.015810
  22 N :    0.014926
  23 C :   -0.035854
  24 C :   -0.016724
  25 N :   -0.003189
  26 C :   -0.034714
  27 N :    0.003517
  28 C :   -0.037375
  29 N :   -0.005406
  30 C :    0.026884
  31 C :   -0.041835
  32 C :   -0.024185
  33 N :   -0.274908
  34 S :    0.696324
  35 N :   -0.276681
  36 C :   -0.028377
  37 C :    0.003304
  38 C :   -0.001849
  39 C :    0.003960
  40 C :   -0.023876
  41 C :    0.011094
  42 C :   -0.023807
  43 C :    0.007869
  44 C :   -0.035454
  45 C :   -0.011690
  46 C :   -0.057379
  47 C :   -0.010951
  48 C :   -0.057779
  49 C :   -0.022947
  50 C :   -0.016767
  51 C :   -0.016084
  52 C :   -0.010999
  53 C :   -0.012467
  54 C :   -0.037315
  55 C :   -0.154715
  56 S :    0.406026
  57 C :   -0.156750
  58 C :   -0.042023
  59 C :   -0.055588
  60 C :   -0.048533
  61 C :   -0.155373
  62 S :    0.407867
  63 C :   -0.167033
  64 C :   -0.060833
  65 C :   -0.044595
  66 C :   -0.046377
  67 C :   -0.062852
  68 C :   -0.139266
  69 C :   -0.030345
  70 C :   -0.035921
  71 C :   -0.181905
  72 S :    0.376586
  73 C :   -0.176388
  74 C :   -0.026219
  75 C :   -0.030736
  76 C :   -0.139367
  77 S :    0.349900
  78 C :   -0.076959
  79 H :    0.039749
  80 H :    0.041188
  81 H :    0.030158
  82 H :    0.035328
  83 H :    0.049764
  84 H :    0.025185
  85 H :    0.029565
  86 H :    0.027126
  87 H :    0.019923
  88 H :    0.020400
  89 H :    0.025581
  90 H :    0.023724
  91 H :    0.025744
  92 H :    0.019707
  93 H :    0.019890
  94 H :    0.025776
  95 H :    0.024736
  96 H :    0.025849
  97 H :    0.024190
  98 H :    0.027265
  99 H :    0.028666
 100 H :    0.027041
 101 H :    0.026464
 102 H :    0.025832
 103 H :    0.023959
 104 H :    0.028187
 105 H :    0.013427
 106 H :    0.024871
 107 H :    0.033309
 108 H :    0.031206
 109 H :    0.032185
 110 H :    0.033099
 111 H :    0.028317
 112 H :    0.026118

  Mayer bond orders larger than 0.100000
B(  0-C ,  1-C ) :   1.6585 B(  0-C ,  6-C ) :   1.0117 B(  0-C , 17-C ) :   1.0497
B(  1-C ,  2-C ) :   1.1387 B(  1-C ,  4-C ) :   1.1423 B(  2-C ,  3-N ) :   2.9756
B(  4-C ,  5-N ) :   2.9957 B(  6-C ,  7-C ) :   1.2677 B(  6-C , 11-C ) :   1.4080
B(  7-C ,  8-C ) :   1.4248 B(  7-C , 15-C ) :   0.9551 B(  8-C ,  9-C ) :   1.2473
B(  8-C , 79-H ) :   1.0170 B(  9-C , 10-C ) :   1.2996 B(  9-C , 14-C ) :   1.1732
B( 10-C , 11-C ) :   1.3262 B( 10-C , 12-S ) :   1.0986 B( 11-C , 80-H ) :   0.9838
B( 12-S , 13-C ) :   1.1267 B( 13-C , 14-C ) :   1.6264 B( 13-C , 81-H ) :   0.9690
B( 14-C , 82-H ) :   1.0000 B( 15-C , 16-O ) :   2.2110 B( 15-C , 17-C ) :   0.9348
B( 17-C , 18-C ) :   1.6443 B( 18-C , 19-C ) :   1.1296 B( 18-C , 83-H ) :   0.9321
B( 19-C , 20-C ) :   1.2792 B( 19-C , 30-C ) :   0.1311 B( 19-C , 32-C ) :   1.2224
B( 20-C , 21-C ) :   1.1036 B( 20-C , 25-N ) :   1.4439 B( 21-C , 22-N ) :   1.4370
B( 21-C , 30-C ) :   1.2731 B( 22-N , 23-C ) :   1.7370 B( 23-C , 24-C ) :   1.1972
B( 23-C , 28-C ) :   1.1503 B( 24-C , 25-N ) :   1.7538 B( 24-C , 26-C ) :   1.1460
B( 26-C , 27-N ) :   3.0456 B( 28-C , 29-N ) :   3.0498 B( 30-C , 31-C ) :   1.2512
B( 30-C , 36-C ) :   1.0364 B( 31-C , 32-C ) :   1.1087 B( 31-C , 35-N ) :   1.4721
B( 32-C , 33-N ) :   1.4988 B( 33-N , 34-S ) :   1.2939 B( 33-N , 35-N ) :   0.1565
B( 34-S , 35-N ) :   1.3068 B( 36-C , 37-C ) :   1.2949 B( 36-C , 41-C ) :   1.3455
B( 37-C , 38-C ) :   1.4061 B( 37-C , 84-H ) :   0.9965 B( 38-C , 39-C ) :   1.3533
B( 38-C , 44-C ) :   0.9117 B( 39-C , 40-C ) :   1.3307 B( 39-C , 42-C ) :   1.0002
B( 40-C , 41-C ) :   1.3985 B( 40-C , 85-H ) :   0.9938 B( 41-C , 86-H ) :   0.9797
B( 42-C , 43-C ) :   1.3641 B( 42-C , 52-C ) :   1.3259 B( 43-C , 44-C ) :   0.9157
B( 43-C , 49-C ) :   1.3829 B( 44-C , 45-C ) :   1.0406 B( 44-C , 47-C ) :   1.0341
B( 45-C , 46-C ) :   1.1023 B( 45-C , 87-H ) :   0.9396 B( 45-C , 88-H ) :   0.9379
B( 46-C , 89-H ) :   0.9651 B( 46-C , 90-H ) :   0.9637 B( 46-C , 91-H ) :   0.9632
B( 47-C , 48-C ) :   1.1005 B( 47-C , 92-H ) :   0.9397 B( 47-C , 93-H ) :   0.9397
B( 48-C , 94-H ) :   0.9648 B( 48-C , 95-H ) :   0.9639 B( 48-C , 96-H ) :   0.9644
B( 49-C , 50-C ) :   1.2874 B( 49-C , 97-H ) :   1.0133 B( 50-C , 51-C ) :   1.3467
B( 50-C , 53-C ) :   1.0607 B( 51-C , 52-C ) :   1.3965 B( 51-C , 98-H ) :   0.9847
B( 52-C , 99-H ) :   0.9924 B( 53-C , 54-C ) :   1.7310 B( 53-C ,100-H ) :   0.9776
B( 54-C , 55-C ) :   1.0915 B( 54-C ,101-H ) :   0.9556 B( 55-C , 56-S ) :   1.0885
B( 55-C , 59-C ) :   1.5434 B( 56-S , 57-C ) :   1.0628 B( 57-C , 58-C ) :   1.3332
B( 57-C , 66-C ) :   1.3367 B( 58-C , 59-C ) :   1.2256 B( 58-C , 60-C ) :   1.1810
B( 59-C ,102-H ) :   0.9928 B( 60-C , 61-C ) :   1.3853 B( 60-C , 64-C ) :   1.2012
B( 61-C , 62-S ) :   1.0820 B( 61-C , 65-C ) :   1.2753 B( 62-S , 63-C ) :   1.1294
B( 63-C , 64-C ) :   1.6251 B( 63-C ,103-H ) :   0.9675 B( 64-C ,104-H ) :   0.9942
B( 65-C , 66-C ) :   1.3820 B( 65-C , 67-C ) :   1.1002 B( 66-C ,105-H ) :   0.9698
B( 67-C , 68-C ) :   1.6294 B( 67-C ,106-H ) :   0.9637 B( 68-C , 69-C ) :   1.1226
B( 68-C , 72-S ) :   1.0307 B( 69-C , 70-C ) :   1.6197 B( 69-C ,107-H ) :   0.9992
B( 70-C , 71-C ) :   1.1597 B( 70-C ,108-H ) :   0.9914 B( 71-C , 72-S ) :   1.0280
B( 71-C , 73-C ) :   1.5685 B( 73-C , 74-C ) :   1.1478 B( 73-C , 77-S ) :   1.0430
B( 74-C , 75-C ) :   1.6659 B( 74-C ,109-H ) :   0.9915 B( 75-C , 76-C ) :   1.0774
B( 75-C ,110-H ) :   0.9934 B( 76-C , 77-S ) :   1.0076 B( 76-C , 78-C ) :   1.8648
B( 78-C ,111-H ) :   0.9511 B( 78-C ,112-H ) :   0.9424

-----------------------------------------------------------------------------
         ABSORPTION SPECTRUM VIA TRANSITION ELECTRIC DIPOLE MOMENTS
-----------------------------------------------------------------------------
State   Energy  Wavelength   fosc         T2         TX        TY        TZ
        (cm-1)    (nm)                  (au**2)     (au)      (au)      (au)
-----------------------------------------------------------------------------
   0   11539.0    866.6   0.478274091  13.64532  -1.08954   3.52594  -0.16117
   1   14624.4    683.8   0.364640102   8.20844  -1.42993   2.48151  -0.07626
   2   18367.3    544.4   1.355967519  24.30410  -2.01123  -4.22641  -1.54808
   3   19662.6    508.6   0.025849503   0.43280   0.19774  -0.46069  -0.42599
   4   22355.1    447.3   0.012939890   0.19056  -0.40031   0.12999   0.11582
   5   22652.3    441.5   0.119714062   1.73984   1.07178  -0.76831   0.02871
   6   23064.3    433.6   0.021759621   0.31059  -0.00518   0.36016   0.42526
   7   23718.4    421.6   0.001225979   0.01702  -0.05842  -0.09921   0.06133
   8   24398.6    409.9   0.027244269   0.36761  -0.13231  -0.58955   0.05034
   9   24666.2    405.4   0.270552565   3.61098   1.60139  -1.00637  -0.18369
  10   25359.2    394.3   0.068173063   0.88502   0.58015  -0.38656   0.63168
  11   25838.5    387.0   0.031010898   0.39511  -0.36041   0.42615   0.28917
  12   25933.9    385.6   0.008356802   0.10608  -0.18482  -0.25870   0.07071
  13   26810.9    373.0   1.177896775  14.46343  -2.02264   2.42955  -2.11415
  14   27083.0    369.2   0.013897890   0.16894   0.24100  -0.19190   0.27209
  15   27586.4    362.5   0.157098163   1.87478   0.80934  -0.59487   0.93052
  16   28425.6    351.8   0.136230458   1.57776   0.50818   0.25196  -1.12073
  17   28901.7    346.0   0.058197975   0.66292  -0.55931   0.11954  -0.57949
  18   29268.2    341.7   0.011211580   0.12611   0.29844   0.17804   0.07309
  19   29561.8    338.3   0.011839857   0.13185   0.32520   0.16153   0.00196
  20   29743.4    336.2   0.073832872   0.81721   0.13575  -0.82119  -0.35275
  21   29873.3    334.7   0.074078693   0.81637   0.87113  -0.10090  -0.21754
  22   30255.0    330.5   0.256364715   2.78956  -1.61134  -0.43762  -0.04029
  23   30450.8    328.4   0.010147474   0.10971  -0.16104  -0.27824  -0.07971
  24   30635.3    326.4   0.144764543   1.55567  -1.05713   0.59634  -0.28727
  25   31697.8    315.5   0.021809381   0.22651   0.14360   0.29493  -0.34483
  26   31986.6    312.6   0.130696262   1.34515  -1.10683  -0.32725  -0.11391
  27   32047.0    312.0   0.381961431   3.92380   0.80581   1.35623  -1.19796
  28   32600.6    306.7   0.129882707   1.31160   0.71981   0.76977  -0.44826
  29   32711.1    305.7   0.020054254   0.20183   0.25028  -0.16811  -0.33306
  30   32793.0    304.9   0.035280776   0.35419  -0.18520  -0.51233   0.23959
  31   33103.6    302.1   0.109759567   1.09155   0.35542  -0.79601  -0.57585
  32   33476.0    298.7   0.026330403   0.25894   0.31276  -0.15173  -0.37162
  33   33494.1    298.6   0.060354276   0.59322   0.54722  -0.16451  -0.51644
  34   34033.3    293.8   0.073950981   0.71535  -0.36789   0.08462  -0.75686
  35   34236.1    292.1   0.086831487   0.83497  -0.24321  -0.32374  -0.81915
  36   34743.0    287.8   0.058273210   0.55218   0.16194  -0.62897   0.36103
  37   34905.8    286.5   0.043961774   0.41462   0.26696   0.48601   0.32733
  38   35100.4    284.9   0.538414169   5.04986   1.77859   1.37317   0.03020
  39   35463.0    282.0   0.077699220   0.72130   0.53067  -0.36861  -0.55119
  40   35929.5    278.3   0.152216978   1.39472   0.72581   0.41404  -0.83457
  41   36276.9    275.7   0.020526053   0.18627  -0.13285   0.05598   0.40680
  42   36755.0    272.1   0.096440530   0.86381   0.37461   0.57931  -0.62280
  43   36876.4    271.2   0.148631084   1.32690  -0.16360  -1.04304   0.46065
  44   37078.4    269.7   0.081537374   0.72396  -0.27238   0.56429   0.57563
  45   37287.6    268.2   0.066615483   0.58815  -0.23165   0.18706   0.70675
  46   37303.2    268.1   0.099449700   0.87767   0.42058  -0.38627  -0.74268
  47   37686.4    265.3   0.008533322   0.07454   0.16746  -0.01146  -0.21534
  48   38087.9    262.6   0.009021309   0.07798  -0.23624   0.05737   0.13739
  49   38335.4    260.9   0.010370670   0.08906  -0.24285  -0.13856   0.10433
  50   38565.1    259.3   0.025771557   0.22000   0.29624  -0.36250  -0.02887
  51   38828.4    257.5   0.046854482   0.39726  -0.58164   0.11684   0.21286
  52   38861.3    257.3   0.072432007   0.61361  -0.16302   0.34874   0.68221
  53   39138.4    255.5   0.186351209   1.56749  -0.24710  -1.21807  -0.15075
  54   39297.8    254.5   0.040528091   0.33952  -0.43861   0.37473   0.08195
  55   39576.6    252.7   0.038192949   0.31770   0.40990   0.07703  -0.37914
  56   39904.1    250.6   0.022799995   0.18810  -0.32822   0.22088  -0.17771
  57   39996.1    250.0   0.040257856   0.33137   0.30300  -0.45007   0.19236
  58   40292.5    248.2   0.035763287   0.29221  -0.41167  -0.07315  -0.34261

FINAL SINGLE POINT ENERGY     -5357.042220334340

DIPOLE MOMENT
-------------
                                X             Y             Z
Electronic contribution:     23.92256     -77.01202      18.71510
Nuclear contribution   :    -21.33090      81.29652     -20.76454
                        -----------------------------------------
Total Dipole Moment    :      2.59166       4.28450      -2.04944
                        -----------------------------------------
Magnitude (a.u.)       :      5.41053
Magnitude (Debye)      :     13.75249

Rotational constants in cm-1:     0.001244     0.000155     0.000148
Rotational constants in MHz :    37.294009     4.644955     4.423032

                             ****ORCA TERMINATED NORMALLY****
TOTAL RUN TIME: 0 days 0 hours 12 minutes 1 seconds 293 msec
