                         Program Version 4.2.0 -  RELEASE  -
|  1> # ORCA input file
|  2> # SCF done       -186.057126209871          0.000405126118
|  3> ! CAM-B3LYP def2-SVP def2/J RIJCOSX Grid4 TightSCF
|  4> %maxcore 5000
|  5> %tddft
|  6>     Mode sTDDFT
|  7>     Ethresh 5.0
|  8>     maxcore 5000
|  9> end
| 10>
| 11> %pal
| 12>   nprocs 6
| 13>   end
| 14> * xyz 0 1
| 15>    C       -2.53632        -1.14395         0.60332
| 16>    C       -3.06840        -2.38188         0.34340
| 17>    C       -2.44815        -3.59893         0.69065
| 18>    N       -1.98786        -4.62275         0.93342
| 19>    C       -4.31454        -2.61197        -0.27508
| 20>    N       -5.32584        -2.88885        -0.74453
| 21>    C       -1.31292        -0.87970         1.34835
| 22>    C       -1.17153         0.52191         1.50521
| 23>    C       -0.11771         1.08758         2.18080
| 24>    C        0.84101         0.23111         2.73067
| 25>    C        0.69513        -1.16638         2.56286
| 26>    C       -0.36996        -1.73967         1.87820
| 27>    S        2.00150        -2.02845         3.31311
| 28>    C        2.71444        -0.54186         3.83725
| 29>    C        2.01369         0.55306         3.47064
| 30>    C       -2.28305         1.20962         0.82551
| 31>    O       -2.38570         2.40843         0.65689
| 32>    C       -3.14216         0.12951         0.27477
| 33>    C       -4.20178         0.32528        -0.56347
| 34>    C       -4.93098         1.53633        -0.69420
| 35>    C       -5.13759         2.43024         0.37901
| 36>    C       -5.79172         3.69733         0.18326
| 37>    N       -5.87264         4.55754         1.20677
| 38>    C       -5.35993         4.23867         2.37103
| 39>    C       -4.84699         2.92164         2.59379
| 40>    N       -4.77083         2.05863         1.61158
| 41>    C       -4.44266         2.52000         3.89006
| 42>    N       -4.09326         2.22480         4.94074
| 43>    C       -5.39139         5.18785         3.41978
| 44>    N       -5.40300         5.94024         4.28432
| 45>    C       -6.37292         4.07969        -1.05299
| 46>    C       -6.23645         3.14626        -2.10167
| 47>    C       -5.53266         1.89580        -1.91725
| 48>    N       -5.45467         1.19297        -3.04505
| 49>    S       -6.18066         2.00813        -4.22314
| 50>    N       -6.62283         3.29835        -3.37181
| 51>    C       -6.95249         5.38778        -1.17660
| 52>    S       -6.16514         6.68354        -0.29743
| 53>    C       -7.25661         7.83460        -0.92170
| 54>    C       -7.15230         9.25860        -0.50012
| 55>    C       -8.15616         9.57684         0.61267
| 56>    C       -8.26337         7.24712        -1.68555
| 57>    C       -8.06562         5.84379        -1.85046
| 58>    C       -8.97678         4.94980        -2.62977
| 59>    C       -9.88146         4.13242        -1.70427
| 60>    C       -9.32437         8.04189        -2.23515
| 61>    C      -10.60103         7.63566        -2.46165
| 62>    C      -11.59135         8.42678        -3.07114
| 63>    C      -12.86537         7.97047        -3.30756
| 64>    C      -13.92676         8.64024        -3.95954
| 65>    C      -15.07067         7.90468        -4.07126
| 66>    C      -14.98005         6.61720        -3.50435
| 67>    S      -13.38896         6.36193        -2.82790
| 68>    C      -15.95082         5.63196        -3.43443
| 69>    C      -17.26510         5.65129        -3.94414
| 70>    C      -17.96851         4.51091        -3.69164
| 71>    C      -17.25846         3.52574        -2.96156
| 72>    S      -15.63765         4.11529        -2.62710
| 73>    C      -17.76792         2.31403        -2.56339
| 74>    C      -17.15646         1.29630        -1.80584
| 75>    C      -17.79791         0.11586        -1.41062
| 76>    C      -16.89951        -0.65897        -0.64044
| 77>    C      -17.03860        -1.87556        -0.00758
| 78>    C      -15.93498        -2.37157         0.70351
| 79>    C      -15.76170        -3.53405         1.44113
| 80>    C      -14.43286        -3.55810         1.97171
| 81>    C      -13.78565        -2.40801         1.55817
| 82>    C      -14.68525        -1.63081         0.76333
| 83>    C      -14.53941        -0.42468         0.13601
| 84>    C      -15.65123         0.08275        -0.57369
| 85>    C      -15.81755         1.25593        -1.27891
| 86>    C      -13.84851        -4.58724         2.79747
| 87>    C      -14.46739        -5.68838         3.21493
| 88>    H       -0.03835         2.15857         2.28559
| 89>    H       -0.43477        -2.80990         1.77286
| 90>    H        3.62919        -0.58190         4.39608
| 91>    H        2.30309         1.56085         3.70776
| 92>    H       -4.52341        -0.47533        -1.21768
| 93>    H       -7.33764         9.91460        -1.35450
| 94>    H       -6.14127         9.44842        -0.13621
| 95>    H       -9.17284         9.39599         0.27106
| 96>    H       -8.06561        10.61787         0.91153
| 97>    H       -7.96485         8.94906         1.47950
| 98>    H       -8.37473         4.26658        -3.22794
| 99>    H       -9.57739         5.55005        -3.31239
|100>    H       -9.28241         3.46382        -1.08933
|101>    H      -10.57631         3.53577        -2.29036
|102>    H      -10.45470         4.77634        -1.03980
|103>    H       -9.07484         9.07335        -2.45329
|104>    H      -10.91836         6.65342        -2.14529
|105>    H      -11.34064         9.42608        -3.40112
|106>    H      -13.81076         9.64304        -4.33143
|107>    H      -15.97205         8.25597        -4.54092
|108>    H      -17.65509         6.49716        -4.48124
|109>    H      -18.98504         4.34615        -4.00358
|110>    H      -18.79303         2.12252        -2.85913
|111>    H      -18.81061        -0.15460        -1.64701
|112>    H      -17.96389        -2.43269        -0.04876
|113>    H      -16.50421        -4.29605         1.59157
|114>    H      -12.77341        -2.13210         1.79061
|115>    H      -13.61561         0.13483         0.17589
|116>    H      -15.07007         2.01490        -1.41309
|117>    H      -12.81904        -4.41088         3.08301
|118>    H      -15.49052        -5.90588         2.96017
|119>    H      -13.96772        -6.41346         3.83338
|120> *
|121>
|122>                          ****END OF INPUT****

CARTESIAN COORDINATES (ANGSTROEM)
---------------------------------
  C     -2.536320   -1.143950    0.603320
  C     -3.068400   -2.381880    0.343400
  C     -2.448150   -3.598930    0.690650
  N     -1.987860   -4.622750    0.933420
  C     -4.314540   -2.611970   -0.275080
  N     -5.325840   -2.888850   -0.744530
  C     -1.312920   -0.879700    1.348350
  C     -1.171530    0.521910    1.505210
  C     -0.117710    1.087580    2.180800
  C      0.841010    0.231110    2.730670
  C      0.695130   -1.166380    2.562860
  C     -0.369960   -1.739670    1.878200
  S      2.001500   -2.028450    3.313110
  C      2.714440   -0.541860    3.837250
  C      2.013690    0.553060    3.470640
  C     -2.283050    1.209620    0.825510
  O     -2.385700    2.408430    0.656890
  C     -3.142160    0.129510    0.274770
  C     -4.201780    0.325280   -0.563470
  C     -4.930980    1.536330   -0.694200
  C     -5.137590    2.430240    0.379010
  C     -5.791720    3.697330    0.183260
  N     -5.872640    4.557540    1.206770
  C     -5.359930    4.238670    2.371030
  C     -4.846990    2.921640    2.593790
  N     -4.770830    2.058630    1.611580
  C     -4.442660    2.520000    3.890060
  N     -4.093260    2.224800    4.940740
  C     -5.391390    5.187850    3.419780
  N     -5.403000    5.940240    4.284320
  C     -6.372920    4.079690   -1.052990
  C     -6.236450    3.146260   -2.101670
  C     -5.532660    1.895800   -1.917250
  N     -5.454670    1.192970   -3.045050
  S     -6.180660    2.008130   -4.223140
  N     -6.622830    3.298350   -3.371810
  C     -6.952490    5.387780   -1.176600
  S     -6.165140    6.683540   -0.297430
  C     -7.256610    7.834600   -0.921700
  C     -7.152300    9.258600   -0.500120
  C     -8.156160    9.576840    0.612670
  C     -8.263370    7.247120   -1.685550
  C     -8.065620    5.843790   -1.850460
  C     -8.976780    4.949800   -2.629770
  C     -9.881460    4.132420   -1.704270
  C     -9.324370    8.041890   -2.235150
  C    -10.601030    7.635660   -2.461650
  C    -11.591350    8.426780   -3.071140
  C    -12.865370    7.970470   -3.307560
  C    -13.926760    8.640240   -3.959540
  C    -15.070670    7.904680   -4.071260
  C    -14.980050    6.617200   -3.504350
  S    -13.388960    6.361930   -2.827900
  C    -15.950820    5.631960   -3.434430
  C    -17.265100    5.651290   -3.944140
  C    -17.968510    4.510910   -3.691640
  C    -17.258460    3.525740   -2.961560
  S    -15.637650    4.115290   -2.627100
  C    -17.767920    2.314030   -2.563390
  C    -17.156460    1.296300   -1.805840
  C    -17.797910    0.115860   -1.410620
  C    -16.899510   -0.658970   -0.640440
  C    -17.038600   -1.875560   -0.007580
  C    -15.934980   -2.371570    0.703510
  C    -15.761700   -3.534050    1.441130
  C    -14.432860   -3.558100    1.971710
  C    -13.785650   -2.408010    1.558170
  C    -14.685250   -1.630810    0.763330
  C    -14.539410   -0.424680    0.136010
  C    -15.651230    0.082750   -0.573690
  C    -15.817550    1.255930   -1.278910
  C    -13.848510   -4.587240    2.797470
  C    -14.467390   -5.688380    3.214930
  H     -0.038350    2.158570    2.285590
  H     -0.434770   -2.809900    1.772860
  H      3.629190   -0.581900    4.396080
  H      2.303090    1.560850    3.707760
  H     -4.523410   -0.475330   -1.217680
  H     -7.337640    9.914600   -1.354500
  H     -6.141270    9.448420   -0.136210
  H     -9.172840    9.395990    0.271060
  H     -8.065610   10.617870    0.911530
  H     -7.964850    8.949060    1.479500
  H     -8.374730    4.266580   -3.227940
  H     -9.577390    5.550050   -3.312390
  H     -9.282410    3.463820   -1.089330
  H    -10.576310    3.535770   -2.290360
  H    -10.454700    4.776340   -1.039800
  H     -9.074840    9.073350   -2.453290
  H    -10.918360    6.653420   -2.145290
  H    -11.340640    9.426080   -3.401120
  H    -13.810760    9.643040   -4.331430
  H    -15.972050    8.255970   -4.540920
  H    -17.655090    6.497160   -4.481240
  H    -18.985040    4.346150   -4.003580
  H    -18.793030    2.122520   -2.859130
  H    -18.810610   -0.154600   -1.647010
  H    -17.963890   -2.432690   -0.048760
  H    -16.504210   -4.296050    1.591570
  H    -12.773410   -2.132100    1.790610
  H    -13.615610    0.134830    0.175890
  H    -15.070070    2.014900   -1.413090
  H    -12.819040   -4.410880    3.083010
  H    -15.490520   -5.905880    2.960170
  H    -13.967720   -6.413460    3.833380

 Total Charge           Charge          ....    0
 Multiplicity           Mult            ....    1
 Number of Electrons    NEL             ....  530
 Basis Dimension        Dim             .... 1202

ORBITAL ENERGIES
----------------

  NO   OCC          E(Eh)            E(eV)
   0   2.0000     -89.049044     -2423.1477
   1   2.0000     -88.962953     -2420.8050
   2   2.0000     -88.958067     -2420.6721
   3   2.0000     -88.940268     -2420.1877
   4   2.0000     -88.937855     -2420.1221
   5   2.0000     -19.213049      -522.8136
   6   2.0000     -14.462384      -393.5415
   7   2.0000     -14.459978      -393.4760
   8   2.0000     -14.457752      -393.4154
   9   2.0000     -14.453774      -393.3072
  10   2.0000     -14.429759      -392.6537
  11   2.0000     -14.427764      -392.5994
  12   2.0000     -14.411244      -392.1499
  13   2.0000     -14.410482      -392.1292
  14   2.0000     -10.381395      -282.4921
  15   2.0000     -10.378678      -282.4182
  16   2.0000     -10.364547      -282.0337
  17   2.0000     -10.351363      -281.6749
  18   2.0000     -10.348961      -281.6096
  19   2.0000     -10.347803      -281.5780
  20   2.0000     -10.346578      -281.5447
  21   2.0000     -10.338329      -281.3202
  22   2.0000     -10.336244      -281.2635
  23   2.0000     -10.336015      -281.2573
  24   2.0000     -10.322659      -280.8938
  25   2.0000     -10.321590      -280.8647
  26   2.0000     -10.316967      -280.7389
  27   2.0000     -10.313905      -280.6556
  28   2.0000     -10.313329      -280.6400
  29   2.0000     -10.312851      -280.6269
  30   2.0000     -10.310603      -280.5658
  31   2.0000     -10.307526      -280.4820
  32   2.0000     -10.306099      -280.4432
  33   2.0000     -10.305333      -280.4224
  34   2.0000     -10.304732      -280.4060
  35   2.0000     -10.302372      -280.3418
  36   2.0000     -10.301760      -280.3251
  37   2.0000     -10.301572      -280.3200
  38   2.0000     -10.299840      -280.2729
  39   2.0000     -10.299371      -280.2601
  40   2.0000     -10.299243      -280.2567
  41   2.0000     -10.298025      -280.2235
  42   2.0000     -10.297381      -280.2060
  43   2.0000     -10.297171      -280.2003
  44   2.0000     -10.295212      -280.1470
  45   2.0000     -10.287865      -279.9470
  46   2.0000     -10.286592      -279.9124
  47   2.0000     -10.285427      -279.8807
  48   2.0000     -10.284874      -279.8657
  49   2.0000     -10.284025      -279.8425
  50   2.0000     -10.282899      -279.8119
  51   2.0000     -10.281315      -279.7688
  52   2.0000     -10.280420      -279.7445
  53   2.0000     -10.280349      -279.7425
  54   2.0000     -10.278617      -279.6954
  55   2.0000     -10.278008      -279.6788
  56   2.0000     -10.277180      -279.6563
  57   2.0000     -10.273793      -279.5641
  58   2.0000     -10.272526      -279.5297
  59   2.0000     -10.272161      -279.5197
  60   2.0000     -10.272111      -279.5184
  61   2.0000     -10.270595      -279.4771
  62   2.0000     -10.270206      -279.4665
  63   2.0000     -10.266536      -279.3667
  64   2.0000     -10.266151      -279.3562
  65   2.0000     -10.264770      -279.3186
  66   2.0000     -10.263852      -279.2936
  67   2.0000     -10.263462      -279.2830
  68   2.0000     -10.263129      -279.2739
  69   2.0000     -10.261005      -279.2161
  70   2.0000     -10.257810      -279.1292
  71   2.0000     -10.256706      -279.0991
  72   2.0000     -10.255159      -279.0571
  73   2.0000      -8.140283      -221.5084
  74   2.0000      -8.059184      -219.3016
  75   2.0000      -8.053091      -219.1358
  76   2.0000      -8.036322      -218.6794
  77   2.0000      -8.034076      -218.6183
  78   2.0000      -6.111312      -166.2973
  79   2.0000      -6.103486      -166.0843
  80   2.0000      -6.103197      -166.0764
  81   2.0000      -6.028681      -164.0488
  82   2.0000      -6.024409      -163.9325
  83   2.0000      -6.022231      -163.8732
  84   2.0000      -6.020865      -163.8361
  85   2.0000      -6.017972      -163.7574
  86   2.0000      -6.015555      -163.6916
  87   2.0000      -6.006070      -163.4335
  88   2.0000      -6.003787      -163.3713
  89   2.0000      -6.002057      -163.3243
  90   2.0000      -5.999882      -163.2651
  91   2.0000      -5.997232      -163.1930
  92   2.0000      -5.994965      -163.1313
  93   2.0000      -1.144873       -31.1536
  94   2.0000      -1.130084       -30.7511
  95   2.0000      -1.119098       -30.4522
  96   2.0000      -1.047587       -28.5063
  97   2.0000      -1.016076       -27.6488
  98   2.0000      -1.013542       -27.5799
  99   2.0000      -1.005005       -27.3476
 100   2.0000      -1.004119       -27.3235
 101   2.0000      -1.000026       -27.2121
 102   2.0000      -0.993056       -27.0224
 103   2.0000      -0.990236       -26.9457
 104   2.0000      -0.989018       -26.9125
 105   2.0000      -0.984896       -26.8004
 106   2.0000      -0.981498       -26.7079
 107   2.0000      -0.974373       -26.5140
 108   2.0000      -0.968320       -26.3493
 109   2.0000      -0.957951       -26.0672
 110   2.0000      -0.928450       -25.2644
 111   2.0000      -0.913782       -24.8653
 112   2.0000      -0.909442       -24.7472
 113   2.0000      -0.904786       -24.6205
 114   2.0000      -0.897379       -24.4189
 115   2.0000      -0.893718       -24.3193
 116   2.0000      -0.883735       -24.0476
 117   2.0000      -0.877339       -23.8736
 118   2.0000      -0.874420       -23.7942
 119   2.0000      -0.864002       -23.5107
 120   2.0000      -0.862332       -23.4652
 121   2.0000      -0.850690       -23.1485
 122   2.0000      -0.848962       -23.1014
 123   2.0000      -0.840624       -22.8745
 124   2.0000      -0.836752       -22.7692
 125   2.0000      -0.831660       -22.6306
 126   2.0000      -0.819208       -22.2918
 127   2.0000      -0.816178       -22.2093
 128   2.0000      -0.810734       -22.0612
 129   2.0000      -0.806727       -21.9522
 130   2.0000      -0.796288       -21.6681
 131   2.0000      -0.795712       -21.6524
 132   2.0000      -0.785356       -21.3706
 133   2.0000      -0.771552       -20.9950
 134   2.0000      -0.756780       -20.5930
 135   2.0000      -0.753123       -20.4935
 136   2.0000      -0.744163       -20.2497
 137   2.0000      -0.742265       -20.1981
 138   2.0000      -0.731724       -19.9112
 139   2.0000      -0.726339       -19.7647
 140   2.0000      -0.715737       -19.4762
 141   2.0000      -0.705696       -19.2030
 142   2.0000      -0.700452       -19.0603
 143   2.0000      -0.698362       -19.0034
 144   2.0000      -0.693854       -18.8807
 145   2.0000      -0.683852       -18.6086
 146   2.0000      -0.681473       -18.5438
 147   2.0000      -0.677436       -18.4340
 148   2.0000      -0.667325       -18.1588
 149   2.0000      -0.666397       -18.1336
 150   2.0000      -0.657729       -17.8977
 151   2.0000      -0.657587       -17.8938
 152   2.0000      -0.649893       -17.6845
 153   2.0000      -0.642188       -17.4748
 154   2.0000      -0.639789       -17.4095
 155   2.0000      -0.633920       -17.2498
 156   2.0000      -0.627728       -17.0813
 157   2.0000      -0.622932       -16.9508
 158   2.0000      -0.621102       -16.9010
 159   2.0000      -0.616224       -16.7683
 160   2.0000      -0.614616       -16.7245
 161   2.0000      -0.610902       -16.6235
 162   2.0000      -0.605888       -16.4871
 163   2.0000      -0.598029       -16.2732
 164   2.0000      -0.592519       -16.1233
 165   2.0000      -0.589761       -16.0482
 166   2.0000      -0.588427       -16.0119
 167   2.0000      -0.580837       -15.8054
 168   2.0000      -0.577893       -15.7253
 169   2.0000      -0.575627       -15.6636
 170   2.0000      -0.571781       -15.5589
 171   2.0000      -0.563376       -15.3302
 172   2.0000      -0.560898       -15.2628
 173   2.0000      -0.550339       -14.9755
 174   2.0000      -0.543698       -14.7948
 175   2.0000      -0.543393       -14.7865
 176   2.0000      -0.542401       -14.7595
 177   2.0000      -0.535947       -14.5839
 178   2.0000      -0.534824       -14.5533
 179   2.0000      -0.529997       -14.4220
 180   2.0000      -0.529568       -14.4103
 181   2.0000      -0.527621       -14.3573
 182   2.0000      -0.521290       -14.1850
 183   2.0000      -0.520106       -14.1528
 184   2.0000      -0.516978       -14.0677
 185   2.0000      -0.515035       -14.0148
 186   2.0000      -0.513094       -13.9620
 187   2.0000      -0.505303       -13.7500
 188   2.0000      -0.503264       -13.6945
 189   2.0000      -0.502467       -13.6728
 190   2.0000      -0.499761       -13.5992
 191   2.0000      -0.496350       -13.5064
 192   2.0000      -0.494902       -13.4670
 193   2.0000      -0.493311       -13.4237
 194   2.0000      -0.490295       -13.3416
 195   2.0000      -0.489762       -13.3271
 196   2.0000      -0.488882       -13.3032
 197   2.0000      -0.487866       -13.2755
 198   2.0000      -0.486369       -13.2348
 199   2.0000      -0.483557       -13.1583
 200   2.0000      -0.478892       -13.0313
 201   2.0000      -0.477778       -13.0010
 202   2.0000      -0.475391       -12.9360
 203   2.0000      -0.471756       -12.8371
 204   2.0000      -0.468587       -12.7509
 205   2.0000      -0.467599       -12.7240
 206   2.0000      -0.464492       -12.6395
 207   2.0000      -0.461520       -12.5586
 208   2.0000      -0.458927       -12.4880
 209   2.0000      -0.455570       -12.3967
 210   2.0000      -0.453222       -12.3328
 211   2.0000      -0.452138       -12.3033
 212   2.0000      -0.451157       -12.2766
 213   2.0000      -0.449734       -12.2379
 214   2.0000      -0.449384       -12.2284
 215   2.0000      -0.448878       -12.2146
 216   2.0000      -0.447012       -12.1638
 217   2.0000      -0.444130       -12.0854
 218   2.0000      -0.443533       -12.0692
 219   2.0000      -0.441813       -12.0223
 220   2.0000      -0.438913       -11.9434
 221   2.0000      -0.438054       -11.9200
 222   2.0000      -0.436601       -11.8805
 223   2.0000      -0.434639       -11.8271
 224   2.0000      -0.431636       -11.7454
 225   2.0000      -0.430614       -11.7176
 226   2.0000      -0.428854       -11.6697
 227   2.0000      -0.425398       -11.5757
 228   2.0000      -0.424431       -11.5494
 229   2.0000      -0.422794       -11.5048
 230   2.0000      -0.421896       -11.4804
 231   2.0000      -0.419091       -11.4041
 232   2.0000      -0.418131       -11.3779
 233   2.0000      -0.417935       -11.3726
 234   2.0000      -0.414569       -11.2810
 235   2.0000      -0.413937       -11.2638
 236   2.0000      -0.410857       -11.1800
 237   2.0000      -0.408328       -11.1112
 238   2.0000      -0.405400       -11.0315
 239   2.0000      -0.403361       -10.9760
 240   2.0000      -0.401578       -10.9275
 241   2.0000      -0.397407       -10.8140
 242   2.0000      -0.392600       -10.6832
 243   2.0000      -0.389361       -10.5950
 244   2.0000      -0.385674       -10.4947
 245   2.0000      -0.373023       -10.1505
 246   2.0000      -0.372167       -10.1272
 247   2.0000      -0.366833        -9.9820
 248   2.0000      -0.365244        -9.9388
 249   2.0000      -0.357310        -9.7229
 250   2.0000      -0.350471        -9.5368
 251   2.0000      -0.346231        -9.4214
 252   2.0000      -0.336639        -9.1604
 253   2.0000      -0.334323        -9.0974
 254   2.0000      -0.330429        -8.9914
 255   2.0000      -0.319020        -8.6810
 256   2.0000      -0.313684        -8.5358
 257   2.0000      -0.309208        -8.4140
 258   2.0000      -0.306787        -8.3481
 259   2.0000      -0.291185        -7.9236
 260   2.0000      -0.282417        -7.6850
 261   2.0000      -0.267207        -7.2711
 262   2.0000      -0.263308        -7.1650
 263   2.0000      -0.244713        -6.6590
 264   2.0000      -0.197933        -5.3860
 265   0.0000      -0.127784        -3.4772
 266   0.0000      -0.095221        -2.5911
 267   0.0000      -0.078530        -2.1369
 268   0.0000      -0.068920        -1.8754
 269   0.0000      -0.054685        -1.4881

MULLIKEN ATOMIC CHARGES
-----------------------
   0 C :    0.298787
   1 C :   -0.341066
   2 C :   -0.185882
   3 N :    0.149971
   4 C :   -0.202717
   5 N :    0.162079
   6 C :    0.024220
   7 C :   -0.017330
   8 C :   -0.064921
   9 C :    0.115177
  10 C :   -0.093038
  11 C :   -0.027622
  12 S :    0.140512
  13 C :   -0.047645
  14 C :    0.025666
  15 C :    0.154277
  16 O :   -0.167989
  17 C :   -0.057325
  18 C :   -0.070165
  19 C :    0.080725
  20 C :   -0.033562
  21 C :   -0.061082
  22 N :    0.034338
  23 C :   -0.120005
  24 C :   -0.117521
  25 N :    0.044182
  26 C :   -0.212219
  27 N :    0.241644
  28 C :   -0.215573
  29 N :    0.235200
  30 C :    0.120005
  31 C :    0.019791
  32 C :    0.001824
  33 N :   -0.270411
  34 S :    0.554200
  35 N :   -0.272021
  36 C :   -0.250066
  37 S :    0.189510
  38 C :   -0.222070
  39 C :    0.087801
  40 C :    0.015086
  41 C :    0.083985
  42 C :    0.012473
  43 C :    0.058385
  44 C :    0.020404
  45 C :   -0.059159
  46 C :    0.006762
  47 C :   -0.018102
  48 C :   -0.016119
  49 C :    0.031793
  50 C :    0.027542
  51 C :   -0.044643
  52 S :    0.042548
  53 C :   -0.025200
  54 C :    0.019724
  55 C :    0.037419
  56 C :   -0.029034
  57 S :    0.040683
  58 C :   -0.008354
  59 C :    0.060405
  60 C :   -0.039810
  61 C :    0.069574
  62 C :   -0.002833
  63 C :    0.048343
  64 C :   -0.019445
  65 C :    0.062154
  66 C :   -0.024724
  67 C :    0.061331
  68 C :   -0.001771
  69 C :    0.042171
  70 C :   -0.030347
  71 C :    0.012839
  72 C :   -0.026759
  73 H :   -0.012746
  74 H :   -0.006435
  75 H :    0.038362
  76 H :   -0.006428
  77 H :    0.042471
  78 H :    0.022964
  79 H :    0.009048
  80 H :    0.026646
  81 H :    0.020404
  82 H :    0.021801
  83 H :    0.014142
  84 H :    0.007132
  85 H :    0.003470
  86 H :    0.019984
  87 H :    0.022879
  88 H :   -0.019412
  89 H :   -0.000370
  90 H :   -0.024417
  91 H :   -0.017769
  92 H :   -0.016239
  93 H :   -0.017488
  94 H :   -0.015120
  95 H :   -0.025052
  96 H :   -0.030525
  97 H :   -0.025659
  98 H :   -0.022845
  99 H :   -0.025055
 100 H :   -0.024384
 101 H :   -0.008016
 102 H :   -0.016867
 103 H :    0.006332
 104 H :    0.022189
Sum of atomic charges:   -0.0000000

LOEWDIN ATOMIC CHARGES
----------------------
   0 C :    0.075086
   1 C :   -0.135810
   2 C :   -0.017542
   3 N :   -0.053152
   4 C :   -0.023111
   5 N :   -0.050954
   6 C :   -0.020889
   7 C :   -0.051075
   8 C :    0.024920
   9 C :   -0.033722
  10 C :   -0.144034
  11 C :   -0.008851
  12 S :    0.429230
  13 C :   -0.148846
  14 C :   -0.056674
  15 C :    0.085093
  16 O :   -0.158975
  17 C :   -0.073522
  18 C :    0.077364
  19 C :   -0.054289
  20 C :    0.023905
  21 C :   -0.018561
  22 N :   -0.008329
  23 C :   -0.030375
  24 C :   -0.015327
  25 N :    0.011370
  26 C :   -0.033628
  27 N :   -0.004408
  28 C :   -0.036288
  29 N :   -0.009924
  30 C :    0.001053
  31 C :   -0.048341
  32 C :   -0.027700
  33 N :   -0.283897
  34 S :    0.685884
  35 N :   -0.258516
  36 C :   -0.184040
  37 S :    0.495889
  38 C :   -0.145457
  39 C :   -0.044751
  40 C :   -0.046019
  41 C :   -0.077321
  42 C :   -0.004180
  43 C :   -0.043612
  44 C :   -0.049401
  45 C :   -0.029970
  46 C :   -0.032051
  47 C :   -0.067674
  48 C :   -0.139475
  49 C :   -0.043805
  50 C :   -0.028367
  51 C :   -0.190143
  52 S :    0.359147
  53 C :   -0.173001
  54 C :   -0.045244
  55 C :   -0.026442
  56 C :   -0.160106
  57 S :    0.373307
  58 C :   -0.039286
  59 C :   -0.065183
  60 C :    0.012030
  61 C :   -0.060242
  62 C :    0.072814
  63 C :   -0.063415
  64 C :    0.050200
  65 C :   -0.058735
  66 C :    0.017795
  67 C :   -0.058199
  68 C :    0.070503
  69 C :   -0.061171
  70 C :    0.027640
  71 C :   -0.020346
  72 C :   -0.054162
  73 H :    0.040121
  74 H :    0.040741
  75 H :    0.029386
  76 H :    0.035506
  77 H :    0.049103
  78 H :    0.034452
  79 H :    0.030006
  80 H :    0.027267
  81 H :    0.026415
  82 H :    0.027785
  83 H :    0.022657
  84 H :    0.029147
  85 H :    0.019389
  86 H :    0.026682
  87 H :    0.021194
  88 H :    0.025791
  89 H :    0.021037
  90 H :    0.029225
  91 H :    0.031533
  92 H :    0.031016
  93 H :    0.030409
  94 H :    0.032328
  95 H :    0.034787
  96 H :    0.022827
  97 H :    0.034532
  98 H :    0.025348
  99 H :    0.025247
 100 H :    0.035335
 101 H :    0.013470
 102 H :    0.030383
 103 H :    0.017173
 104 H :    0.025021

  Mayer bond orders larger than 0.100000
B(  0-C ,  1-C ) :   1.6371 B(  0-C ,  6-C ) :   1.0064 B(  0-C , 17-C ) :   1.0700
B(  1-C ,  2-C ) :   1.1424 B(  1-C ,  4-C ) :   1.1451 B(  2-C ,  3-N ) :   2.9706
B(  4-C ,  5-N ) :   2.9882 B(  6-C ,  7-C ) :   1.2659 B(  6-C , 11-C ) :   1.4078
B(  7-C ,  8-C ) :   1.4233 B(  7-C , 15-C ) :   0.9536 B(  8-C ,  9-C ) :   1.2457
B(  8-C , 73-H ) :   1.0167 B(  9-C , 10-C ) :   1.3015 B(  9-C , 14-C ) :   1.1718
B( 10-C , 11-C ) :   1.3230 B( 10-C , 12-S ) :   1.0992 B( 11-C , 74-H ) :   0.9838
B( 12-S , 13-C ) :   1.1257 B( 13-C , 14-C ) :   1.6290 B( 13-C , 75-H ) :   0.9684
B( 14-C , 76-H ) :   0.9997 B( 15-C , 16-O ) :   2.1932 B( 15-C , 17-C ) :   0.9395
B( 17-C , 18-C ) :   1.5908 B( 18-C , 19-C ) :   1.1792 B( 18-C , 77-H ) :   0.9353
B( 19-C , 20-C ) :   1.2559 B( 19-C , 30-C ) :   0.1174 B( 19-C , 32-C ) :   1.1821
B( 20-C , 21-C ) :   1.1259 B( 20-C , 25-N ) :   1.4207 B( 21-C , 22-N ) :   1.4346
B( 21-C , 30-C ) :   1.2420 B( 22-N , 23-C ) :   1.7072 B( 23-C , 24-C ) :   1.2074
B( 23-C , 28-C ) :   1.1561 B( 24-C , 25-N ) :   1.7118 B( 24-C , 26-C ) :   1.1587
B( 26-C , 27-N ) :   3.0502 B( 28-C , 29-N ) :   3.0460 B( 30-C , 31-C ) :   1.2324
B( 30-C , 36-C ) :   1.1418 B( 31-C , 32-C ) :   1.0977 B( 31-C , 35-N ) :   1.4751
B( 32-C , 33-N ) :   1.5516 B( 33-N , 34-S ) :   1.2714 B( 33-N , 35-N ) :   0.1508
B( 34-S , 35-N ) :   1.2898 B( 36-C , 37-S ) :   1.0933 B( 36-C , 42-C ) :   1.4864
B( 37-S , 38-C ) :   1.2151 B( 38-C , 39-C ) :   1.0770 B( 38-C , 41-C ) :   1.4121
B( 39-C , 40-C ) :   1.0912 B( 39-C , 78-H ) :   0.9190 B( 39-C , 79-H ) :   0.9192
B( 40-C , 80-H ) :   0.9719 B( 40-C , 81-H ) :   0.9670 B( 40-C , 82-H ) :   0.9675
B( 41-C , 42-C ) :   1.2669 B( 41-C , 45-C ) :   1.0703 B( 42-C , 43-C ) :   1.0965
B( 43-C , 44-C ) :   1.0962 B( 43-C , 83-H ) :   0.8861 B( 43-C , 84-H ) :   0.9029
B( 44-C , 85-H ) :   0.9640 B( 44-C , 86-H ) :   0.9675 B( 44-C , 87-H ) :   0.9612
B( 45-C , 46-C ) :   1.6676 B( 45-C , 88-H ) :   0.9608 B( 46-C , 47-C ) :   1.1466
B( 46-C , 89-H ) :   0.9691 B( 47-C , 48-C ) :   1.5591 B( 47-C , 90-H ) :   0.9865
B( 48-C , 49-C ) :   1.1461 B( 48-C , 52-S ) :   1.0335 B( 49-C , 50-C ) :   1.5795
B( 49-C , 91-H ) :   0.9985 B( 50-C , 51-C ) :   1.2010 B( 50-C , 92-H ) :   0.9933
B( 51-C , 52-S ) :   1.0373 B( 51-C , 53-C ) :   1.4929 B( 53-C , 54-C ) :   1.1949
B( 53-C , 57-S ) :   1.0470 B( 54-C , 55-C ) :   1.5835 B( 54-C , 93-H ) :   0.9930
B( 55-C , 56-C ) :   1.1471 B( 55-C , 94-H ) :   0.9985 B( 56-C , 57-S ) :   1.0181
B( 56-C , 58-C ) :   1.5683 B( 58-C , 59-C ) :   1.1407 B( 58-C , 95-H ) :   0.9692
B( 59-C , 60-C ) :   1.4252 B( 59-C , 70-C ) :   1.1315 B( 60-C , 61-C ) :   1.1221
B( 60-C , 96-H ) :   1.0195 B( 61-C , 62-C ) :   1.4163 B( 61-C , 69-C ) :   1.1296
B( 62-C , 63-C ) :   1.1482 B( 62-C , 97-H ) :   1.0048 B( 63-C , 64-C ) :   1.4222
B( 63-C , 67-C ) :   1.1243 B( 64-C , 65-C ) :   1.1534 B( 64-C , 98-H ) :   1.0077
B( 65-C , 66-C ) :   1.4991 B( 65-C , 71-C ) :   1.0840 B( 66-C , 67-C ) :   1.0867
B( 66-C , 99-H ) :   1.0173 B( 67-C , 68-C ) :   1.4637 B( 68-C , 69-C ) :   1.1238
B( 68-C ,100-H ) :   1.0046 B( 69-C , 70-C ) :   1.4636 B( 70-C ,101-H ) :   0.9899
B( 71-C , 72-C ) :   1.9353 B( 71-C ,102-H ) :   0.9665 B( 72-C ,103-H ) :   0.9525
B( 72-C ,104-H ) :   0.9493

-----------------------------------------------------------------------------
         ABSORPTION SPECTRUM VIA TRANSITION ELECTRIC DIPOLE MOMENTS
-----------------------------------------------------------------------------
State   Energy  Wavelength   fosc         T2         TX        TY        TZ
        (cm-1)    (nm)                  (au**2)     (au)      (au)      (au)
-----------------------------------------------------------------------------
   0    4157.4   2405.3   0.080581709   6.38099   2.39600  -0.70931   0.37020
   1    6059.3   1650.4   0.013589175   0.73832  -0.29994  -0.76597   0.24830
   2   12185.4    820.7   0.313939076   8.48164  -2.55561   1.33383  -0.41399
   3   14804.1    675.5   0.155233956   3.45208  -0.91467  -1.54967   0.46260
   4   15019.6    665.8   1.160282823  25.43208  -2.67490  -4.17444   0.92249
   5   15478.5    646.1   0.157268410   3.34494   0.20206   1.76725  -0.42538
   6   17055.1    586.3   0.078099708   1.50754  -0.39222   1.14595  -0.20125
   7   19265.4    519.1   0.009701843   0.16579  -0.30803  -0.25413  -0.07951
   8   20953.0    477.3   0.002396276   0.03765  -0.08253   0.14031  -0.10561
   9   21055.2    474.9   0.029144627   0.45570  -0.36093   0.30870  -0.47972
  10   21963.2    455.3   0.009896011   0.14833   0.25327  -0.28943   0.02041
  11   22216.5    450.1   0.042851031   0.63498  -0.28467  -0.48727   0.56259
  12   22238.8    449.7   0.091848849   1.35968  -0.64992   0.90115  -0.35384
  13   22572.2    443.0   0.173018201   2.52344  -0.70077   1.42275  -0.09028
  14   23131.5    432.3   0.126757344   1.80404  -0.64020   1.13624  -0.32117
  15   23855.5    419.2   0.009074800   0.12523  -0.24649   0.11234  -0.22772
  16   24177.4    413.6   0.054202648   0.73805   0.65583  -0.41467   0.36876
  17   24373.7    410.3   0.004848404   0.06549  -0.13648   0.04455  -0.21184
  18   24694.3    405.0   0.026723720   0.35627   0.39518   0.40625   0.18725
  19   25200.1    396.8   0.091483573   1.19513  -1.01482   0.14829  -0.37853
  20   25275.4    395.6   0.059153422   0.77047   0.73993   0.16067   0.44403
  21   26964.1    370.9   1.338774527  16.34544  -2.65964   2.18471  -2.12103
  22   27243.8    367.1   0.027329714   0.33025  -0.11740   0.55689   0.07962
  23   27756.8    360.3   0.057773910   0.68523  -0.66541   0.41387  -0.26677
  24   27902.6    358.4   0.016485289   0.19450  -0.31452  -0.25956  -0.16796
  25   28110.4    355.7   0.045874796   0.53726  -0.39540   0.51426  -0.34125
  26   28239.0    354.1   0.028615800   0.33360   0.42318  -0.30757  -0.24479
  27   28891.9    346.1   0.277771365   3.16510  -0.72815   1.27402  -1.00586
  28   29294.0    341.4   0.026853605   0.30179   0.31499   0.06947   0.44468
  29   29851.2    335.0   0.185214472   2.04262   1.13368  -0.54268   0.68036
  30   29920.2    334.2   0.150319084   1.65396  -1.10952  -0.57059  -0.31203
  31   29942.1    334.0   0.011593941   0.12747   0.06980  -0.05173  -0.34631
  32   30721.8    325.5   0.050918194   0.54563   0.47613  -0.15739  -0.54237
  33   31116.3    321.4   0.008129477   0.08601  -0.12740  -0.24414  -0.10087
  34   31384.7    318.6   0.034151282   0.35823  -0.46771  -0.10492   0.35842
  35   31453.0    317.9   0.046658717   0.48837   0.29608  -0.27918   0.56812
  36   31632.8    316.1   0.123622277   1.28657  -0.22942   0.02776  -1.11048
  37   31901.5    313.5   0.174075314   1.79639   0.46445   0.58745   1.11157
  38   32539.2    307.3   0.086233040   0.87245   0.41562  -0.36245   0.75388
  39   32704.3    305.8   0.005545992   0.05583  -0.14296  -0.08531   0.16767
  40   32736.5    305.5   0.045408278   0.45664   0.21980   0.63418   0.07838
  41   32771.8    305.1   0.007866035   0.07902   0.12115  -0.15474   0.20099
  42   32867.8    304.2   0.121730649   1.21928  -0.09325   0.47571   0.99211
  43   32930.0    303.7   0.316981761   3.16897  -0.66971   0.87626  -1.39736
  44   33315.1    300.2   0.054671172   0.54025   0.33960  -0.44147   0.47961
  45   33337.1    300.0   0.027864715   0.27517  -0.17879   0.27295  -0.41074
  46   34138.5    292.9   0.163968767   1.58122  -0.38532   0.19185  -1.18150
  47   34316.8    291.4   0.084232510   0.80807   0.61837   0.18182   0.62660
  48   34336.3    291.2   0.539836036   5.17587   1.52105   1.25706   1.13229
  49   34545.6    289.5   0.042894482   0.40877  -0.15958   0.03288   0.61824
  50   35016.9    285.6   0.006070283   0.05707   0.10284   0.15625   0.14860
  51   35309.8    283.2   0.019262826   0.17960  -0.34878   0.21964  -0.09856
  52   35437.1    282.2   0.024370722   0.22640   0.29932  -0.30327  -0.21175
  53   35652.1    280.5   0.003019959   0.02789  -0.13918   0.06672  -0.06375
  54   35773.4    279.5   0.075682190   0.69648   0.12822   0.25645   0.78376
  55   36057.0    277.3   0.046536127   0.42489  -0.09633   0.61047  -0.20721
  56   36549.9    273.6   0.004006621   0.03609  -0.06656  -0.05938  -0.16772
  57   36886.8    271.1   0.143481388   1.28056  -0.22121   0.88099  -0.67490
  58   37236.3    268.6   0.003833072   0.03389  -0.09117  -0.09826   0.12618
  59   37574.0    266.1   0.007681835   0.06731   0.09325   0.11217   0.21454
  60   37620.5    265.8   0.078960805   0.69097  -0.21912   0.60589  -0.52522
  61   37922.1    263.7   0.000623505   0.00541   0.02450   0.01392   0.06796
  62   37967.2    263.4   0.011243296   0.09749   0.05362  -0.23816  -0.19467
  63   38112.7    262.4   0.040117875   0.34653  -0.46225   0.34923  -0.10438
  64   38221.3    261.6   0.006394054   0.05507  -0.09885  -0.19259   0.09061
  65   38250.8    261.4   0.076651371   0.65971   0.27488   0.68905  -0.33071
  66   38563.8    259.3   0.004294518   0.03666  -0.01999  -0.06258   0.17985
  67   38696.2    258.4   0.032482419   0.27635  -0.46809   0.13941  -0.19443
  68   38809.5    257.7   0.009570902   0.08119   0.25720  -0.03409  -0.11779
  69   38896.7    257.1   0.040821263   0.34550  -0.30397   0.49952  -0.05983
  70   39224.5    254.9   0.193233127   1.62181   0.27645  -1.22331   0.22112
  71   39619.8    252.4   0.000142602   0.00118  -0.02041   0.00369  -0.02747
  72   39811.4    251.2   0.018274111   0.15111   0.20510  -0.27981   0.17537
  73   39867.7    250.8   0.024638551   0.20346   0.10317  -0.41078   0.15516
  74   39959.1    250.3   0.010363735   0.08538  -0.11552   0.18847  -0.19110
  75   40189.8    248.8   0.144515776   1.18379   0.02011  -0.96581  -0.50060

FINAL SINGLE POINT ENERGY     -4767.342015558011

DIPOLE MOMENT
-------------
                                X             Y             Z
Electronic contribution:     67.61853     -23.49871       4.64712
Nuclear contribution   :    -68.72273      25.60654      -6.64776
                        -----------------------------------------
Total Dipole Moment    :     -1.10421       2.10783      -2.00065
                        -----------------------------------------
Magnitude (a.u.)       :      3.10883
Magnitude (Debye)      :      7.90201

Rotational constants in cm-1:     0.000951     0.000397     0.000310
Rotational constants in MHz :    28.515630    11.902032     9.302278

                             ****ORCA TERMINATED NORMALLY****
TOTAL RUN TIME: 0 days 0 hours 19 minutes 45 seconds 649 msec
