                         Program Version 4.2.0 -  RELEASE  -
|  1> # ORCA input file
|  2> # SCF done       -198.520874565964          0.000825164557
|  3> ! CAM-B3LYP def2-SVP def2/J RIJCOSX Grid4 TightSCF
|  4> %maxcore 5000
|  5> %tddft
|  6>     Mode sTDDFT
|  7>     Ethresh 5.0
|  8>     maxcore 5000
|  9> end
| 10>
| 11> %pal
| 12>   nprocs 6
| 13>   end
| 14> * xyz 0 1
| 15>    C       -7.41983        -1.28297        -0.04342
| 16>    C       -7.50066        -1.45664         1.31655
| 17>    C       -7.87761        -2.66334         1.93845
| 18>    N       -8.19138        -3.61304         2.50350
| 19>    C       -7.19853        -0.47023         2.27691
| 20>    N       -6.95036         0.27003         3.12006
| 21>    C       -7.63532        -2.31872        -1.04803
| 22>    C       -7.36790        -1.76865        -2.32688
| 23>    C       -7.47225        -2.49923        -3.48460
| 24>    C       -7.85718        -3.83991        -3.37712
| 25>    C       -8.12663        -4.37931        -2.09791
| 26>    C       -8.02177        -3.63894        -0.92521
| 27>    S       -8.59067        -6.04890        -2.20603
| 28>    C       -8.41957        -6.01094        -3.92716
| 29>    C       -8.03462        -4.80791        -4.40566
| 30>    C       -6.98460        -0.35604        -2.17513
| 31>    O       -6.74691         0.43450        -3.07403
| 32>    C       -7.03637        -0.07228        -0.73507
| 33>    C       -6.96150         1.18297        -0.17540
| 34>    C       -6.47535         2.36655        -0.74280
| 35>    S       -7.08816         3.87387        -0.08614
| 36>    C       -6.12928         4.82883        -1.17445
| 37>    C       -5.32778         3.99123        -1.96712
| 38>    C       -5.51208         2.63065        -1.72970
| 39>    S       -4.51354         1.34849        -2.37182
| 40>    C       -3.08868         2.10629        -3.10605
| 41>    O       -2.10799         1.42449        -3.23931
| 42>    C       -3.14021         3.48117        -3.72446
| 43>    O       -2.37505         3.78239        -4.60042
| 44>    S       -4.28942         4.70784        -3.18815
| 45>    C       -6.19143         6.22375        -1.23407
| 46>    C       -6.97799         7.00238        -0.41948
| 47>    C       -7.06358         8.38602        -0.52828
| 48>    C       -7.84319         9.19262         0.27873
| 49>    C       -8.00461        10.59032         0.16592
| 50>    C       -8.84879        11.13467         1.09044
| 51>    C       -9.38649        10.19481         1.99160
| 52>    S       -8.79402         8.58766         1.61731
| 53>    C      -10.24939        10.42968         3.04645
| 54>    C      -10.82300        11.66041         3.44003
| 55>    C      -11.64113        11.57382         4.52209
| 56>    C      -11.75338        10.26571         5.06121
| 57>    S      -10.79378         9.13972         4.09700
| 58>    C      -12.45952         9.91995         6.17268
| 59>    N      -12.49851         8.69843         6.74934
| 60>    C      -13.32765         8.42996         7.92274
| 61>    C      -12.98777         9.35004         9.11022
| 62>    C      -12.18537         8.63127        10.19268
| 63>    N      -11.39148         9.55489        10.98254
| 64>    S       -9.75319         8.91914        11.10098
| 65>    N      -10.14009         7.38135        10.45223
| 66>    C      -11.18837         7.67499         9.50280
| 67>    C      -11.94748         6.46992         8.98242
| 68>    C      -13.19544         6.91453         8.18134
| 69>    N      -13.13563         6.36127         6.84307
| 70>    S      -11.94993         7.27007         5.98934
| 71>    C      -13.51858         5.14662         6.42623
| 72>    C      -14.33139         4.20523         6.98623
| 73>    C      -15.31714         4.19184         8.03526
| 74>    C      -16.14495         5.23371         8.38757
| 75>    C      -17.13610         5.15689         9.38450
| 76>    N      -17.93097         5.16601        10.21287
| 77>    C      -16.14138         6.46456         7.70878
| 78>    N      -16.16767         7.47459         7.15952
| 79>    C      -15.50170         2.80511         8.44730
| 80>    C      -14.84113         1.96756         7.51208
| 81>    C      -14.15605         2.80403         6.50984
| 82>    O      -13.53920         2.44827         5.53255
| 83>    C      -14.87235         0.59759         7.60320
| 84>    C      -15.57462         0.03007         8.67206
| 85>    C      -16.22003         0.87614         9.60579
| 86>    C      -16.20002         2.26299         9.50744
| 87>    S      -17.01333        -0.04364        10.84447
| 88>    C      -16.49088        -1.52202        10.11540
| 89>    C      -15.75430        -1.34385         8.99698
| 90>    H       -7.25879        -2.05206        -4.44302
| 91>    H       -8.24023        -4.09572         0.02566
| 92>    H       -8.62126        -6.90676        -4.48169
| 93>    H       -7.87700        -4.59673        -5.44793
| 94>    H       -7.39170         1.31290         0.81088
| 95>    H       -5.57624         6.69902        -1.98653
| 96>    H       -7.57283         6.51320         0.34308
| 97>    H       -6.49410         8.87722        -1.30630
| 98>    H       -7.49766        11.15228        -0.59832
| 99>    H       -9.08801        12.18130         1.14679
|100>    H      -10.61132        12.57439         2.91583
|101>    H      -12.15942        12.40609         4.96375
|102>    H      -13.01302        10.69066         6.69019
|103>    H      -14.37444         8.60510         7.62747
|104>    H      -13.90736         9.75216         9.53442
|105>    H      -12.38344        10.18930         8.76489
|106>    H      -12.86348         8.03912        10.82739
|107>    H      -11.77251         9.70441        11.90957
|108>    H      -10.44189         6.73201        11.17652
|109>    H      -10.70310         8.21743         8.68335
|110>    H      -12.25705         5.84652         9.82474
|111>    H      -11.29452         5.86740         8.34916
|112>    H      -14.09517         6.56442         8.68735
|113>    H      -13.02972         4.82844         5.50886
|114>    H      -14.37121        -0.01766         6.87246
|115>    H      -16.70300         2.86930        10.24309
|116>    H      -16.77211        -2.44801        10.57801
|117>    H      -15.34420        -2.14674         8.41182
|118> *
|119>
|120>                          ****END OF INPUT****

CARTESIAN COORDINATES (ANGSTROEM)
---------------------------------
  C     -7.419830   -1.282970   -0.043420
  C     -7.500660   -1.456640    1.316550
  C     -7.877610   -2.663340    1.938450
  N     -8.191380   -3.613040    2.503500
  C     -7.198530   -0.470230    2.276910
  N     -6.950360    0.270030    3.120060
  C     -7.635320   -2.318720   -1.048030
  C     -7.367900   -1.768650   -2.326880
  C     -7.472250   -2.499230   -3.484600
  C     -7.857180   -3.839910   -3.377120
  C     -8.126630   -4.379310   -2.097910
  C     -8.021770   -3.638940   -0.925210
  S     -8.590670   -6.048900   -2.206030
  C     -8.419570   -6.010940   -3.927160
  C     -8.034620   -4.807910   -4.405660
  C     -6.984600   -0.356040   -2.175130
  O     -6.746910    0.434500   -3.074030
  C     -7.036370   -0.072280   -0.735070
  C     -6.961500    1.182970   -0.175400
  C     -6.475350    2.366550   -0.742800
  S     -7.088160    3.873870   -0.086140
  C     -6.129280    4.828830   -1.174450
  C     -5.327780    3.991230   -1.967120
  C     -5.512080    2.630650   -1.729700
  S     -4.513540    1.348490   -2.371820
  C     -3.088680    2.106290   -3.106050
  O     -2.107990    1.424490   -3.239310
  C     -3.140210    3.481170   -3.724460
  O     -2.375050    3.782390   -4.600420
  S     -4.289420    4.707840   -3.188150
  C     -6.191430    6.223750   -1.234070
  C     -6.977990    7.002380   -0.419480
  C     -7.063580    8.386020   -0.528280
  C     -7.843190    9.192620    0.278730
  C     -8.004610   10.590320    0.165920
  C     -8.848790   11.134670    1.090440
  C     -9.386490   10.194810    1.991600
  S     -8.794020    8.587660    1.617310
  C    -10.249390   10.429680    3.046450
  C    -10.823000   11.660410    3.440030
  C    -11.641130   11.573820    4.522090
  C    -11.753380   10.265710    5.061210
  S    -10.793780    9.139720    4.097000
  C    -12.459520    9.919950    6.172680
  N    -12.498510    8.698430    6.749340
  C    -13.327650    8.429960    7.922740
  C    -12.987770    9.350040    9.110220
  C    -12.185370    8.631270   10.192680
  N    -11.391480    9.554890   10.982540
  S     -9.753190    8.919140   11.100980
  N    -10.140090    7.381350   10.452230
  C    -11.188370    7.674990    9.502800
  C    -11.947480    6.469920    8.982420
  C    -13.195440    6.914530    8.181340
  N    -13.135630    6.361270    6.843070
  S    -11.949930    7.270070    5.989340
  C    -13.518580    5.146620    6.426230
  C    -14.331390    4.205230    6.986230
  C    -15.317140    4.191840    8.035260
  C    -16.144950    5.233710    8.387570
  C    -17.136100    5.156890    9.384500
  N    -17.930970    5.166010   10.212870
  C    -16.141380    6.464560    7.708780
  N    -16.167670    7.474590    7.159520
  C    -15.501700    2.805110    8.447300
  C    -14.841130    1.967560    7.512080
  C    -14.156050    2.804030    6.509840
  O    -13.539200    2.448270    5.532550
  C    -14.872350    0.597590    7.603200
  C    -15.574620    0.030070    8.672060
  C    -16.220030    0.876140    9.605790
  C    -16.200020    2.262990    9.507440
  S    -17.013330   -0.043640   10.844470
  C    -16.490880   -1.522020   10.115400
  C    -15.754300   -1.343850    8.996980
  H     -7.258790   -2.052060   -4.443020
  H     -8.240230   -4.095720    0.025660
  H     -8.621260   -6.906760   -4.481690
  H     -7.877000   -4.596730   -5.447930
  H     -7.391700    1.312900    0.810880
  H     -5.576240    6.699020   -1.986530
  H     -7.572830    6.513200    0.343080
  H     -6.494100    8.877220   -1.306300
  H     -7.497660   11.152280   -0.598320
  H     -9.088010   12.181300    1.146790
  H    -10.611320   12.574390    2.915830
  H    -12.159420   12.406090    4.963750
  H    -13.013020   10.690660    6.690190
  H    -14.374440    8.605100    7.627470
  H    -13.907360    9.752160    9.534420
  H    -12.383440   10.189300    8.764890
  H    -12.863480    8.039120   10.827390
  H    -11.772510    9.704410   11.909570
  H    -10.441890    6.732010   11.176520
  H    -10.703100    8.217430    8.683350
  H    -12.257050    5.846520    9.824740
  H    -11.294520    5.867400    8.349160
  H    -14.095170    6.564420    8.687350
  H    -13.029720    4.828440    5.508860
  H    -14.371210   -0.017660    6.872460
  H    -16.703000    2.869300   10.243090
  H    -16.772110   -2.448010   10.578010
  H    -15.344200   -2.146740    8.411820

 Total Charge           Charge          ....    0
 Multiplicity           Mult            ....    1
 Number of Electrons    NEL             ....  584
 Basis Dimension        Dim             .... 1226

ORBITAL ENERGIES
----------------

  NO   OCC          E(Eh)            E(eV)
   0   2.0000     -89.027768     -2422.5687
   1   2.0000     -88.970584     -2421.0127
   2   2.0000     -88.964534     -2420.8480
   3   2.0000     -88.962714     -2420.7985
   4   2.0000     -88.961932     -2420.7772
   5   2.0000     -88.956182     -2420.6208
   6   2.0000     -88.956031     -2420.6167
   7   2.0000     -88.955577     -2420.6043
   8   2.0000     -88.951124     -2420.4831
   9   2.0000     -19.225771      -523.1598
  10   2.0000     -19.224809      -523.1337
  11   2.0000     -19.216839      -522.9168
  12   2.0000     -19.201960      -522.5119
  13   2.0000     -14.511648      -394.8820
  14   2.0000     -14.495138      -394.4327
  15   2.0000     -14.435022      -392.7969
  16   2.0000     -14.430395      -392.6710
  17   2.0000     -14.422837      -392.4653
  18   2.0000     -14.422226      -392.4487
  19   2.0000     -14.401656      -391.8890
  20   2.0000     -14.401546      -391.8860
  21   2.0000     -10.390055      -282.7278
  22   2.0000     -10.387569      -282.6601
  23   2.0000     -10.375129      -282.3216
  24   2.0000     -10.370808      -282.2040
  25   2.0000     -10.360435      -281.9218
  26   2.0000     -10.356889      -281.8253
  27   2.0000     -10.353841      -281.7423
  28   2.0000     -10.349079      -281.6128
  29   2.0000     -10.348379      -281.5937
  30   2.0000     -10.346993      -281.5560
  31   2.0000     -10.334599      -281.2187
  32   2.0000     -10.330391      -281.1042
  33   2.0000     -10.328820      -281.0615
  34   2.0000     -10.326354      -280.9944
  35   2.0000     -10.325873      -280.9813
  36   2.0000     -10.325762      -280.9783
  37   2.0000     -10.324600      -280.9467
  38   2.0000     -10.324397      -280.9411
  39   2.0000     -10.322975      -280.9024
  40   2.0000     -10.322015      -280.8763
  41   2.0000     -10.317200      -280.7453
  42   2.0000     -10.316691      -280.7314
  43   2.0000     -10.316466      -280.7253
  44   2.0000     -10.315331      -280.6944
  45   2.0000     -10.312401      -280.6147
  46   2.0000     -10.311636      -280.5939
  47   2.0000     -10.309325      -280.5310
  48   2.0000     -10.309315      -280.5307
  49   2.0000     -10.308609      -280.5115
  50   2.0000     -10.307846      -280.4908
  51   2.0000     -10.305824      -280.4357
  52   2.0000     -10.305316      -280.4219
  53   2.0000     -10.305256      -280.4203
  54   2.0000     -10.305250      -280.4201
  55   2.0000     -10.304764      -280.4069
  56   2.0000     -10.303272      -280.3663
  57   2.0000     -10.302981      -280.3584
  58   2.0000     -10.298150      -280.2269
  59   2.0000     -10.295570      -280.1567
  60   2.0000     -10.295321      -280.1499
  61   2.0000     -10.293696      -280.1057
  62   2.0000     -10.293389      -280.0974
  63   2.0000     -10.292195      -280.0649
  64   2.0000     -10.291885      -280.0564
  65   2.0000     -10.290438      -280.0170
  66   2.0000     -10.290232      -280.0115
  67   2.0000     -10.289117      -279.9811
  68   2.0000     -10.285406      -279.8801
  69   2.0000     -10.282595      -279.8036
  70   2.0000     -10.282061      -279.7891
  71   2.0000     -10.278379      -279.6889
  72   2.0000     -10.277864      -279.6749
  73   2.0000     -10.276584      -279.6401
  74   2.0000     -10.273666      -279.5607
  75   2.0000      -8.118242      -220.9086
  76   2.0000      -8.066821      -219.5094
  77   2.0000      -8.060526      -219.3380
  78   2.0000      -8.057573      -219.2577
  79   2.0000      -8.054734      -219.1805
  80   2.0000      -8.052779      -219.1272
  81   2.0000      -8.051797      -219.1005
  82   2.0000      -8.051793      -219.1004
  83   2.0000      -8.047396      -218.9808
  84   2.0000      -6.090854      -165.7406
  85   2.0000      -6.086147      -165.6125
  86   2.0000      -6.074348      -165.2914
  87   2.0000      -6.036356      -164.2576
  88   2.0000      -6.032003      -164.1391
  89   2.0000      -6.030409      -164.0958
  90   2.0000      -6.028513      -164.0442
  91   2.0000      -6.027889      -164.0272
  92   2.0000      -6.026969      -164.0022
  93   2.0000      -6.026320      -163.9845
  94   2.0000      -6.023079      -163.8963
  95   2.0000      -6.022559      -163.8822
  96   2.0000      -6.021816      -163.8619
  97   2.0000      -6.021581      -163.8555
  98   2.0000      -6.021324      -163.8486
  99   2.0000      -6.021237      -163.8462
 100   2.0000      -6.019134      -163.7890
 101   2.0000      -6.018090      -163.7605
 102   2.0000      -6.017042      -163.7320
 103   2.0000      -6.017016      -163.7313
 104   2.0000      -6.016934      -163.7291
 105   2.0000      -6.013672      -163.6403
 106   2.0000      -6.013471      -163.6349
 107   2.0000      -6.013094      -163.6246
 108   2.0000      -6.012837      -163.6176
 109   2.0000      -6.011303      -163.5759
 110   2.0000      -6.008432      -163.4977
 111   2.0000      -1.161737       -31.6125
 112   2.0000      -1.144479       -31.1429
 113   2.0000      -1.133673       -30.8488
 114   2.0000      -1.130443       -30.7609
 115   2.0000      -1.116171       -30.3726
 116   2.0000      -1.072789       -29.1921
 117   2.0000      -1.068661       -29.0797
 118   2.0000      -1.028784       -27.9946
 119   2.0000      -1.015426       -27.6312
 120   2.0000      -1.009586       -27.4722
 121   2.0000      -1.005965       -27.3737
 122   2.0000      -1.005012       -27.3478
 123   2.0000      -1.004468       -27.3330
 124   2.0000      -0.995547       -27.0902
 125   2.0000      -0.990748       -26.9596
 126   2.0000      -0.981381       -26.7047
 127   2.0000      -0.980380       -26.6775
 128   2.0000      -0.971661       -26.4402
 129   2.0000      -0.969095       -26.3704
 130   2.0000      -0.952331       -25.9143
 131   2.0000      -0.935979       -25.4693
 132   2.0000      -0.927257       -25.2319
 133   2.0000      -0.925053       -25.1720
 134   2.0000      -0.915940       -24.9240
 135   2.0000      -0.912510       -24.8307
 136   2.0000      -0.901879       -24.5414
 137   2.0000      -0.891608       -24.2619
 138   2.0000      -0.886173       -24.1140
 139   2.0000      -0.883033       -24.0285
 140   2.0000      -0.879818       -23.9411
 141   2.0000      -0.871554       -23.7162
 142   2.0000      -0.868493       -23.6329
 143   2.0000      -0.862783       -23.4775
 144   2.0000      -0.857657       -23.3380
 145   2.0000      -0.850322       -23.1384
 146   2.0000      -0.842521       -22.9262
 147   2.0000      -0.833820       -22.6894
 148   2.0000      -0.827503       -22.5175
 149   2.0000      -0.823092       -22.3975
 150   2.0000      -0.820910       -22.3381
 151   2.0000      -0.810705       -22.0604
 152   2.0000      -0.802975       -21.8500
 153   2.0000      -0.785492       -21.3743
 154   2.0000      -0.775734       -21.1088
 155   2.0000      -0.763266       -20.7695
 156   2.0000      -0.762180       -20.7400
 157   2.0000      -0.750244       -20.4152
 158   2.0000      -0.745099       -20.2752
 159   2.0000      -0.743223       -20.2241
 160   2.0000      -0.736511       -20.0415
 161   2.0000      -0.732820       -19.9410
 162   2.0000      -0.723896       -19.6982
 163   2.0000      -0.710567       -19.3355
 164   2.0000      -0.705617       -19.2008
 165   2.0000      -0.696994       -18.9662
 166   2.0000      -0.691900       -18.8275
 167   2.0000      -0.688179       -18.7263
 168   2.0000      -0.679910       -18.5013
 169   2.0000      -0.675395       -18.3784
 170   2.0000      -0.672768       -18.3069
 171   2.0000      -0.669882       -18.2284
 172   2.0000      -0.668460       -18.1897
 173   2.0000      -0.660751       -17.9799
 174   2.0000      -0.649969       -17.6866
 175   2.0000      -0.648653       -17.6508
 176   2.0000      -0.645604       -17.5678
 177   2.0000      -0.635341       -17.2885
 178   2.0000      -0.630242       -17.1497
 179   2.0000      -0.628119       -17.0920
 180   2.0000      -0.623978       -16.9793
 181   2.0000      -0.622853       -16.9487
 182   2.0000      -0.620743       -16.8913
 183   2.0000      -0.612770       -16.6743
 184   2.0000      -0.610888       -16.6231
 185   2.0000      -0.607299       -16.5254
 186   2.0000      -0.605491       -16.4762
 187   2.0000      -0.597315       -16.2538
 188   2.0000      -0.594574       -16.1792
 189   2.0000      -0.588592       -16.0164
 190   2.0000      -0.584585       -15.9074
 191   2.0000      -0.581779       -15.8310
 192   2.0000      -0.571572       -15.5533
 193   2.0000      -0.571227       -15.5439
 194   2.0000      -0.565279       -15.3820
 195   2.0000      -0.561217       -15.2715
 196   2.0000      -0.557310       -15.1652
 197   2.0000      -0.556382       -15.1399
 198   2.0000      -0.547877       -14.9085
 199   2.0000      -0.547019       -14.8851
 200   2.0000      -0.543735       -14.7958
 201   2.0000      -0.541687       -14.7400
 202   2.0000      -0.536407       -14.5964
 203   2.0000      -0.535404       -14.5691
 204   2.0000      -0.534409       -14.5420
 205   2.0000      -0.531789       -14.4707
 206   2.0000      -0.529664       -14.4129
 207   2.0000      -0.526709       -14.3325
 208   2.0000      -0.523805       -14.2535
 209   2.0000      -0.523173       -14.2363
 210   2.0000      -0.519933       -14.1481
 211   2.0000      -0.516995       -14.0682
 212   2.0000      -0.515870       -14.0375
 213   2.0000      -0.514160       -13.9910
 214   2.0000      -0.510115       -13.8809
 215   2.0000      -0.507246       -13.8029
 216   2.0000      -0.505883       -13.7658
 217   2.0000      -0.504969       -13.7409
 218   2.0000      -0.502910       -13.6849
 219   2.0000      -0.501475       -13.6458
 220   2.0000      -0.497299       -13.5322
 221   2.0000      -0.496511       -13.5108
 222   2.0000      -0.495300       -13.4778
 223   2.0000      -0.493747       -13.4355
 224   2.0000      -0.490947       -13.3593
 225   2.0000      -0.488143       -13.2831
 226   2.0000      -0.483858       -13.1664
 227   2.0000      -0.483738       -13.1632
 228   2.0000      -0.482552       -13.1309
 229   2.0000      -0.478980       -13.0337
 230   2.0000      -0.478276       -13.0146
 231   2.0000      -0.476887       -12.9768
 232   2.0000      -0.470759       -12.8100
 233   2.0000      -0.468177       -12.7397
 234   2.0000      -0.467716       -12.7272
 235   2.0000      -0.466598       -12.6968
 236   2.0000      -0.464517       -12.6402
 237   2.0000      -0.461836       -12.5672
 238   2.0000      -0.459103       -12.4928
 239   2.0000      -0.457636       -12.4529
 240   2.0000      -0.454028       -12.3547
 241   2.0000      -0.452798       -12.3213
 242   2.0000      -0.447363       -12.1734
 243   2.0000      -0.446597       -12.1525
 244   2.0000      -0.442649       -12.0451
 245   2.0000      -0.441367       -12.0102
 246   2.0000      -0.440714       -11.9924
 247   2.0000      -0.437603       -11.9078
 248   2.0000      -0.436123       -11.8675
 249   2.0000      -0.435664       -11.8550
 250   2.0000      -0.433960       -11.8087
 251   2.0000      -0.432242       -11.7619
 252   2.0000      -0.430838       -11.7237
 253   2.0000      -0.430063       -11.7026
 254   2.0000      -0.427747       -11.6396
 255   2.0000      -0.422141       -11.4871
 256   2.0000      -0.420919       -11.4538
 257   2.0000      -0.419505       -11.4153
 258   2.0000      -0.416594       -11.3361
 259   2.0000      -0.414150       -11.2696
 260   2.0000      -0.413116       -11.2415
 261   2.0000      -0.410157       -11.1609
 262   2.0000      -0.409201       -11.1349
 263   2.0000      -0.405869       -11.0443
 264   2.0000      -0.402152       -10.9431
 265   2.0000      -0.397464       -10.8156
 266   2.0000      -0.394766       -10.7421
 267   2.0000      -0.387665       -10.5489
 268   2.0000      -0.383125       -10.4254
 269   2.0000      -0.380496       -10.3538
 270   2.0000      -0.376608       -10.2480
 271   2.0000      -0.375497       -10.2178
 272   2.0000      -0.367013        -9.9869
 273   2.0000      -0.360195        -9.8014
 274   2.0000      -0.348660        -9.4875
 275   2.0000      -0.347442        -9.4544
 276   2.0000      -0.341056        -9.2806
 277   2.0000      -0.338449        -9.2097
 278   2.0000      -0.334604        -9.1050
 279   2.0000      -0.330945        -9.0055
 280   2.0000      -0.324611        -8.8331
 281   2.0000      -0.318963        -8.6794
 282   2.0000      -0.318293        -8.6612
 283   2.0000      -0.305882        -8.3235
 284   2.0000      -0.302052        -8.2192
 285   2.0000      -0.300706        -8.1826
 286   2.0000      -0.292109        -7.9487
 287   2.0000      -0.286335        -7.7916
 288   2.0000      -0.282293        -7.6816
 289   2.0000      -0.280220        -7.6252
 290   2.0000      -0.261583        -7.1180
 291   2.0000      -0.207889        -5.6570
 292   0.0000      -0.097164        -2.6440
 293   0.0000      -0.084923        -2.3109
 294   0.0000      -0.065601        -1.7851
 295   0.0000      -0.049172        -1.3380
 296   0.0000      -0.048999        -1.3333

MULLIKEN ATOMIC CHARGES
-----------------------
   0 C :    0.301529
   1 C :   -0.349254
   2 C :   -0.186526
   3 N :    0.139985
   4 C :   -0.206156
   5 N :    0.150460
   6 C :    0.018895
   7 C :   -0.011328
   8 C :   -0.072238
   9 C :    0.118348
  10 C :   -0.095116
  11 C :   -0.029907
  12 S :    0.132512
  13 C :   -0.050844
  14 C :    0.021154
  15 C :    0.134047
  16 O :   -0.174340
  17 C :   -0.098953
  18 C :    0.013766
  19 C :   -0.133256
  20 S :    0.138166
  21 C :   -0.049297
  22 C :   -0.065739
  23 C :    0.033368
  24 S :    0.134530
  25 C :    0.061402
  26 O :   -0.138327
  27 C :    0.091742
  28 O :   -0.145559
  29 S :    0.076683
  30 C :   -0.051824
  31 C :    0.030977
  32 C :   -0.036777
  33 C :    0.001080
  34 C :    0.017008
  35 C :    0.038537
  36 C :   -0.070629
  37 S :    0.079114
  38 C :   -0.013483
  39 C :    0.012275
  40 C :    0.055667
  41 C :   -0.081915
  42 S :    0.056758
  43 C :    0.136896
  44 N :   -0.412522
  45 C :    0.101166
  46 C :    0.226706
  47 C :   -0.052341
  48 N :   -0.343158
  49 S :    0.226783
  50 N :   -0.303438
  51 C :    0.028190
  52 C :    0.220973
  53 C :   -0.056480
  54 N :   -0.314169
  55 S :    0.394665
  56 C :    0.145619
  57 C :   -0.182551
  58 C :    0.274914
  59 C :   -0.372892
  60 C :   -0.176561
  61 N :    0.158258
  62 C :   -0.181171
  63 N :    0.134368
  64 C :    0.007015
  65 C :    0.005336
  66 C :    0.134829
  67 O :   -0.150405
  68 C :   -0.062954
  69 C :    0.104040
  70 C :   -0.094680
  71 C :   -0.027491
  72 S :    0.138964
  73 C :   -0.050445
  74 C :    0.031466
  75 H :   -0.015091
  76 H :   -0.010428
  77 H :    0.035069
  78 H :   -0.008061
  79 H :    0.022716
  80 H :    0.002583
  81 H :    0.007096
  82 H :   -0.014777
  83 H :   -0.012079
  84 H :   -0.011149
  85 H :   -0.011304
  86 H :   -0.006441
  87 H :    0.033602
  88 H :    0.047722
  89 H :    0.015232
  90 H :    0.010517
  91 H :   -0.011118
  92 H :    0.133928
  93 H :    0.128609
  94 H :    0.019766
  95 H :    0.001989
  96 H :    0.026999
  97 H :    0.057238
  98 H :    0.044432
  99 H :   -0.005324
 100 H :   -0.004463
 101 H :    0.040021
 102 H :   -0.002755
Sum of atomic charges:   -0.0000000

LOEWDIN ATOMIC CHARGES
----------------------
   0 C :    0.077811
   1 C :   -0.149676
   2 C :   -0.017664
   3 N :   -0.064379
   4 C :   -0.024084
   5 N :   -0.061123
   6 C :   -0.022143
   7 C :   -0.048532
   8 C :    0.019555
   9 C :   -0.036557
  10 C :   -0.148081
  11 C :   -0.010777
  12 S :    0.423193
  13 C :   -0.153378
  14 C :   -0.058407
  15 C :    0.064783
  16 O :   -0.170625
  17 C :   -0.113837
  18 C :    0.030474
  19 C :   -0.199142
  20 S :    0.446890
  21 C :   -0.146334
  22 C :   -0.236731
  23 C :   -0.170859
  24 S :    0.451068
  25 C :   -0.116624
  26 O :   -0.108325
  27 C :   -0.111971
  28 O :   -0.114814
  29 S :    0.384388
  30 C :   -0.087397
  31 C :    0.006526
  32 C :   -0.087663
  33 C :   -0.119575
  34 C :   -0.055815
  35 C :   -0.013674
  36 C :   -0.209959
  37 S :    0.376387
  38 C :   -0.145164
  39 C :   -0.056990
  40 C :   -0.006662
  41 C :   -0.217535
  42 S :    0.357144
  43 C :    0.020986
  44 N :   -0.155784
  45 C :    0.025709
  46 C :   -0.032590
  47 C :   -0.010804
  48 N :   -0.246219
  49 S :    0.355229
  50 N :   -0.214530
  51 C :   -0.015482
  52 C :   -0.030508
  53 C :    0.020863
  54 N :   -0.109265
  55 S :    0.469396
  56 C :    0.097217
  57 C :   -0.161697
  58 C :    0.077354
  59 C :   -0.171350
  60 C :   -0.025350
  61 N :   -0.056686
  62 C :   -0.013550
  63 N :   -0.067423
  64 C :   -0.024104
  65 C :   -0.054266
  66 C :    0.085912
  67 O :   -0.150443
  68 C :    0.026818
  69 C :   -0.035156
  70 C :   -0.147036
  71 C :   -0.012306
  72 S :    0.429216
  73 C :   -0.148620
  74 C :   -0.055338
  75 H :    0.039168
  76 H :    0.039426
  77 H :    0.027778
  78 H :    0.034484
  79 H :    0.043631
  80 H :    0.027956
  81 H :    0.019483
  82 H :    0.033730
  83 H :    0.033525
  84 H :    0.032936
  85 H :    0.033273
  86 H :    0.036051
  87 H :    0.045203
  88 H :    0.031215
  89 H :    0.031833
  90 H :    0.035833
  91 H :    0.008079
  92 H :    0.050119
  93 H :    0.048606
  94 H :    0.025557
  95 H :    0.029083
  96 H :    0.033149
  97 H :    0.041992
  98 H :    0.043918
  99 H :    0.043078
 100 H :    0.039876
 101 H :    0.030069
 102 H :    0.037037

  Mayer bond orders larger than 0.100000
B(  0-C ,  1-C ) :   1.6168 B(  0-C ,  6-C ) :   1.0022 B(  0-C , 17-C ) :   1.0919
B(  1-C ,  2-C ) :   1.1444 B(  1-C ,  4-C ) :   1.1452 B(  2-C ,  3-N ) :   2.9682
B(  4-C ,  5-N ) :   2.9892 B(  6-C ,  7-C ) :   1.2677 B(  6-C , 11-C ) :   1.4161
B(  7-C ,  8-C ) :   1.4333 B(  7-C , 15-C ) :   0.9402 B(  8-C ,  9-C ) :   1.2367
B(  8-C , 75-H ) :   1.0175 B(  9-C , 10-C ) :   1.3109 B(  9-C , 14-C ) :   1.1704
B( 10-C , 11-C ) :   1.3150 B( 10-C , 12-S ) :   1.0953 B( 11-C , 76-H ) :   0.9843
B( 12-S , 13-C ) :   1.1253 B( 13-C , 14-C ) :   1.6280 B( 13-C , 77-H ) :   0.9689
B( 14-C , 78-H ) :   1.0001 B( 15-C , 16-O ) :   2.1545 B( 15-C , 17-C ) :   0.9900
B( 17-C , 18-C ) :   1.5017 B( 18-C , 19-C ) :   1.2836 B( 18-C , 79-H ) :   0.9264
B( 19-C , 20-S ) :   1.0744 B( 19-C , 23-C ) :   1.4232 B( 20-S , 21-C ) :   1.1275
B( 21-C , 22-C ) :   1.4350 B( 21-C , 30-C ) :   1.2333 B( 22-C , 23-C ) :   1.3594
B( 22-C , 29-S ) :   0.9715 B( 23-C , 24-S ) :   1.0207 B( 24-S , 25-C ) :   1.0512
B( 24-S , 26-O ) :   0.1287 B( 25-C , 26-O ) :   2.1509 B( 25-C , 27-C ) :   0.7698
B( 27-C , 28-O ) :   2.1455 B( 27-C , 29-S ) :   1.0513 B( 28-O , 29-S ) :   0.1399
B( 30-C , 31-C ) :   1.5149 B( 30-C , 80-H ) :   0.9720 B( 31-C , 32-C ) :   1.2513
B( 31-C , 81-H ) :   0.9707 B( 32-C , 33-C ) :   1.4596 B( 32-C , 82-H ) :   0.9860
B( 33-C , 34-C ) :   1.1859 B( 33-C , 37-S ) :   1.0699 B( 34-C , 35-C ) :   1.5388
B( 34-C , 83-H ) :   1.0006 B( 35-C , 36-C ) :   1.2290 B( 35-C , 84-H ) :   0.9930
B( 36-C , 37-S ) :   1.0285 B( 36-C , 38-C ) :   1.4699 B( 38-C , 39-C ) :   1.2035
B( 38-C , 42-S ) :   1.0718 B( 39-C , 40-C ) :   1.5887 B( 39-C , 85-H ) :   0.9920
B( 40-C , 41-C ) :   1.1724 B( 40-C , 86-H ) :   0.9961 B( 41-C , 42-S ) :   0.9931
B( 41-C , 43-C ) :   1.5761 B( 43-C , 44-N ) :   1.1534 B( 43-C , 87-H ) :   0.9561
B( 44-N , 45-C ) :   0.8334 B( 44-N , 55-S ) :   0.9277 B( 45-C , 46-C ) :   1.0339
B( 45-C , 53-C ) :   1.0612 B( 45-C , 88-H ) :   0.8956 B( 46-C , 47-C ) :   1.0357
B( 46-C , 89-H ) :   0.9277 B( 46-C , 90-H ) :   0.8926 B( 47-C , 48-N ) :   1.0445
B( 47-C , 51-C ) :   1.0490 B( 47-C , 91-H ) :   0.9072 B( 48-N , 49-S ) :   0.9190
B( 48-N , 92-H ) :   0.9421 B( 49-S , 50-N ) :   1.0163 B( 50-N , 51-C ) :   1.0270
B( 50-N , 93-H ) :   0.9345 B( 51-C , 52-C ) :   1.0924 B( 51-C , 94-H ) :   0.8713
B( 52-C , 53-C ) :   1.0108 B( 52-C , 95-H ) :   0.9111 B( 52-C , 96-H ) :   0.9096
B( 53-C , 54-N ) :   0.9269 B( 53-C , 97-H ) :   0.8955 B( 54-N , 55-S ) :   0.9067
B( 54-N , 56-C ) :   1.2513 B( 56-C , 57-C ) :   1.6013 B( 56-C , 98-H ) :   0.9012
B( 57-C , 58-C ) :   1.0519 B( 57-C , 66-C ) :   0.9610 B( 58-C , 59-C ) :   1.5909
B( 58-C , 64-C ) :   1.0220 B( 59-C , 60-C ) :   1.1352 B( 59-C , 62-C ) :   1.1767
B( 60-C , 61-N ) :   2.9959 B( 62-C , 63-N ) :   2.9232 B( 64-C , 65-C ) :   1.2696
B( 64-C , 71-C ) :   1.4173 B( 65-C , 66-C ) :   0.9268 B( 65-C , 68-C ) :   1.4386
B( 66-C , 67-O ) :   2.2515 B( 68-C , 69-C ) :   1.2451 B( 68-C , 99-H ) :   1.0167
B( 69-C , 70-C ) :   1.3075 B( 69-C , 74-C ) :   1.1753 B( 70-C , 71-C ) :   1.3169
B( 70-C , 72-S ) :   1.0967 B( 71-C ,100-H ) :   0.9867 B( 72-S , 73-C ) :   1.1279
B( 73-C , 74-C ) :   1.6271 B( 73-C ,101-H ) :   0.9688 B( 74-C ,102-H ) :   0.9996

-----------------------------------------------------------------------------
         ABSORPTION SPECTRUM VIA TRANSITION ELECTRIC DIPOLE MOMENTS
-----------------------------------------------------------------------------
State   Energy  Wavelength   fosc         T2         TX        TY        TZ
        (cm-1)    (nm)                  (au**2)     (au)      (au)      (au)
-----------------------------------------------------------------------------
   0   10496.2    952.7   1.120633577  35.14864   2.42519  -4.57433  -2.88835
   1   15488.9    645.6   0.000980576   0.02084   0.13815   0.02604  -0.03284
   2   18811.2    531.6   0.656812248  11.49479   2.01117   1.25626  -2.42318
   3   20338.8    491.7   0.035957068   0.58202  -0.31199   0.49616   0.48837
   4   21458.5    466.0   0.018801329   0.28845  -0.33431   0.29393   0.30049
   5   21997.0    454.6   0.687627147  10.29116  -1.40164  -2.43957   1.54113
   6   23617.2    423.4   0.001944378   0.02710  -0.13076  -0.08575   0.05150
   7   24348.7    410.7   0.101346570   1.37028  -0.57203  -0.91022   0.46321
   8   25108.9    398.3   0.166075488   2.17748   1.32036   0.18570  -0.63217
   9   25579.9    390.9   0.121506498   1.56378  -0.98850  -0.51011   0.57135
  10   26838.2    372.6   0.177447737   2.17667  -0.29110  -1.21237  -0.78873
  11   27281.6    366.5   0.063404309   0.76511   0.32562   0.77122  -0.25357
  12   28121.9    355.6   0.102431471   1.19913  -0.21852   1.02734  -0.30974
  13   28578.4    349.9   0.148239978   1.70767  -0.35926  -1.09593   0.61444
  14   28801.1    347.2   0.022037697   0.25190   0.45910  -0.02334  -0.20146
  15   28891.0    346.1   0.080323142   0.91528  -0.43112  -0.78771   0.33004
  16   29006.7    344.7   0.042289544   0.47997  -0.43161   0.52725  -0.12525
  17   29055.0    344.2   0.135907690   1.53992  -0.02527  -1.16076   0.43808
  18   29293.6    341.4   0.016102796   0.18097   0.05053  -0.42225   0.01083
  19   29587.0    338.0   0.023093715   0.25696  -0.45583  -0.17620   0.13466
  20   30077.3    332.5   0.098840354   1.08186  -0.18521   0.78446   0.65741
  21   31082.8    321.7   0.030947035   0.32777   0.30485  -0.37127  -0.31145
  22   31586.5    316.6   0.073656728   0.76769   0.58649  -0.33198   0.55992
  23   31678.2    315.7   0.078325970   0.81399   0.63110   0.20005  -0.61293
  24   31966.0    312.8   0.162341799   1.67193  -0.70720   0.85259   0.66699
  25   32163.4    310.9   0.023835391   0.24397   0.00050   0.36981  -0.32742
  26   32432.7    308.3   0.014644213   0.14865  -0.08142   0.37651   0.01600
  27   32695.2    305.9   0.361444254   3.63943  -0.28053  -0.99343  -1.60431
  28   33476.0    298.7   0.020124749   0.19791   0.08769   0.33918  -0.27419
  29   33647.9    297.2   0.049804651   0.48729  -0.13836  -0.03221  -0.68345
  30   33824.8    295.6   0.053239803   0.51818   0.65433   0.07467  -0.29062
  31   34158.1    292.8   0.329866039   3.17921  -0.10623  -1.77914   0.05107
  32   34409.2    290.6   0.020494902   0.19609  -0.27551   0.02345   0.34588
  33   34609.9    288.9   0.078597700   0.74763  -0.14338  -0.82449   0.21747
  34   34705.8    288.1   0.106117840   1.00661   0.06447   1.00009   0.04762
  35   35018.3    285.6   0.072678057   0.68326   0.66613   0.23720  -0.42809
  36   35121.6    284.7   0.021156465   0.19831   0.34996   0.24725  -0.12126
  37   35472.1    281.9   0.009779286   0.09076   0.17826   0.21465  -0.11362
  38   35640.3    280.6   0.026968983   0.24911   0.24886   0.38005  -0.20675
  39   35887.7    278.6   0.004678838   0.04292  -0.00846   0.18009   0.10206
  40   36113.4    276.9   0.122059694   1.11270   0.07866   0.85662  -0.61051
  41   36148.1    276.6   0.042649388   0.38842  -0.32826   0.50498  -0.16020
  42   36178.6    276.4   0.223570949   2.03441  -0.02856  -1.26784  -0.65282
  43   36349.7    275.1   0.001833719   0.01661   0.12607  -0.02563  -0.00756
  44   36420.6    274.6   0.060900287   0.55049   0.02749   0.52394   0.52461
  45   36624.1    273.0   0.031011319   0.27876  -0.22113   0.32608   0.35147
  46   36830.6    271.5   0.020943422   0.18720  -0.26392   0.33904   0.05102
  47   37054.3    269.9   0.001554117   0.01381  -0.04284  -0.09130   0.06030
  48   37347.1    267.8   0.055953997   0.49323   0.03583   0.46929   0.52126
  49   37526.7    266.5   0.204223842   1.79160   0.49154   1.23664  -0.14391
  50   37593.1    266.0   0.076316858   0.66832  -0.38804   0.04456   0.71817
  51   37754.2    264.9   0.018501019   0.16133  -0.08911  -0.05125  -0.38828
  52   37760.4    264.8   0.137402502   1.19793   0.16078   0.97618  -0.46813
  53   38315.3    261.0   0.147354860   1.26610  -0.20386  -0.88841   0.65974
  54   38484.6    259.8   0.027933548   0.23895  -0.09149  -0.40926   0.25118
  55   39121.0    255.6   0.121314946   1.02089  -0.08506   0.85147   0.53726
  56   39362.2    254.1   0.014272709   0.11937  -0.26567   0.19444   0.10481
  57   39724.9    251.7   0.023561817   0.19526  -0.36611   0.12320   0.21459
  58   39829.4    251.1   0.004452961   0.03681  -0.06469  -0.17115   0.05770
  59   40094.6    249.4   0.024154134   0.19833  -0.35032  -0.17585   0.21139
  60   40302.0    248.1   0.054465703   0.44491   0.02399   0.65845   0.10380

FINAL SINGLE POINT ENERGY     -6392.389936948817

DIPOLE MOMENT
-------------
                                X             Y             Z
Electronic contribution:     25.02702     -36.09450     -38.38931
Nuclear contribution   :    -28.69774      38.58066      41.42795
                        -----------------------------------------
Total Dipole Moment    :     -3.67072       2.48616       3.03864
                        -----------------------------------------
Magnitude (a.u.)       :      5.37481
Magnitude (Debye)      :     13.66167

Rotational constants in cm-1:     0.000705     0.000329     0.000240
Rotational constants in MHz :    21.143306     9.877526     7.208991

                             ****ORCA TERMINATED NORMALLY****
TOTAL RUN TIME: 0 days 0 hours 11 minutes 58 seconds 863 msec
