                         Program Version 4.2.0 -  RELEASE  -
|  1> # ORCA input file
|  2> # SCF done       -211.398585697233          0.000285203470
|  3> ! CAM-B3LYP def2-SVP def2/J RIJCOSX Grid4 TightSCF
|  4> %maxcore 5000
|  5> %tddft
|  6>     Mode sTDDFT
|  7>     Ethresh 5.0
|  8>     maxcore 5000
|  9> end
| 10>
| 11> %pal
| 12>   nprocs 6
| 13>   end
| 14> * xyz 0 1
| 15>    C       -5.11762        -7.51325         7.07255
| 16>    C       -5.52469        -7.04354         8.28985
| 17>    F       -5.52616        -7.85211         9.35680
| 18>    C       -5.94757        -5.70704         8.43842
| 19>    F       -6.34170        -5.27514         9.64278
| 20>    C       -5.95818        -4.85853         7.36665
| 21>    C       -5.54612        -5.31331         6.09914
| 22>    C       -5.11634        -6.66377         5.94797
| 23>    C       -4.69363        -7.14152         4.68632
| 24>    C       -4.69889        -6.29415         3.60968
| 25>    C       -5.13443        -4.94899         3.76959
| 26>    C       -5.55095        -4.45940         4.97373
| 27>    C       -5.05142        -4.25007         2.47681
| 28>    O       -5.41812        -3.11725         2.23290
| 29>    C       -4.52951        -5.24517         1.51627
| 30>    C       -4.31129        -6.49631         2.21720
| 31>    C       -3.76836        -7.64257         1.69903
| 32>    C       -3.32876        -7.79439         0.36777
| 33>    N       -2.94705        -7.96959        -0.70117
| 34>    C       -3.56246        -8.82577         2.43984
| 35>    N       -3.37829        -9.81889         2.98459
| 36>    C       -4.45819        -5.06816         0.16213
| 37>    N       -4.48806        -3.89652        -0.50954
| 38>    C       -4.11094        -2.65194        -0.07442
| 39>    S       -2.91588        -2.45058         1.15663
| 40>    C       -2.97985        -0.74009         0.91635
| 41>    N       -2.15609         0.04802         1.73758
| 42>    O       -2.18206         1.25077         1.58396
| 43>    O       -1.47031        -0.55297         2.54540
| 44>    C       -3.85461        -0.34989        -0.05806
| 45>    C       -4.51568        -1.44464        -0.65549
| 46>    C       -5.48635        -1.35944        -1.70947
| 47>    C       -5.92177        -0.21270        -2.26937
| 48>    C       -6.85990        -0.15028        -3.33724
| 49>    C       -7.34793         1.01065        -3.92133
| 50>    C       -6.94913         2.27666        -3.45875
| 51>    N       -6.58494         3.27948        -3.04019
| 52>    C       -8.24802         0.75202        -4.98866
| 53>    C       -8.41715        -0.61482        -5.18376
| 54>    S       -7.51185        -1.59043        -4.09410
| 55>    S       -9.48633        -1.04975        -6.47665
| 56>    C       -9.72344         0.64393        -6.77283
| 57>    C       -9.02388         1.49428        -5.92581
| 58>    C       -9.26774         2.85819        -6.24407
| 59>    C       -8.58999         3.95803        -5.69191
| 60>    N       -8.01834         4.87460        -5.30761
| 61>    C      -10.15154         3.00387        -7.30527
| 62>    S      -10.67065         1.46119        -7.95612
| 63>    C      -10.61200         4.22954        -7.85876
| 64>    S      -10.75651         4.45637        -9.56769
| 65>    C      -11.18603         6.13071        -9.40568
| 66>    C      -11.25502         6.48873        -8.05279
| 67>    C      -10.94984         5.40326        -7.17133
| 68>    C      -11.10421         5.55489        -5.78503
| 69>    C      -11.46640         6.78468        -5.27728
| 70>    C      -11.67735         7.02746        -3.85342
| 71>    O      -11.84259         8.10700        -3.34386
| 72>    C      -11.75220         5.76472        -2.94096
| 73>    F      -10.59402         5.09430        -2.85680
| 74>    F      -12.11147         6.08725        -1.70096
| 75>    F      -12.66962         4.88385        -3.39381
| 76>    C      -11.66907         7.88977        -6.15201
| 77>    C      -11.58836         7.74511        -7.50189
| 78>    C      -11.41190         6.96037       -10.52749
| 79>    C      -11.31916         6.55597       -11.81864
| 80>    C      -11.52688         7.38266       -12.95713
| 81>    C      -11.87585         8.77318       -12.96445
| 82>    C      -11.97339         9.20494       -14.27630
| 83>    C      -12.28326        10.46798       -14.82136
| 84>    C      -12.29615        10.58411       -16.18663
| 85>    C      -12.56104        11.69391       -17.04744
| 86>    C      -12.43943        11.28081       -18.36341
| 87>    C      -12.09446         9.89520       -18.35953
| 88>    C      -12.00284         9.45320       -17.04444
| 89>    C      -11.69587         8.19433       -16.50476
| 90>    C      -11.68207         8.07334       -15.13349
| 91>    C      -11.41337         6.96817       -14.28161
| 92>    C      -12.63206        12.12414       -19.51919
| 93>    C      -12.51620        11.73842       -20.78676
| 94>    H       -4.79520        -8.53833         6.97687
| 95>    H       -6.28385        -3.83845         7.49701
| 96>    H       -4.37719        -8.16870         4.60477
| 97>    H       -5.87369        -3.43374         5.06716
| 98>    H       -4.40605        -5.93711        -0.48183
| 99>    H       -4.74114        -3.94877        -1.48947
|100>    H       -4.00689         0.68235        -0.31374
|101>    H       -5.90218        -2.29162        -2.07241
|102>    H       -5.56308         0.74657        -1.92438
|103>    H      -10.94715         4.70104        -5.14820
|104>    H      -11.92091         8.83819        -5.70443
|105>    H      -11.78453         8.58157        -8.15376
|106>    H      -11.66695         7.98593       -10.30522
|107>    H      -11.06136         5.52311       -12.02172
|108>    H      -12.03514         9.38106       -12.09279
|109>    H      -12.49972        11.30679       -14.17477
|110>    H      -12.81261        12.68503       -16.71621
|111>    H      -11.93166         9.29229       -19.23405
|112>    H      -11.47808         7.35513       -17.15043
|113>    H      -11.16138         5.97652       -14.61029
|114>    H      -12.89154        13.15111       -19.29390
|115>    H      -12.26040        10.72922       -21.06045
|116>    H      -12.67481        12.42492       -21.60003
|117> *
|118>
|119>                          ****END OF INPUT****

CARTESIAN COORDINATES (ANGSTROEM)
---------------------------------
  C     -5.117620   -7.513250    7.072550
  C     -5.524690   -7.043540    8.289850
  F     -5.526160   -7.852110    9.356800
  C     -5.947570   -5.707040    8.438420
  F     -6.341700   -5.275140    9.642780
  C     -5.958180   -4.858530    7.366650
  C     -5.546120   -5.313310    6.099140
  C     -5.116340   -6.663770    5.947970
  C     -4.693630   -7.141520    4.686320
  C     -4.698890   -6.294150    3.609680
  C     -5.134430   -4.948990    3.769590
  C     -5.550950   -4.459400    4.973730
  C     -5.051420   -4.250070    2.476810
  O     -5.418120   -3.117250    2.232900
  C     -4.529510   -5.245170    1.516270
  C     -4.311290   -6.496310    2.217200
  C     -3.768360   -7.642570    1.699030
  C     -3.328760   -7.794390    0.367770
  N     -2.947050   -7.969590   -0.701170
  C     -3.562460   -8.825770    2.439840
  N     -3.378290   -9.818890    2.984590
  C     -4.458190   -5.068160    0.162130
  N     -4.488060   -3.896520   -0.509540
  C     -4.110940   -2.651940   -0.074420
  S     -2.915880   -2.450580    1.156630
  C     -2.979850   -0.740090    0.916350
  N     -2.156090    0.048020    1.737580
  O     -2.182060    1.250770    1.583960
  O     -1.470310   -0.552970    2.545400
  C     -3.854610   -0.349890   -0.058060
  C     -4.515680   -1.444640   -0.655490
  C     -5.486350   -1.359440   -1.709470
  C     -5.921770   -0.212700   -2.269370
  C     -6.859900   -0.150280   -3.337240
  C     -7.347930    1.010650   -3.921330
  C     -6.949130    2.276660   -3.458750
  N     -6.584940    3.279480   -3.040190
  C     -8.248020    0.752020   -4.988660
  C     -8.417150   -0.614820   -5.183760
  S     -7.511850   -1.590430   -4.094100
  S     -9.486330   -1.049750   -6.476650
  C     -9.723440    0.643930   -6.772830
  C     -9.023880    1.494280   -5.925810
  C     -9.267740    2.858190   -6.244070
  C     -8.589990    3.958030   -5.691910
  N     -8.018340    4.874600   -5.307610
  C    -10.151540    3.003870   -7.305270
  S    -10.670650    1.461190   -7.956120
  C    -10.612000    4.229540   -7.858760
  S    -10.756510    4.456370   -9.567690
  C    -11.186030    6.130710   -9.405680
  C    -11.255020    6.488730   -8.052790
  C    -10.949840    5.403260   -7.171330
  C    -11.104210    5.554890   -5.785030
  C    -11.466400    6.784680   -5.277280
  C    -11.677350    7.027460   -3.853420
  O    -11.842590    8.107000   -3.343860
  C    -11.752200    5.764720   -2.940960
  F    -10.594020    5.094300   -2.856800
  F    -12.111470    6.087250   -1.700960
  F    -12.669620    4.883850   -3.393810
  C    -11.669070    7.889770   -6.152010
  C    -11.588360    7.745110   -7.501890
  C    -11.411900    6.960370  -10.527490
  C    -11.319160    6.555970  -11.818640
  C    -11.526880    7.382660  -12.957130
  C    -11.875850    8.773180  -12.964450
  C    -11.973390    9.204940  -14.276300
  C    -12.283260   10.467980  -14.821360
  C    -12.296150   10.584110  -16.186630
  C    -12.561040   11.693910  -17.047440
  C    -12.439430   11.280810  -18.363410
  C    -12.094460    9.895200  -18.359530
  C    -12.002840    9.453200  -17.044440
  C    -11.695870    8.194330  -16.504760
  C    -11.682070    8.073340  -15.133490
  C    -11.413370    6.968170  -14.281610
  C    -12.632060   12.124140  -19.519190
  C    -12.516200   11.738420  -20.786760
  H     -4.795200   -8.538330    6.976870
  H     -6.283850   -3.838450    7.497010
  H     -4.377190   -8.168700    4.604770
  H     -5.873690   -3.433740    5.067160
  H     -4.406050   -5.937110   -0.481830
  H     -4.741140   -3.948770   -1.489470
  H     -4.006890    0.682350   -0.313740
  H     -5.902180   -2.291620   -2.072410
  H     -5.563080    0.746570   -1.924380
  H    -10.947150    4.701040   -5.148200
  H    -11.920910    8.838190   -5.704430
  H    -11.784530    8.581570   -8.153760
  H    -11.666950    7.985930  -10.305220
  H    -11.061360    5.523110  -12.021720
  H    -12.035140    9.381060  -12.092790
  H    -12.499720   11.306790  -14.174770
  H    -12.812610   12.685030  -16.716210
  H    -11.931660    9.292290  -19.234050
  H    -11.478080    7.355130  -17.150430
  H    -11.161380    5.976520  -14.610290
  H    -12.891540   13.151110  -19.293900
  H    -12.260400   10.729220  -21.060450
  H    -12.674810   12.424920  -21.600030

 Total Charge           Charge          ....    0
 Multiplicity           Mult            ....    1
 Number of Electrons    NEL             ....  576
 Basis Dimension        Dim             .... 1241

ORBITAL ENERGIES
----------------

  NO   OCC          E(Eh)            E(eV)
   0   2.0000     -88.995833     -2421.6997
   1   2.0000     -88.994671     -2421.6681
   2   2.0000     -88.992570     -2421.6109
   3   2.0000     -88.990213     -2421.5468
   4   2.0000     -88.981310     -2421.3045
   5   2.0000     -24.801045      -674.8707
   6   2.0000     -24.800281      -674.8500
   7   2.0000     -24.798819      -674.8102
   8   2.0000     -24.797578      -674.7764
   9   2.0000     -24.792863      -674.6481
  10   2.0000     -19.243232      -523.6350
  11   2.0000     -19.242662      -523.6195
  12   2.0000     -19.229770      -523.2686
  13   2.0000     -19.225532      -523.1533
  14   2.0000     -14.654456      -398.7680
  15   2.0000     -14.516624      -395.0174
  16   2.0000     -14.427025      -392.5793
  17   2.0000     -14.421640      -392.4328
  18   2.0000     -14.409175      -392.0936
  19   2.0000     -14.404857      -391.9761
  20   2.0000     -10.508518      -285.9513
  21   2.0000     -10.384830      -282.5856
  22   2.0000     -10.384061      -282.5647
  23   2.0000     -10.379446      -282.4391
  24   2.0000     -10.378427      -282.4114
  25   2.0000     -10.377725      -282.3923
  26   2.0000     -10.376812      -282.3674
  27   2.0000     -10.352932      -281.7176
  28   2.0000     -10.350487      -281.6511
  29   2.0000     -10.349951      -281.6365
  30   2.0000     -10.347255      -281.5631
  31   2.0000     -10.345286      -281.5096
  32   2.0000     -10.344422      -281.4860
  33   2.0000     -10.342411      -281.4313
  34   2.0000     -10.331048      -281.1221
  35   2.0000     -10.329911      -281.0912
  36   2.0000     -10.327525      -281.0262
  37   2.0000     -10.324606      -280.9468
  38   2.0000     -10.323131      -280.9067
  39   2.0000     -10.320004      -280.8216
  40   2.0000     -10.317674      -280.7582
  41   2.0000     -10.316635      -280.7299
  42   2.0000     -10.315007      -280.6856
  43   2.0000     -10.314660      -280.6762
  44   2.0000     -10.314385      -280.6687
  45   2.0000     -10.314362      -280.6681
  46   2.0000     -10.313566      -280.6464
  47   2.0000     -10.313074      -280.6330
  48   2.0000     -10.310150      -280.5534
  49   2.0000     -10.309423      -280.5337
  50   2.0000     -10.308133      -280.4986
  51   2.0000     -10.308069      -280.4968
  52   2.0000     -10.307300      -280.4759
  53   2.0000     -10.307195      -280.4730
  54   2.0000     -10.305678      -280.4318
  55   2.0000     -10.304340      -280.3954
  56   2.0000     -10.304277      -280.3936
  57   2.0000     -10.303906      -280.3835
  58   2.0000     -10.298944      -280.2485
  59   2.0000     -10.298862      -280.2463
  60   2.0000     -10.298376      -280.2331
  61   2.0000     -10.293812      -280.1089
  62   2.0000     -10.292355      -280.0692
  63   2.0000     -10.292168      -280.0641
  64   2.0000     -10.290525      -280.0194
  65   2.0000     -10.289427      -279.9896
  66   2.0000     -10.287363      -279.9334
  67   2.0000     -10.285018      -279.8696
  68   2.0000     -10.281503      -279.7739
  69   2.0000     -10.280594      -279.7492
  70   2.0000     -10.279851      -279.7290
  71   2.0000     -10.277500      -279.6650
  72   2.0000     -10.274035      -279.5707
  73   2.0000     -10.273662      -279.5606
  74   2.0000     -10.272201      -279.5208
  75   2.0000     -10.271708      -279.5074
  76   2.0000     -10.271492      -279.5015
  77   2.0000     -10.271282      -279.4958
  78   2.0000     -10.262549      -279.2582
  79   2.0000      -8.090836      -220.1629
  80   2.0000      -8.089769      -220.1338
  81   2.0000      -8.087830      -220.0810
  82   2.0000      -8.085400      -220.0149
  83   2.0000      -8.076320      -219.7678
  84   2.0000      -6.060838      -164.9238
  85   2.0000      -6.059274      -164.8812
  86   2.0000      -6.057448      -164.8315
  87   2.0000      -6.056566      -164.8076
  88   2.0000      -6.055266      -164.7722
  89   2.0000      -6.054991      -164.7647
  90   2.0000      -6.053185      -164.7155
  91   2.0000      -6.051663      -164.6741
  92   2.0000      -6.051386      -164.6666
  93   2.0000      -6.050588      -164.6449
  94   2.0000      -6.049380      -164.6120
  95   2.0000      -6.046968      -164.5464
  96   2.0000      -6.045219      -164.4988
  97   2.0000      -6.041276      -164.3915
  98   2.0000      -6.039126      -164.3330
  99   2.0000      -1.386207       -37.7206
 100   2.0000      -1.325377       -36.0653
 101   2.0000      -1.323925       -36.0258
 102   2.0000      -1.309021       -35.6203
 103   2.0000      -1.289258       -35.0825
 104   2.0000      -1.287245       -35.0277
 105   2.0000      -1.145848       -31.1801
 106   2.0000      -1.144878       -31.1537
 107   2.0000      -1.143483       -31.1158
 108   2.0000      -1.112324       -30.2679
 109   2.0000      -1.049408       -28.5559
 110   2.0000      -1.028463       -27.9859
 111   2.0000      -1.021824       -27.8052
 112   2.0000      -1.015117       -27.6227
 113   2.0000      -1.010834       -27.5062
 114   2.0000      -1.005755       -27.3680
 115   2.0000      -1.002658       -27.2837
 116   2.0000      -0.993992       -27.0479
 117   2.0000      -0.993480       -27.0340
 118   2.0000      -0.986922       -26.8555
 119   2.0000      -0.984382       -26.7864
 120   2.0000      -0.968251       -26.3475
 121   2.0000      -0.960042       -26.1241
 122   2.0000      -0.946965       -25.7682
 123   2.0000      -0.938385       -25.5348
 124   2.0000      -0.930597       -25.3228
 125   2.0000      -0.914611       -24.8878
 126   2.0000      -0.910624       -24.7793
 127   2.0000      -0.902781       -24.5659
 128   2.0000      -0.899164       -24.4675
 129   2.0000      -0.896409       -24.3925
 130   2.0000      -0.892508       -24.2864
 131   2.0000      -0.878991       -23.9186
 132   2.0000      -0.873791       -23.7771
 133   2.0000      -0.870683       -23.6925
 134   2.0000      -0.869884       -23.6708
 135   2.0000      -0.863573       -23.4990
 136   2.0000      -0.857565       -23.3355
 137   2.0000      -0.845406       -23.0047
 138   2.0000      -0.845214       -22.9994
 139   2.0000      -0.839119       -22.8336
 140   2.0000      -0.825548       -22.4643
 141   2.0000      -0.820025       -22.3140
 142   2.0000      -0.809489       -22.0273
 143   2.0000      -0.804029       -21.8788
 144   2.0000      -0.797668       -21.7057
 145   2.0000      -0.783609       -21.3231
 146   2.0000      -0.775091       -21.0913
 147   2.0000      -0.771948       -21.0058
 148   2.0000      -0.757491       -20.6124
 149   2.0000      -0.750516       -20.4226
 150   2.0000      -0.742045       -20.1921
 151   2.0000      -0.737374       -20.0650
 152   2.0000      -0.735610       -20.0170
 153   2.0000      -0.726266       -19.7627
 154   2.0000      -0.720904       -19.6168
 155   2.0000      -0.715535       -19.4707
 156   2.0000      -0.709810       -19.3149
 157   2.0000      -0.706000       -19.2112
 158   2.0000      -0.698844       -19.0165
 159   2.0000      -0.694645       -18.9022
 160   2.0000      -0.687003       -18.6943
 161   2.0000      -0.685355       -18.6495
 162   2.0000      -0.674780       -18.3617
 163   2.0000      -0.673270       -18.3206
 164   2.0000      -0.669063       -18.2061
 165   2.0000      -0.668957       -18.2032
 166   2.0000      -0.662272       -18.0213
 167   2.0000      -0.658717       -17.9246
 168   2.0000      -0.656629       -17.8678
 169   2.0000      -0.648661       -17.6510
 170   2.0000      -0.647322       -17.6145
 171   2.0000      -0.644441       -17.5361
 172   2.0000      -0.642873       -17.4935
 173   2.0000      -0.639832       -17.4107
 174   2.0000      -0.636442       -17.3185
 175   2.0000      -0.635624       -17.2962
 176   2.0000      -0.630636       -17.1605
 177   2.0000      -0.629091       -17.1184
 178   2.0000      -0.621927       -16.9235
 179   2.0000      -0.616631       -16.7794
 180   2.0000      -0.606391       -16.5007
 181   2.0000      -0.605342       -16.4722
 182   2.0000      -0.601197       -16.3594
 183   2.0000      -0.593674       -16.1547
 184   2.0000      -0.588328       -16.0092
 185   2.0000      -0.585898       -15.9431
 186   2.0000      -0.585336       -15.9278
 187   2.0000      -0.582544       -15.8518
 188   2.0000      -0.578085       -15.7305
 189   2.0000      -0.570346       -15.5199
 190   2.0000      -0.568707       -15.4753
 191   2.0000      -0.563899       -15.3445
 192   2.0000      -0.560389       -15.2490
 193   2.0000      -0.556967       -15.1559
 194   2.0000      -0.554517       -15.0892
 195   2.0000      -0.553813       -15.0700
 196   2.0000      -0.550999       -14.9934
 197   2.0000      -0.549738       -14.9591
 198   2.0000      -0.549239       -14.9456
 199   2.0000      -0.546117       -14.8606
 200   2.0000      -0.543462       -14.7884
 201   2.0000      -0.541901       -14.7459
 202   2.0000      -0.540615       -14.7109
 203   2.0000      -0.536575       -14.6010
 204   2.0000      -0.534634       -14.5481
 205   2.0000      -0.532752       -14.4969
 206   2.0000      -0.529162       -14.3992
 207   2.0000      -0.528457       -14.3801
 208   2.0000      -0.526944       -14.3389
 209   2.0000      -0.525345       -14.2954
 210   2.0000      -0.523089       -14.2340
 211   2.0000      -0.520116       -14.1531
 212   2.0000      -0.517534       -14.0828
 213   2.0000      -0.513349       -13.9689
 214   2.0000      -0.510327       -13.8867
 215   2.0000      -0.507828       -13.8187
 216   2.0000      -0.506735       -13.7890
 217   2.0000      -0.505510       -13.7556
 218   2.0000      -0.502393       -13.6708
 219   2.0000      -0.501605       -13.6494
 220   2.0000      -0.500164       -13.6102
 221   2.0000      -0.498955       -13.5773
 222   2.0000      -0.498059       -13.5529
 223   2.0000      -0.493709       -13.4345
 224   2.0000      -0.491575       -13.3764
 225   2.0000      -0.488231       -13.2854
 226   2.0000      -0.484403       -13.1813
 227   2.0000      -0.482366       -13.1258
 228   2.0000      -0.481063       -13.0904
 229   2.0000      -0.480081       -13.0637
 230   2.0000      -0.475755       -12.9460
 231   2.0000      -0.475015       -12.9258
 232   2.0000      -0.472949       -12.8696
 233   2.0000      -0.469366       -12.7721
 234   2.0000      -0.468153       -12.7391
 235   2.0000      -0.465959       -12.6794
 236   2.0000      -0.464835       -12.6488
 237   2.0000      -0.462543       -12.5864
 238   2.0000      -0.460516       -12.5313
 239   2.0000      -0.459028       -12.4908
 240   2.0000      -0.457994       -12.4627
 241   2.0000      -0.456586       -12.4243
 242   2.0000      -0.455308       -12.3896
 243   2.0000      -0.453307       -12.3351
 244   2.0000      -0.450586       -12.2611
 245   2.0000      -0.448920       -12.2157
 246   2.0000      -0.444736       -12.1019
 247   2.0000      -0.440273       -11.9804
 248   2.0000      -0.439117       -11.9490
 249   2.0000      -0.437673       -11.9097
 250   2.0000      -0.435743       -11.8572
 251   2.0000      -0.434761       -11.8305
 252   2.0000      -0.433184       -11.7875
 253   2.0000      -0.431533       -11.7426
 254   2.0000      -0.430311       -11.7094
 255   2.0000      -0.428596       -11.6627
 256   2.0000      -0.425626       -11.5819
 257   2.0000      -0.422980       -11.5099
 258   2.0000      -0.420069       -11.4307
 259   2.0000      -0.418086       -11.3767
 260   2.0000      -0.411416       -11.1952
 261   2.0000      -0.411112       -11.1869
 262   2.0000      -0.399882       -10.8813
 263   2.0000      -0.398270       -10.8375
 264   2.0000      -0.393450       -10.7063
 265   2.0000      -0.389455       -10.5976
 266   2.0000      -0.387739       -10.5509
 267   2.0000      -0.384178       -10.4540
 268   2.0000      -0.382320       -10.4035
 269   2.0000      -0.379553       -10.3282
 270   2.0000      -0.372594       -10.1388
 271   2.0000      -0.371241       -10.1020
 272   2.0000      -0.362057        -9.8521
 273   2.0000      -0.357603        -9.7309
 274   2.0000      -0.350044        -9.5252
 275   2.0000      -0.348944        -9.4952
 276   2.0000      -0.336157        -9.1473
 277   2.0000      -0.328531        -8.9398
 278   2.0000      -0.328276        -8.9328
 279   2.0000      -0.321277        -8.7424
 280   2.0000      -0.319983        -8.7072
 281   2.0000      -0.311290        -8.4706
 282   2.0000      -0.306960        -8.3528
 283   2.0000      -0.300681        -8.1819
 284   2.0000      -0.274384        -7.4664
 285   2.0000      -0.271563        -7.3896
 286   2.0000      -0.267889        -7.2896
 287   2.0000      -0.230664        -6.2767
 288   0.0000      -0.102829        -2.7981
 289   0.0000      -0.096882        -2.6363
 290   0.0000      -0.079239        -2.1562
 291   0.0000      -0.069479        -1.8906
 292   0.0000      -0.061833        -1.6826

MULLIKEN ATOMIC CHARGES
-----------------------
   0 C :   -0.105820
   1 C :    0.242226
   2 F :   -0.169507
   3 C :    0.238913
   4 F :   -0.169441
   5 C :   -0.100929
   6 C :    0.113033
   7 C :    0.111369
   8 C :   -0.081544
   9 C :    0.046439
  10 C :    0.007397
  11 C :   -0.077321
  12 C :    0.148242
  13 O :   -0.149521
  14 C :   -0.158377
  15 C :    0.310694
  16 C :   -0.342993
  17 C :   -0.212502
  18 N :    0.153978
  19 C :   -0.179871
  20 N :    0.148180
  21 C :    0.031094
  22 N :   -0.004530
  23 C :   -0.079649
  24 S :    0.204270
  25 C :    0.001958
  26 N :    0.276589
  27 O :   -0.235500
  28 O :   -0.258877
  29 C :    0.004027
  30 C :    0.134264
  31 C :   -0.036431
  32 C :   -0.002392
  33 C :   -0.081219
  34 C :   -0.020677
  35 C :   -0.316747
  36 N :    0.217416
  37 C :    0.162172
  38 C :   -0.230388
  39 S :    0.140692
  40 S :    0.191884
  41 C :   -0.232725
  42 C :    0.124812
  43 C :    0.003300
  44 C :   -0.349425
  45 N :    0.241065
  46 C :   -0.127027
  47 S :    0.182542
  48 C :   -0.174590
  49 S :    0.170241
  50 C :   -0.069868
  51 C :    0.083257
  52 C :    0.162452
  53 C :   -0.015494
  54 C :   -0.038522
  55 C :    0.040621
  56 O :   -0.133781
  57 C :    0.473709
  58 F :   -0.157854
  59 F :   -0.135970
  60 F :   -0.175832
  61 C :    0.010069
  62 C :   -0.016968
  63 C :   -0.013133
  64 C :    0.013711
  65 C :    0.073867
  66 C :   -0.030835
  67 C :    0.050735
  68 C :    0.001464
  69 C :    0.057933
  70 C :   -0.025047
  71 C :    0.060641
  72 C :   -0.016851
  73 C :    0.041533
  74 C :    0.003967
  75 C :    0.056723
  76 C :   -0.033178
  77 C :    0.012257
  78 C :   -0.024117
  79 H :    0.007428
  80 H :    0.002563
  81 H :   -0.005519
  82 H :   -0.007418
  83 H :    0.048700
  84 H :    0.162820
  85 H :    0.021022
  86 H :   -0.032400
  87 H :    0.020548
  88 H :    0.016660
  89 H :   -0.000882
  90 H :   -0.024261
  91 H :   -0.018815
  92 H :   -0.020132
  93 H :   -0.023646
  94 H :   -0.023734
  95 H :   -0.025553
  96 H :   -0.021900
  97 H :   -0.023813
  98 H :   -0.028088
  99 H :   -0.018359
 100 H :    0.007620
 101 H :    0.022878
Sum of atomic charges:   -0.0000000

LOEWDIN ATOMIC CHARGES
----------------------
   0 C :   -0.028557
   1 C :    0.067437
   2 F :   -0.047253
   3 C :    0.068968
   4 F :   -0.047002
   5 C :   -0.031860
   6 C :   -0.007807
   7 C :   -0.007059
   8 C :    0.020638
   9 C :   -0.025028
  10 C :   -0.051560
  11 C :    0.032476
  12 C :    0.067859
  13 O :   -0.154906
  14 C :   -0.146966
  15 C :    0.081129
  16 C :   -0.146379
  17 C :   -0.024171
  18 N :   -0.055806
  19 C :   -0.018670
  20 N :   -0.051220
  21 C :    0.101418
  22 N :    0.070590
  23 C :   -0.106088
  24 S :    0.504233
  25 C :   -0.192212
  26 N :    0.273331
  27 O :   -0.201585
  28 O :   -0.225018
  29 C :    0.002438
  30 C :   -0.083317
  31 C :   -0.023009
  32 C :   -0.028235
  33 C :   -0.129153
  34 C :   -0.091757
  35 C :   -0.042534
  36 N :   -0.026221
  37 C :   -0.062064
  38 C :   -0.329878
  39 S :    0.436589
  40 S :    0.426130
  41 C :   -0.335335
  42 C :   -0.060774
  43 C :   -0.104038
  44 C :   -0.045256
  45 N :   -0.028000
  46 C :   -0.148105
  47 S :    0.446202
  48 C :   -0.212855
  49 S :    0.482609
  50 C :   -0.154972
  51 C :   -0.040939
  52 C :   -0.034318
  53 C :    0.035876
  54 C :   -0.073920
  55 C :    0.044524
  56 O :   -0.097701
  57 C :    0.141255
  58 F :   -0.052088
  59 F :   -0.037296
  60 F :   -0.070100
  61 C :    0.002836
  62 C :   -0.010452
  63 C :   -0.059409
  64 C :   -0.005870
  65 C :   -0.064402
  66 C :    0.036119
  67 C :   -0.059939
  68 C :    0.070767
  69 C :   -0.057121
  70 C :    0.016883
  71 C :   -0.058608
  72 C :    0.051449
  73 C :   -0.065030
  74 C :    0.074950
  75 C :   -0.061986
  76 C :    0.013944
  77 C :   -0.021047
  78 C :   -0.052342
  79 H :    0.047904
  80 H :    0.045988
  81 H :    0.040445
  82 H :    0.041701
  83 H :    0.045541
  84 H :    0.105266
  85 H :    0.048465
  86 H :    0.013790
  87 H :    0.045419
  88 H :    0.030489
  89 H :    0.036349
  90 H :    0.029875
  91 H :    0.030601
  92 H :    0.022800
  93 H :    0.023732
  94 H :    0.035412
  95 H :    0.024783
  96 H :    0.025845
  97 H :    0.035451
  98 H :    0.023842
  99 H :    0.029752
 100 H :    0.017746
 101 H :    0.025376

  Mayer bond orders larger than 0.100000
B(  0-C ,  1-C ) :   1.4402 B(  0-C ,  5-C ) :   0.1077 B(  0-C ,  7-C ) :   1.1913
B(  0-C , 79-H ) :   1.0061 B(  1-C ,  2-F ) :   1.1359 B(  1-C ,  3-C ) :   1.1910
B(  3-C ,  4-F ) :   1.1354 B(  3-C ,  5-C ) :   1.4420 B(  5-C ,  6-C ) :   1.1937
B(  5-C , 80-H ) :   1.0063 B(  6-C ,  7-C ) :   1.2559 B(  6-C , 11-C ) :   1.1876
B(  7-C ,  8-C ) :   1.2163 B(  8-C ,  9-C ) :   1.4520 B(  8-C , 81-H ) :   0.9889
B(  9-C , 10-C ) :   1.2211 B(  9-C , 15-C ) :   0.9956 B( 10-C , 11-C ) :   1.4732
B( 10-C , 12-C ) :   0.9449 B( 11-C , 82-H ) :   1.0174 B( 12-C , 13-O ) :   2.2191
B( 12-C , 14-C ) :   0.9442 B( 14-C , 15-C ) :   1.1030 B( 14-C , 21-C ) :   1.5274
B( 15-C , 16-C ) :   1.6360 B( 16-C , 17-C ) :   1.1401 B( 16-C , 19-C ) :   1.1452
B( 17-C , 18-N ) :   2.9842 B( 19-C , 20-N ) :   2.9627 B( 21-C , 22-N ) :   1.2947
B( 21-C , 83-H ) :   0.9354 B( 22-N , 23-C ) :   1.1204 B( 22-N , 84-H ) :   0.9066
B( 23-C , 24-S ) :   1.1479 B( 23-C , 30-C ) :   1.4092 B( 24-S , 25-C ) :   1.1133
B( 25-C , 26-N ) :   0.9531 B( 25-C , 29-C ) :   1.5133 B( 26-N , 27-O ) :   1.5451
B( 26-N , 28-O ) :   1.5166 B( 27-O , 28-O ) :   0.2655 B( 29-C , 30-C ) :   1.2168
B( 29-C , 85-H ) :   0.9975 B( 30-C , 31-C ) :   1.0811 B( 31-C , 32-C ) :   1.6908
B( 31-C , 86-H ) :   0.9669 B( 32-C , 33-C ) :   1.1764 B( 32-C , 87-H ) :   0.9624
B( 33-C , 34-C ) :   1.4957 B( 33-C , 39-S ) :   1.1058 B( 34-C , 35-C ) :   1.1712
B( 34-C , 37-C ) :   1.2449 B( 35-C , 36-N ) :   2.9857 B( 37-C , 38-C ) :   1.4108
B( 37-C , 42-C ) :   1.0701 B( 38-C , 39-S ) :   1.0909 B( 38-C , 40-S ) :   1.0886
B( 40-S , 41-C ) :   1.0811 B( 41-C , 42-C ) :   1.4250 B( 41-C , 47-S ) :   1.0780
B( 42-C , 43-C ) :   1.2505 B( 43-C , 44-C ) :   1.1748 B( 43-C , 46-C ) :   1.5095
B( 44-C , 45-N ) :   2.9967 B( 46-C , 47-S ) :   1.1395 B( 46-C , 48-C ) :   1.1306
B( 48-C , 49-S ) :   1.1557 B( 48-C , 50-C ) :   0.1168 B( 48-C , 52-C ) :   1.3628
B( 49-S , 50-C ) :   1.1399 B( 50-C , 51-C ) :   1.3359 B( 50-C , 63-C ) :   1.1761
B( 51-C , 52-C ) :   1.2082 B( 51-C , 62-C ) :   1.1858 B( 52-C , 53-C ) :   1.1961
B( 53-C , 54-C ) :   1.5110 B( 53-C , 88-H ) :   0.9493 B( 54-C , 55-C ) :   0.9477
B( 54-C , 61-C ) :   1.2026 B( 55-C , 56-O ) :   2.2098 B( 55-C , 57-C ) :   0.8722
B( 57-C , 58-F ) :   1.1215 B( 57-C , 59-F ) :   1.1931 B( 57-C , 60-F ) :   1.1232
B( 61-C , 62-C ) :   1.5579 B( 61-C , 89-H ) :   0.9899 B( 62-C , 90-H ) :   0.9927
B( 63-C , 64-C ) :   1.6278 B( 63-C , 91-H ) :   0.9686 B( 64-C , 65-C ) :   1.1219
B( 64-C , 92-H ) :   0.9751 B( 65-C , 66-C ) :   1.1455 B( 65-C , 76-C ) :   1.4504
B( 66-C , 67-C ) :   1.4430 B( 66-C , 93-H ) :   1.0066 B( 67-C , 68-C ) :   1.1222
B( 67-C , 75-C ) :   1.1364 B( 68-C , 69-C ) :   1.4661 B( 68-C , 94-H ) :   1.0044
B( 69-C , 70-C ) :   1.0871 B( 69-C , 73-C ) :   1.1297 B( 70-C , 71-C ) :   1.4992
B( 70-C , 95-H ) :   1.0166 B( 71-C , 72-C ) :   1.1553 B( 71-C , 77-C ) :   1.0837
B( 72-C , 73-C ) :   1.4185 B( 72-C , 96-H ) :   1.0082 B( 73-C , 74-C ) :   1.1488
B( 74-C , 75-C ) :   1.4261 B( 74-C , 97-H ) :   1.0046 B( 75-C , 76-C ) :   1.1103
B( 76-C , 98-H ) :   1.0188 B( 77-C , 78-C ) :   1.9360 B( 77-C , 99-H ) :   0.9661
B( 78-C ,100-H ) :   0.9526 B( 78-C ,101-H ) :   0.9494

-----------------------------------------------------------------------------
         ABSORPTION SPECTRUM VIA TRANSITION ELECTRIC DIPOLE MOMENTS
-----------------------------------------------------------------------------
State   Energy  Wavelength   fosc         T2         TX        TY        TZ
        (cm-1)    (nm)                  (au**2)     (au)      (au)      (au)
-----------------------------------------------------------------------------
   0    8249.7   1212.2   0.011258779   0.44929   0.10261  -0.30093   0.59009
   1   17647.9    566.6   1.359915120  25.36841  -1.17617   3.12617  -3.76989
   2   20067.9    498.3   0.086552884   1.41989   0.14687  -0.25365   1.15498
   3   22190.8    450.6   0.795540307  11.80225   0.45299  -2.78088   1.96564
   4   22563.4    443.2   0.010182764   0.14857   0.02885  -0.24368   0.29726
   5   22703.2    440.5   0.188526107   2.73376   0.32319  -0.90765   1.34368
   6   26424.0    378.4   0.965020838  12.02302  -0.00512   0.68791  -3.39850
   7   26721.4    374.2   0.019165878   0.23613   0.25597  -0.33084   0.24729
   8   27329.3    365.9   0.040674895   0.48997  -0.06143  -0.20653   0.66599
   9   27559.9    362.8   0.433199599   5.17471   1.51131  -1.09054   1.30436
  10   27856.8    359.0   0.003048217   0.03602  -0.00587  -0.12601   0.14181
  11   28269.3    353.7   0.066613791   0.77575  -0.45804   0.04811  -0.75076
  12   28375.8    352.4   0.395545926   4.58907   0.96906   0.37431   1.87347
  13   28657.7    348.9   0.022942821   0.26356  -0.50550   0.04828  -0.07547
  14   28698.0    348.5   0.047739015   0.54764  -0.61330   0.37598  -0.17365
  15   29443.2    339.6   0.004624737   0.05171   0.12380  -0.01402  -0.19023
  16   29642.7    337.4   0.000833343   0.00926   0.06692   0.04022   0.05621
  17   30032.3    333.0   0.136741312   1.49895  -0.95559  -0.76537  -0.00279
  18   30208.2    331.0   0.224437923   2.44594  -0.11710   0.28261   1.53374
  19   30335.3    329.6   0.180732855   1.96139  -0.60522  -0.48260   1.16713
  20   31067.2    321.9   0.001695807   0.01797   0.06404  -0.11612  -0.01963
  21   31142.2    321.1   0.003645005   0.03853   0.10852   0.11905  -0.11218
  22   32037.0    312.1   0.124220199   1.27649  -0.68290   0.76210  -0.47889
  23   32530.1    307.4   0.000813566   0.00823  -0.03288   0.04988  -0.06830
  24   32688.4    305.9   0.160863013   1.62009  -0.62697   0.69501   0.86253
  25   33181.1    301.4   0.259424614   2.57392   0.26861  -0.53452  -1.48864
  26   33989.1    294.2   0.005029133   0.04871  -0.09793   0.04462   0.19269
  27   34026.0    293.9   0.532070475   5.14795  -1.01086   0.78444   1.87370
  28   34898.0    286.5   0.112485887   1.06114  -0.10964  -0.69016  -0.75684
  29   35096.2    284.9   0.385527708   3.61636  -0.14803   0.66767  -1.77445
  30   35273.9    283.5   0.118082097   1.10206   0.06022  -0.16578  -1.03487
  31   35737.3    279.8   0.022274818   0.20520   0.01400  -0.23573   0.38656
  32   35867.3    278.8   0.205831977   1.88925   0.04686  -0.37435   1.32171
  33   36352.4    275.1   0.055765793   0.50502  -0.15563   0.54164  -0.43292
  34   36413.5    274.6   0.083298613   0.75310   0.22529  -0.59046   0.59473
  35   36612.0    273.1   0.013676767   0.12298  -0.03589   0.33865   0.08372
  36   36773.2    271.9   0.015652579   0.14013  -0.16339   0.32864  -0.07367
  37   36867.3    271.2   0.007263037   0.06486  -0.19674  -0.15730   0.03751
  38   36899.6    271.0   0.036258903   0.32350  -0.34554  -0.20642  -0.40186
  39   37180.6    269.0   0.037978811   0.33628   0.15392  -0.49923   0.25172
  40   37484.7    266.8   0.011681763   0.10260   0.18800   0.25696   0.03499
  41   37910.3    263.8   0.078945916   0.68556   0.35627  -0.72015  -0.20006
  42   38011.3    263.1   0.000249156   0.00216   0.01721  -0.01133   0.04164
  43   38285.2    261.2   0.162771305   1.39966   0.39779  -0.87285   0.69250
  44   38435.3    260.2   0.072890000   0.62433   0.07287  -0.65738  -0.43229
  45   38873.1    257.2   0.283609077   2.40185   0.16093   1.03012   1.14665
  46   38897.0    257.1   0.090255222   0.76389  -0.14505   0.86183   0.00972
  47   39463.9    253.4   0.000252443   0.00211   0.00257  -0.02956   0.03501
  48   39629.6    252.3   0.000553231   0.00460   0.03249  -0.05614   0.01970
  49   39774.3    251.4   0.095197523   0.78795   0.02187  -0.34012   0.81963
  50   39832.2    251.1   0.048596471   0.40165  -0.11082   0.38598   0.49029
  51   40087.8    249.5   0.011465098   0.09415  -0.10046   0.11581  -0.26580
  52   40205.5    248.7   0.028167927   0.23065  -0.11669   0.46582  -0.00618

FINAL SINGLE POINT ENERGY     -5376.691164577735

DIPOLE MOMENT
-------------
                                X             Y             Z
Electronic contribution:     16.56107     -63.68742     106.83893
Nuclear contribution   :    -19.24779      62.88015    -111.39316
                        -----------------------------------------
Total Dipole Moment    :     -2.68672      -0.80728      -4.55423
                        -----------------------------------------
Magnitude (a.u.)       :      5.34894
Magnitude (Debye)      :     13.59593

Rotational constants in cm-1:     0.001693     0.000159     0.000153
Rotational constants in MHz :    50.759871     4.777146     4.597836

                             ****ORCA TERMINATED NORMALLY****
TOTAL RUN TIME: 0 days 0 hours 11 minutes 21 seconds 535 msec
