                         Program Version 4.2.0 -  RELEASE  -
|  1> # ORCA input file
|  2> # SCF done       -169.276555284705          0.000376177631
|  3> ! CAM-B3LYP def2-SVP def2/J RIJCOSX Grid4 TightSCF
|  4> %maxcore 5000
|  5> %tddft
|  6>     Mode sTDDFT
|  7>     Ethresh 5.0
|  8>     maxcore 5000
|  9> end
| 10>
| 11> %pal
| 12>   nprocs 6
| 13>   end
| 14> * xyz 0 1
| 15>    C       13.99008         0.99198        -0.18389
| 16>    C       13.71894        -0.29896        -0.41498
| 17>    C       14.56028        -1.43431        -0.16185
| 18>    C       14.01584        -2.62339        -0.49811
| 19>    C       12.70408        -2.53665        -1.04397
| 20>    S       12.18970        -0.85644        -1.11170
| 21>    C       11.90892        -3.56565        -1.47425
| 22>    C       12.19620        -4.95667        -1.48494
| 23>    C       11.20583        -5.73365        -1.98799
| 24>    C       10.05612        -5.01457        -2.41408
| 25>    S       10.30555        -3.28043        -2.12909
| 26>    C        8.92028        -5.50757        -2.97152
| 27>    N        7.88490        -4.71045        -3.34575
| 28>    C        6.70073        -5.09667        -3.93114
| 29>    C        6.27540        -6.37669        -4.14883
| 30>    S        4.72811        -6.42816        -4.89296
| 31>    C        4.63863        -4.71751        -4.93694
| 32>    C        5.74228        -4.12561        -4.39445
| 33>    N        6.00662        -2.76355        -4.31116
| 34>    C        5.11889        -1.73982        -4.17443
| 35>    C        3.79400        -1.85208        -3.92869
| 36>    C        2.91296        -0.75125        -3.79554
| 37>    C        3.22468         0.68447        -3.78260
| 38>    N        2.19274         1.46086        -3.63668
| 39>    C        1.11231         0.62162        -3.54801
| 40>    C        1.54323        -0.77654        -3.63681
| 41>    C        0.40513        -1.64912        -3.57633
| 42>    S        0.38352        -3.29489        -3.67198
| 43>    C       -0.71783        -0.75576        -3.44252
| 44>    C       -0.25315         0.63600        -3.42366
| 45>    N       -1.31482         1.49279        -3.31149
| 46>    C       -2.37112         0.73465        -3.26939
| 47>    C       -2.09210        -0.70424        -3.35442
| 48>    C       -3.00688        -1.79061        -3.36400
| 49>    C       -4.35017        -1.67560        -3.27429
| 50>    C       -5.29578        -2.76229        -3.30256
| 51>    C       -4.90663        -4.09800        -3.49760
| 52>    C       -5.86010        -5.08334        -3.53197
| 53>    C       -7.22199        -4.77601        -3.36497
| 54>    C       -7.62176        -3.46146        -3.16286
| 55>    C       -6.66006        -2.47360        -3.13645
| 56>    C       -7.98436        -5.99827        -3.48006
| 57>    C       -7.09487        -7.06288        -3.71938
| 58>    C       -5.66456        -6.57489        -3.70193
| 59>    C       -4.90086        -7.07447        -2.45224
| 60>    C       -4.76562        -8.58508        -2.31511
| 61>    C       -4.91558        -6.91616        -4.99853
| 62>    C       -5.59187        -6.32655        -6.23113
| 63>    C       -7.58150        -8.32438        -3.95652
| 64>    C       -8.96603        -8.56664        -3.91166
| 65>    C       -9.83370        -7.49904        -3.63677
| 66>    C       -9.35453        -6.22261        -3.43272
| 67>    C       -9.42752        -9.90896        -4.15415
| 68>    C      -10.70593       -10.34548        -4.11072
| 69>    C      -11.12142       -11.68368        -4.34734
| 70>    N      -10.29180       -12.73961        -4.66467
| 71>    C      -10.97467       -13.95030        -4.83862
| 72>    O      -10.43494       -14.99466        -5.11907
| 73>    C      -12.36420       -13.58908        -4.60274
| 74>    C      -12.40723       -12.18392        -4.30446
| 75>    C      -13.78287       -11.81563        -4.06575
| 76>    O      -14.32224       -10.76701        -3.78418
| 77>    N      -14.47443       -13.03258        -4.23765
| 78>    C      -13.63932       -14.06576        -4.55123
| 79>    H       14.93354         1.28600         0.24093
| 80>    H       13.28424         1.76927        -0.41217
| 81>    H       15.53971        -1.30387         0.26331
| 82>    H       14.50779        -3.57229        -0.37547
| 83>    H       13.13353        -5.33483        -1.11868
| 84>    H       11.25269        -6.80493        -2.07271
| 85>    H        8.81651        -6.56515        -3.15219
| 86>    H        7.98884        -3.73183        -3.11109
| 87>    H        6.76720        -7.29444        -3.90310
| 88>    H        3.78683        -4.25243        -5.38752
| 89>    H        6.97810        -2.50400        -4.40338
| 90>    H        5.57531        -0.76336        -4.25909
| 91>    H        3.34080        -2.82431        -3.81135
| 92>    H        4.20836         1.11307        -3.86804
| 93>    H       -3.34698         1.17869        -3.17814
| 94>    H       -2.54245        -2.76282        -3.45521
| 95>    H       -4.78296        -0.68894        -3.16842
| 96>    H       -3.86565        -4.34552        -3.63204
| 97>    H       -8.66506        -3.21552        -3.03290
| 98>    H       -6.95814        -1.44585        -2.98411
| 99>    H       -5.41578        -6.68822        -1.56840
|100>    H       -3.90445        -6.62810        -2.47393
|101>    H       -5.73839        -9.05241        -2.18749
|102>    H       -4.16538        -8.81254        -1.43676
|103>    H       -4.27178        -9.01996        -3.18006
|104>    H       -4.86106        -8.00015        -5.10704
|105>    H       -3.89519        -6.53475        -4.92658
|106>    H       -6.60880        -6.70133        -6.32807
|107>    H       -5.03829        -6.59662        -7.12744
|108>    H       -5.63227        -5.24149        -6.16634
|109>    H       -6.91400        -9.14036        -4.19220
|110>    H      -10.89718        -7.67385        -3.59958
|111>    H      -10.03711        -5.40741        -3.24515
|112>    H       -8.64117       -10.61846        -4.38482
|113>    H      -11.51914        -9.67426        -3.87816
|114>    H       -9.29213       -12.67173        -4.76560
|115>    H      -15.47416       -13.10776        -4.13650
|116>    H      -14.01551       -15.05857        -4.71303
|117> *
|118>
|119>                          ****END OF INPUT****

CARTESIAN COORDINATES (ANGSTROEM)
---------------------------------
  C     13.990080    0.991980   -0.183890
  C     13.718940   -0.298960   -0.414980
  C     14.560280   -1.434310   -0.161850
  C     14.015840   -2.623390   -0.498110
  C     12.704080   -2.536650   -1.043970
  S     12.189700   -0.856440   -1.111700
  C     11.908920   -3.565650   -1.474250
  C     12.196200   -4.956670   -1.484940
  C     11.205830   -5.733650   -1.987990
  C     10.056120   -5.014570   -2.414080
  S     10.305550   -3.280430   -2.129090
  C      8.920280   -5.507570   -2.971520
  N      7.884900   -4.710450   -3.345750
  C      6.700730   -5.096670   -3.931140
  C      6.275400   -6.376690   -4.148830
  S      4.728110   -6.428160   -4.892960
  C      4.638630   -4.717510   -4.936940
  C      5.742280   -4.125610   -4.394450
  N      6.006620   -2.763550   -4.311160
  C      5.118890   -1.739820   -4.174430
  C      3.794000   -1.852080   -3.928690
  C      2.912960   -0.751250   -3.795540
  C      3.224680    0.684470   -3.782600
  N      2.192740    1.460860   -3.636680
  C      1.112310    0.621620   -3.548010
  C      1.543230   -0.776540   -3.636810
  C      0.405130   -1.649120   -3.576330
  S      0.383520   -3.294890   -3.671980
  C     -0.717830   -0.755760   -3.442520
  C     -0.253150    0.636000   -3.423660
  N     -1.314820    1.492790   -3.311490
  C     -2.371120    0.734650   -3.269390
  C     -2.092100   -0.704240   -3.354420
  C     -3.006880   -1.790610   -3.364000
  C     -4.350170   -1.675600   -3.274290
  C     -5.295780   -2.762290   -3.302560
  C     -4.906630   -4.098000   -3.497600
  C     -5.860100   -5.083340   -3.531970
  C     -7.221990   -4.776010   -3.364970
  C     -7.621760   -3.461460   -3.162860
  C     -6.660060   -2.473600   -3.136450
  C     -7.984360   -5.998270   -3.480060
  C     -7.094870   -7.062880   -3.719380
  C     -5.664560   -6.574890   -3.701930
  C     -4.900860   -7.074470   -2.452240
  C     -4.765620   -8.585080   -2.315110
  C     -4.915580   -6.916160   -4.998530
  C     -5.591870   -6.326550   -6.231130
  C     -7.581500   -8.324380   -3.956520
  C     -8.966030   -8.566640   -3.911660
  C     -9.833700   -7.499040   -3.636770
  C     -9.354530   -6.222610   -3.432720
  C     -9.427520   -9.908960   -4.154150
  C    -10.705930  -10.345480   -4.110720
  C    -11.121420  -11.683680   -4.347340
  N    -10.291800  -12.739610   -4.664670
  C    -10.974670  -13.950300   -4.838620
  O    -10.434940  -14.994660   -5.119070
  C    -12.364200  -13.589080   -4.602740
  C    -12.407230  -12.183920   -4.304460
  C    -13.782870  -11.815630   -4.065750
  O    -14.322240  -10.767010   -3.784180
  N    -14.474430  -13.032580   -4.237650
  C    -13.639320  -14.065760   -4.551230
  H     14.933540    1.286000    0.240930
  H     13.284240    1.769270   -0.412170
  H     15.539710   -1.303870    0.263310
  H     14.507790   -3.572290   -0.375470
  H     13.133530   -5.334830   -1.118680
  H     11.252690   -6.804930   -2.072710
  H      8.816510   -6.565150   -3.152190
  H      7.988840   -3.731830   -3.111090
  H      6.767200   -7.294440   -3.903100
  H      3.786830   -4.252430   -5.387520
  H      6.978100   -2.504000   -4.403380
  H      5.575310   -0.763360   -4.259090
  H      3.340800   -2.824310   -3.811350
  H      4.208360    1.113070   -3.868040
  H     -3.346980    1.178690   -3.178140
  H     -2.542450   -2.762820   -3.455210
  H     -4.782960   -0.688940   -3.168420
  H     -3.865650   -4.345520   -3.632040
  H     -8.665060   -3.215520   -3.032900
  H     -6.958140   -1.445850   -2.984110
  H     -5.415780   -6.688220   -1.568400
  H     -3.904450   -6.628100   -2.473930
  H     -5.738390   -9.052410   -2.187490
  H     -4.165380   -8.812540   -1.436760
  H     -4.271780   -9.019960   -3.180060
  H     -4.861060   -8.000150   -5.107040
  H     -3.895190   -6.534750   -4.926580
  H     -6.608800   -6.701330   -6.328070
  H     -5.038290   -6.596620   -7.127440
  H     -5.632270   -5.241490   -6.166340
  H     -6.914000   -9.140360   -4.192200
  H    -10.897180   -7.673850   -3.599580
  H    -10.037110   -5.407410   -3.245150
  H     -8.641170  -10.618460   -4.384820
  H    -11.519140   -9.674260   -3.878160
  H     -9.292130  -12.671730   -4.765600
  H    -15.474160  -13.107760   -4.136500
  H    -14.015510  -15.058570   -4.713030

 Total Charge           Charge          ....    0
 Multiplicity           Mult            ....    1
 Number of Electrons    NEL             ....  472
 Basis Dimension        Dim             .... 1102

ORBITAL ENERGIES
----------------

  NO   OCC          E(Eh)            E(eV)
   0   2.0000     -88.956618     -2420.6326
   1   2.0000     -88.941804     -2420.2295
   2   2.0000     -88.929394     -2419.8918
   3   2.0000     -88.884145     -2418.6606
   4   2.0000     -19.179145      -521.8911
   5   2.0000     -19.178646      -521.8775
   6   2.0000     -14.469839      -393.7443
   7   2.0000     -14.464146      -393.5894
   8   2.0000     -14.447662      -393.1409
   9   2.0000     -14.444458      -393.0537
  10   2.0000     -14.407535      -392.0490
  11   2.0000     -14.403330      -391.9345
  12   2.0000     -10.370418      -282.1934
  13   2.0000     -10.368048      -282.1289
  14   2.0000     -10.335882      -281.2537
  15   2.0000     -10.335401      -281.2405
  16   2.0000     -10.328635      -281.0564
  17   2.0000     -10.327817      -281.0342
  18   2.0000     -10.327034      -281.0129
  19   2.0000     -10.325592      -280.9737
  20   2.0000     -10.325565      -280.9729
  21   2.0000     -10.325442      -280.9695
  22   2.0000     -10.319871      -280.8180
  23   2.0000     -10.315147      -280.6894
  24   2.0000     -10.311588      -280.5926
  25   2.0000     -10.306111      -280.4435
  26   2.0000     -10.298195      -280.2281
  27   2.0000     -10.298185      -280.2279
  28   2.0000     -10.297822      -280.2180
  29   2.0000     -10.295559      -280.1564
  30   2.0000     -10.295298      -280.1493
  31   2.0000     -10.294931      -280.1393
  32   2.0000     -10.290819      -280.0274
  33   2.0000     -10.290198      -280.0105
  34   2.0000     -10.285067      -279.8709
  35   2.0000     -10.284644      -279.8594
  36   2.0000     -10.283961      -279.8408
  37   2.0000     -10.282416      -279.7988
  38   2.0000     -10.281847      -279.7833
  39   2.0000     -10.280787      -279.7544
  40   2.0000     -10.280727      -279.7528
  41   2.0000     -10.279297      -279.7139
  42   2.0000     -10.277217      -279.6573
  43   2.0000     -10.276861      -279.6476
  44   2.0000     -10.276217      -279.6301
  45   2.0000     -10.275744      -279.6172
  46   2.0000     -10.275463      -279.6096
  47   2.0000     -10.275110      -279.6000
  48   2.0000     -10.274651      -279.5875
  49   2.0000     -10.274226      -279.5759
  50   2.0000     -10.273743      -279.5628
  51   2.0000     -10.273084      -279.5448
  52   2.0000     -10.272752      -279.5358
  53   2.0000     -10.270905      -279.4855
  54   2.0000     -10.270337      -279.4701
  55   2.0000     -10.269043      -279.4349
  56   2.0000     -10.268423      -279.4180
  57   2.0000     -10.264565      -279.3130
  58   2.0000     -10.264065      -279.2994
  59   2.0000     -10.259358      -279.1713
  60   2.0000     -10.255830      -279.0753
  61   2.0000     -10.255059      -279.0544
  62   2.0000     -10.253056      -278.9998
  63   2.0000     -10.247359      -278.8448
  64   2.0000      -8.052582      -219.1219
  65   2.0000      -8.038085      -218.7274
  66   2.0000      -8.026085      -218.4009
  67   2.0000      -7.979569      -217.1351
  68   2.0000      -6.022062      -163.8686
  69   2.0000      -6.017702      -163.7500
  70   2.0000      -6.014525      -163.6635
  71   2.0000      -6.007956      -163.4848
  72   2.0000      -6.004156      -163.3814
  73   2.0000      -5.998620      -163.2308
  74   2.0000      -5.995942      -163.1579
  75   2.0000      -5.992122      -163.0539
  76   2.0000      -5.986498      -162.9009
  77   2.0000      -5.948481      -161.8664
  78   2.0000      -5.947625      -161.8431
  79   2.0000      -5.939377      -161.6187
  80   2.0000      -1.121363       -30.5138
  81   2.0000      -1.114316       -30.3221
  82   2.0000      -1.080328       -29.3972
  83   2.0000      -1.069292       -29.0969
  84   2.0000      -1.053252       -28.6605
  85   2.0000      -1.051069       -28.6010
  86   2.0000      -1.050597       -28.5882
  87   2.0000      -1.037814       -28.2404
  88   2.0000      -0.990823       -26.9617
  89   2.0000      -0.985179       -26.8081
  90   2.0000      -0.973881       -26.5007
  91   2.0000      -0.958646       -26.0861
  92   2.0000      -0.951663       -25.8961
  93   2.0000      -0.947378       -25.7795
  94   2.0000      -0.927012       -25.2253
  95   2.0000      -0.901322       -24.5262
  96   2.0000      -0.899672       -24.4813
  97   2.0000      -0.897384       -24.4191
  98   2.0000      -0.883110       -24.0306
  99   2.0000      -0.880368       -23.9560
 100   2.0000      -0.871533       -23.7156
 101   2.0000      -0.854907       -23.2632
 102   2.0000      -0.845320       -23.0023
 103   2.0000      -0.841241       -22.8913
 104   2.0000      -0.838401       -22.8141
 105   2.0000      -0.838277       -22.8107
 106   2.0000      -0.837056       -22.7774
 107   2.0000      -0.833497       -22.6806
 108   2.0000      -0.830828       -22.6080
 109   2.0000      -0.814749       -22.1705
 110   2.0000      -0.812046       -22.0969
 111   2.0000      -0.808630       -22.0039
 112   2.0000      -0.803808       -21.8727
 113   2.0000      -0.791675       -21.5426
 114   2.0000      -0.772812       -21.0293
 115   2.0000      -0.768050       -20.8997
 116   2.0000      -0.766559       -20.8591
 117   2.0000      -0.757374       -20.6092
 118   2.0000      -0.753013       -20.4905
 119   2.0000      -0.736162       -20.0320
 120   2.0000      -0.726952       -19.7814
 121   2.0000      -0.723953       -19.6998
 122   2.0000      -0.712375       -19.3847
 123   2.0000      -0.708092       -19.2682
 124   2.0000      -0.693910       -18.8822
 125   2.0000      -0.691245       -18.8097
 126   2.0000      -0.685641       -18.6573
 127   2.0000      -0.683796       -18.6070
 128   2.0000      -0.682488       -18.5715
 129   2.0000      -0.675960       -18.3938
 130   2.0000      -0.666209       -18.1285
 131   2.0000      -0.663281       -18.0488
 132   2.0000      -0.659547       -17.9472
 133   2.0000      -0.651935       -17.7401
 134   2.0000      -0.649281       -17.6678
 135   2.0000      -0.641014       -17.4429
 136   2.0000      -0.635366       -17.2892
 137   2.0000      -0.624996       -17.0070
 138   2.0000      -0.615862       -16.7585
 139   2.0000      -0.615304       -16.7433
 140   2.0000      -0.609171       -16.5764
 141   2.0000      -0.607180       -16.5222
 142   2.0000      -0.599322       -16.3084
 143   2.0000      -0.596085       -16.2203
 144   2.0000      -0.592252       -16.1160
 145   2.0000      -0.591510       -16.0958
 146   2.0000      -0.586454       -15.9582
 147   2.0000      -0.582329       -15.8460
 148   2.0000      -0.576930       -15.6991
 149   2.0000      -0.572102       -15.5677
 150   2.0000      -0.559682       -15.2297
 151   2.0000      -0.557728       -15.1765
 152   2.0000      -0.552764       -15.0415
 153   2.0000      -0.546517       -14.8715
 154   2.0000      -0.543442       -14.7878
 155   2.0000      -0.542611       -14.7652
 156   2.0000      -0.542311       -14.7570
 157   2.0000      -0.536215       -14.5912
 158   2.0000      -0.532854       -14.4997
 159   2.0000      -0.530932       -14.4474
 160   2.0000      -0.529320       -14.4035
 161   2.0000      -0.525797       -14.3077
 162   2.0000      -0.521561       -14.1924
 163   2.0000      -0.520814       -14.1721
 164   2.0000      -0.518987       -14.1224
 165   2.0000      -0.517109       -14.0713
 166   2.0000      -0.515362       -14.0237
 167   2.0000      -0.512061       -13.9339
 168   2.0000      -0.505527       -13.7561
 169   2.0000      -0.503550       -13.7023
 170   2.0000      -0.500777       -13.6268
 171   2.0000      -0.500298       -13.6138
 172   2.0000      -0.498953       -13.5772
 173   2.0000      -0.494329       -13.4514
 174   2.0000      -0.492801       -13.4098
 175   2.0000      -0.490554       -13.3486
 176   2.0000      -0.487966       -13.2782
 177   2.0000      -0.484762       -13.1911
 178   2.0000      -0.483515       -13.1571
 179   2.0000      -0.481418       -13.1000
 180   2.0000      -0.480028       -13.0622
 181   2.0000      -0.478027       -13.0078
 182   2.0000      -0.476694       -12.9715
 183   2.0000      -0.474350       -12.9077
 184   2.0000      -0.468988       -12.7618
 185   2.0000      -0.468921       -12.7600
 186   2.0000      -0.460197       -12.5226
 187   2.0000      -0.458745       -12.4831
 188   2.0000      -0.458164       -12.4673
 189   2.0000      -0.454959       -12.3801
 190   2.0000      -0.454078       -12.3561
 191   2.0000      -0.452601       -12.3159
 192   2.0000      -0.450948       -12.2709
 193   2.0000      -0.448248       -12.1974
 194   2.0000      -0.442694       -12.0463
 195   2.0000      -0.440336       -11.9821
 196   2.0000      -0.434805       -11.8317
 197   2.0000      -0.432028       -11.7561
 198   2.0000      -0.431948       -11.7539
 199   2.0000      -0.429982       -11.7004
 200   2.0000      -0.425303       -11.5731
 201   2.0000      -0.424669       -11.5558
 202   2.0000      -0.424603       -11.5540
 203   2.0000      -0.422036       -11.4842
 204   2.0000      -0.416664       -11.3380
 205   2.0000      -0.414710       -11.2848
 206   2.0000      -0.412829       -11.2336
 207   2.0000      -0.407198       -11.0804
 208   2.0000      -0.403247       -10.9729
 209   2.0000      -0.393155       -10.6983
 210   2.0000      -0.393103       -10.6969
 211   2.0000      -0.387775       -10.5519
 212   2.0000      -0.381067       -10.3694
 213   2.0000      -0.376388       -10.2420
 214   2.0000      -0.375080       -10.2065
 215   2.0000      -0.370509       -10.0821
 216   2.0000      -0.344382        -9.3711
 217   2.0000      -0.340074        -9.2539
 218   2.0000      -0.339774        -9.2457
 219   2.0000      -0.338732        -9.2174
 220   2.0000      -0.334131        -9.0922
 221   2.0000      -0.328534        -8.9399
 222   2.0000      -0.326228        -8.8771
 223   2.0000      -0.324681        -8.8350
 224   2.0000      -0.319686        -8.6991
 225   2.0000      -0.317128        -8.6295
 226   2.0000      -0.314738        -8.5645
 227   2.0000      -0.312397        -8.5008
 228   2.0000      -0.305073        -8.3015
 229   2.0000      -0.295471        -8.0402
 230   2.0000      -0.278267        -7.5720
 231   2.0000      -0.274840        -7.4788
 232   2.0000      -0.260789        -7.0964
 233   2.0000      -0.249959        -6.8017
 234   2.0000      -0.239022        -6.5041
 235   2.0000      -0.209863        -5.7107
 236   0.0000      -0.096914        -2.6372
 237   0.0000      -0.071955        -1.9580
 238   0.0000      -0.062053        -1.6886
 239   0.0000      -0.046640        -1.2691
 240   0.0000      -0.015562        -0.4235

MULLIKEN ATOMIC CHARGES
-----------------------
   0 C :   -0.038341
   1 C :   -0.059209
   2 C :    0.048272
   3 C :    0.026855
   4 C :   -0.069883
   5 S :    0.057365
   6 C :   -0.042023
   7 C :    0.017940
   8 C :    0.046110
   9 C :   -0.051447
  10 S :    0.012819
  11 C :    0.036681
  12 N :   -0.056894
  13 C :    0.134170
  14 C :   -0.222266
  15 S :    0.128814
  16 C :   -0.169251
  17 C :    0.113860
  18 N :   -0.062797
  19 C :    0.064840
  20 C :   -0.073599
  21 C :    0.010613
  22 C :    0.045262
  23 N :   -0.027660
  24 C :    0.003894
  25 C :   -0.019775
  26 C :    0.006541
  27 S :   -0.174979
  28 C :   -0.008038
  29 C :   -0.001805
  30 N :   -0.029252
  31 C :    0.045137
  32 C :    0.008182
  33 C :   -0.008467
  34 C :   -0.003854
  35 C :    0.121431
  36 C :   -0.086282
  37 C :    0.014655
  38 C :    0.100919
  39 C :   -0.041832
  40 C :   -0.018500
  41 C :    0.099572
  42 C :    0.027042
  43 C :   -0.133006
  44 C :    0.081574
  45 C :    0.028940
  46 C :    0.047526
  47 C :    0.026188
  48 C :   -0.104719
  49 C :    0.111028
  50 C :   -0.007808
  51 C :   -0.043033
  52 C :    0.002947
  53 C :    0.035049
  54 C :    0.065001
  55 N :   -0.133531
  56 C :    0.148389
  57 O :   -0.171099
  58 C :   -0.045749
  59 C :   -0.096672
  60 C :    0.135313
  61 O :   -0.179813
  62 N :   -0.132355
  63 C :    0.047383
  64 H :    0.015131
  65 H :    0.016621
  66 H :   -0.017027
  67 H :   -0.015322
  68 H :   -0.019153
  69 H :   -0.015408
  70 H :    0.006105
  71 H :    0.114361
  72 H :    0.013891
  73 H :    0.032639
  74 H :    0.131397
  75 H :    0.008125
  76 H :    0.006067
  77 H :   -0.000632
  78 H :    0.002021
  79 H :   -0.006613
  80 H :   -0.026472
  81 H :   -0.029170
  82 H :   -0.032918
  83 H :   -0.026853
  84 H :    0.005467
  85 H :    0.001111
  86 H :    0.017608
  87 H :    0.014794
  88 H :    0.003415
  89 H :    0.004766
  90 H :    0.004570
  91 H :    0.018114
  92 H :    0.010493
  93 H :    0.023142
  94 H :   -0.037271
  95 H :   -0.014994
  96 H :   -0.030844
  97 H :   -0.036978
  98 H :    0.002922
  99 H :    0.124055
 100 H :    0.128955
 101 H :    0.017517
Sum of atomic charges:   -0.0000000

LOEWDIN ATOMIC CHARGES
----------------------
   0 C :   -0.090291
   1 C :   -0.137410
   2 C :   -0.040262
   3 C :   -0.025869
   4 C :   -0.192062
   5 S :    0.332412
   6 C :   -0.170601
   7 C :   -0.050888
   8 C :   -0.027242
   9 C :   -0.198157
  10 S :    0.318144
  11 C :    0.009746
  12 N :    0.026352
  13 C :   -0.023380
  14 C :   -0.242690
  15 S :    0.450867
  16 C :   -0.200550
  17 C :   -0.039805
  18 N :    0.029092
  19 C :    0.053276
  20 C :   -0.097878
  21 C :   -0.020577
  22 C :    0.076024
  23 N :   -0.077271
  24 C :    0.037143
  25 C :   -0.071576
  26 C :   -0.133329
  27 S :   -0.000315
  28 C :   -0.044772
  29 C :    0.023751
  30 N :   -0.080361
  31 C :    0.075295
  32 C :   -0.033824
  33 C :   -0.020682
  34 C :    0.000792
  35 C :   -0.025049
  36 C :   -0.009708
  37 C :    0.008750
  38 C :   -0.015836
  39 C :   -0.017821
  40 C :   -0.014910
  41 C :   -0.007799
  42 C :    0.003282
  43 C :   -0.034895
  44 C :   -0.008515
  45 C :   -0.059172
  46 C :   -0.015474
  47 C :   -0.056511
  48 C :   -0.015092
  49 C :   -0.032581
  50 C :   -0.003216
  51 C :   -0.015305
  52 C :    0.009949
  53 C :   -0.037306
  54 C :    0.079712
  55 N :    0.016241
  56 C :    0.077270
  57 O :   -0.190355
  58 C :   -0.131948
  59 C :   -0.128497
  60 C :    0.070252
  61 O :   -0.200260
  62 N :    0.021877
  63 C :    0.087649
  64 H :    0.026539
  65 H :    0.023889
  66 H :    0.031305
  67 H :    0.030896
  68 H :    0.030009
  69 H :    0.032144
  70 H :    0.034264
  71 H :    0.066007
  72 H :    0.019419
  73 H :    0.028939
  74 H :    0.083133
  75 H :    0.028645
  76 H :    0.030723
  77 H :    0.019069
  78 H :    0.020548
  79 H :    0.026801
  80 H :    0.025632
  81 H :    0.027861
  82 H :    0.027842
  83 H :    0.026589
  84 H :    0.026951
  85 H :    0.022390
  86 H :    0.022895
  87 H :    0.028845
  88 H :    0.019805
  89 H :    0.019113
  90 H :    0.022781
  91 H :    0.024523
  92 H :    0.024632
  93 H :    0.025908
  94 H :    0.023728
  95 H :    0.031302
  96 H :    0.029239
  97 H :    0.023309
  98 H :    0.042439
  99 H :    0.082717
 100 H :    0.087915
 101 H :    0.033425

  Mayer bond orders larger than 0.100000
B(  0-C ,  1-C ) :   1.8664 B(  0-C , 64-H ) :   0.9498 B(  0-C , 65-H ) :   0.9417
B(  1-C ,  2-C ) :   1.0815 B(  1-C ,  5-S ) :   1.0087 B(  2-C ,  3-C ) :   1.6636
B(  2-C , 66-H ) :   0.9921 B(  3-C ,  4-C ) :   1.1501 B(  3-C , 67-H ) :   0.9919
B(  4-C ,  5-S ) :   1.0263 B(  4-C ,  6-C ) :   1.5832 B(  6-C ,  7-C ) :   1.1611
B(  6-C , 10-S ) :   1.0353 B(  7-C ,  8-C ) :   1.6374 B(  7-C , 68-H ) :   0.9903
B(  8-C ,  9-C ) :   1.1405 B(  8-C , 69-H ) :   0.9931 B(  9-C , 10-S ) :   0.9895
B(  9-C , 11-C ) :   1.6175 B( 11-C , 12-N ) :   1.1631 B( 11-C , 70-H ) :   0.9680
B( 12-N , 13-C ) :   1.1322 B( 12-N , 71-H ) :   0.9069 B( 13-C , 14-C ) :   1.5143
B( 13-C , 17-C ) :   1.2523 B( 14-C , 15-S ) :   1.1375 B( 14-C , 72-H ) :   0.9765
B( 15-S , 16-C ) :   1.1738 B( 16-C , 17-C ) :   1.5348 B( 16-C , 73-H ) :   0.9746
B( 17-C , 18-N ) :   1.0521 B( 18-N , 19-C ) :   1.1981 B( 18-N , 74-H ) :   0.9189
B( 19-C , 20-C ) :   1.6077 B( 19-C , 75-H ) :   0.9610 B( 20-C , 21-C ) :   1.1708
B( 20-C , 76-H ) :   0.9550 B( 21-C , 22-C ) :   0.9990 B( 21-C , 25-C ) :   1.4925
B( 22-C , 23-N ) :   1.7517 B( 22-C , 77-H ) :   0.9876 B( 23-N , 24-C ) :   1.2406
B( 24-C , 25-C ) :   1.0825 B( 24-C , 29-C ) :   1.5365 B( 25-C , 26-C ) :   1.0585
B( 26-C , 27-S ) :   1.6511 B( 26-C , 28-C ) :   1.0377 B( 28-C , 29-C ) :   1.0826
B( 28-C , 32-C ) :   1.5030 B( 29-C , 30-N ) :   1.2509 B( 30-N , 31-C ) :   1.7443
B( 31-C , 32-C ) :   1.0081 B( 31-C , 78-H ) :   0.9897 B( 32-C , 33-C ) :   1.1116
B( 33-C , 34-C ) :   1.6492 B( 33-C , 79-H ) :   0.9632 B( 34-C , 35-C ) :   1.0709
B( 34-C , 80-H ) :   0.9852 B( 35-C , 36-C ) :   1.2986 B( 35-C , 40-C ) :   1.3289
B( 36-C , 37-C ) :   1.4114 B( 36-C , 81-H ) :   0.9996 B( 37-C , 38-C ) :   1.3594
B( 37-C , 43-C ) :   0.9277 B( 38-C , 39-C ) :   1.3410 B( 38-C , 41-C ) :   1.0015
B( 39-C , 40-C ) :   1.3794 B( 39-C , 82-H ) :   0.9908 B( 40-C , 83-H ) :   0.9939
B( 41-C , 42-C ) :   1.3841 B( 41-C , 51-C ) :   1.3228 B( 42-C , 43-C ) :   0.9153
B( 42-C , 48-C ) :   1.3903 B( 43-C , 44-C ) :   1.0145 B( 43-C , 46-C ) :   1.0313
B( 44-C , 45-C ) :   1.1147 B( 44-C , 84-H ) :   0.9390 B( 44-C , 85-H ) :   0.9366
B( 45-C , 86-H ) :   0.9604 B( 45-C , 87-H ) :   0.9598 B( 45-C , 88-H ) :   0.9631
B( 46-C , 47-C ) :   1.1058 B( 46-C , 89-H ) :   0.9380 B( 46-C , 90-H ) :   0.9395
B( 47-C , 91-H ) :   0.9645 B( 47-C , 92-H ) :   0.9646 B( 47-C , 93-H ) :   0.9629
B( 48-C , 49-C ) :   1.2754 B( 48-C , 94-H ) :   1.0032 B( 49-C , 50-C ) :   1.3404
B( 49-C , 52-C ) :   1.0806 B( 50-C , 51-C ) :   1.4054 B( 50-C , 95-H ) :   0.9865
B( 51-C , 96-H ) :   0.9900 B( 52-C , 53-C ) :   1.6039 B( 52-C , 97-H ) :   0.9876
B( 53-C , 54-C ) :   1.1756 B( 53-C , 98-H ) :   0.9496 B( 54-C , 55-N ) :   1.1906
B( 54-C , 59-C ) :   1.3951 B( 55-N , 56-C ) :   1.0457 B( 55-N , 99-H ) :   0.9204
B( 56-C , 57-O ) :   2.2417 B( 56-C , 58-C ) :   0.9343 B( 58-C , 59-C ) :   1.1874
B( 58-C , 63-C ) :   1.5202 B( 59-C , 60-C ) :   0.9773 B( 60-C , 61-O ) :   2.2023
B( 60-C , 62-N ) :   1.0528 B( 62-N , 63-C ) :   1.1979 B( 62-N ,100-H ) :   0.9294
B( 63-C ,101-H ) :   0.9832

-----------------------------------------------------------------------------
         ABSORPTION SPECTRUM VIA TRANSITION ELECTRIC DIPOLE MOMENTS
-----------------------------------------------------------------------------
State   Energy  Wavelength   fosc         T2         TX        TY        TZ
        (cm-1)    (nm)                  (au**2)     (au)      (au)      (au)
-----------------------------------------------------------------------------
   0   14272.4    700.7   0.145401772   3.35390   1.82853  -0.09865  -0.02551
   1   15655.4    638.8   0.113401065   2.38467  -1.52444  -0.21710   0.11665
   2   17345.1    576.5   0.000326527   0.00620   0.06066   0.03778   0.03301
   3   17667.6    566.0   0.299320126   5.57742   1.99669   1.26072   0.03524
   4   19622.1    509.6   0.003458869   0.05803  -0.23796  -0.00193  -0.03747
   5   20099.5    497.5   0.307182231   5.03138   2.19528   0.37522   0.26712
   6   21468.4    465.8   2.385078864  36.57459   4.98075   3.24388   1.11534
   7   21845.3    457.8   0.153452847   2.31255  -1.12356  -0.45259   0.91942
   8   22736.5    439.8   0.262605266   3.80238   0.17520   1.81309   0.69597
   9   24260.4    412.2   0.021135169   0.28680   0.40659   0.34854  -0.00126
  10   24609.3    406.4   0.083860591   1.12185  -0.04813  -1.02240  -0.27247
  11   25884.6    386.3   0.295044565   3.75251  -1.90318  -0.28771   0.21826
  12   26482.6    377.6   0.001044295   0.01298   0.10354   0.02526  -0.04030
  13   26571.0    376.3   0.019970256   0.24743  -0.47834  -0.07335  -0.11507
  14   27211.9    367.5   0.018475886   0.22352   0.44413   0.15221   0.05572
  15   28177.9    354.9   0.162755762   1.90153  -0.34314  -1.32463  -0.17071
  16   28523.2    350.6   0.120497232   1.39077   0.34453  -1.09752  -0.25986
  17   30403.5    328.9   0.001045493   0.01132   0.00816   0.10384   0.02169
  18   30580.9    327.0   0.026932132   0.28993  -0.23203  -0.48507  -0.02831
  19   30810.1    324.6   0.000623293   0.00666   0.00184   0.03253   0.07482
  20   30891.4    323.7   0.088423672   0.94234   0.18961  -0.93518  -0.17841
  21   31539.7    317.1   0.046655813   0.48699  -0.16273   0.67794  -0.03011
  22   32185.0    310.7   0.013185251   0.13487  -0.10215   0.29675   0.19072
  23   32391.7    308.7   0.065727815   0.66802  -0.63839   0.49326   0.13107
  24   32893.4    304.0   0.123012419   1.23116   1.10578  -0.05022  -0.07681
  25   33427.0    299.2   0.006606752   0.06507   0.23753  -0.09276   0.00661
  26   33576.3    297.8   0.029278671   0.28707  -0.04344  -0.53351  -0.02352
  27   33776.3    296.1   0.132708122   1.29348   1.08281  -0.27480  -0.21328
  28   34552.1    289.4   0.030043015   0.28625   0.14575   0.49684   0.13475
  29   34604.5    289.0   0.014822819   0.14102  -0.26629   0.22334  -0.14222
  30   35346.3    282.9   0.057975352   0.53998   0.57771   0.43524   0.12959
  31   35568.5    281.1   0.140109420   1.29681   0.71483  -0.85373   0.23871
  32   35594.7    280.9   0.037266227   0.34467  -0.35745   0.44567  -0.13520
  33   36185.5    276.4   0.054970603   0.50012  -0.25348  -0.64195  -0.15415
  34   36505.4    273.9   0.409248742   3.69068   0.28206   1.88959   0.20144
  35   36536.6    273.7   0.008537796   0.07693  -0.05435   0.26565   0.05838
  36   36665.1    272.7   0.008587318   0.07710   0.17355  -0.21668   0.00588
  37   36738.1    272.2   0.113918723   1.02083   0.81013  -0.60173  -0.04930
  38   36915.0    270.9   0.020317853   0.18120   0.34744  -0.24181   0.04482
  39   37083.7    269.7   0.032458198   0.28815  -0.42335  -0.31472  -0.09937
  40   37290.6    268.2   0.000117291   0.00104   0.02411  -0.01893   0.00979
  41   37557.8    266.3   0.013304711   0.11662  -0.17217  -0.29288   0.03464
  42   37885.1    264.0   0.030425009   0.26439  -0.14286  -0.46313  -0.17171
  43   38261.5    261.4   0.076240866   0.65600   0.78397  -0.05923  -0.19462
  44   38317.6    261.0   0.208295527   1.78961   1.29442   0.25574  -0.22061
  45   39153.0    255.4   0.005189199   0.04363  -0.02223  -0.20768   0.00247
  46   39592.3    252.6   0.007596465   0.06317  -0.22793  -0.00838  -0.10557
  47   39713.4    251.8   0.050495535   0.41859  -0.36744  -0.52908  -0.06049
  48   40094.9    249.4   0.005626659   0.04620   0.14240  -0.15884   0.02633
  49   40157.4    249.0   0.009289738   0.07616   0.15017  -0.21986   0.07259

FINAL SINGLE POINT ENERGY     -4072.381018824887

DIPOLE MOMENT
-------------
                                X             Y             Z
Electronic contribution:     22.89264      14.24538      -0.08127
Nuclear contribution   :    -20.87749     -15.17742      -0.05570
                        -----------------------------------------
Total Dipole Moment    :      2.01516      -0.93204      -0.13696
                        -----------------------------------------
Magnitude (a.u.)       :      2.22448
Magnitude (Debye)      :      5.65418

Rotational constants in cm-1:     0.001803     0.000219     0.000199
Rotational constants in MHz :    54.042504     6.552347     5.959502

                             ****ORCA TERMINATED NORMALLY****
TOTAL RUN TIME: 0 days 0 hours 8 minutes 33 seconds 753 msec
